Title t= 361.00000 step= 180500
29212
    1ASP      N    1   2.622   1.786   2.645
    1ASP    HT1    2   2.610   1.865   2.579
    1ASP    HT2    3   2.716   1.745   2.634
    1ASP    HT3    4   2.618   1.828   2.741
    1ASP     CA    5   2.515   1.691   2.625
    1ASP     HA    6   2.504   1.680   2.518
    1ASP     CB    7   2.541   1.556   2.700
    1ASP    HB1    8   2.443   1.506   2.717
    1ASP    HB2    9   2.594   1.562   2.797
    1ASP     CG   10   2.623   1.462   2.617
    1ASP    OD1   11   2.623   1.472   2.494
    1ASP    OD2   12   2.667   1.363   2.684
    1ASP      C   13   2.383   1.755   2.669
    1ASP      O   14   2.338   1.856   2.608
    2GLY      N   15   2.313   1.709   2.773
    2GLY     HN   16   2.330   1.627   2.826
    2GLY     CA   17   2.188   1.768   2.821
    2GLY    HA1   18   2.207   1.874   2.819
    2GLY    HA2   19   2.175   1.717   2.915
    2GLY      C   20   2.065   1.731   2.743
    2GLY      O   21   2.062   1.705   2.623
    3ASP      N   22   1.955   1.721   2.820
    3ASP     HN   23   1.953   1.739   2.917
    3ASP     CA   24   1.823   1.699   2.764
    3ASP     HA   25   1.836   1.619   2.694
    3ASP     CB   26   1.715   1.662   2.866
    3ASP    HB1   27   1.613   1.662   2.822
    3ASP    HB2   28   1.713   1.734   2.951
    3ASP     CG   29   1.758   1.531   2.924
    3ASP    OD1   30   1.769   1.523   3.045
    3ASP    OD2   31   1.789   1.430   2.855
    3ASP      C   32   1.785   1.813   2.675
    3ASP      O   33   1.820   1.928   2.700
    4GLY      N   34   1.716   1.792   2.559
    4GLY     HN   35   1.698   1.696   2.538
    4GLY     CA   36   1.670   1.893   2.465
    4GLY    HA1   37   1.650   1.847   2.369
    4GLY    HA2   38   1.751   1.963   2.456
    4GLY      C   39   1.538   1.975   2.496
    4GLY      O   40   1.471   1.949   2.594
    5PRO      N   41   1.500   2.077   2.418
    5PRO     CD   42   1.584   2.129   2.305
    5PRO    HD1   43   1.600   2.067   2.215
    5PRO    HD2   44   1.682   2.155   2.350
    5PRO     CA   45   1.391   2.163   2.450
    5PRO     HA   46   1.382   2.177   2.557
    5PRO     CB   47   1.431   2.295   2.376
    5PRO    HB1   48   1.492   2.352   2.450
    5PRO    HB2   49   1.349   2.363   2.346
    5PRO     CG   50   1.512   2.249   2.255
    5PRO    HG1   51   1.442   2.222   2.173
    5PRO    HG2   52   1.570   2.340   2.229
    5PRO      C   53   1.253   2.105   2.399
    5PRO      O   54   1.217   2.141   2.290
    6GLY      N   55   1.185   2.026   2.482
    6GLY     HN   56   1.229   2.014   2.570
    6GLY     CA   57   1.051   1.972   2.476
    6GLY    HA1   58   1.060   1.864   2.484
    6GLY    HA2   59   0.996   2.002   2.388
    6GLY      C   60   0.992   2.025   2.598
    6GLY      O   61   1.055   2.098   2.678
    7ASP      N   62   0.859   2.002   2.613
    7ASP     HN   63   0.811   1.946   2.546
    7ASP     CA   64   0.778   2.057   2.719
    7ASP     HA   65   0.826   2.151   2.739
    7ASP     CB   66   0.625   2.063   2.676
    7ASP    HB1   67   0.556   2.087   2.759
    7ASP    HB2   68   0.600   1.961   2.640
    7ASP     CG   69   0.598   2.159   2.569
    7ASP    OD1   70   0.674   2.251   2.548
    7ASP    OD2   71   0.483   2.161   2.515
    7ASP      C   72   0.770   1.970   2.848
    7ASP      O   73   0.766   1.845   2.836
    8PRO      N   74   0.770   2.028   2.974
    8PRO     CD   75   0.777   2.172   3.008
    8PRO    HD1   76   0.688   2.225   2.967
    8PRO    HD2   77   0.871   2.222   2.977
    8PRO     CA   78   0.747   1.954   3.099
    8PRO     HA   79   0.843   1.924   3.140
    8PRO     CB   80   0.687   2.053   3.191
    8PRO    HB1   81   0.696   2.022   3.297
    8PRO    HB2   82   0.579   2.076   3.176
    8PRO     CG   83   0.771   2.180   3.158
    8PRO    HG1   84   0.724   2.270   3.202
    8PRO    HG2   85   0.873   2.175   3.203
    8PRO      C   86   0.658   1.829   3.107
    8PRO      O   87   0.565   1.805   3.028
    9GLY      N   88   0.680   1.743   3.210
    9GLY     HN   89   0.755   1.763   3.272
    9GLY     CA   90   0.590   1.633   3.229
    9GLY    HA1   91   0.594   1.578   3.136
    9GLY    HA2   92   0.498   1.686   3.247
    9GLY      C   93   0.633   1.536   3.342
    9GLY      O   94   0.744   1.545   3.403
   10ASP      N   95   0.542   1.439   3.372
   10ASP     HN   96   0.455   1.435   3.323
   10ASP     CA   97   0.552   1.329   3.468
   10ASP     HA   98   0.617   1.368   3.544
   10ASP     CB   99   0.401   1.299   3.513
   10ASP    HB1  100   0.393   1.212   3.582
   10ASP    HB2  101   0.344   1.282   3.419
   10ASP     CG  102   0.338   1.415   3.597
   10ASP    OD1  103   0.229   1.403   3.652
   10ASP    OD2  104   0.410   1.516   3.618
   10ASP      C  105   0.614   1.209   3.410
   10ASP      O  106   0.650   1.114   3.484
   11GLY      N  107   0.625   1.205   3.272
   11GLY     HN  108   0.573   1.279   3.229
   11GLY     CA  109   0.678   1.100   3.191
   11GLY    HA1  110   0.636   1.095   3.091
   11GLY    HA2  111   0.657   1.006   3.241
   11GLY      C  112   0.827   1.113   3.199
   11GLY    OT1  113   0.885   1.224   3.178
   11GLY    OT2  114   0.896   1.008   3.211
   12LIT    LIT  115   4.650   5.382   2.159
   13LIT    LIT  116   5.573   5.756   0.160
   14LIT    LIT  117   5.543   0.488   0.041
   15LIT    LIT  118   2.685   2.005   1.237
   16LIT    LIT  119   1.056   1.128   3.170
   17LIT    LIT  120   0.332   1.828   1.132
   18LIT    LIT  121   5.203   4.690   0.676
   19LIT    LIT  122   4.428   0.516   0.721
   20LIT    LIT  123   0.442   3.214   3.345
   21LIT    LIT  124   4.627   1.969   5.817
   22LIT    LIT  125   4.232   4.839   0.439
   23LIT    LIT  126   6.131   6.501   0.045
   24LIT    LIT  127   5.423   4.826   2.173
   25LIT    LIT  128   6.803   1.016   1.911
   26LIT    LIT  129   0.283   1.598   3.719
   27LIT    LIT  130   4.302   3.088   3.026
   28LIT    LIT  131   6.282   4.061   5.442
   29LIT    LIT  132   1.131   1.895   3.429
   30LIT    LIT  133   7.152   3.440   1.520
   31LIT    LIT  134   4.284   1.427   2.020
   32LIT    LIT  135   5.970   1.148   0.725
   33LIT    LIT  136   3.958   3.373   2.306
   34LIT    LIT  137   4.941   2.418   5.602
   35LIT    LIT  138   0.020   1.112   1.719
   36LIT    LIT  139   3.350   3.196   4.945
   37LIT    LIT  140   3.508   4.619   2.502
   38LIT    LIT  141   0.630   4.655   1.560
   39LIT    LIT  142   2.744   1.207   2.649
   40LIT    LIT  143   2.205   6.696   1.669
   41LIT    LIT  144   6.200   3.433   0.092
   42LIT    LIT  145   1.913   1.369   2.982
   43CLA    CLA  146   2.027   6.558   1.682
   44CLA    CLA  147   6.273   1.194   3.038
   45CLA    CLA  148   6.127   4.840   0.036
   46CLA    CLA  149   6.336   5.591   0.029
   47CLA    CLA  150   5.935   0.608   1.125
   48CLA    CLA  151   3.496   2.819   4.728
   49CLA    CLA  152   3.816   4.311   3.710
   50CLA    CLA  153   5.125   5.385   1.312
   51CLA    CLA  154   1.296   1.592   0.367
   52CLA    CLA  155   3.401   0.535   0.585
   53CLA    CLA  156   3.268   3.438   4.084
   54CLA    CLA  157   5.643   3.431   2.806
   55CLA    CLA  158   1.926   4.648   5.467
   56CLA    CLA  159   6.312   2.958   1.927
   57CLA    CLA  160   6.165   0.996   4.825
   58CLA    CLA  161   5.178   2.661   1.950
   59CLA    CLA  162   4.802   5.418   5.339
   60CLA    CLA  163   5.570   1.907   5.304
   61CLA    CLA  164   2.727   0.920   1.383
   62CLA    CLA  165   6.764   4.047   5.619
   63CLA    CLA  166   1.857   1.378   4.355
   64CLA    CLA  167   4.609   1.853   0.053
   65CLA    CLA  168   5.149   5.333   2.251
   66CLA    CLA  169   1.148   6.763   5.555
   67CLA    CLA  170   3.401   4.323   2.721
   68CLA    CLA  171   1.435   2.862   1.714
   69CLA    CLA  172   4.862   6.153   2.063
   70TIP3   OH2  173   1.013   3.661   2.345
   70TIP3    H1  174   1.013   3.689   2.436
   70TIP3    H2  175   0.922   3.643   2.324
   71TIP3   OH2  176   3.213   1.301   4.846
   71TIP3    H1  177   3.169   1.381   4.819
   71TIP3    H2  178   3.195   1.239   4.774
   72TIP3   OH2  179   5.669   5.291   0.903
   72TIP3    H1  180   5.686   5.262   0.993
   72TIP3    H2  181   5.580   5.263   0.885
   73TIP3   OH2  182   5.721   2.964   1.665
   73TIP3    H1  183   5.810   2.996   1.655
   73TIP3    H2  184   5.678   2.986   1.583
   74TIP3   OH2  185   4.973   4.517   3.974
   74TIP3    H1  186   4.981   4.589   3.911
   74TIP3    H2  187   5.054   4.466   3.963
   75TIP3   OH2  188   4.205   3.559   1.534
   75TIP3    H1  189   4.231   3.634   1.588
   75TIP3    H2  190   4.264   3.562   1.459
   76TIP3   OH2  191   0.648   0.884   5.676
   76TIP3    H1  192   0.702   0.841   5.609
   76TIP3    H2  193   0.563   0.839   5.671
   77TIP3   OH2  194   2.248   4.086   3.269
   77TIP3    H1  195   2.179   4.149   3.248
   77TIP3    H2  196   2.223   4.007   3.221
   78TIP3   OH2  197   4.142   6.742   5.349
   78TIP3    H1  198   4.223   6.695   5.326
   78TIP3    H2  199   4.073   6.678   5.334
   79TIP3   OH2  200   4.669   6.246   1.121
   79TIP3    H1  201   4.708   6.214   1.202
   79TIP3    H2  202   4.588   6.288   1.149
   80TIP3   OH2  203   2.903   0.050   5.486
   80TIP3    H1  204   2.927  -0.027   5.538
   80TIP3    H2  205   2.976   0.062   5.425
   81TIP3   OH2  206   6.478   3.002   3.980
   81TIP3    H1  207   6.397   2.982   3.934
   81TIP3    H2  208   6.489   3.097   3.968
   82TIP3   OH2  209   3.336   4.860   4.232
   82TIP3    H1  210   3.290   4.801   4.172
   82TIP3    H2  211   3.428   4.853   4.206
   83TIP3   OH2  212   5.594   6.268   1.004
   83TIP3    H1  213   5.522   6.226   1.052
   83TIP3    H2  214   5.588   6.232   0.916
   84TIP3   OH2  215   3.710   4.979   1.768
   84TIP3    H1  216   3.625   4.996   1.728
   84TIP3    H2  217   3.773   5.020   1.707
   85TIP3   OH2  218   4.401   1.696   2.557
   85TIP3    H1  219   4.324   1.745   2.528
   85TIP3    H2  220   4.453   1.683   2.478
   86TIP3   OH2  221   0.951   3.327   0.706
   86TIP3    H1  222   1.002   3.393   0.659
   86TIP3    H2  223   0.875   3.375   0.739
   87TIP3   OH2  224   4.228   2.855   2.667
   87TIP3    H1  225   4.275   2.802   2.602
   87TIP3    H2  226   4.172   2.793   2.713
   88TIP3   OH2  227   0.254   5.440   5.705
   88TIP3    H1  228   0.170   5.487   5.712
   88TIP3    H2  229   0.289   5.467   5.620
   89TIP3   OH2  230   4.705   5.272   3.118
   89TIP3    H1  231   4.622   5.230   3.137
   89TIP3    H2  232   4.686   5.333   3.047
   90TIP3   OH2  233   5.297   2.374   4.606
   90TIP3    H1  234   5.314   2.307   4.673
   90TIP3    H2  235   5.251   2.443   4.653
   91TIP3   OH2  236   0.334   2.646   3.001
   91TIP3    H1  237   0.408   2.586   2.988
   91TIP3    H2  238   0.258   2.589   3.007
   92TIP3   OH2  239   2.376   5.487   1.238
   92TIP3    H1  240   2.338   5.524   1.318
   92TIP3    H2  241   2.328   5.530   1.167
   93TIP3   OH2  242   6.049   3.745   4.794
   93TIP3    H1  243   5.999   3.759   4.714
   93TIP3    H2  244   6.080   3.655   4.789
   94TIP3   OH2  245   6.250   3.643   4.543
   94TIP3    H1  246   6.161   3.628   4.575
   94TIP3    H2  247   6.241   3.714   4.479
   95TIP3   OH2  248   1.005   1.514   0.352
   95TIP3    H1  249   0.988   1.502   0.445
   95TIP3    H2  250   1.096   1.545   0.348
   96TIP3   OH2  251   5.876   1.917   3.139
   96TIP3    H1  252   5.852   2.004   3.106
   96TIP3    H2  253   5.969   1.909   3.119
   97TIP3   OH2  254   0.299   5.715   0.063
   97TIP3    H1  255   0.255   5.716   0.148
   97TIP3    H2  256   0.369   5.651   0.072
   98TIP3   OH2  257   7.057   6.776   0.845
   98TIP3    H1  258   7.029   6.849   0.899
   98TIP3    H2  259   7.052   6.700   0.903
   99TIP3   OH2  260   6.459   3.954   1.916
   99TIP3    H1  261   6.530   4.018   1.922
   99TIP3    H2  262   6.496   3.881   1.868
  100TIP3   OH2  263   5.138   5.692   2.928
  100TIP3    H1  264   5.186   5.758   2.978
  100TIP3    H2  265   5.169   5.704   2.838
  101TIP3   OH2  266   2.563   4.374   3.935
  101TIP3    H1  267   2.485   4.395   3.883
  101TIP3    H2  268   2.578   4.453   3.988
  102TIP3   OH2  269   4.289   0.858   2.763
  102TIP3    H1  270   4.289   0.941   2.714
  102TIP3    H2  271   4.329   0.880   2.847
  103TIP3   OH2  272   5.744   6.229   3.086
  103TIP3    H1  273   5.748   6.274   3.001
  103TIP3    H2  274   5.654   6.242   3.116
  104TIP3   OH2  275   4.444   0.929   5.318
  104TIP3    H1  276   4.384   0.958   5.249
  104TIP3    H2  277   4.393   0.937   5.399
  105TIP3   OH2  278   6.608   5.276   0.729
  105TIP3    H1  279   6.620   5.184   0.753
  105TIP3    H2  280   6.646   5.283   0.641
  106TIP3   OH2  281   7.168   6.695   1.545
  106TIP3    H1  282   7.085   6.663   1.582
  106TIP3    H2  283   7.145   6.724   1.457
  107TIP3   OH2  284   0.202   5.982   2.237
  107TIP3    H1  285   0.185   6.005   2.145
  107TIP3    H2  286   0.131   6.023   2.286
  108TIP3   OH2  287   0.406   6.551   3.093
  108TIP3    H1  288   0.457   6.472   3.076
  108TIP3    H2  289   0.469   6.622   3.080
  109TIP3   OH2  290   0.044   5.978   1.192
  109TIP3    H1  291  -0.024   5.915   1.169
  109TIP3    H2  292   0.077   5.949   1.276
  110TIP3   OH2  293   1.798   0.407   2.301
  110TIP3    H1  294   1.734   0.360   2.248
  110TIP3    H2  295   1.872   0.423   2.243
  111TIP3   OH2  296   5.613   4.923   0.117
  111TIP3    H1  297   5.621   4.890   0.028
  111TIP3    H2  298   5.703   4.948   0.142
  112TIP3   OH2  299   0.897   0.882   5.218
  112TIP3    H1  300   0.920   0.943   5.147
  112TIP3    H2  301   0.802   0.874   5.212
  113TIP3   OH2  302   3.974   6.027   2.730
  113TIP3    H1  303   3.942   6.115   2.749
  113TIP3    H2  304   3.903   5.969   2.756
  114TIP3   OH2  305   0.136   1.548   0.652
  114TIP3    H1  306   0.148   1.643   0.651
  114TIP3    H2  307   0.161   1.519   0.565
  115TIP3   OH2  308   7.133   4.434   0.044
  115TIP3    H1  309   7.215   4.431  -0.006
  115TIP3    H2  310   7.069   4.466  -0.019
  116TIP3   OH2  311   4.358   3.243   3.978
  116TIP3    H1  312   4.278   3.211   3.937
  116TIP3    H2  313   4.429   3.197   3.933
  117TIP3   OH2  314   1.797   6.785   1.689
  117TIP3    H1  315   1.835   6.841   1.621
  117TIP3    H2  316   1.861   6.714   1.699
  118TIP3   OH2  317   6.260   2.852   2.942
  118TIP3    H1  318   6.213   2.847   2.859
  118TIP3    H2  319   6.201   2.813   3.006
  119TIP3   OH2  320   7.061   5.278   0.348
  119TIP3    H1  321   6.986   5.331   0.375
  119TIP3    H2  322   7.079   5.223   0.424
  120TIP3   OH2  323   3.845   0.925   1.299
  120TIP3    H1  324   3.776   0.896   1.240
  120TIP3    H2  325   3.801   0.935   1.384
  121TIP3   OH2  326   3.062   1.173   1.771
  121TIP3    H1  327   3.007   1.209   1.840
  121TIP3    H2  328   3.081   1.083   1.798
  122TIP3   OH2  329   2.922   0.607   2.336
  122TIP3    H1  330   2.998   0.548   2.334
  122TIP3    H2  331   2.957   0.691   2.307
  123TIP3   OH2  332   1.305   6.318   5.055
  123TIP3    H1  333   1.299   6.287   5.145
  123TIP3    H2  334   1.345   6.245   5.007
  124TIP3   OH2  335   6.488   0.682   4.880
  124TIP3    H1  336   6.415   0.619   4.879
  124TIP3    H2  337   6.566   0.629   4.891
  125TIP3   OH2  338   5.717   2.663   1.654
  125TIP3    H1  339   5.780   2.666   1.582
  125TIP3    H2  340   5.732   2.744   1.702
  126TIP3   OH2  341   2.778   2.324   1.745
  126TIP3    H1  342   2.758   2.301   1.654
  126TIP3    H2  343   2.872   2.344   1.744
  127TIP3   OH2  344   5.221   5.772   5.478
  127TIP3    H1  345   5.182   5.858   5.494
  127TIP3    H2  346   5.305   5.792   5.436
  128TIP3   OH2  347   1.822   0.211   5.664
  128TIP3    H1  348   1.853   0.256   5.743
  128TIP3    H2  349   1.821   0.119   5.688
  129TIP3   OH2  350   0.966   1.185   2.859
  129TIP3    H1  351   1.019   1.121   2.906
  129TIP3    H2  352   1.012   1.268   2.872
  130TIP3   OH2  353   4.814   0.142   0.101
  130TIP3    H1  354   4.867   0.165   0.177
  130TIP3    H2  355   4.743   0.207   0.102
  131TIP3   OH2  356   4.223   0.252   5.643
  131TIP3    H1  357   4.236   0.226   5.552
  131TIP3    H2  358   4.207   0.347   5.638
  132TIP3   OH2  359   0.988   2.306   0.724
  132TIP3    H1  360   0.980   2.225   0.674
  132TIP3    H2  361   1.081   2.327   0.721
  133TIP3   OH2  362   4.870   2.458   4.783
  133TIP3    H1  363   4.893   2.507   4.704
  133TIP3    H2  364   4.946   2.467   4.840
  134TIP3   OH2  365   7.081   1.438   2.287
  134TIP3    H1  366   7.136   1.505   2.328
  134TIP3    H2  367   7.000   1.440   2.339
  135TIP3   OH2  368   5.195   6.064   5.471
  135TIP3    H1  369   5.128   6.132   5.472
  135TIP3    H2  370   5.272   6.106   5.509
  136TIP3   OH2  371   4.518   3.764   5.313
  136TIP3    H1  372   4.458   3.777   5.240
  136TIP3    H2  373   4.553   3.851   5.332
  137TIP3   OH2  374   3.068   1.696   0.184
  137TIP3    H1  375   3.009   1.771   0.170
  137TIP3    H2  376   3.130   1.701   0.112
  138TIP3   OH2  377   5.434   6.710   0.062
  138TIP3    H1  378   5.434   6.630   0.115
  138TIP3    H2  379   5.348   6.710   0.019
  139TIP3   OH2  380   5.781   1.694   4.621
  139TIP3    H1  381   5.720   1.634   4.663
  139TIP3    H2  382   5.868   1.666   4.652
  140TIP3   OH2  383   2.059   5.832   2.439
  140TIP3    H1  384   2.045   5.804   2.530
  140TIP3    H2  385   1.980   5.882   2.417
  141TIP3   OH2  386   1.709   0.255   3.906
  141TIP3    H1  387   1.758   0.336   3.894
  141TIP3    H2  388   1.622   0.274   3.872
  142TIP3   OH2  389   4.000   2.210   5.252
  142TIP3    H1  390   4.040   2.280   5.303
  142TIP3    H2  391   4.073   2.173   5.201
  143TIP3   OH2  392   5.832   5.386   2.504
  143TIP3    H1  393   5.912   5.439   2.513
  143TIP3    H2  394   5.852   5.305   2.551
  144TIP3   OH2  395   0.073   2.418   3.449
  144TIP3    H1  396   0.139   2.392   3.513
  144TIP3    H2  397  -0.002   2.446   3.501
  145TIP3   OH2  398   0.446   3.415   0.799
  145TIP3    H1  399   0.410   3.468   0.870
  145TIP3    H2  400   0.389   3.433   0.724
  146TIP3   OH2  401   2.679   1.392   4.186
  146TIP3    H1  402   2.709   1.465   4.132
  146TIP3    H2  403   2.668   1.430   4.273
  147TIP3   OH2  404   3.849   0.599   1.534
  147TIP3    H1  405   3.887   0.643   1.458
  147TIP3    H2  406   3.923   0.587   1.594
  148TIP3   OH2  407   3.741   3.733   1.863
  148TIP3    H1  408   3.790   3.808   1.896
  148TIP3    H2  409   3.649   3.758   1.874
  149TIP3   OH2  410   5.380   5.126   2.969
  149TIP3    H1  411   5.336   5.189   2.911
  149TIP3    H2  412   5.416   5.180   3.040
  150TIP3   OH2  413   6.184   3.185   3.748
  150TIP3    H1  414   6.197   3.232   3.665
  150TIP3    H2  415   6.251   3.221   3.807
  151TIP3   OH2  416   1.624   4.547   3.819
  151TIP3    H1  417   1.643   4.483   3.750
  151TIP3    H2  418   1.618   4.495   3.899
  152TIP3   OH2  419   3.502   2.481   5.844
  152TIP3    H1  420   3.536   2.545   5.782
  152TIP3    H2  421   3.464   2.412   5.790
  153TIP3   OH2  422   2.685   0.984   3.840
  153TIP3    H1  423   2.708   1.057   3.898
  153TIP3    H2  424   2.597   1.005   3.808
  154TIP3   OH2  425   0.528   1.937   4.003
  154TIP3    H1  426   0.606   1.986   3.975
  154TIP3    H2  427   0.562   1.851   4.027
  155TIP3   OH2  428   3.402   4.385   0.752
  155TIP3    H1  429   3.333   4.416   0.693
  155TIP3    H2  430   3.454   4.463   0.771
  156TIP3   OH2  431   3.608   2.952   3.214
  156TIP3    H1  432   3.595   3.019   3.281
  156TIP3    H2  433   3.595   2.869   3.260
  157TIP3   OH2  434   0.908   6.140   1.733
  157TIP3    H1  435   0.996   6.151   1.696
  157TIP3    H2  436   0.860   6.091   1.666
  158TIP3   OH2  437   3.610   5.612   3.464
  158TIP3    H1  438   3.624   5.638   3.373
  158TIP3    H2  439   3.524   5.648   3.486
  159TIP3   OH2  440   2.264   6.510   3.037
  159TIP3    H1  441   2.230   6.461   2.962
  159TIP3    H2  442   2.276   6.445   3.106
  160TIP3   OH2  443   2.115   4.956   3.059
  160TIP3    H1  444   2.080   4.964   3.147
  160TIP3    H2  445   2.046   4.992   3.003
  161TIP3   OH2  446   1.087   2.676   0.281
  161TIP3    H1  447   1.077   2.584   0.257
  161TIP3    H2  448   1.180   2.694   0.269
  162TIP3   OH2  449   5.767   1.823   0.508
  162TIP3    H1  450   5.695   1.774   0.468
  162TIP3    H2  451   5.723   1.895   0.554
  163TIP3   OH2  452   3.540   0.718   5.487
  163TIP3    H1  453   3.539   0.727   5.582
  163TIP3    H2  454   3.484   0.790   5.456
  164TIP3   OH2  455   3.946   2.767   1.010
  164TIP3    H1  456   3.887   2.777   0.935
  164TIP3    H2  457   3.982   2.855   1.023
  165TIP3   OH2  458   3.765   3.649   3.777
  165TIP3    H1  459   3.763   3.585   3.848
  165TIP3    H2  460   3.673   3.669   3.761
  166TIP3   OH2  461   2.754   3.848   4.313
  166TIP3    H1  462   2.786   3.805   4.234
  166TIP3    H2  463   2.714   3.930   4.282
  167TIP3   OH2  464   0.064   2.844   2.490
  167TIP3    H1  465   0.115   2.806   2.562
  167TIP3    H2  466  -0.027   2.839   2.520
  168TIP3   OH2  467   5.120   6.580   1.218
  168TIP3    H1  468   5.100   6.494   1.254
  168TIP3    H2  469   5.091   6.576   1.127
  169TIP3   OH2  470   6.111   4.284   3.119
  169TIP3    H1  471   6.146   4.343   3.053
  169TIP3    H2  472   6.188   4.247   3.161
  170TIP3   OH2  473   4.754   2.616   3.693
  170TIP3    H1  474   4.792   2.536   3.728
  170TIP3    H2  475   4.829   2.674   3.677
  171TIP3   OH2  476   6.493   2.565   3.161
  171TIP3    H1  477   6.532   2.478   3.157
  171TIP3    H2  478   6.559   2.622   3.120
  172TIP3   OH2  479   2.277   5.335   1.690
  172TIP3    H1  480   2.324   5.404   1.644
  172TIP3    H2  481   2.185   5.352   1.671
  173TIP3   OH2  482   7.104   1.110   2.285
  173TIP3    H1  483   7.034   1.174   2.299
  173TIP3    H2  484   7.179   1.163   2.258
  174TIP3   OH2  485   1.079   1.644   5.488
  174TIP3    H1  486   1.140   1.684   5.426
  174TIP3    H2  487   0.993   1.678   5.462
  175TIP3   OH2  488   4.696   6.703   3.092
  175TIP3    H1  489   4.676   6.610   3.102
  175TIP3    H2  490   4.686   6.719   2.998
  176TIP3   OH2  491   0.909   3.592   1.275
  176TIP3    H1  492   0.986   3.540   1.293
  176TIP3    H2  493   0.840   3.527   1.256
  177TIP3   OH2  494   0.385   0.046   4.438
  177TIP3    H1  495   0.368   0.139   4.453
  177TIP3    H2  496   0.418   0.042   4.348
  178TIP3   OH2  497   4.932   4.018   3.524
  178TIP3    H1  498   4.908   4.007   3.616
  178TIP3    H2  499   5.013   3.969   3.513
  179TIP3   OH2  500   5.413   3.097   1.154
  179TIP3    H1  501   5.503   3.084   1.186
  179TIP3    H2  502   5.418   3.074   1.061
  180TIP3   OH2  503   3.486   2.366   4.665
  180TIP3    H1  504   3.446   2.364   4.578
  180TIP3    H2  505   3.579   2.353   4.649
  181TIP3   OH2  506   0.447   1.032   2.151
  181TIP3    H1  507   0.468   0.949   2.194
  181TIP3    H2  508   0.405   1.084   2.219
  182TIP3   OH2  509   2.109   2.354   4.605
  182TIP3    H1  510   2.080   2.440   4.636
  182TIP3    H2  511   2.151   2.372   4.521
  183TIP3   OH2  512   2.873   3.000   3.894
  183TIP3    H1  513   2.874   3.081   3.843
  183TIP3    H2  514   2.799   3.009   3.953
  184TIP3   OH2  515   6.986   2.443   4.894
  184TIP3    H1  516   6.926   2.512   4.865
  184TIP3    H2  517   6.960   2.425   4.984
  185TIP3   OH2  518   5.733   5.872   5.555
  185TIP3    H1  519   5.701   5.841   5.639
  185TIP3    H2  520   5.747   5.966   5.567
  186TIP3   OH2  521   3.506   2.129   5.065
  186TIP3    H1  522   3.439   2.178   5.018
  186TIP3    H2  523   3.520   2.179   5.146
  187TIP3   OH2  524   1.220   2.429   0.204
  187TIP3    H1  525   1.260   2.400   0.286
  187TIP3    H2  526   1.133   2.389   0.205
  188TIP3   OH2  527   7.033   6.016   1.909
  188TIP3    H1  528   7.003   5.985   1.824
  188TIP3    H2  529   7.054   6.108   1.895
  189TIP3   OH2  530   4.323   0.244   0.022
  189TIP3    H1  531   4.341   0.207  -0.065
  189TIP3    H2  532   4.228   0.235   0.032
  190TIP3   OH2  533   6.294   3.150   0.457
  190TIP3    H1  534   6.224   3.095   0.493
  190TIP3    H2  535   6.334   3.096   0.389
  191TIP3   OH2  536   3.581   2.004   3.422
  191TIP3    H1  537   3.673   2.027   3.420
  191TIP3    H2  538   3.572   1.934   3.357
  192TIP3   OH2  539   1.822   4.129   2.440
  192TIP3    H1  540   1.755   4.132   2.372
  192TIP3    H2  541   1.852   4.220   2.448
  193TIP3   OH2  542   3.829   1.234   3.255
  193TIP3    H1  543   3.841   1.154   3.307
  193TIP3    H2  544   3.808   1.202   3.167
  194TIP3   OH2  545   1.623   1.524   5.072
  194TIP3    H1  546   1.606   1.613   5.040
  194TIP3    H2  547   1.541   1.477   5.057
  195TIP3   OH2  548   2.166   2.648   3.990
  195TIP3    H1  549   2.207   2.626   3.906
  195TIP3    H2  550   2.073   2.630   3.977
  196TIP3   OH2  551   2.298   0.391   3.342
  196TIP3    H1  552   2.305   0.478   3.382
  196TIP3    H2  553   2.215   0.356   3.373
  197TIP3   OH2  554   4.994   0.425   1.167
  197TIP3    H1  555   4.904   0.409   1.136
  197TIP3    H2  556   4.990   0.513   1.205
  198TIP3   OH2  557   6.976   3.631   5.323
  198TIP3    H1  558   7.026   3.566   5.373
  198TIP3    H2  559   6.893   3.639   5.371
  199TIP3   OH2  560   0.821   0.652   3.490
  199TIP3    H1  561   0.780   0.606   3.417
  199TIP3    H2  562   0.889   0.706   3.450
  200TIP3   OH2  563   4.528   3.768   1.429
  200TIP3    H1  564   4.575   3.738   1.507
  200TIP3    H2  565   4.588   3.829   1.387
  201TIP3   OH2  566   0.464   1.973   1.191
  201TIP3    H1  567   0.472   1.998   1.283
  201TIP3    H2  568   0.510   2.042   1.143
  202TIP3   OH2  569   6.225   3.702   3.410
  202TIP3    H1  570   6.212   3.670   3.320
  202TIP3    H2  571   6.243   3.795   3.400
  203TIP3   OH2  572   6.902   0.944   1.477
  203TIP3    H1  573   6.972   0.976   1.420
  203TIP3    H2  574   6.823   0.951   1.423
  204TIP3   OH2  575   5.581   3.468   3.637
  204TIP3    H1  576   5.591   3.552   3.684
  204TIP3    H2  577   5.670   3.448   3.608
  205TIP3   OH2  578   4.844   4.681   4.359
  205TIP3    H1  579   4.793   4.621   4.304
  205TIP3    H2  580   4.933   4.673   4.326
  206TIP3   OH2  581   3.974   3.468   1.101
  206TIP3    H1  582   4.026   3.422   1.167
  206TIP3    H2  583   4.037   3.523   1.055
  207TIP3   OH2  584   1.259   6.371   0.451
  207TIP3    H1  585   1.317   6.427   0.400
  207TIP3    H2  586   1.171   6.398   0.427
  208TIP3   OH2  587   5.849   5.663   3.255
  208TIP3    H1  588   5.889   5.746   3.280
  208TIP3    H2  589   5.786   5.644   3.325
  209TIP3   OH2  590   3.449   5.607   1.570
  209TIP3    H1  591   3.542   5.619   1.589
  209TIP3    H2  592   3.438   5.639   1.481
  210TIP3   OH2  593   5.985   4.383   1.460
  210TIP3    H1  594   6.034   4.314   1.414
  210TIP3    H2  595   5.923   4.335   1.514
  211TIP3   OH2  596   1.560   6.305   1.778
  211TIP3    H1  597   1.643   6.312   1.825
  211TIP3    H2  598   1.575   6.236   1.713
  212TIP3   OH2  599   4.734   3.462   1.167
  212TIP3    H1  600   4.654   3.413   1.146
  212TIP3    H2  601   4.780   3.407   1.230
  213TIP3   OH2  602   0.855   4.764   2.380
  213TIP3    H1  603   0.826   4.764   2.471
  213TIP3    H2  604   0.920   4.833   2.375
  214TIP3   OH2  605   6.715   4.803   4.182
  214TIP3    H1  606   6.679   4.810   4.271
  214TIP3    H2  607   6.804   4.837   4.189
  215TIP3   OH2  608   5.797   1.151   3.525
  215TIP3    H1  609   5.861   1.081   3.511
  215TIP3    H2  610   5.713   1.106   3.536
  216TIP3   OH2  611   4.393   2.703   2.447
  216TIP3    H1  612   4.403   2.765   2.375
  216TIP3    H2  613   4.310   2.659   2.429
  217TIP3   OH2  614   3.382   0.940   5.344
  217TIP3    H1  615   3.299   0.972   5.380
  217TIP3    H2  616   3.367   0.936   5.250
  218TIP3   OH2  617   0.230   1.862   5.824
  218TIP3    H1  618   0.229   1.800   5.897
  218TIP3    H2  619   0.281   1.936   5.857
  219TIP3   OH2  620   4.022   3.507   0.102
  219TIP3    H1  621   4.090   3.540   0.160
  219TIP3    H2  622   3.996   3.583   0.050
  220TIP3   OH2  623   0.545   0.150   0.744
  220TIP3    H1  624   0.511   0.221   0.799
  220TIP3    H2  625   0.520   0.175   0.655
  221TIP3   OH2  626   6.618   2.327   3.101
  221TIP3    H1  627   6.709   2.335   3.130
  221TIP3    H2  628   6.622   2.329   3.006
  222TIP3   OH2  629   4.377   0.224   2.403
  222TIP3    H1  630   4.377   0.304   2.457
  222TIP3    H2  631   4.410   0.156   2.461
  223TIP3   OH2  632   1.807   1.628   3.724
  223TIP3    H1  633   1.892   1.658   3.756
  223TIP3    H2  634   1.828   1.560   3.660
  224TIP3   OH2  635   3.385   3.720   2.653
  224TIP3    H1  636   3.308   3.776   2.658
  224TIP3    H2  637   3.355   3.635   2.684
  225TIP3   OH2  638   6.454   0.134   4.579
  225TIP3    H1  639   6.448   0.039   4.589
  225TIP3    H2  640   6.547   0.151   4.563
  226TIP3   OH2  641   7.124   3.389   2.213
  226TIP3    H1  642   7.083   3.370   2.129
  226TIP3    H2  643   7.162   3.476   2.201
  227TIP3   OH2  644   3.859   3.006   5.037
  227TIP3    H1  645   3.857   3.088   4.989
  227TIP3    H2  646   3.836   2.940   4.972
  228TIP3   OH2  647   1.391   1.924   1.128
  228TIP3    H1  648   1.419   1.922   1.220
  228TIP3    H2  649   1.337   1.845   1.118
  229TIP3   OH2  650   7.207   5.933   4.112
  229TIP3    H1  651   7.152   5.882   4.052
  229TIP3    H2  652   7.199   5.889   4.196
  230TIP3   OH2  653   5.486   4.466   2.723
  230TIP3    H1  654   5.517   4.467   2.814
  230TIP3    H2  655   5.565   4.482   2.671
  231TIP3   OH2  656   3.010   1.607   0.605
  231TIP3    H1  657   3.077   1.672   0.583
  231TIP3    H2  658   3.007   1.549   0.529
  232TIP3   OH2  659   3.001   6.523   0.828
  232TIP3    H1  660   3.001   6.543   0.922
  232TIP3    H2  661   3.048   6.440   0.821
  233TIP3   OH2  662   6.578   2.458   4.005
  233TIP3    H1  663   6.487   2.459   4.035
  233TIP3    H2  664   6.577   2.402   3.928
  234TIP3   OH2  665   4.678   2.241   4.323
  234TIP3    H1  666   4.766   2.270   4.299
  234TIP3    H2  667   4.629   2.322   4.338
  235TIP3   OH2  668   5.899   3.204   5.454
  235TIP3    H1  669   5.978   3.179   5.405
  235TIP3    H2  670   5.932   3.255   5.528
  236TIP3   OH2  671   0.414   4.328   2.890
  236TIP3    H1  672   0.442   4.274   2.964
  236TIP3    H2  673   0.434   4.418   2.917
  237TIP3   OH2  674   4.836   6.523   2.361
  237TIP3    H1  675   4.764   6.463   2.344
  237TIP3    H2  676   4.825   6.547   2.453
  238TIP3   OH2  677   0.094   0.181   5.330
  238TIP3    H1  678   0.126   0.259   5.284
  238TIP3    H2  679   0.158   0.113   5.310
  239TIP3   OH2  680   0.171   6.275   1.961
  239TIP3    H1  681   0.137   6.215   2.027
  239TIP3    H2  682   0.093   6.316   1.924
  240TIP3   OH2  683   5.433   6.548   1.250
  240TIP3    H1  684   5.339   6.536   1.259
  240TIP3    H2  685   5.443   6.614   1.182
  241TIP3   OH2  686   2.194   5.678   1.386
  241TIP3    H1  687   2.202   5.692   1.480
  241TIP3    H2  688   2.179   5.766   1.350
  242TIP3   OH2  689   6.413   1.510   3.430
  242TIP3    H1  690   6.355   1.503   3.506
  242TIP3    H2  691   6.432   1.419   3.406
  243TIP3   OH2  692   2.470   3.711   4.098
  243TIP3    H1  693   2.557   3.735   4.066
  243TIP3    H2  694   2.435   3.652   4.031
  244TIP3   OH2  695   1.995   1.150   3.617
  244TIP3    H1  696   1.924   1.115   3.562
  244TIP3    H2  697   1.986   1.102   3.700
  245TIP3   OH2  698   0.458   5.363   1.764
  245TIP3    H1  699   0.367   5.368   1.736
  245TIP3    H2  700   0.456   5.311   1.844
  246TIP3   OH2  701   0.130   6.341   0.044
  246TIP3    H1  702   0.151   6.422  -0.003
  246TIP3    H2  703   0.132   6.365   0.137
  247TIP3   OH2  704   0.206   1.008   2.789
  247TIP3    H1  705   0.179   0.924   2.752
  247TIP3    H2  706   0.290   1.027   2.747
  248TIP3   OH2  707   3.555   4.416   5.469
  248TIP3    H1  708   3.509   4.389   5.548
  248TIP3    H2  709   3.634   4.361   5.467
  249TIP3   OH2  710   3.608   0.664   5.081
  249TIP3    H1  711   3.614   0.676   4.986
  249TIP3    H2  712   3.522   0.700   5.105
  250TIP3   OH2  713   4.387   3.259   3.051
  250TIP3    H1  714   4.476   3.265   3.086
  250TIP3    H2  715   4.335   3.317   3.107
  251TIP3   OH2  716   4.101   4.956   5.406
  251TIP3    H1  717   4.187   4.996   5.392
  251TIP3    H2  718   4.118   4.888   5.472
  252TIP3   OH2  719   6.230   3.873   4.404
  252TIP3    H1  720   6.188   3.953   4.437
  252TIP3    H2  721   6.169   3.838   4.340
  253TIP3   OH2  722   4.078   4.650   2.502
  253TIP3    H1  723   4.027   4.730   2.494
  253TIP3    H2  724   4.167   4.675   2.477
  254TIP3   OH2  725   3.058   3.015   2.581
  254TIP3    H1  726   3.050   3.057   2.495
  254TIP3    H2  727   3.019   3.079   2.641
  255TIP3   OH2  728   3.114   2.734   0.436
  255TIP3    H1  729   3.170   2.690   0.501
  255TIP3    H2  730   3.149   2.822   0.431
  256TIP3   OH2  731   2.820   5.606   4.491
  256TIP3    H1  732   2.914   5.619   4.502
  256TIP3    H2  733   2.809   5.512   4.479
  257TIP3   OH2  734   5.413   4.999   0.589
  257TIP3    H1  735   5.355   5.022   0.517
  257TIP3    H2  736   5.501   5.012   0.554
  258TIP3   OH2  737   4.153   2.642   3.911
  258TIP3    H1  738   4.156   2.554   3.949
  258TIP3    H2  739   4.072   2.680   3.945
  259TIP3   OH2  740   3.592   5.428   4.410
  259TIP3    H1  741   3.626   5.425   4.499
  259TIP3    H2  742   3.596   5.338   4.379
  260TIP3   OH2  743   2.065   5.152   1.806
  260TIP3    H1  744   1.989   5.171   1.862
  260TIP3    H2  745   2.127   5.223   1.824
  261TIP3   OH2  746   1.187   0.619   3.278
  261TIP3    H1  747   1.136   0.692   3.313
  261TIP3    H2  748   1.180   0.628   3.183
  262TIP3   OH2  749   4.530   5.098   0.212
  262TIP3    H1  750   4.577   5.098   0.128
  262TIP3    H2  751   4.540   5.187   0.245
  263TIP3   OH2  752   6.716   0.933   5.176
  263TIP3    H1  753   6.621   0.917   5.173
  263TIP3    H2  754   6.725   1.017   5.219
  264TIP3   OH2  755   1.106   4.506   1.434
  264TIP3    H1  756   1.073   4.550   1.356
  264TIP3    H2  757   1.141   4.577   1.488
  265TIP3   OH2  758   3.245   0.236   3.908
  265TIP3    H1  759   3.210   0.288   3.835
  265TIP3    H2  760   3.171   0.226   3.968
  266TIP3   OH2  761   1.278   5.610   1.597
  266TIP3    H1  762   1.356   5.574   1.555
  266TIP3    H2  763   1.220   5.534   1.607
  267TIP3   OH2  764   1.294   1.605   1.065
  267TIP3    H1  765   1.291   1.521   1.112
  267TIP3    H2  766   1.243   1.665   1.120
  268TIP3   OH2  767   5.318   5.709   0.574
  268TIP3    H1  768   5.411   5.690   0.577
  268TIP3    H2  769   5.275   5.631   0.610
  269TIP3   OH2  770   4.584   0.217   4.950
  269TIP3    H1  771   4.621   0.194   4.865
  269TIP3    H2  772   4.491   0.195   4.942
  270TIP3   OH2  773   3.648   0.974   2.306
  270TIP3    H1  774   3.622   0.883   2.321
  270TIP3    H2  775   3.739   0.979   2.333
  271TIP3   OH2  776   5.280   1.245   2.390
  271TIP3    H1  777   5.355   1.194   2.422
  271TIP3    H2  778   5.273   1.319   2.450
  272TIP3   OH2  779   5.437   6.076   2.445
  272TIP3    H1  780   5.370   6.052   2.510
  272TIP3    H2  781   5.447   6.170   2.454
  273TIP3   OH2  782   2.250   3.238   3.713
  273TIP3    H1  783   2.256   3.145   3.692
  273TIP3    H2  784   2.334   3.259   3.754
  274TIP3   OH2  785   0.444   4.527   0.443
  274TIP3    H1  786   0.497   4.603   0.463
  274TIP3    H2  787   0.372   4.561   0.389
  275TIP3   OH2  788   1.685   3.606   4.028
  275TIP3    H1  789   1.675   3.655   4.109
  275TIP3    H2  790   1.702   3.672   3.961
  276TIP3   OH2  791   3.212   0.835   3.456
  276TIP3    H1  792   3.167   0.807   3.535
  276TIP3    H2  793   3.161   0.798   3.384
  277TIP3   OH2  794   6.260   1.465   3.693
  277TIP3    H1  795   6.213   1.473   3.776
  277TIP3    H2  796   6.197   1.423   3.634
  278TIP3   OH2  797   6.549   2.259   0.964
  278TIP3    H1  798   6.638   2.273   0.934
  278TIP3    H2  799   6.556   2.190   1.031
  279TIP3   OH2  800   5.181   0.299   0.229
  279TIP3    H1  801   5.099   0.349   0.224
  279TIP3    H2  802   5.194   0.283   0.323
  280TIP3   OH2  803   3.434   1.729   4.929
  280TIP3    H1  804   3.362   1.786   4.901
  280TIP3    H2  805   3.458   1.762   5.015
  281TIP3   OH2  806   0.458   6.663   1.834
  281TIP3    H1  807   0.470   6.620   1.750
  281TIP3    H2  808   0.390   6.612   1.878
  282TIP3   OH2  809   4.087   4.943   4.446
  282TIP3    H1  810   4.128   4.894   4.375
  282TIP3    H2  811   3.997   4.911   4.449
  283TIP3   OH2  812   6.991   0.061   1.993
  283TIP3    H1  813   6.966   0.105   2.074
  283TIP3    H2  814   7.087   0.058   1.997
  284TIP3   OH2  815   6.489   0.721   1.401
  284TIP3    H1  816   6.456   0.672   1.325
  284TIP3    H2  817   6.429   0.697   1.472
  285TIP3   OH2  818   3.111   1.469   3.909
  285TIP3    H1  819   3.184   1.497   3.854
  285TIP3    H2  820   3.087   1.548   3.958
  286TIP3   OH2  821   4.826   6.254   3.260
  286TIP3    H1  822   4.856   6.180   3.206
  286TIP3    H2  823   4.802   6.214   3.343
  287TIP3   OH2  824   6.726   0.219   4.516
  287TIP3    H1  825   6.710   0.307   4.479
  287TIP3    H2  826   6.787   0.234   4.588
  288TIP3   OH2  827   0.463   6.634   5.840
  288TIP3    H1  828   0.504   6.664   5.759
  288TIP3    H2  829   0.534   6.634   5.905
  289TIP3   OH2  830   2.226   2.919   5.816
  289TIP3    H1  831   2.156   2.855   5.833
  289TIP3    H2  832   2.213   2.945   5.725
  290TIP3   OH2  833   4.384   1.052   4.050
  290TIP3    H1  834   4.442   1.072   4.122
  290TIP3    H2  835   4.320   0.991   4.086
  291TIP3   OH2  836   1.036   4.733   3.832
  291TIP3    H1  837   1.029   4.681   3.752
  291TIP3    H2  838   1.130   4.747   3.843
  292TIP3   OH2  839   4.507   5.137   0.680
  292TIP3    H1  840   4.522   5.076   0.607
  292TIP3    H2  841   4.421   5.174   0.662
  293TIP3   OH2  842   4.509   1.347   4.622
  293TIP3    H1  843   4.417   1.326   4.632
  293TIP3    H2  844   4.510   1.441   4.606
  294TIP3   OH2  845   2.245   1.994   3.433
  294TIP3    H1  846   2.282   2.018   3.348
  294TIP3    H2  847   2.291   1.914   3.457
  295TIP3   OH2  848   7.210   6.723   2.162
  295TIP3    H1  849   7.305   6.712   2.162
  295TIP3    H2  850   7.181   6.678   2.242
  296TIP3   OH2  851   0.699   3.441   0.193
  296TIP3    H1  852   0.629   3.417   0.254
  296TIP3    H2  853   0.667   3.520   0.150
  297TIP3   OH2  854   3.662   1.818   3.048
  297TIP3    H1  855   3.674   1.734   3.005
  297TIP3    H2  856   3.751   1.852   3.060
  298TIP3   OH2  857   2.060   3.529   0.500
  298TIP3    H1  858   2.062   3.597   0.433
  298TIP3    H2  859   2.103   3.568   0.576
  299TIP3   OH2  860   4.203   5.305   4.129
  299TIP3    H1  861   4.199   5.264   4.216
  299TIP3    H2  862   4.233   5.394   4.146
  300TIP3   OH2  863   5.248   2.328   2.189
  300TIP3    H1  864   5.187   2.294   2.255
  300TIP3    H2  865   5.276   2.412   2.225
  301TIP3   OH2  866   0.994   3.183   0.975
  301TIP3    H1  867   1.062   3.124   0.942
  301TIP3    H2  868   0.961   3.227   0.897
  302TIP3   OH2  869   0.755   1.787   0.061
  302TIP3    H1  870   0.800   1.735  -0.006
  302TIP3    H2  871   0.746   1.728   0.135
  303TIP3   OH2  872   0.029   3.615   4.032
  303TIP3    H1  873   0.069   3.623   3.945
  303TIP3    H2  874   0.009   3.522   4.040
  304TIP3   OH2  875   6.789   4.504   4.959
  304TIP3    H1  876   6.857   4.562   4.923
  304TIP3    H2  877   6.829   4.417   4.957
  305TIP3   OH2  878   6.213   4.477   4.119
  305TIP3    H1  879   6.254   4.472   4.205
  305TIP3    H2  880   6.170   4.562   4.117
  306TIP3   OH2  881   1.712   2.833   2.682
  306TIP3    H1  882   1.720   2.753   2.630
  306TIP3    H2  883   1.673   2.805   2.765
  307TIP3   OH2  884   5.247   2.777   0.102
  307TIP3    H1  885   5.194   2.744   0.029
  307TIP3    H2  886   5.326   2.812   0.061
  308TIP3   OH2  887   4.797   0.168   1.880
  308TIP3    H1  888   4.835   0.178   1.967
  308TIP3    H2  889   4.706   0.197   1.890
  309TIP3   OH2  890   1.201   0.524   0.838
  309TIP3    H1  891   1.219   0.543   0.930
  309TIP3    H2  892   1.250   0.444   0.820
  310TIP3   OH2  893   3.791   1.072   5.685
  310TIP3    H1  894   3.812   1.166   5.688
  310TIP3    H2  895   3.759   1.058   5.596
  311TIP3   OH2  896   2.249   0.170   2.640
  311TIP3    H1  897   2.290   0.255   2.624
  311TIP3    H2  898   2.269   0.118   2.562
  312TIP3   OH2  899   1.421   5.227   1.843
  312TIP3    H1  900   1.457   5.166   1.908
  312TIP3    H2  901   1.461   5.199   1.761
  313TIP3   OH2  902   2.500   2.813   1.648
  313TIP3    H1  903   2.476   2.795   1.557
  313TIP3    H2  904   2.537   2.730   1.679
  314TIP3   OH2  905   2.654   3.325   1.475
  314TIP3    H1  906   2.574   3.378   1.480
  314TIP3    H2  907   2.623   3.236   1.461
  315TIP3   OH2  908   5.507   3.570   1.924
  315TIP3    H1  909   5.602   3.559   1.910
  315TIP3    H2  910   5.481   3.493   1.975
  316TIP3   OH2  911   0.460   6.194   2.018
  316TIP3    H1  912   0.508   6.263   1.971
  316TIP3    H2  913   0.368   6.209   1.995
  317TIP3   OH2  914   2.035   2.133   2.796
  317TIP3    H1  915   1.944   2.144   2.769
  317TIP3    H2  916   2.086   2.173   2.726
  318TIP3   OH2  917   0.079   4.485   5.613
  318TIP3    H1  918   0.056   4.448   5.698
  318TIP3    H2  919   0.106   4.409   5.561
  319TIP3   OH2  920   1.642   2.631   1.233
  319TIP3    H1  921   1.567   2.612   1.289
  319TIP3    H2  922   1.610   2.697   1.171
  320TIP3   OH2  923   4.926   1.730   1.733
  320TIP3    H1  924   5.011   1.723   1.775
  320TIP3    H2  925   4.916   1.647   1.686
  321TIP3   OH2  926   4.948   5.559   1.890
  321TIP3    H1  927   4.968   5.466   1.903
  321TIP3    H2  928   5.016   5.606   1.937
  322TIP3   OH2  929   2.493   4.874   3.975
  322TIP3    H1  930   2.524   4.960   3.946
  322TIP3    H2  931   2.422   4.852   3.914
  323TIP3   OH2  932   1.342   3.588   1.000
  323TIP3    H1  933   1.264   3.542   1.030
  323TIP3    H2  934   1.351   3.561   0.908
  324TIP3   OH2  935   0.680   4.313   3.852
  324TIP3    H1  936   0.716   4.399   3.872
  324TIP3    H2  937   0.587   4.321   3.871
  325TIP3   OH2  938   3.878   0.594   2.956
  325TIP3    H1  939   3.963   0.584   2.913
  325TIP3    H2  940   3.873   0.520   3.016
  326TIP3   OH2  941   1.187   2.718   1.785
  326TIP3    H1  942   1.257   2.777   1.759
  326TIP3    H2  943   1.222   2.631   1.770
  327TIP3   OH2  944   2.252   2.215   1.420
  327TIP3    H1  945   2.218   2.234   1.507
  327TIP3    H2  946   2.202   2.139   1.391
  328TIP3   OH2  947   2.867   2.562   5.841
  328TIP3    H1  948   2.810   2.586   5.913
  328TIP3    H2  949   2.816   2.500   5.788
  329TIP3   OH2  950   1.576   6.111   3.416
  329TIP3    H1  951   1.652   6.053   3.422
  329TIP3    H2  952   1.594   6.180   3.480
  330TIP3   OH2  953   3.057   6.541   1.130
  330TIP3    H1  954   3.109   6.614   1.097
  330TIP3    H2  955   3.121   6.472   1.147
  331TIP3   OH2  956   3.747   0.812   1.916
  331TIP3    H1  957   3.697   0.734   1.938
  331TIP3    H2  958   3.837   0.790   1.939
  332TIP3   OH2  959   4.431   0.710   2.563
  332TIP3    H1  960   4.369   0.762   2.613
  332TIP3    H2  961   4.410   0.729   2.471
  333TIP3   OH2  962   0.753   0.119   1.835
  333TIP3    H1  963   0.676   0.127   1.778
  333TIP3    H2  964   0.748   0.030   1.869
  334TIP3   OH2  965   3.998   1.809   3.788
  334TIP3    H1  966   4.065   1.874   3.807
  334TIP3    H2  967   3.992   1.807   3.692
  335TIP3   OH2  968   0.397   4.216   0.750
  335TIP3    H1  969   0.386   4.180   0.662
  335TIP3    H2  970   0.492   4.225   0.761
  336TIP3   OH2  971   1.524   5.773   3.322
  336TIP3    H1  972   1.465   5.828   3.272
  336TIP3    H2  973   1.529   5.691   3.272
  337TIP3   OH2  974   7.119   0.866   0.632
  337TIP3    H1  975   7.064   0.806   0.682
  337TIP3    H2  976   7.204   0.824   0.627
  338TIP3   OH2  977   7.117   0.312   2.967
  338TIP3    H1  978   7.194   0.257   2.957
  338TIP3    H2  979   7.060   0.263   3.026
  339TIP3   OH2  980   4.092   0.273   0.814
  339TIP3    H1  981   4.092   0.204   0.748
  339TIP3    H2  982   4.000   0.282   0.840
  340TIP3   OH2  983   1.786   2.221   1.313
  340TIP3    H1  984   1.726   2.254   1.247
  340TIP3    H2  985   1.872   2.224   1.271
  341TIP3   OH2  986   0.240   0.163   3.055
  341TIP3    H1  987   0.327   0.203   3.051
  341TIP3    H2  988   0.250   0.091   3.118
  342TIP3   OH2  989   3.164   2.867   3.238
  342TIP3    H1  990   3.123   2.920   3.306
  342TIP3    H2  991   3.253   2.902   3.231
  343TIP3   OH2  992   2.691   6.719   2.962
  343TIP3    H1  993   2.601   6.727   2.995
  343TIP3    H2  994   2.723   6.809   2.961
  344TIP3   OH2  995   0.479   6.724   3.316
  344TIP3    H1  996   0.458   6.805   3.269
  344TIP3    H2  997   0.461   6.654   3.253
  345TIP3   OH2  998   3.251   5.494   1.954
  345TIP3    H1  999   3.304   5.559   1.907
  345TIP3    H2 1000   3.310   5.420   1.966
  346TIP3   OH2 1001   6.748   1.396   3.313
  346TIP3    H1 1002   6.659   1.364   3.300
  346TIP3    H2 1003   6.755   1.413   3.407
  347TIP3   OH2 1004   0.885   5.616   1.856
  347TIP3    H1 1005   0.798   5.655   1.861
  347TIP3    H2 1006   0.891   5.580   1.768
  348TIP3   OH2 1007   4.823   0.095   5.844
  348TIP3    H1 1008   4.820   0.003   5.817
  348TIP3    H2 1009   4.823   0.092   5.940
  349TIP3   OH2 1010   7.212   5.752   2.051
  349TIP3    H1 1011   7.200   5.722   2.141
  349TIP3    H2 1012   7.140   5.714   2.002
  350TIP3   OH2 1013   3.175   4.079   0.873
  350TIP3    H1 1014   3.268   4.068   0.892
  350TIP3    H2 1015   3.164   4.174   0.862
  351TIP3   OH2 1016   0.670   2.823   0.958
  351TIP3    H1 1017   0.633   2.872   1.031
  351TIP3    H2 1018   0.700   2.889   0.897
  352TIP3   OH2 1019   6.224   0.154   3.663
  352TIP3    H1 1020   6.186   0.240   3.647
  352TIP3    H2 1021   6.219   0.109   3.579
  353TIP3   OH2 1022   5.883   5.799   1.203
  353TIP3    H1 1023   5.913   5.797   1.112
  353TIP3    H2 1024   5.902   5.888   1.233
  354TIP3   OH2 1025   5.641   5.400   5.705
  354TIP3    H1 1026   5.646   5.409   5.609
  354TIP3    H2 1027   5.579   5.328   5.719
  355TIP3   OH2 1028   0.285   4.062   3.409
  355TIP3    H1 1029   0.379   4.049   3.423
  355TIP3    H2 1030   0.265   4.144   3.455
  356TIP3   OH2 1031   7.067   4.605   5.068
  356TIP3    H1 1032   7.127   4.678   5.076
  356TIP3    H2 1033   7.020   4.621   4.986
  357TIP3   OH2 1034   1.767   2.140   3.951
  357TIP3    H1 1035   1.818   2.155   4.031
  357TIP3    H2 1036   1.832   2.124   3.883
  358TIP3   OH2 1037   4.030   5.865   1.523
  358TIP3    H1 1038   3.963   5.916   1.570
  358TIP3    H2 1039   4.112   5.885   1.569
  359TIP3   OH2 1040   4.719   3.561   4.646
  359TIP3    H1 1041   4.752   3.496   4.708
  359TIP3    H2 1042   4.750   3.531   4.560
  360TIP3   OH2 1043   2.541   6.425   4.620
  360TIP3    H1 1044   2.446   6.421   4.610
  360TIP3    H2 1045   2.575   6.392   4.536
  361TIP3   OH2 1046   1.602   4.597   2.530
  361TIP3    H1 1047   1.530   4.655   2.554
  361TIP3    H2 1048   1.567   4.545   2.457
  362TIP3   OH2 1049   5.396   2.925   4.030
  362TIP3    H1 1050   5.385   2.878   3.948
  362TIP3    H2 1051   5.439   2.863   4.089
  363TIP3   OH2 1052   3.868   6.309   2.514
  363TIP3    H1 1053   3.845   6.295   2.606
  363TIP3    H2 1054   3.796   6.361   2.478
  364TIP3   OH2 1055   4.078   6.333   3.924
  364TIP3    H1 1056   4.137   6.265   3.956
  364TIP3    H2 1057   4.088   6.405   3.988
  365TIP3   OH2 1058   5.826   0.336   5.531
  365TIP3    H1 1059   5.806   0.428   5.516
  365TIP3    H2 1060   5.744   0.299   5.564
  366TIP3   OH2 1061   4.533   2.772   3.773
  366TIP3    H1 1062   4.564   2.813   3.853
  366TIP3    H2 1063   4.599   2.706   3.752
  367TIP3   OH2 1064   6.057   0.224   3.244
  367TIP3    H1 1065   6.112   0.298   3.269
  367TIP3    H2 1066   6.076   0.210   3.151
  368TIP3   OH2 1067   1.382   0.600   0.418
  368TIP3    H1 1068   1.449   0.662   0.390
  368TIP3    H2 1069   1.330   0.648   0.482
  369TIP3   OH2 1070   0.599   3.232   5.634
  369TIP3    H1 1071   0.519   3.242   5.685
  369TIP3    H2 1072   0.571   3.184   5.555
  370TIP3   OH2 1073   1.033   4.074   4.902
  370TIP3    H1 1074   1.111   4.106   4.856
  370TIP3    H2 1075   1.052   4.088   4.994
  371TIP3   OH2 1076   4.282   4.284   3.377
  371TIP3    H1 1077   4.214   4.245   3.432
  371TIP3    H2 1078   4.303   4.367   3.421
  372TIP3   OH2 1079   1.046   3.779   0.586
  372TIP3    H1 1080   0.976   3.825   0.632
  372TIP3    H2 1081   1.121   3.838   0.590
  373TIP3   OH2 1082   1.187   1.077   3.304
  373TIP3    H1 1083   1.214   1.093   3.394
  373TIP3    H2 1084   1.269   1.057   3.258
  374TIP3   OH2 1085   6.880   6.636   4.205
  374TIP3    H1 1086   6.817   6.645   4.133
  374TIP3    H2 1087   6.952   6.694   4.181
  375TIP3   OH2 1088   1.455   0.583   2.226
  375TIP3    H1 1089   1.404   0.515   2.182
  375TIP3    H2 1090   1.438   0.569   2.320
  376TIP3   OH2 1091   2.078   3.013   0.383
  376TIP3    H1 1092   1.984   3.005   0.367
  376TIP3    H2 1093   2.118   2.952   0.321
  377TIP3   OH2 1094   1.249   4.045   2.172
  377TIP3    H1 1095   1.178   3.982   2.172
  377TIP3    H2 1096   1.324   3.998   2.209
  378TIP3   OH2 1097   5.457   3.885   4.971
  378TIP3    H1 1098   5.376   3.935   4.959
  378TIP3    H2 1099   5.498   3.924   5.049
  379TIP3   OH2 1100   3.618   0.429   0.402
  379TIP3    H1 1101   3.538   0.445   0.452
  379TIP3    H2 1102   3.670   0.372   0.459
  380TIP3   OH2 1103   1.958   1.529   3.482
  380TIP3    H1 1104   1.957   1.527   3.386
  380TIP3    H2 1105   1.983   1.441   3.507
  381TIP3   OH2 1106   6.543   0.994   5.462
  381TIP3    H1 1107   6.635   1.009   5.438
  381TIP3    H2 1108   6.497   1.071   5.428
  382TIP3   OH2 1109   5.104   6.602   0.414
  382TIP3    H1 1110   5.041   6.550   0.463
  382TIP3    H2 1111   5.180   6.610   0.472
  383TIP3   OH2 1112   5.745   1.542   4.401
  383TIP3    H1 1113   5.710   1.594   4.329
  383TIP3    H2 1114   5.766   1.606   4.469
  384TIP3   OH2 1115   3.054   6.067   0.703
  384TIP3    H1 1116   2.978   6.119   0.678
  384TIP3    H2 1117   3.087   6.110   0.782
  385TIP3   OH2 1118   3.123   0.235   3.157
  385TIP3    H1 1119   3.091   0.251   3.245
  385TIP3    H2 1120   3.209   0.195   3.170
  386TIP3   OH2 1121   7.081   4.748   1.331
  386TIP3    H1 1122   7.118   4.774   1.247
  386TIP3    H2 1123   7.075   4.652   1.325
  387TIP3   OH2 1124   6.906   3.253   0.676
  387TIP3    H1 1125   6.830   3.293   0.719
  387TIP3    H2 1126   6.942   3.193   0.741
  388TIP3   OH2 1127   4.202   6.203   1.216
  388TIP3    H1 1128   4.133   6.244   1.163
  388TIP3    H2 1129   4.174   6.111   1.223
  389TIP3   OH2 1130   7.169   5.498   1.100
  389TIP3    H1 1131   7.151   5.405   1.081
  389TIP3    H2 1132   7.082   5.535   1.118
  390TIP3   OH2 1133   6.828   2.580   3.985
  390TIP3    H1 1134   6.854   2.493   4.014
  390TIP3    H2 1135   6.737   2.570   3.957
  391TIP3   OH2 1136   6.624   6.643   4.103
  391TIP3    H1 1137   6.632   6.721   4.049
  391TIP3    H2 1138   6.603   6.676   4.190
  392TIP3   OH2 1139   1.616   6.301   3.596
  392TIP3    H1 1140   1.606   6.362   3.669
  392TIP3    H2 1141   1.709   6.276   3.599
  393TIP3   OH2 1142   3.156   4.045   3.636
  393TIP3    H1 1143   3.144   4.099   3.715
  393TIP3    H2 1144   3.084   4.071   3.578
  394TIP3   OH2 1145   6.441   5.289   4.903
  394TIP3    H1 1146   6.347   5.270   4.895
  394TIP3    H2 1147   6.456   5.298   4.998
  395TIP3   OH2 1148   0.149   0.652   0.895
  395TIP3    H1 1149   0.124   0.599   0.971
  395TIP3    H2 1150   0.190   0.589   0.836
  396TIP3   OH2 1151   3.146   5.096   3.652
  396TIP3    H1 1152   3.198   5.121   3.728
  396TIP3    H2 1153   3.185   5.144   3.579
  397TIP3   OH2 1154   5.801   6.680   4.291
  397TIP3    H1 1155   5.800   6.772   4.317
  397TIP3    H2 1156   5.816   6.682   4.196
  398TIP3   OH2 1157   3.269   1.397   4.551
  398TIP3    H1 1158   3.331   1.447   4.497
  398TIP3    H2 1159   3.313   1.314   4.566
  399TIP3   OH2 1160   5.251   5.582   2.458
  399TIP3    H1 1161   5.219   5.641   2.390
  399TIP3    H2 1162   5.248   5.495   2.418
  400TIP3   OH2 1163   2.156   6.495   2.055
  400TIP3    H1 1164   2.219   6.443   2.106
  400TIP3    H2 1165   2.111   6.548   2.121
  401TIP3   OH2 1166   1.880   1.922   3.207
  401TIP3    H1 1167   1.826   1.982   3.259
  401TIP3    H2 1168   1.899   1.972   3.127
  402TIP3   OH2 1169   0.004   6.259   1.154
  402TIP3    H1 1170   0.013   6.277   1.248
  402TIP3    H2 1171   0.045   6.173   1.142
  403TIP3   OH2 1172   2.221   5.503   4.987
  403TIP3    H1 1173   2.131   5.473   5.001
  403TIP3    H2 1174   2.267   5.482   5.068
  404TIP3   OH2 1175   0.244   2.487   1.962
  404TIP3    H1 1176   0.152   2.476   1.988
  404TIP3    H2 1177   0.291   2.497   2.045
  405TIP3   OH2 1178   5.059   4.182   0.465
  405TIP3    H1 1179   5.081   4.118   0.397
  405TIP3    H2 1180   5.073   4.135   0.547
  406TIP3   OH2 1181   5.499   0.540   0.424
  406TIP3    H1 1182   5.455   0.553   0.340
  406TIP3    H2 1183   5.434   0.564   0.490
  407TIP3   OH2 1184   4.402   0.661   3.845
  407TIP3    H1 1185   4.317   0.649   3.886
  407TIP3    H2 1186   4.431   0.748   3.873
  408TIP3   OH2 1187   4.468   3.005   4.084
  408TIP3    H1 1188   4.472   3.029   4.177
  408TIP3    H2 1189   4.379   3.031   4.057
  409TIP3   OH2 1190   0.141   2.759   5.749
  409TIP3    H1 1191   0.219   2.801   5.714
  409TIP3    H2 1192   0.068   2.811   5.713
  410TIP3   OH2 1193   1.241   2.705   0.738
  410TIP3    H1 1194   1.309   2.677   0.798
  410TIP3    H2 1195   1.160   2.699   0.789
  411TIP3   OH2 1196   5.528   2.196   5.697
  411TIP3    H1 1197   5.447   2.205   5.646
  411TIP3    H2 1198   5.595   2.176   5.632
  412TIP3   OH2 1199   4.417   3.249   5.905
  412TIP3    H1 1200   4.447   3.331   5.945
  412TIP3    H2 1201   4.402   3.272   5.813
  413TIP3   OH2 1202   6.193   3.034   2.669
  413TIP3    H1 1203   6.277   3.079   2.669
  413TIP3    H2 1204   6.212   2.947   2.635
  414TIP3   OH2 1205   4.209   2.968   2.055
  414TIP3    H1 1206   4.273   2.909   2.094
  414TIP3    H2 1207   4.262   3.034   2.009
  415TIP3   OH2 1208   4.243   0.550   2.139
  415TIP3    H1 1209   4.256   0.460   2.110
  415TIP3    H2 1210   4.326   0.575   2.180
  416TIP3   OH2 1211   6.022   2.129   1.231
  416TIP3    H1 1212   6.003   2.080   1.311
  416TIP3    H2 1213   6.117   2.128   1.224
  417TIP3   OH2 1214   1.794   3.877   1.442
  417TIP3    H1 1215   1.837   3.800   1.404
  417TIP3    H2 1216   1.701   3.857   1.440
  418TIP3   OH2 1217   3.293   0.772   4.828
  418TIP3    H1 1218   3.325   0.713   4.760
  418TIP3    H2 1219   3.216   0.727   4.864
  419TIP3   OH2 1220   6.347   6.191   2.828
  419TIP3    H1 1221   6.431   6.236   2.835
  419TIP3    H2 1222   6.366   6.101   2.853
  420TIP3   OH2 1223   4.417   3.376   5.186
  420TIP3    H1 1224   4.407   3.285   5.216
  420TIP3    H2 1225   4.402   3.372   5.091
  421TIP3   OH2 1226   6.773   1.101   3.451
  421TIP3    H1 1227   6.863   1.076   3.470
  421TIP3    H2 1228   6.724   1.019   3.453
  422TIP3   OH2 1229   5.050   6.279   3.057
  422TIP3    H1 1230   4.974   6.221   3.057
  422TIP3    H2 1231   5.037   6.336   2.982
  423TIP3   OH2 1232   5.720   3.070   0.547
  423TIP3    H1 1233   5.687   3.046   0.460
  423TIP3    H2 1234   5.759   3.156   0.535
  424TIP3   OH2 1235   2.465   4.822   5.209
  424TIP3    H1 1236   2.452   4.866   5.125
  424TIP3    H2 1237   2.420   4.738   5.199
  425TIP3   OH2 1238   6.600   0.637   5.661
  425TIP3    H1 1239   6.543   0.559   5.661
  425TIP3    H2 1240   6.634   0.642   5.572
  426TIP3   OH2 1241   5.988   0.901   4.295
  426TIP3    H1 1242   5.962   0.885   4.386
  426TIP3    H2 1243   6.065   0.846   4.282
  427TIP3   OH2 1244   6.860   4.010   4.574
  427TIP3    H1 1245   6.815   4.061   4.506
  427TIP3    H2 1246   6.836   3.920   4.556
  428TIP3   OH2 1247   6.209   0.210   2.342
  428TIP3    H1 1248   6.283   0.269   2.330
  428TIP3    H2 1249   6.150   0.231   2.270
  429TIP3   OH2 1250   3.718   5.114   3.511
  429TIP3    H1 1251   3.706   5.147   3.600
  429TIP3    H2 1252   3.813   5.115   3.498
  430TIP3   OH2 1253   5.923   2.019   1.769
  430TIP3    H1 1254   5.910   2.113   1.758
  430TIP3    H2 1255   6.016   2.005   1.754
  431TIP3   OH2 1256   2.166   2.883   1.055
  431TIP3    H1 1257   2.110   2.957   1.079
  431TIP3    H2 1258   2.217   2.916   0.981
  432TIP3   OH2 1259   6.405   0.031   2.931
  432TIP3    H1 1260   6.408  -0.063   2.946
  432TIP3    H2 1261   6.494   0.054   2.905
  433TIP3   OH2 1262   6.565   5.863   3.931
  433TIP3    H1 1263   6.570   5.832   4.022
  433TIP3    H2 1264   6.490   5.817   3.895
  434TIP3   OH2 1265   1.034   4.954   5.064
  434TIP3    H1 1266   1.061   4.935   5.154
  434TIP3    H2 1267   1.081   4.890   5.011
  435TIP3   OH2 1268   1.152   6.498   5.777
  435TIP3    H1 1269   1.140   6.546   5.695
  435TIP3    H2 1270   1.244   6.472   5.776
  436TIP3   OH2 1271   5.008   2.048   4.655
  436TIP3    H1 1272   5.099   2.048   4.627
  436TIP3    H2 1273   5.012   2.057   4.751
  437TIP3   OH2 1274   1.860   1.288   4.663
  437TIP3    H1 1275   1.855   1.340   4.582
  437TIP3    H2 1276   1.950   1.256   4.664
  438TIP3   OH2 1277   1.075   1.277   0.095
  438TIP3    H1 1278   1.009   1.346   0.094
  438TIP3    H2 1279   1.044   1.214   0.030
  439TIP3   OH2 1280   6.401   4.293   5.081
  439TIP3    H1 1281   6.493   4.285   5.107
  439TIP3    H2 1282   6.394   4.239   5.002
  440TIP3   OH2 1283   4.361   5.886   5.640
  440TIP3    H1 1284   4.445   5.881   5.685
  440TIP3    H2 1285   4.366   5.967   5.589
  441TIP3   OH2 1286   2.354   3.916   3.497
  441TIP3    H1 1287   2.367   3.983   3.430
  441TIP3    H2 1288   2.375   3.834   3.454
  442TIP3   OH2 1289   4.545   5.425   4.426
  442TIP3    H1 1290   4.592   5.344   4.441
  442TIP3    H2 1291   4.453   5.403   4.440
  443TIP3   OH2 1292   4.659   4.867   5.099
  443TIP3    H1 1293   4.664   4.789   5.155
  443TIP3    H2 1294   4.722   4.928   5.136
  444TIP3   OH2 1295   3.602   5.047   3.162
  444TIP3    H1 1296   3.646   4.971   3.124
  444TIP3    H2 1297   3.565   5.015   3.244
  445TIP3   OH2 1298   0.153   1.702   2.907
  445TIP3    H1 1299   0.140   1.613   2.940
  445TIP3    H2 1300   0.114   1.701   2.820
  446TIP3   OH2 1301   2.275   0.910   4.667
  446TIP3    H1 1302   2.360   0.941   4.637
  446TIP3    H2 1303   2.244   0.978   4.726
  447TIP3   OH2 1304   5.568   1.176   3.199
  447TIP3    H1 1305   5.659   1.162   3.226
  447TIP3    H2 1306   5.554   1.270   3.210
  448TIP3   OH2 1307   0.296   4.933   0.131
  448TIP3    H1 1308   0.232   4.990   0.088
  448TIP3    H2 1309   0.346   4.991   0.188
  449TIP3   OH2 1310   1.168   3.244   5.759
  449TIP3    H1 1311   1.218   3.321   5.734
  449TIP3    H2 1312   1.089   3.248   5.706
  450TIP3   OH2 1313   6.343   5.132   5.153
  450TIP3    H1 1314   6.248   5.145   5.154
  450TIP3    H2 1315   6.368   5.129   5.246
  451TIP3   OH2 1316   3.043   4.461   3.939
  451TIP3    H1 1317   2.988   4.496   4.009
  451TIP3    H2 1318   2.982   4.418   3.879
  452TIP3   OH2 1319   6.390   1.200   0.129
  452TIP3    H1 1320   6.362   1.279   0.174
  452TIP3    H2 1321   6.438   1.150   0.196
  453TIP3   OH2 1322   2.458   2.615   4.735
  453TIP3    H1 1323   2.507   2.634   4.815
  453TIP3    H2 1324   2.475   2.522   4.719
  454TIP3   OH2 1325   1.041   2.684   0.914
  454TIP3    H1 1326   1.007   2.721   0.995
  454TIP3    H2 1327   1.023   2.591   0.921
  455TIP3   OH2 1328   0.729   5.425   0.372
  455TIP3    H1 1329   0.659   5.482   0.339
  455TIP3    H2 1330   0.684   5.365   0.432
  456TIP3   OH2 1331   6.171   1.221   3.318
  456TIP3    H1 1332   6.231   1.208   3.245
  456TIP3    H2 1333   6.090   1.177   3.290
  457TIP3   OH2 1334   0.169   0.997   5.792
  457TIP3    H1 1335   0.137   0.909   5.772
  457TIP3    H2 1336   0.259   0.999   5.759
  458TIP3   OH2 1337   5.836   3.489   0.174
  458TIP3    H1 1338   5.832   3.527   0.086
  458TIP3    H2 1339   5.845   3.395   0.159
  459TIP3   OH2 1340   5.712   0.972   4.194
  459TIP3    H1 1341   5.792   0.939   4.235
  459TIP3    H2 1342   5.646   0.905   4.214
  460TIP3   OH2 1343   3.670   6.499   0.529
  460TIP3    H1 1344   3.668   6.404   0.518
  460TIP3    H2 1345   3.726   6.530   0.458
  461TIP3   OH2 1346   1.475   6.020   0.893
  461TIP3    H1 1347   1.381   6.028   0.873
  461TIP3    H2 1348   1.490   6.083   0.964
  462TIP3   OH2 1349   0.504   5.644   4.910
  462TIP3    H1 1350   0.563   5.634   4.836
  462TIP3    H2 1351   0.527   5.730   4.948
  463TIP3   OH2 1352   0.151   1.273   2.893
  463TIP3    H1 1353   0.227   1.330   2.881
  463TIP3    H2 1354   0.178   1.189   2.856
  464TIP3   OH2 1355   1.527   0.403   4.213
  464TIP3    H1 1356   1.449   0.354   4.186
  464TIP3    H2 1357   1.493   0.476   4.265
  465TIP3   OH2 1358   5.776   6.642   4.932
  465TIP3    H1 1359   5.756   6.668   4.842
  465TIP3    H2 1360   5.724   6.563   4.946
  466TIP3   OH2 1361   1.477   2.415   0.874
  466TIP3    H1 1362   1.431   2.493   0.907
  466TIP3    H2 1363   1.442   2.343   0.927
  467TIP3   OH2 1364   5.344   2.392   1.926
  467TIP3    H1 1365   5.315   2.350   2.007
  467TIP3    H2 1366   5.312   2.482   1.932
  468TIP3   OH2 1367   5.734   5.584   3.848
  468TIP3    H1 1368   5.717   5.575   3.754
  468TIP3    H2 1369   5.806   5.523   3.865
  469TIP3   OH2 1370   4.262   1.388   4.507
  469TIP3    H1 1371   4.203   1.325   4.547
  469TIP3    H2 1372   4.205   1.452   4.464
  470TIP3   OH2 1373   2.645   3.609   3.757
  470TIP3    H1 1374   2.636   3.701   3.782
  470TIP3    H2 1375   2.700   3.571   3.826
  471TIP3   OH2 1376   4.789   2.844   0.768
  471TIP3    H1 1377   4.828   2.835   0.855
  471TIP3    H2 1378   4.863   2.839   0.707
  472TIP3   OH2 1379   1.478   3.763   4.489
  472TIP3    H1 1380   1.529   3.838   4.459
  472TIP3    H2 1381   1.527   3.729   4.564
  473TIP3   OH2 1382   4.914   1.891   0.486
  473TIP3    H1 1383   4.916   1.862   0.395
  473TIP3    H2 1384   4.823   1.918   0.501
  474TIP3   OH2 1385   5.541   3.187   5.394
  474TIP3    H1 1386   5.606   3.124   5.426
  474TIP3    H2 1387   5.565   3.202   5.303
  475TIP3   OH2 1388   3.434   2.557   0.000
  475TIP3    H1 1389   3.517   2.599  -0.024
  475TIP3    H2 1390   3.460   2.475   0.042
  476TIP3   OH2 1391   2.652   6.297   2.996
  476TIP3    H1 1392   2.593   6.223   2.978
  476TIP3    H2 1393   2.661   6.297   3.092
  477TIP3   OH2 1394   6.340   2.956   4.420
  477TIP3    H1 1395   6.261   2.928   4.466
  477TIP3    H2 1396   6.330   2.921   4.332
  478TIP3   OH2 1397   0.693   5.399   2.717
  478TIP3    H1 1398   0.768   5.428   2.665
  478TIP3    H2 1399   0.633   5.473   2.717
  479TIP3   OH2 1400   3.351   6.699   5.389
  479TIP3    H1 1401   3.420   6.640   5.358
  479TIP3    H2 1402   3.396   6.759   5.449
  480TIP3   OH2 1403   0.594   4.587   1.737
  480TIP3    H1 1404   0.658   4.556   1.802
  480TIP3    H2 1405   0.514   4.603   1.787
  481TIP3   OH2 1406   5.645   1.421   1.721
  481TIP3    H1 1407   5.637   1.342   1.668
  481TIP3    H2 1408   5.725   1.463   1.689
  482TIP3   OH2 1409   5.204   3.022   2.859
  482TIP3    H1 1410   5.265   3.096   2.869
  482TIP3    H2 1411   5.199   2.984   2.946
  483TIP3   OH2 1412   6.877   3.945   2.429
  483TIP3    H1 1413   6.818   3.960   2.355
  483TIP3    H2 1414   6.899   4.033   2.460
  484TIP3   OH2 1415   6.710   2.514   3.611
  484TIP3    H1 1416   6.617   2.492   3.615
  484TIP3    H2 1417   6.754   2.440   3.651
  485TIP3   OH2 1418   6.175   4.423   1.043
  485TIP3    H1 1419   6.195   4.330   1.031
  485TIP3    H2 1420   6.152   4.454   0.955
  486TIP3   OH2 1421   0.578   4.913   4.778
  486TIP3    H1 1422   0.603   4.825   4.803
  486TIP3    H2 1423   0.495   4.929   4.823
  487TIP3   OH2 1424   4.641   5.777   4.124
  487TIP3    H1 1425   4.728   5.757   4.160
  487TIP3    H2 1426   4.600   5.692   4.112
  488TIP3   OH2 1427   1.804   3.183   5.184
  488TIP3    H1 1428   1.835   3.196   5.095
  488TIP3    H2 1429   1.799   3.088   5.194
  489TIP3   OH2 1430   5.871   1.202   3.242
  489TIP3    H1 1431   5.886   1.182   3.335
  489TIP3    H2 1432   5.874   1.298   3.238
  490TIP3   OH2 1433   1.758   6.159   0.505
  490TIP3    H1 1434   1.786   6.232   0.561
  490TIP3    H2 1435   1.704   6.105   0.562
  491TIP3   OH2 1436   2.692   6.624   0.425
  491TIP3    H1 1437   2.730   6.603   0.510
  491TIP3    H2 1438   2.606   6.662   0.446
  492TIP3   OH2 1439   0.654   4.259   5.243
  492TIP3    H1 1440   0.566   4.256   5.207
  492TIP3    H2 1441   0.685   4.168   5.240
  493TIP3   OH2 1442   3.206   2.744   5.620
  493TIP3    H1 1443   3.170   2.770   5.704
  493TIP3    H2 1444   3.204   2.648   5.622
  494TIP3   OH2 1445   6.207   5.801   4.446
  494TIP3    H1 1446   6.246   5.856   4.378
  494TIP3    H2 1447   6.167   5.864   4.507
  495TIP3   OH2 1448   2.279   3.727   1.543
  495TIP3    H1 1449   2.367   3.720   1.578
  495TIP3    H2 1450   2.224   3.748   1.619
  496TIP3   OH2 1451   3.999   6.448   4.586
  496TIP3    H1 1452   3.960   6.364   4.609
  496TIP3    H2 1453   4.066   6.426   4.520
  497TIP3   OH2 1454   0.958   5.565   1.616
  497TIP3    H1 1455   0.985   5.617   1.540
  497TIP3    H2 1456   0.994   5.478   1.599
  498TIP3   OH2 1457   0.187   4.359   2.761
  498TIP3    H1 1458   0.267   4.340   2.809
  498TIP3    H2 1459   0.170   4.452   2.779
  499TIP3   OH2 1460   1.350   4.299   2.703
  499TIP3    H1 1461   1.334   4.232   2.770
  499TIP3    H2 1462   1.436   4.276   2.667
  500TIP3   OH2 1463   1.970   0.907   2.348
  500TIP3    H1 1464   1.908   0.841   2.318
  500TIP3    H2 1465   1.959   0.980   2.287
  501TIP3   OH2 1466   2.454   1.865   2.287
  501TIP3    H1 1467   2.504   1.914   2.352
  501TIP3    H2 1468   2.499   1.883   2.204
  502TIP3   OH2 1469   7.084   4.698   2.351
  502TIP3    H1 1470   7.031   4.775   2.368
  502TIP3    H2 1471   7.129   4.717   2.270
  503TIP3   OH2 1472   2.100   1.015   1.589
  503TIP3    H1 1473   2.059   0.929   1.594
  503TIP3    H2 1474   2.156   1.011   1.511
  504TIP3   OH2 1475   5.012   2.390   3.471
  504TIP3    H1 1476   5.084   2.376   3.533
  504TIP3    H2 1477   4.952   2.318   3.488
  505TIP3   OH2 1478   4.198   2.850   1.672
  505TIP3    H1 1479   4.267   2.814   1.616
  505TIP3    H2 1480   4.199   2.944   1.654
  506TIP3   OH2 1481   1.450   0.229   5.685
  506TIP3    H1 1482   1.487   0.210   5.599
  506TIP3    H2 1483   1.398   0.151   5.706
  507TIP3   OH2 1484   4.745   1.684   3.173
  507TIP3    H1 1485   4.724   1.624   3.102
  507TIP3    H2 1486   4.683   1.756   3.163
  508TIP3   OH2 1487   2.043   0.777   5.247
  508TIP3    H1 1488   2.110   0.829   5.202
  508TIP3    H2 1489   2.090   0.701   5.281
  509TIP3   OH2 1490   0.571   2.142   4.797
  509TIP3    H1 1491   0.557   2.058   4.841
  509TIP3    H2 1492   0.554   2.123   4.705
  510TIP3   OH2 1493   2.772   2.849   4.652
  510TIP3    H1 1494   2.844   2.894   4.608
  510TIP3    H2 1495   2.773   2.761   4.616
  511TIP3   OH2 1496   2.368   4.292   2.701
  511TIP3    H1 1497   2.310   4.368   2.695
  511TIP3    H2 1498   2.361   4.251   2.615
  512TIP3   OH2 1499   1.462   4.669   4.541
  512TIP3    H1 1500   1.425   4.743   4.491
  512TIP3    H2 1501   1.493   4.608   4.474
  513TIP3   OH2 1502   6.655   4.819   5.222
  513TIP3    H1 1503   6.615   4.874   5.155
  513TIP3    H2 1504   6.735   4.785   5.180
  514TIP3   OH2 1505   4.663   2.366   1.154
  514TIP3    H1 1506   4.634   2.326   1.072
  514TIP3    H2 1507   4.710   2.296   1.200
  515TIP3   OH2 1508   5.093   4.469   5.418
  515TIP3    H1 1509   5.100   4.502   5.328
  515TIP3    H2 1510   5.153   4.395   5.421
  516TIP3   OH2 1511   6.466   0.808   1.790
  516TIP3    H1 1512   6.459   0.724   1.836
  516TIP3    H2 1513   6.393   0.860   1.824
  517TIP3   OH2 1514   6.830   4.895   1.721
  517TIP3    H1 1515   6.890   4.937   1.659
  517TIP3    H2 1516   6.845   4.801   1.708
  518TIP3   OH2 1517   0.171   6.796   2.796
  518TIP3    H1 1518   0.214   6.713   2.818
  518TIP3    H2 1519   0.090   6.770   2.752
  519TIP3   OH2 1520   5.753   0.268   4.476
  519TIP3    H1 1521   5.817   0.251   4.407
  519TIP3    H2 1522   5.804   0.295   4.552
  520TIP3   OH2 1523   0.959   1.296   2.461
  520TIP3    H1 1524   1.030   1.345   2.418
  520TIP3    H2 1525   0.901   1.270   2.390
  521TIP3   OH2 1526   0.441   2.903   2.287
  521TIP3    H1 1527   0.514   2.940   2.336
  521TIP3    H2 1528   0.366   2.957   2.312
  522TIP3   OH2 1529   6.586   1.431   2.632
  522TIP3    H1 1530   6.556   1.520   2.649
  522TIP3    H2 1531   6.617   1.400   2.717
  523TIP3   OH2 1532   5.448   2.840   5.501
  523TIP3    H1 1533   5.361   2.818   5.467
  523TIP3    H2 1534   5.488   2.893   5.433
  524TIP3   OH2 1535   2.522   4.170   0.108
  524TIP3    H1 1536   2.457   4.232   0.139
  524TIP3    H2 1537   2.473   4.111   0.050
  525TIP3   OH2 1538   0.950   2.823   1.924
  525TIP3    H1 1539   1.012   2.887   1.958
  525TIP3    H2 1540   1.004   2.762   1.873
  526TIP3   OH2 1541   4.937   0.315   0.712
  526TIP3    H1 1542   5.027   0.300   0.681
  526TIP3    H2 1543   4.914   0.400   0.675
  527TIP3   OH2 1544   2.299   4.239   0.926
  527TIP3    H1 1545   2.333   4.309   0.869
  527TIP3    H2 1546   2.235   4.193   0.872
  528TIP3   OH2 1547   1.308   0.988   1.499
  528TIP3    H1 1548   1.285   1.069   1.453
  528TIP3    H2 1549   1.258   0.992   1.580
  529TIP3   OH2 1550   2.867   5.731   3.873
  529TIP3    H1 1551   2.838   5.690   3.954
  529TIP3    H2 1552   2.895   5.657   3.818
  530TIP3   OH2 1553   3.446   4.111   0.845
  530TIP3    H1 1554   3.541   4.116   0.860
  530TIP3    H2 1555   3.425   4.192   0.799
  531TIP3   OH2 1556   0.201   1.312   5.564
  531TIP3    H1 1557   0.170   1.366   5.491
  531TIP3    H2 1558   0.161   1.351   5.641
  532TIP3   OH2 1559   4.915   2.929   4.164
  532TIP3    H1 1560   4.986   2.989   4.143
  532TIP3    H2 1561   4.897   2.942   4.257
  533TIP3   OH2 1562   3.084   1.475   4.360
  533TIP3    H1 1563   3.134   1.451   4.438
  533TIP3    H2 1564   3.065   1.392   4.317
  534TIP3   OH2 1565   3.062   5.805   2.825
  534TIP3    H1 1566   3.034   5.722   2.864
  534TIP3    H2 1567   3.076   5.863   2.900
  535TIP3   OH2 1568   2.338   1.378   3.634
  535TIP3    H1 1569   2.292   1.377   3.550
  535TIP3    H2 1570   2.404   1.447   3.624
  536TIP3   OH2 1571   0.280   0.990   0.271
  536TIP3    H1 1572   0.299   1.074   0.315
  536TIP3    H2 1573   0.187   0.975   0.289
  537TIP3   OH2 1574   4.865   1.006   5.196
  537TIP3    H1 1575   4.812   0.928   5.180
  537TIP3    H2 1576   4.940   0.974   5.246
  538TIP3   OH2 1577   3.831   4.082   5.411
  538TIP3    H1 1578   3.795   4.091   5.323
  538TIP3    H2 1579   3.812   4.166   5.454
  539TIP3   OH2 1580   2.972   4.200   4.040
  539TIP3    H1 1581   2.985   4.292   4.015
  539TIP3    H2 1582   3.000   4.196   4.132
  540TIP3   OH2 1583   2.599   5.112   3.463
  540TIP3    H1 1584   2.559   5.117   3.549
  540TIP3    H2 1585   2.602   5.203   3.432
  541TIP3   OH2 1586   4.730   1.084   5.435
  541TIP3    H1 1587   4.799   1.141   5.468
  541TIP3    H2 1588   4.751   1.072   5.342
  542TIP3   OH2 1589   5.959   5.423   0.356
  542TIP3    H1 1590   5.980   5.492   0.293
  542TIP3    H2 1591   6.002   5.449   0.437
  543TIP3   OH2 1592   4.559   5.654   5.831
  543TIP3    H1 1593   4.631   5.664   5.894
  543TIP3    H2 1594   4.570   5.564   5.798
  544TIP3   OH2 1595   2.379   2.160   5.235
  544TIP3    H1 1596   2.411   2.195   5.152
  544TIP3    H2 1597   2.291   2.196   5.244
  545TIP3   OH2 1598   2.381   2.658   1.411
  545TIP3    H1 1599   2.455   2.686   1.358
  545TIP3    H2 1600   2.304   2.684   1.360
  546TIP3   OH2 1601   1.228   6.614   0.904
  546TIP3    H1 1602   1.172   6.538   0.921
  546TIP3    H2 1603   1.198   6.680   0.966
  547TIP3   OH2 1604   0.940   5.550   0.632
  547TIP3    H1 1605   0.932   5.645   0.638
  547TIP3    H2 1606   1.008   5.527   0.695
  548TIP3   OH2 1607   6.822   5.956   0.091
  548TIP3    H1 1608   6.809   5.888   0.156
  548TIP3    H2 1609   6.832   6.036   0.141
  549TIP3   OH2 1610   4.289   6.231   4.841
  549TIP3    H1 1611   4.231   6.305   4.856
  549TIP3    H2 1612   4.262   6.195   4.757
  550TIP3   OH2 1613   0.628   2.656   2.267
  550TIP3    H1 1614   0.671   2.708   2.199
  550TIP3    H2 1615   0.696   2.638   2.332
  551TIP3   OH2 1616   1.860   0.164   2.204
  551TIP3    H1 1617   1.875   0.071   2.188
  551TIP3    H2 1618   1.765   0.175   2.194
  552TIP3   OH2 1619   2.021   2.968   2.979
  552TIP3    H1 1620   2.039   2.913   2.903
  552TIP3    H2 1621   2.098   2.960   3.034
  553TIP3   OH2 1622   5.846   4.033   2.017
  553TIP3    H1 1623   5.788   3.981   2.072
  553TIP3    H2 1624   5.811   4.122   2.020
  554TIP3   OH2 1625   0.715   3.695   0.052
  554TIP3    H1 1626   0.687   3.745  -0.024
  554TIP3    H2 1627   0.797   3.654   0.025
  555TIP3   OH2 1628   6.538   1.640   2.350
  555TIP3    H1 1629   6.482   1.591   2.411
  555TIP3    H2 1630   6.606   1.678   2.407
  556TIP3   OH2 1631   6.648   6.721   3.249
  556TIP3    H1 1632   6.635   6.811   3.279
  556TIP3    H2 1633   6.562   6.694   3.218
  557TIP3   OH2 1634   5.338   0.701   4.253
  557TIP3    H1 1635   5.323   0.792   4.227
  557TIP3    H2 1636   5.314   0.650   4.176
  558TIP3   OH2 1637   1.082   1.942   4.444
  558TIP3    H1 1638   1.148   1.999   4.484
  558TIP3    H2 1639   1.128   1.860   4.427
  559TIP3   OH2 1640   1.675   3.549   5.266
  559TIP3    H1 1641   1.631   3.488   5.207
  559TIP3    H2 1642   1.742   3.591   5.213
  560TIP3   OH2 1643   4.195   1.501   5.493
  560TIP3    H1 1644   4.154   1.586   5.503
  560TIP3    H2 1645   4.245   1.507   5.412
  561TIP3   OH2 1646   2.935   3.725   3.238
  561TIP3    H1 1647   2.895   3.652   3.286
  561TIP3    H2 1648   3.028   3.720   3.261
  562TIP3   OH2 1649   3.420   6.331   0.707
  562TIP3    H1 1650   3.441   6.376   0.625
  562TIP3    H2 1651   3.432   6.238   0.687
  563TIP3   OH2 1652   0.852   4.508   1.846
  563TIP3    H1 1653   0.936   4.518   1.892
  563TIP3    H2 1654   0.876   4.475   1.759
  564TIP3   OH2 1655   1.762   4.449   4.816
  564TIP3    H1 1656   1.766   4.438   4.911
  564TIP3    H2 1657   1.822   4.521   4.798
  565TIP3   OH2 1658   1.427   5.885   4.217
  565TIP3    H1 1659   1.408   5.901   4.124
  565TIP3    H2 1660   1.485   5.957   4.242
  566TIP3   OH2 1661   5.070   0.912   3.095
  566TIP3    H1 1662   5.085   0.831   3.046
  566TIP3    H2 1663   4.983   0.900   3.135
  567TIP3   OH2 1664   1.974   2.589   4.649
  567TIP3    H1 1665   2.036   2.661   4.659
  567TIP3    H2 1666   1.900   2.627   4.601
  568TIP3   OH2 1667   7.041   6.711   5.365
  568TIP3    H1 1668   6.991   6.642   5.322
  568TIP3    H2 1669   7.128   6.706   5.326
  569TIP3   OH2 1670   4.023   4.496   0.475
  569TIP3    H1 1671   4.021   4.539   0.561
  569TIP3    H2 1672   3.977   4.413   0.488
  570TIP3   OH2 1673   1.787   0.704   2.319
  570TIP3    H1 1674   1.790   0.645   2.244
  570TIP3    H2 1675   1.774   0.647   2.394
  571TIP3   OH2 1676   3.060   3.298   0.244
  571TIP3    H1 1677   3.073   3.357   0.317
  571TIP3    H2 1678   2.983   3.332   0.199
  572TIP3   OH2 1679   2.219   4.542   3.300
  572TIP3    H1 1680   2.269   4.467   3.267
  572TIP3    H2 1681   2.223   4.606   3.230
  573TIP3   OH2 1682   0.257   0.204   2.650
  573TIP3    H1 1683   0.285   0.117   2.676
  573TIP3    H2 1684   0.333   0.260   2.666
  574TIP3   OH2 1685   6.972   5.168   4.916
  574TIP3    H1 1686   6.909   5.125   4.975
  574TIP3    H2 1687   6.962   5.122   4.833
  575TIP3   OH2 1688   5.696   1.744   3.261
  575TIP3    H1 1689   5.652   1.772   3.341
  575TIP3    H2 1690   5.759   1.813   3.242
  576TIP3   OH2 1691   5.021   4.307   4.797
  576TIP3    H1 1692   5.101   4.316   4.744
  576TIP3    H2 1693   4.966   4.380   4.768
  577TIP3   OH2 1694   5.389   2.065   2.071
  577TIP3    H1 1695   5.415   1.983   2.028
  577TIP3    H2 1696   5.360   2.122   1.999
  578TIP3   OH2 1697   0.710   4.145   1.201
  578TIP3    H1 1698   0.709   4.185   1.289
  578TIP3    H2 1699   0.730   4.053   1.217
  579TIP3   OH2 1700   5.090   6.335   5.733
  579TIP3    H1 1701   5.039   6.337   5.653
  579TIP3    H2 1702   5.174   6.374   5.710
  580TIP3   OH2 1703   3.310   0.261   2.438
  580TIP3    H1 1704   3.405   0.265   2.446
  580TIP3    H2 1705   3.284   0.189   2.495
  581TIP3   OH2 1706   1.349   4.549   3.894
  581TIP3    H1 1707   1.336   4.531   3.987
  581TIP3    H2 1708   1.441   4.528   3.878
  582TIP3   OH2 1709   1.182   6.131   2.685
  582TIP3    H1 1710   1.194   6.037   2.700
  582TIP3    H2 1711   1.261   6.158   2.638
  583TIP3   OH2 1712   0.515   6.123   5.229
  583TIP3    H1 1713   0.562   6.090   5.305
  583TIP3    H2 1714   0.431   6.153   5.264
  584TIP3   OH2 1715   0.975   4.473   2.373
  584TIP3    H1 1716   0.879   4.482   2.368
  584TIP3    H2 1717   0.989   4.380   2.388
  585TIP3   OH2 1718   6.183   2.036   3.335
  585TIP3    H1 1719   6.139   2.020   3.251
  585TIP3    H2 1720   6.264   2.081   3.311
  586TIP3   OH2 1721   0.961   3.779   4.944
  586TIP3    H1 1722   1.046   3.778   4.900
  586TIP3    H2 1723   0.928   3.868   4.932
  587TIP3   OH2 1724   6.349   3.949   3.960
  587TIP3    H1 1725   6.369   3.922   4.050
  587TIP3    H2 1726   6.343   3.867   3.911
  588TIP3   OH2 1727   6.540   6.558   5.879
  588TIP3    H1 1728   6.561   6.623   5.811
  588TIP3    H2 1729   6.447   6.570   5.896
  589TIP3   OH2 1730   1.558   3.992   3.964
  589TIP3    H1 1731   1.499   4.055   4.004
  589TIP3    H2 1732   1.516   3.907   3.979
  590TIP3   OH2 1733   6.251   5.802   4.875
  590TIP3    H1 1734   6.256   5.723   4.823
  590TIP3    H2 1735   6.207   5.775   4.956
  591TIP3   OH2 1736   5.813   4.298   3.972
  591TIP3    H1 1737   5.902   4.319   3.944
  591TIP3    H2 1738   5.776   4.247   3.899
  592TIP3   OH2 1739   5.878   6.788   2.343
  592TIP3    H1 1740   5.950   6.725   2.347
  592TIP3    H2 1741   5.853   6.790   2.250
  593TIP3   OH2 1742   5.166   0.599   0.329
  593TIP3    H1 1743   5.108   0.527   0.304
  593TIP3    H2 1744   5.118   0.678   0.308
  594TIP3   OH2 1745   6.880   1.052   1.739
  594TIP3    H1 1746   6.886   1.012   1.651
  594TIP3    H2 1747   6.911   1.142   1.726
  595TIP3   OH2 1748   1.718   4.159   0.923
  595TIP3    H1 1749   1.727   4.114   1.007
  595TIP3    H2 1750   1.788   4.121   0.869
  596TIP3   OH2 1751   2.354   3.586   3.143
  596TIP3    H1 1752   2.420   3.598   3.075
  596TIP3    H2 1753   2.327   3.494   3.134
  597TIP3   OH2 1754   3.903   4.566   1.293
  597TIP3    H1 1755   3.963   4.611   1.352
  597TIP3    H2 1756   3.844   4.518   1.351
  598TIP3   OH2 1757   6.930   5.780   2.345
  598TIP3    H1 1758   6.996   5.713   2.364
  598TIP3    H2 1759   6.969   5.833   2.276
  599TIP3   OH2 1760   1.159   2.589   3.293
  599TIP3    H1 1761   1.198   2.676   3.300
  599TIP3    H2 1762   1.068   2.600   3.321
  600TIP3   OH2 1763   3.014   6.163   5.040
  600TIP3    H1 1764   2.938   6.196   5.088
  600TIP3    H2 1765   3.088   6.214   5.073
  601TIP3   OH2 1766   2.254   6.207   0.342
  601TIP3    H1 1767   2.281   6.297   0.362
  601TIP3    H2 1768   2.258   6.200   0.247
  602TIP3   OH2 1769   2.232   4.713   2.937
  602TIP3    H1 1770   2.216   4.805   2.959
  602TIP3    H2 1771   2.304   4.686   2.995
  603TIP3   OH2 1772   0.386   0.115   5.079
  603TIP3    H1 1773   0.337   0.086   5.156
  603TIP3    H2 1774   0.472   0.076   5.090
  604TIP3   OH2 1775   0.752   0.308   1.123
  604TIP3    H1 1776   0.771   0.402   1.114
  604TIP3    H2 1777   0.680   0.304   1.187
  605TIP3   OH2 1778   6.520   5.415   3.485
  605TIP3    H1 1779   6.568   5.340   3.448
  605TIP3    H2 1780   6.563   5.492   3.447
  606TIP3   OH2 1781   6.731   3.856   1.250
  606TIP3    H1 1782   6.677   3.899   1.317
  606TIP3    H2 1783   6.667   3.820   1.188
  607TIP3   OH2 1784   5.548   6.515   0.854
  607TIP3    H1 1785   5.556   6.459   0.931
  607TIP3    H2 1786   5.516   6.599   0.888
  608TIP3   OH2 1787   5.673   6.402   5.061
  608TIP3    H1 1788   5.726   6.338   5.108
  608TIP3    H2 1789   5.596   6.353   5.032
  609TIP3   OH2 1790   3.259   3.653   5.696
  609TIP3    H1 1791   3.252   3.558   5.698
  609TIP3    H2 1792   3.242   3.677   5.605
  610TIP3   OH2 1793   2.569   6.260   0.158
  610TIP3    H1 1794   2.574   6.307   0.076
  610TIP3    H2 1795   2.504   6.191   0.143
  611TIP3   OH2 1796   4.262   3.744   5.846
  611TIP3    H1 1797   4.305   3.700   5.772
  611TIP3    H2 1798   4.256   3.835   5.818
  612TIP3   OH2 1799   6.927   2.041   4.779
  612TIP3    H1 1800   6.941   1.997   4.695
  612TIP3    H2 1801   6.860   1.989   4.823
  613TIP3   OH2 1802   4.681   6.773   2.828
  613TIP3    H1 1803   4.620   6.810   2.764
  613TIP3    H2 1804   4.757   6.831   2.826
  614TIP3   OH2 1805   4.127   2.333   3.430
  614TIP3    H1 1806   4.199   2.390   3.403
  614TIP3    H2 1807   4.137   2.323   3.524
  615TIP3   OH2 1808   1.797   2.572   5.338
  615TIP3    H1 1809   1.784   2.502   5.403
  615TIP3    H2 1810   1.744   2.645   5.370
  616TIP3   OH2 1811   2.191   3.115   4.692
  616TIP3    H1 1812   2.184   3.184   4.758
  616TIP3    H2 1813   2.284   3.112   4.671
  617TIP3   OH2 1814   3.425   5.153   2.166
  617TIP3    H1 1815   3.485   5.195   2.104
  617TIP3    H2 1816   3.361   5.108   2.111
  618TIP3   OH2 1817   2.887   5.927   4.647
  618TIP3    H1 1818   2.814   5.985   4.627
  618TIP3    H2 1819   2.935   5.971   4.717
  619TIP3   OH2 1820   3.953   4.694   3.185
  619TIP3    H1 1821   4.026   4.713   3.126
  619TIP3    H2 1822   3.966   4.602   3.209
  620TIP3   OH2 1823   4.988   3.712   5.409
  620TIP3    H1 1824   4.894   3.707   5.391
  620TIP3    H2 1825   5.000   3.661   5.489
  621TIP3   OH2 1826   1.349   5.322   1.258
  621TIP3    H1 1827   1.257   5.323   1.233
  621TIP3    H2 1828   1.393   5.281   1.183
  622TIP3   OH2 1829   3.407   4.674   5.462
  622TIP3    H1 1830   3.343   4.668   5.532
  622TIP3    H2 1831   3.470   4.604   5.481
  623TIP3   OH2 1832   4.050   1.260   4.978
  623TIP3    H1 1833   4.144   1.277   4.977
  623TIP3    H2 1834   4.025   1.266   5.071
  624TIP3   OH2 1835   1.363   4.630   3.235
  624TIP3    H1 1836   1.445   4.598   3.198
  624TIP3    H2 1837   1.382   4.720   3.260
  625TIP3   OH2 1838   5.225   1.651   5.046
  625TIP3    H1 1839   5.220   1.622   4.954
  625TIP3    H2 1840   5.319   1.660   5.062
  626TIP3   OH2 1841   0.672   4.172   2.296
  626TIP3    H1 1842   0.691   4.257   2.258
  626TIP3    H2 1843   0.745   4.116   2.268
  627TIP3   OH2 1844   1.438   3.632   4.999
  627TIP3    H1 1845   1.371   3.565   4.983
  627TIP3    H2 1846   1.392   3.715   4.986
  628TIP3   OH2 1847   5.092   0.107   5.199
  628TIP3    H1 1848   5.173   0.129   5.245
  628TIP3    H2 1849   5.102   0.016   5.172
  629TIP3   OH2 1850   3.867   2.646   1.254
  629TIP3    H1 1851   3.943   2.639   1.312
  629TIP3    H2 1852   3.902   2.684   1.173
  630TIP3   OH2 1853   4.545   1.770   2.307
  630TIP3    H1 1854   4.600   1.738   2.235
  630TIP3    H2 1855   4.479   1.824   2.264
  631TIP3   OH2 1856   6.107   2.955   2.320
  631TIP3    H1 1857   6.099   3.021   2.251
  631TIP3    H2 1858   6.048   2.986   2.389
  632TIP3   OH2 1859   2.818   2.378   4.242
  632TIP3    H1 1860   2.817   2.282   4.246
  632TIP3    H2 1861   2.736   2.404   4.285
  633TIP3   OH2 1862   4.666   5.020   2.515
  633TIP3    H1 1863   4.724   4.946   2.499
  633TIP3    H2 1864   4.612   5.026   2.437
  634TIP3   OH2 1865   3.110   2.390   4.981
  634TIP3    H1 1866   3.050   2.454   4.944
  634TIP3    H2 1867   3.123   2.326   4.911
  635TIP3   OH2 1868   0.216   2.531   3.238
  635TIP3    H1 1869   0.151   2.505   3.304
  635TIP3    H2 1870   0.174   2.510   3.155
  636TIP3   OH2 1871   6.378   5.024   2.533
  636TIP3    H1 1872   6.326   5.102   2.556
  636TIP3    H2 1873   6.454   5.027   2.591
  637TIP3   OH2 1874   0.613   4.906   3.589
  637TIP3    H1 1875   0.636   4.974   3.653
  637TIP3    H2 1876   0.523   4.882   3.612
  638TIP3   OH2 1877   5.162   5.067   5.484
  638TIP3    H1 1878   5.157   5.122   5.406
  638TIP3    H2 1879   5.077   5.079   5.526
  639TIP3   OH2 1880   4.074   2.934   0.548
  639TIP3    H1 1881   4.019   2.922   0.471
  639TIP3    H2 1882   4.101   3.026   0.544
  640TIP3   OH2 1883   2.610   1.747   3.018
  640TIP3    H1 1884   2.548   1.692   3.066
  640TIP3    H2 1885   2.628   1.820   3.078
  641TIP3   OH2 1886   5.379   1.361   1.009
  641TIP3    H1 1887   5.325   1.414   1.067
  641TIP3    H2 1888   5.465   1.359   1.050
  642TIP3   OH2 1889   6.959   2.585   3.447
  642TIP3    H1 1890   7.025   2.555   3.509
  642TIP3    H2 1891   6.887   2.617   3.502
  643TIP3   OH2 1892   0.236   1.808   1.297
  643TIP3    H1 1893   0.254   1.761   1.378
  643TIP3    H2 1894   0.166   1.869   1.319
  644TIP3   OH2 1895   5.323   1.197   0.606
  644TIP3    H1 1896   5.258   1.149   0.554
  644TIP3    H2 1897   5.284   1.283   0.619
  645TIP3   OH2 1898   1.752   6.208   4.024
  645TIP3    H1 1899   1.749   6.303   4.009
  645TIP3    H2 1900   1.844   6.190   4.044
  646TIP3   OH2 1901   2.370   2.299   0.050
  646TIP3    H1 1902   2.433   2.334  -0.013
  646TIP3    H2 1903   2.424   2.255   0.116
  647TIP3   OH2 1904   3.518   5.745   0.969
  647TIP3    H1 1905   3.484   5.664   1.006
  647TIP3    H2 1906   3.545   5.721   0.880
  648TIP3   OH2 1907   0.654   0.503   4.203
  648TIP3    H1 1908   0.616   0.590   4.189
  648TIP3    H2 1909   0.701   0.510   4.286
  649TIP3   OH2 1910   2.730   3.342   4.427
  649TIP3    H1 1911   2.764   3.370   4.342
  649TIP3    H2 1912   2.805   3.301   4.470
  650TIP3   OH2 1913   1.521   3.401   0.206
  650TIP3    H1 1914   1.492   3.379   0.117
  650TIP3    H2 1915   1.614   3.380   0.207
  651TIP3   OH2 1916   5.915   5.389   2.246
  651TIP3    H1 1917   5.996   5.441   2.253
  651TIP3    H2 1918   5.878   5.391   2.334
  652TIP3   OH2 1919   5.674   2.772   3.578
  652TIP3    H1 1920   5.593   2.750   3.532
  652TIP3    H2 1921   5.742   2.723   3.531
  653TIP3   OH2 1922   6.394   3.641   2.146
  653TIP3    H1 1923   6.401   3.547   2.162
  653TIP3    H2 1924   6.316   3.667   2.196
  654TIP3   OH2 1925   1.134   5.055   3.059
  654TIP3    H1 1926   1.171   5.068   3.146
  654TIP3    H2 1927   1.190   5.106   3.001
  655TIP3   OH2 1928   0.224   5.912   0.990
  655TIP3    H1 1929   0.316   5.890   1.006
  655TIP3    H2 1930   0.188   5.927   1.077
  656TIP3   OH2 1931   7.077   3.167   1.615
  656TIP3    H1 1932   7.059   3.091   1.671
  656TIP3    H2 1933   6.999   3.221   1.621
  657TIP3   OH2 1934   2.860   4.792   1.110
  657TIP3    H1 1935   2.828   4.782   1.200
  657TIP3    H2 1936   2.867   4.886   1.097
  658TIP3   OH2 1937   5.224   4.409   3.990
  658TIP3    H1 1938   5.292   4.378   4.049
  658TIP3    H2 1939   5.270   4.464   3.927
  659TIP3   OH2 1940   3.642   6.639   1.920
  659TIP3    H1 1941   3.663   6.551   1.888
  659TIP3    H2 1942   3.547   6.637   1.934
  660TIP3   OH2 1943   2.202   5.183   4.434
  660TIP3    H1 1944   2.233   5.256   4.487
  660TIP3    H2 1945   2.191   5.221   4.346
  661TIP3   OH2 1946   2.514   4.655   1.200
  661TIP3    H1 1947   2.566   4.676   1.278
  661TIP3    H2 1948   2.544   4.568   1.174
  662TIP3   OH2 1949   5.328   0.375   3.769
  662TIP3    H1 1950   5.287   0.440   3.713
  662TIP3    H2 1951   5.339   0.297   3.713
  663TIP3   OH2 1952   4.094   0.219   0.391
  663TIP3    H1 1953   4.167   0.275   0.418
  663TIP3    H2 1954   4.052   0.267   0.320
  664TIP3   OH2 1955   4.730   6.449   5.217
  664TIP3    H1 1956   4.663   6.498   5.170
  664TIP3    H2 1957   4.714   6.358   5.193
  665TIP3   OH2 1958   5.487   2.987   2.389
  665TIP3    H1 1959   5.491   3.069   2.339
  665TIP3    H2 1960   5.578   2.966   2.408
  666TIP3   OH2 1961   6.084   3.483   4.786
  666TIP3    H1 1962   5.998   3.474   4.743
  666TIP3    H2 1963   6.111   3.394   4.806
  667TIP3   OH2 1964   0.700   3.791   2.446
  667TIP3    H1 1965   0.682   3.875   2.404
  667TIP3    H2 1966   0.732   3.815   2.533
  668TIP3   OH2 1967   6.309   5.465   1.482
  668TIP3    H1 1968   6.252   5.388   1.480
  668TIP3    H2 1969   6.395   5.431   1.456
  669TIP3   OH2 1970   6.161   4.897   0.913
  669TIP3    H1 1971   6.196   4.930   0.996
  669TIP3    H2 1972   6.075   4.939   0.905
  670TIP3   OH2 1973   2.219   4.725   2.651
  670TIP3    H1 1974   2.158   4.650   2.648
  670TIP3    H2 1975   2.252   4.724   2.740
  671TIP3   OH2 1976   0.151   6.454   4.316
  671TIP3    H1 1977   0.241   6.483   4.300
  671TIP3    H2 1978   0.161   6.368   4.359
  672TIP3   OH2 1979   2.409   1.775   4.394
  672TIP3    H1 1980   2.461   1.809   4.321
  672TIP3    H2 1981   2.435   1.829   4.469
  673TIP3   OH2 1982   5.588   1.982   1.044
  673TIP3    H1 1983   5.541   1.905   1.011
  673TIP3    H2 1984   5.536   2.011   1.119
  674TIP3   OH2 1985   0.867   6.153   0.536
  674TIP3    H1 1986   0.811   6.197   0.599
  674TIP3    H2 1987   0.811   6.136   0.461
  675TIP3   OH2 1988   6.141   6.779   3.860
  675TIP3    H1 1989   6.200   6.831   3.806
  675TIP3    H2 1990   6.063   6.768   3.807
  676TIP3   OH2 1991   1.026   6.770   4.377
  676TIP3    H1 1992   0.996   6.749   4.289
  676TIP3    H2 1993   1.098   6.709   4.394
  677TIP3   OH2 1994   2.847   5.872   2.638
  677TIP3    H1 1995   2.845   5.783   2.601
  677TIP3    H2 1996   2.929   5.876   2.687
  678TIP3   OH2 1997   0.505   5.500   3.606
  678TIP3    H1 1998   0.552   5.439   3.663
  678TIP3    H2 1999   0.574   5.555   3.569
  679TIP3   OH2 2000   4.802   0.078   5.264
  679TIP3    H1 2001   4.887   0.119   5.282
  679TIP3    H2 2002   4.742   0.119   5.326
  680TIP3   OH2 2003   5.283   1.653   0.401
  680TIP3    H1 2004   5.240   1.619   0.479
  680TIP3    H2 2005   5.217   1.646   0.332
  681TIP3   OH2 2006   1.921   2.995   2.422
  681TIP3    H1 2007   1.925   2.903   2.447
  681TIP3    H2 2008   1.982   3.003   2.349
  682TIP3   OH2 2009   4.032   4.634   2.181
  682TIP3    H1 2010   4.065   4.545   2.169
  682TIP3    H2 2011   4.064   4.660   2.267
  683TIP3   OH2 2012   5.774   1.967   2.760
  683TIP3    H1 2013   5.712   2.001   2.825
  683TIP3    H2 2014   5.740   1.880   2.738
  684TIP3   OH2 2015   5.305   0.664   0.563
  684TIP3    H1 2016   5.256   0.629   0.637
  684TIP3    H2 2017   5.243   0.662   0.490
  685TIP3   OH2 2018   2.672   4.282   2.277
  685TIP3    H1 2019   2.688   4.360   2.223
  685TIP3    H2 2020   2.577   4.283   2.290
  686TIP3   OH2 2021   7.176   1.415   0.799
  686TIP3    H1 2022   7.227   1.421   0.718
  686TIP3    H2 2023   7.242   1.400   0.867
  687TIP3   OH2 2024   1.919   5.005   3.266
  687TIP3    H1 2025   1.920   5.096   3.238
  687TIP3    H2 2026   1.845   4.999   3.327
  688TIP3   OH2 2027   2.760   0.966   3.508
  688TIP3    H1 2028   2.678   0.936   3.469
  688TIP3    H2 2029   2.782   0.898   3.572
  689TIP3   OH2 2030   1.148   3.376   1.108
  689TIP3    H1 2031   1.129   3.373   1.202
  689TIP3    H2 2032   1.131   3.287   1.077
  690TIP3   OH2 2033   3.523   2.345   4.203
  690TIP3    H1 2034   3.579   2.279   4.161
  690TIP3    H2 2035   3.521   2.418   4.142
  691TIP3   OH2 2036   6.946   4.929   4.737
  691TIP3    H1 2037   7.035   4.964   4.727
  691TIP3    H2 2038   6.910   4.929   4.648
  692TIP3   OH2 2039   4.697   1.903   4.912
  692TIP3    H1 2040   4.774   1.846   4.909
  692TIP3    H2 2041   4.623   1.842   4.916
  693TIP3   OH2 2042   2.600   3.152   4.778
  693TIP3    H1 2043   2.692   3.127   4.782
  693TIP3    H2 2044   2.587   3.205   4.857
  694TIP3   OH2 2045   6.117   1.078   2.717
  694TIP3    H1 2046   6.135   1.085   2.811
  694TIP3    H2 2047   6.040   1.021   2.712
  695TIP3   OH2 2048   0.892   1.489   3.784
  695TIP3    H1 2049   0.960   1.442   3.736
  695TIP3    H2 2050   0.835   1.420   3.818
  696TIP3   OH2 2051   6.530   6.161   5.674
  696TIP3    H1 2052   6.547   6.134   5.583
  696TIP3    H2 2053   6.501   6.080   5.717
  697TIP3   OH2 2054   2.650   2.431   3.888
  697TIP3    H1 2055   2.678   2.505   3.941
  697TIP3    H2 2056   2.706   2.359   3.916
  698TIP3   OH2 2057   5.063   2.332   4.990
  698TIP3    H1 2058   5.139   2.376   4.951
  698TIP3    H2 2059   5.069   2.242   4.959
  699TIP3   OH2 2060   6.099   4.902   4.225
  699TIP3    H1 2061   6.085   4.917   4.131
  699TIP3    H2 2062   6.013   4.911   4.264
  700TIP3   OH2 2063   6.455   3.402   3.209
  700TIP3    H1 2064   6.360   3.386   3.210
  700TIP3    H2 2065   6.470   3.461   3.283
  701TIP3   OH2 2066   5.252   0.209   4.859
  701TIP3    H1 2067   5.209   0.123   4.862
  701TIP3    H2 2068   5.317   0.201   4.789
  702TIP3   OH2 2069   0.804   4.414   3.267
  702TIP3    H1 2070   0.857   4.374   3.336
  702TIP3    H2 2071   0.849   4.391   3.186
  703TIP3   OH2 2072   6.911   0.948   5.915
  703TIP3    H1 2073   6.820   0.920   5.928
  703TIP3    H2 2074   6.930   0.927   5.824
  704TIP3   OH2 2075   4.056   6.665   1.850
  704TIP3    H1 2076   4.050   6.760   1.843
  704TIP3    H2 2077   4.059   6.648   1.944
  705TIP3   OH2 2078   1.580   5.245   2.774
  705TIP3    H1 2079   1.618   5.158   2.779
  705TIP3    H2 2080   1.606   5.278   2.688
  706TIP3   OH2 2081   5.112   5.197   5.801
  706TIP3    H1 2082   5.063   5.145   5.738
  706TIP3    H2 2083   5.048   5.258   5.838
  707TIP3   OH2 2084   6.954   4.002   2.980
  707TIP3    H1 2085   6.867   3.999   3.019
  707TIP3    H2 2086   6.963   4.093   2.951
  708TIP3   OH2 2087   7.114   0.423   0.384
  708TIP3    H1 2088   7.168   0.345   0.388
  708TIP3    H2 2089   7.038   0.402   0.438
  709TIP3   OH2 2090   2.559   2.330   1.921
  709TIP3    H1 2091   2.493   2.278   1.875
  709TIP3    H2 2092   2.638   2.322   1.868
  710TIP3   OH2 2093   1.431   4.763   0.019
  710TIP3    H1 2094   1.347   4.763   0.065
  710TIP3    H2 2095   1.490   4.808   0.078
  711TIP3   OH2 2096   1.259   2.099   4.560
  711TIP3    H1 2097   1.237   2.047   4.637
  711TIP3    H2 2098   1.348   2.130   4.577
  712TIP3   OH2 2099   0.811   1.296   3.959
  712TIP3    H1 2100   0.900   1.266   3.978
  712TIP3    H2 2101   0.783   1.242   3.884
  713TIP3   OH2 2102   6.951   6.426   3.975
  713TIP3    H1 2103   6.866   6.395   3.944
  713TIP3    H2 2104   6.943   6.521   3.977
  714TIP3   OH2 2105   6.317   4.097   4.888
  714TIP3    H1 2106   6.246   4.047   4.930
  714TIP3    H2 2107   6.293   4.101   4.796
  715TIP3   OH2 2108   1.607   3.705   5.509
  715TIP3    H1 2109   1.564   3.626   5.540
  715TIP3    H2 2110   1.639   3.682   5.422
  716TIP3   OH2 2111   1.337   1.527   2.130
  716TIP3    H1 2112   1.375   1.594   2.185
  716TIP3    H2 2113   1.276   1.574   2.073
  717TIP3   OH2 2114   3.138   5.122   1.245
  717TIP3    H1 2115   3.129   5.068   1.166
  717TIP3    H2 2116   3.109   5.065   1.316
  718TIP3   OH2 2117   5.756   0.459   3.456
  718TIP3    H1 2118   5.761   0.366   3.479
  718TIP3    H2 2119   5.682   0.492   3.507
  719TIP3   OH2 2120   7.001   1.690   5.673
  719TIP3    H1 2121   7.013   1.785   5.670
  719TIP3    H2 2122   7.022   1.666   5.764
  720TIP3   OH2 2123   2.651   5.605   2.884
  720TIP3    H1 2124   2.622   5.522   2.847
  720TIP3    H2 2125   2.745   5.594   2.898
  721TIP3   OH2 2126   7.082   3.421   1.052
  721TIP3    H1 2127   7.034   3.363   1.112
  721TIP3    H2 2128   7.105   3.365   0.978
  722TIP3   OH2 2129   4.277   5.551   4.198
  722TIP3    H1 2130   4.223   5.578   4.273
  722TIP3    H2 2131   4.272   5.625   4.138
  723TIP3   OH2 2132   3.536   1.763   0.417
  723TIP3    H1 2133   3.599   1.691   0.424
  723TIP3    H2 2134   3.450   1.721   0.423
  724TIP3   OH2 2135   5.407   5.455   2.112
  724TIP3    H1 2136   5.313   5.443   2.125
  724TIP3    H2 2137   5.447   5.384   2.162
  725TIP3   OH2 2138   4.531   0.681   5.324
  725TIP3    H1 2139   4.516   0.775   5.324
  725TIP3    H2 2140   4.618   0.670   5.285
  726TIP3   OH2 2141   4.382   2.702   4.472
  726TIP3    H1 2142   4.375   2.797   4.475
  726TIP3    H2 2143   4.300   2.670   4.509
  727TIP3   OH2 2144   3.387   3.811   1.040
  727TIP3    H1 2145   3.406   3.721   1.016
  727TIP3    H2 2146   3.331   3.804   1.118
  728TIP3   OH2 2147   6.194   6.416   5.144
  728TIP3    H1 2148   6.227   6.490   5.195
  728TIP3    H2 2149   6.126   6.453   5.088
  729TIP3   OH2 2150   6.867   3.433   4.309
  729TIP3    H1 2151   6.885   3.404   4.399
  729TIP3    H2 2152   6.838   3.355   4.263
  730TIP3   OH2 2153   0.067   0.321   4.625
  730TIP3    H1 2154   0.136   0.258   4.603
  730TIP3    H2 2155   0.014   0.276   4.691
  731TIP3   OH2 2156   1.398   1.900   5.233
  731TIP3    H1 2157   1.453   1.969   5.270
  731TIP3    H2 2158   1.431   1.890   5.143
  732TIP3   OH2 2159   2.505   0.254   3.239
  732TIP3    H1 2160   2.432   0.299   3.282
  732TIP3    H2 2161   2.576   0.257   3.302
  733TIP3   OH2 2162   5.535   0.993   4.736
  733TIP3    H1 2163   5.592   0.917   4.726
  733TIP3    H2 2164   5.495   0.982   4.823
  734TIP3   OH2 2165   5.891   6.115   0.095
  734TIP3    H1 2166   5.907   6.052   0.025
  734TIP3    H2 2167   5.810   6.085   0.136
  735TIP3   OH2 2168   2.589   2.440   4.368
  735TIP3    H1 2169   2.541   2.490   4.302
  735TIP3    H2 2170   2.530   2.437   4.443
  736TIP3   OH2 2171   2.040   1.142   4.966
  736TIP3    H1 2172   1.965   1.201   4.953
  736TIP3    H2 2173   2.077   1.132   4.878
  737TIP3   OH2 2174   5.887   1.325   0.719
  737TIP3    H1 2175   5.917   1.380   0.791
  737TIP3    H2 2176   5.818   1.375   0.677
  738TIP3   OH2 2177   1.506   1.291   1.528
  738TIP3    H1 2178   1.488   1.217   1.586
  738TIP3    H2 2179   1.601   1.288   1.513
  739TIP3   OH2 2180   3.764   2.347   1.679
  739TIP3    H1 2181   3.783   2.422   1.736
  739TIP3    H2 2182   3.834   2.284   1.699
  740TIP3   OH2 2183   3.643   1.151   1.343
  740TIP3    H1 2184   3.556   1.117   1.320
  740TIP3    H2 2185   3.648   1.143   1.438
  741TIP3   OH2 2186   6.155   4.740   2.076
  741TIP3    H1 2187   6.157   4.800   2.151
  741TIP3    H2 2188   6.232   4.685   2.087
  742TIP3   OH2 2189  -0.008   2.592   2.736
  742TIP3    H1 2190   0.068   2.537   2.718
  742TIP3    H2 2191   0.029   2.678   2.754
  743TIP3   OH2 2192   6.262   0.187   1.613
  743TIP3    H1 2193   6.192   0.163   1.552
  743TIP3    H2 2194   6.313   0.107   1.623
  744TIP3   OH2 2195   5.288   4.880   2.049
  744TIP3    H1 2196   5.283   4.859   1.956
  744TIP3    H2 2197   5.238   4.961   2.058
  745TIP3   OH2 2198   6.676   5.805   1.699
  745TIP3    H1 2199   6.668   5.716   1.734
  745TIP3    H2 2200   6.608   5.810   1.632
  746TIP3   OH2 2201   0.376   0.980   3.005
  746TIP3    H1 2202   0.312   1.010   2.940
  746TIP3    H2 2203   0.338   1.004   3.090
  747TIP3   OH2 2204   2.064   2.533   5.260
  747TIP3    H1 2205   1.973   2.561   5.273
  747TIP3    H2 2206   2.103   2.542   5.347
  748TIP3   OH2 2207   5.380   1.581   1.674
  748TIP3    H1 2208   5.325   1.550   1.602
  748TIP3    H2 2209   5.402   1.501   1.723
  749TIP3   OH2 2210   5.285   0.176   4.496
  749TIP3    H1 2211   5.229   0.194   4.572
  749TIP3    H2 2212   5.246   0.227   4.425
  750TIP3   OH2 2213   3.168   4.877   2.169
  750TIP3    H1 2214   3.176   4.912   2.258
  750TIP3    H2 2215   3.177   4.953   2.112
  751TIP3   OH2 2216   4.027   5.946   0.661
  751TIP3    H1 2217   3.934   5.928   0.645
  751TIP3    H2 2218   4.069   5.935   0.576
  752TIP3   OH2 2219   0.207   4.524   2.371
  752TIP3    H1 2220   0.287   4.526   2.424
  752TIP3    H2 2221   0.152   4.592   2.408
  753TIP3   OH2 2222   4.817   6.591   0.747
  753TIP3    H1 2223   4.830   6.558   0.836
  753TIP3    H2 2224   4.885   6.658   0.736
  754TIP3   OH2 2225   4.951   6.427   3.757
  754TIP3    H1 2226   4.988   6.478   3.829
  754TIP3    H2 2227   4.920   6.346   3.798
  755TIP3   OH2 2228   4.393   1.166   1.176
  755TIP3    H1 2229   4.477   1.201   1.148
  755TIP3    H2 2230   4.392   1.076   1.143
  756TIP3   OH2 2231   3.793   6.273   3.453
  756TIP3    H1 2232   3.843   6.212   3.400
  756TIP3    H2 2233   3.819   6.255   3.543
  757TIP3   OH2 2234   6.303   2.372   4.021
  757TIP3    H1 2235   6.213   2.352   4.044
  757TIP3    H2 2236   6.298   2.456   3.974
  758TIP3   OH2 2237   6.085   2.322   3.722
  758TIP3    H1 2238   6.159   2.262   3.708
  758TIP3    H2 2239   6.029   2.278   3.785
  759TIP3   OH2 2240   4.562   1.684   4.554
  759TIP3    H1 2241   4.584   1.626   4.481
  759TIP3    H2 2242   4.473   1.714   4.535
  760TIP3   OH2 2243   6.066   3.447   1.090
  760TIP3    H1 2244   6.080   3.459   1.184
  760TIP3    H2 2245   6.099   3.359   1.073
  761TIP3   OH2 2246   0.051   0.508   3.325
  761TIP3    H1 2247   0.005   0.426   3.346
  761TIP3    H2 2248   0.132   0.480   3.283
  762TIP3   OH2 2249   5.148   3.172   4.797
  762TIP3    H1 2250   5.094   3.121   4.857
  762TIP3    H2 2251   5.183   3.243   4.850
  763TIP3   OH2 2252   3.989   6.042   4.068
  763TIP3    H1 2253   4.069   6.095   4.065
  763TIP3    H2 2254   4.001   5.985   4.145
  764TIP3   OH2 2255   6.826   4.661   1.419
  764TIP3    H1 2256   6.896   4.722   1.394
  764TIP3    H2 2257   6.751   4.717   1.437
  765TIP3   OH2 2258   4.176   3.672   0.260
  765TIP3    H1 2259   4.122   3.734   0.309
  765TIP3    H2 2260   4.249   3.725   0.227
  766TIP3   OH2 2261   3.205   4.767   1.242
  766TIP3    H1 2262   3.198   4.820   1.322
  766TIP3    H2 2263   3.173   4.681   1.268
  767TIP3   OH2 2264   6.659   1.678   4.519
  767TIP3    H1 2265   6.579   1.625   4.521
  767TIP3    H2 2266   6.704   1.650   4.439
  768TIP3   OH2 2267   6.350   0.133   0.500
  768TIP3    H1 2268   6.263   0.112   0.534
  768TIP3    H2 2269   6.340   0.219   0.460
  769TIP3   OH2 2270   2.775   5.830   0.445
  769TIP3    H1 2271   2.748   5.854   0.356
  769TIP3    H2 2272   2.856   5.880   0.459
  770TIP3   OH2 2273   3.286  -0.004   3.675
  770TIP3    H1 2274   3.216   0.045   3.717
  770TIP3    H2 2275   3.338  -0.039   3.747
  771TIP3   OH2 2276   0.729   1.152   3.755
  771TIP3    H1 2277   0.781   1.146   3.675
  771TIP3    H2 2278   0.732   1.064   3.793
  772TIP3   OH2 2279   6.940   0.889   4.707
  772TIP3    H1 2280   6.865   0.905   4.763
  772TIP3    H2 2281   6.924   0.943   4.629
  773TIP3   OH2 2282   5.045   0.993   2.814
  773TIP3    H1 2283   5.073   0.991   2.906
  773TIP3    H2 2284   5.119   0.957   2.766
  774TIP3   OH2 2285   7.183   2.767   1.991
  774TIP3    H1 2286   7.098   2.739   2.026
  774TIP3    H2 2287   7.244   2.752   2.063
  775TIP3   OH2 2288   5.595   3.309   0.799
  775TIP3    H1 2289   5.575   3.360   0.877
  775TIP3    H2 2290   5.536   3.233   0.804
  776TIP3   OH2 2291   7.093   2.634   0.975
  776TIP3    H1 2292   7.171   2.660   1.022
  776TIP3    H2 2293   7.076   2.706   0.914
  777TIP3   OH2 2294   7.009   0.052   5.242
  777TIP3    H1 2295   7.041  -0.015   5.302
  777TIP3    H2 2296   6.944   0.101   5.294
  778TIP3   OH2 2297   2.637   3.153   1.920
  778TIP3    H1 2298   2.613   3.244   1.938
  778TIP3    H2 2299   2.732   3.155   1.910
  779TIP3   OH2 2300   2.134   1.758   2.089
  779TIP3    H1 2301   2.094   1.819   2.028
  779TIP3    H2 2302   2.091   1.776   2.173
  780TIP3   OH2 2303   3.341   2.671   3.537
  780TIP3    H1 2304   3.282   2.609   3.496
  780TIP3    H2 2305   3.322   2.755   3.496
  781TIP3   OH2 2306   5.270   4.270   5.338
  781TIP3    H1 2307   5.346   4.246   5.390
  781TIP3    H2 2308   5.302   4.270   5.247
  782TIP3   OH2 2309   3.962   4.021   3.675
  782TIP3    H1 2310   3.895   4.084   3.698
  782TIP3    H2 2311   4.043   4.057   3.712
  783TIP3   OH2 2312   1.138   1.793   0.152
  783TIP3    H1 2313   1.226   1.770   0.181
  783TIP3    H2 2314   1.150   1.826   0.063
  784TIP3   OH2 2315   1.479   5.684   2.746
  784TIP3    H1 2316   1.534   5.636   2.684
  784TIP3    H2 2317   1.511   5.774   2.742
  785TIP3   OH2 2318   0.058   1.696   1.937
  785TIP3    H1 2319   0.116   1.746   1.994
  785TIP3    H2 2320   0.008   1.762   1.890
  786TIP3   OH2 2321   4.028   4.914   1.190
  786TIP3    H1 2322   3.984   4.870   1.262
  786TIP3    H2 2323   4.110   4.866   1.179
  787TIP3   OH2 2324   4.875   2.488   2.301
  787TIP3    H1 2325   4.816   2.538   2.358
  787TIP3    H2 2326   4.951   2.469   2.356
  788TIP3   OH2 2327   2.636   3.710   5.161
  788TIP3    H1 2328   2.667   3.791   5.122
  788TIP3    H2 2329   2.559   3.735   5.212
  789TIP3   OH2 2330   3.926   4.435   2.528
  789TIP3    H1 2331   3.858   4.471   2.585
  789TIP3    H2 2332   3.986   4.508   2.514
  790TIP3   OH2 2333   2.745   0.190   2.853
  790TIP3    H1 2334   2.819   0.193   2.793
  790TIP3    H2 2335   2.710   0.102   2.844
  791TIP3   OH2 2336   0.591   5.363   2.429
  791TIP3    H1 2337   0.553   5.338   2.513
  791TIP3    H2 2338   0.661   5.299   2.414
  792TIP3   OH2 2339   3.755   1.750   2.643
  792TIP3    H1 2340   3.828   1.781   2.589
  792TIP3    H2 2341   3.779   1.660   2.667
  793TIP3   OH2 2342   3.906   6.727   1.537
  793TIP3    H1 2343   3.848   6.711   1.463
  793TIP3    H2 2344   3.936   6.640   1.563
  794TIP3   OH2 2345   5.712   3.056   1.092
  794TIP3    H1 2346   5.800   3.054   1.130
  794TIP3    H2 2347   5.719   3.006   1.011
  795TIP3   OH2 2348   2.986   2.348   0.378
  795TIP3    H1 2349   3.028   2.290   0.314
  795TIP3    H2 2350   3.053   2.362   0.445
  796TIP3   OH2 2351   2.279   1.775   3.728
  796TIP3    H1 2352   2.310   1.737   3.646
  796TIP3    H2 2353   2.357   1.781   3.782
  797TIP3   OH2 2354   3.213   3.679   3.312
  797TIP3    H1 2355   3.274   3.628   3.259
  797TIP3    H2 2356   3.265   3.711   3.385
  798TIP3   OH2 2357   1.756   1.860   1.942
  798TIP3    H1 2358   1.848   1.835   1.942
  798TIP3    H2 2359   1.752   1.938   1.996
  799TIP3   OH2 2360   0.327   2.285   1.359
  799TIP3    H1 2361   0.260   2.265   1.294
  799TIP3    H2 2362   0.296   2.243   1.439
  800TIP3   OH2 2363   4.279   6.429   0.774
  800TIP3    H1 2364   4.352   6.367   0.765
  800TIP3    H2 2365   4.207   6.388   0.726
  801TIP3   OH2 2366   0.134   0.741   0.576
  801TIP3    H1 2367   0.114   0.711   0.487
  801TIP3    H2 2368   0.186   0.671   0.615
  802TIP3   OH2 2369   5.373   4.510   1.420
  802TIP3    H1 2370   5.441   4.570   1.449
  802TIP3    H2 2371   5.394   4.493   1.328
  803TIP3   OH2 2372   0.676   1.066   0.709
  803TIP3    H1 2373   0.743   1.134   0.706
  803TIP3    H2 2374   0.721   0.986   0.680
  804TIP3   OH2 2375   5.834   4.812   4.375
  804TIP3    H1 2376   5.826   4.779   4.464
  804TIP3    H2 2377   5.826   4.734   4.320
  805TIP3   OH2 2378   7.097   2.992   2.812
  805TIP3    H1 2379   7.082   3.036   2.896
  805TIP3    H2 2380   7.127   3.062   2.754
  806TIP3   OH2 2381   1.086   2.028   5.509
  806TIP3    H1 2382   1.111   2.075   5.430
  806TIP3    H2 2383   0.998   1.996   5.491
  807TIP3   OH2 2384   1.968   0.771   1.611
  807TIP3    H1 2385   2.050   0.738   1.576
  807TIP3    H2 2386   1.915   0.692   1.626
  808TIP3   OH2 2387   5.525   5.383   0.305
  808TIP3    H1 2388   5.544   5.332   0.383
  808TIP3    H2 2389   5.430   5.386   0.301
  809TIP3   OH2 2390   6.853   1.165   5.427
  809TIP3    H1 2391   6.931   1.212   5.457
  809TIP3    H2 2392   6.849   1.184   5.333
  810TIP3   OH2 2393   5.047   5.825   5.180
  810TIP3    H1 2394   5.056   5.731   5.197
  810TIP3    H2 2395   4.962   5.833   5.136
  811TIP3   OH2 2396   3.570   6.301   3.888
  811TIP3    H1 2397   3.618   6.283   3.969
  811TIP3    H2 2398   3.604   6.385   3.859
  812TIP3   OH2 2399   3.954   3.039   2.084
  812TIP3    H1 2400   3.938   3.100   2.012
  812TIP3    H2 2401   4.046   3.016   2.075
  813TIP3   OH2 2402   0.831   0.877   0.594
  813TIP3    H1 2403   0.902   0.863   0.532
  813TIP3    H2 2404   0.869   0.854   0.679
  814TIP3   OH2 2405   6.446   6.188   4.794
  814TIP3    H1 2406   6.496   6.241   4.733
  814TIP3    H2 2407   6.512   6.153   4.855
  815TIP3   OH2 2408   4.878   1.318   1.217
  815TIP3    H1 2409   4.868   1.413   1.211
  815TIP3    H2 2410   4.871   1.299   1.311
  816TIP3   OH2 2411   6.271   5.135   4.254
  816TIP3    H1 2412   6.222   5.216   4.241
  816TIP3    H2 2413   6.209   5.066   4.231
  817TIP3   OH2 2414   4.360   3.031   2.854
  817TIP3    H1 2415   4.339   2.954   2.801
  817TIP3    H2 2416   4.398   3.093   2.792
  818TIP3   OH2 2417   7.162   0.309   0.919
  818TIP3    H1 2418   7.121   0.377   0.865
  818TIP3    H2 2419   7.144   0.336   1.009
  819TIP3   OH2 2420   1.841   0.579   3.783
  819TIP3    H1 2421   1.910   0.514   3.774
  819TIP3    H2 2422   1.788   0.547   3.857
  820TIP3   OH2 2423   4.371   2.172   4.014
  820TIP3    H1 2424   4.378   2.267   4.023
  820TIP3    H2 2425   4.329   2.143   4.096
  821TIP3   OH2 2426   1.664   5.064   4.695
  821TIP3    H1 2427   1.664   4.974   4.728
  821TIP3    H2 2428   1.757   5.089   4.695
  822TIP3   OH2 2429   3.400   0.503   3.790
  822TIP3    H1 2430   3.492   0.529   3.786
  822TIP3    H2 2431   3.380   0.499   3.883
  823TIP3   OH2 2432   6.006   4.461   2.097
  823TIP3    H1 2433   6.100   4.471   2.084
  823TIP3    H2 2434   5.979   4.397   2.031
  824TIP3   OH2 2435   4.993   3.863   1.498
  824TIP3    H1 2436   4.988   3.780   1.451
  824TIP3    H2 2437   5.038   3.922   1.438
  825TIP3   OH2 2438   1.357   1.204   2.202
  825TIP3    H1 2439   1.359   1.297   2.221
  825TIP3    H2 2440   1.269   1.176   2.225
  826TIP3   OH2 2441   5.788   3.280   3.516
  826TIP3    H1 2442   5.835   3.351   3.473
  826TIP3    H2 2443   5.722   3.253   3.451
  827TIP3   OH2 2444   3.990   3.819   0.038
  827TIP3    H1 2445   4.012   3.810  -0.055
  827TIP3    H2 2446   3.998   3.913   0.055
  828TIP3   OH2 2447   2.357   2.513   3.838
  828TIP3    H1 2448   2.440   2.476   3.808
  828TIP3    H2 2449   2.342   2.588   3.780
  829TIP3   OH2 2450   2.666   0.684   4.972
  829TIP3    H1 2451   2.667   0.590   4.988
  829TIP3    H2 2452   2.706   0.722   5.050
  830TIP3   OH2 2453   6.779   1.960   5.061
  830TIP3    H1 2454   6.805   2.020   5.131
  830TIP3    H2 2455   6.684   1.956   5.066
  831TIP3   OH2 2456   1.390   1.094   4.484
  831TIP3    H1 2457   1.465   1.145   4.514
  831TIP3    H2 2458   1.320   1.158   4.472
  832TIP3   OH2 2459   6.950   2.107   0.377
  832TIP3    H1 2460   6.969   2.013   0.371
  832TIP3    H2 2461   6.989   2.134   0.460
  833TIP3   OH2 2462   2.585   0.169   1.303
  833TIP3    H1 2463   2.607   0.124   1.222
  833TIP3    H2 2464   2.590   0.102   1.371
  834TIP3   OH2 2465   7.007   5.931   2.740
  834TIP3    H1 2466   7.023   5.838   2.727
  834TIP3    H2 2467   6.975   5.962   2.655
  835TIP3   OH2 2468   3.969   1.760   4.796
  835TIP3    H1 2469   4.006   1.752   4.708
  835TIP3    H2 2470   3.877   1.784   4.781
  836TIP3   OH2 2471   2.191   6.011   4.206
  836TIP3    H1 2472   2.223   6.028   4.117
  836TIP3    H2 2473   2.114   6.067   4.215
  837TIP3   OH2 2474   3.573   6.294   0.338
  837TIP3    H1 2475   3.658   6.322   0.304
  837TIP3    H2 2476   3.515   6.369   0.325
  838TIP3   OH2 2477   1.298   1.830   5.479
  838TIP3    H1 2478   1.327   1.836   5.388
  838TIP3    H2 2479   1.221   1.886   5.483
  839TIP3   OH2 2480   1.902   5.198   0.017
  839TIP3    H1 2481   1.923   5.283   0.054
  839TIP3    H2 2482   1.855   5.152   0.086
  840TIP3   OH2 2483   7.194   0.555   3.029
  840TIP3    H1 2484   7.165   0.465   3.015
  840TIP3    H2 2485   7.163   0.602   2.951
  841TIP3   OH2 2486   1.980   1.357   2.212
  841TIP3    H1 2487   2.047   1.336   2.278
  841TIP3    H2 2488   2.030   1.368   2.130
  842TIP3   OH2 2489   5.962   1.814   1.447
  842TIP3    H1 2490   6.027   1.799   1.516
  842TIP3    H2 2491   5.993   1.763   1.373
  843TIP3   OH2 2492   1.230   5.385   5.724
  843TIP3    H1 2493   1.301   5.326   5.701
  843TIP3    H2 2494   1.199   5.419   5.640
  844TIP3   OH2 2495   2.047   2.182   1.157
  844TIP3    H1 2496   2.083   2.094   1.154
  844TIP3    H2 2497   2.033   2.206   1.065
  845TIP3   OH2 2498   1.824   5.773   5.042
  845TIP3    H1 2499   1.845   5.746   4.952
  845TIP3    H2 2500   1.866   5.707   5.097
  846TIP3   OH2 2501   2.019   6.369   5.758
  846TIP3    H1 2502   1.962   6.364   5.681
  846TIP3    H2 2503   2.053   6.280   5.768
  847TIP3   OH2 2504   2.310   3.814   2.448
  847TIP3    H1 2505   2.355   3.731   2.466
  847TIP3    H2 2506   2.236   3.790   2.393
  848TIP3   OH2 2507   4.476   2.213   3.314
  848TIP3    H1 2508   4.509   2.182   3.399
  848TIP3    H2 2509   4.553   2.216   3.258
  849TIP3   OH2 2510   3.464   3.315   5.104
  849TIP3    H1 2511   3.537   3.257   5.127
  849TIP3    H2 2512   3.492   3.402   5.133
  850TIP3   OH2 2513   0.655   1.965   0.923
  850TIP3    H1 2514   0.631   2.055   0.901
  850TIP3    H2 2515   0.679   1.926   0.839
  851TIP3   OH2 2516   6.171   1.263   5.096
  851TIP3    H1 2517   6.102   1.291   5.156
  851TIP3    H2 2518   6.160   1.168   5.090
  852TIP3   OH2 2519   0.779   5.423   5.398
  852TIP3    H1 2520   0.828   5.343   5.379
  852TIP3    H2 2521   0.836   5.472   5.458
  853TIP3   OH2 2522   5.960   2.830   0.930
  853TIP3    H1 2523   5.893   2.864   0.870
  853TIP3    H2 2524   5.987   2.747   0.891
  854TIP3   OH2 2525   1.016   0.643   2.605
  854TIP3    H1 2526   1.106   0.653   2.576
  854TIP3    H2 2527   0.999   0.722   2.657
  855TIP3   OH2 2528   6.220   1.797   0.521
  855TIP3    H1 2529   6.165   1.835   0.452
  855TIP3    H2 2530   6.158   1.747   0.575
  856TIP3   OH2 2531   6.496   4.664   4.106
  856TIP3    H1 2532   6.579   4.708   4.126
  856TIP3    H2 2533   6.434   4.701   4.169
  857TIP3   OH2 2534   5.081   0.677   5.535
  857TIP3    H1 2535   4.995   0.653   5.502
  857TIP3    H2 2536   5.090   0.628   5.617
  858TIP3   OH2 2537   4.562   3.678   4.064
  858TIP3    H1 2538   4.640   3.677   4.119
  858TIP3    H2 2539   4.569   3.598   4.012
  859TIP3   OH2 2540   2.726   3.738   0.278
  859TIP3    H1 2541   2.701   3.763   0.366
  859TIP3    H2 2542   2.687   3.805   0.222
  860TIP3   OH2 2543   0.930   1.666   4.309
  860TIP3    H1 2544   0.889   1.647   4.225
  860TIP3    H2 2545   1.016   1.701   4.286
  861TIP3   OH2 2546   2.021   5.386   1.617
  861TIP3    H1 2547   1.938   5.360   1.656
  861TIP3    H2 2548   1.996   5.441   1.543
  862TIP3   OH2 2549   0.501   5.840   5.437
  862TIP3    H1 2550   0.567   5.908   5.450
  862TIP3    H2 2551   0.460   5.861   5.353
  863TIP3   OH2 2552   5.276   0.109   2.474
  863TIP3    H1 2553   5.257   0.017   2.459
  863TIP3    H2 2554   5.194   0.155   2.455
  864TIP3   OH2 2555   1.426  -0.048   0.437
  864TIP3    H1 2556   1.451   0.021   0.375
  864TIP3    H2 2557   1.370  -0.003   0.500
  865TIP3   OH2 2558   3.901   3.789   3.333
  865TIP3    H1 2559   3.969   3.769   3.397
  865TIP3    H2 2560   3.948   3.817   3.255
  866TIP3   OH2 2561   2.442   3.249   0.817
  866TIP3    H1 2562   2.461   3.309   0.889
  866TIP3    H2 2563   2.527   3.215   0.791
  867TIP3   OH2 2564   3.661   4.663   0.540
  867TIP3    H1 2565   3.636   4.661   0.632
  867TIP3    H2 2566   3.734   4.726   0.536
  868TIP3   OH2 2567   3.142   1.430   1.777
  868TIP3    H1 2568   3.122   1.337   1.787
  868TIP3    H2 2569   3.095   1.457   1.698
  869TIP3   OH2 2570   6.639   6.450   1.549
  869TIP3    H1 2571   6.567   6.388   1.543
  869TIP3    H2 2572   6.599   6.536   1.536
  870TIP3   OH2 2573   5.479   1.744   0.791
  870TIP3    H1 2574   5.469   1.831   0.752
  870TIP3    H2 2575   5.403   1.734   0.848
  871TIP3   OH2 2576   6.657   2.127   2.722
  871TIP3    H1 2577   6.631   2.084   2.803
  871TIP3    H2 2578   6.587   2.190   2.705
  872TIP3   OH2 2579   1.918   4.263   3.813
  872TIP3    H1 2580   1.976   4.248   3.888
  872TIP3    H2 2581   1.849   4.197   3.823
  873TIP3   OH2 2582   2.427   0.008   0.185
  873TIP3    H1 2583   2.382   0.072   0.240
  873TIP3    H2 2584   2.381  -0.074   0.201
  874TIP3   OH2 2585   1.435   3.924   4.917
  874TIP3    H1 2586   1.506   3.901   4.977
  874TIP3    H2 2587   1.437   4.020   4.913
  875TIP3   OH2 2588   6.634   4.526   3.873
  875TIP3    H1 2589   6.606   4.519   3.782
  875TIP3    H2 2590   6.554   4.543   3.922
  876TIP3   OH2 2591   1.082   3.376   1.393
  876TIP3    H1 2592   1.092   3.307   1.458
  876TIP3    H2 2593   1.170   3.411   1.381
  877TIP3   OH2 2594   3.445   4.441   1.236
  877TIP3    H1 2595   3.457   4.487   1.319
  877TIP3    H2 2596   3.447   4.348   1.260
  878TIP3   OH2 2597   4.674   5.343   2.572
  878TIP3    H1 2598   4.743   5.276   2.569
  878TIP3    H2 2599   4.653   5.360   2.481
  879TIP3   OH2 2600   4.517   3.696   3.082
  879TIP3    H1 2601   4.484   3.611   3.053
  879TIP3    H2 2602   4.574   3.726   3.011
  880TIP3   OH2 2603   0.491   1.350   4.547
  880TIP3    H1 2604   0.465   1.392   4.466
  880TIP3    H2 2605   0.448   1.401   4.616
  881TIP3   OH2 2606   1.553   1.182   3.746
  881TIP3    H1 2607   1.609   1.211   3.674
  881TIP3    H2 2608   1.613   1.138   3.806
  882TIP3   OH2 2609   3.294   2.966   0.501
  882TIP3    H1 2610   3.254   3.016   0.572
  882TIP3    H2 2611   3.274   3.016   0.422
  883TIP3   OH2 2612   3.130   1.828   0.939
  883TIP3    H1 2613   3.101   1.841   0.849
  883TIP3    H2 2614   3.185   1.749   0.936
  884TIP3   OH2 2615   4.260   4.575   5.024
  884TIP3    H1 2616   4.292   4.485   5.035
  884TIP3    H2 2617   4.195   4.586   5.093
  885TIP3   OH2 2618   1.457   6.106   1.327
  885TIP3    H1 2619   1.418   6.112   1.414
  885TIP3    H2 2620   1.387   6.133   1.267
  886TIP3   OH2 2621   5.981   5.124   0.857
  886TIP3    H1 2622   5.907   5.123   0.797
  886TIP3    H2 2623   6.057   5.141   0.801
  887TIP3   OH2 2624   6.579   0.285   1.899
  887TIP3    H1 2625   6.497   0.237   1.901
  887TIP3    H2 2626   6.640   0.227   1.854
  888TIP3   OH2 2627   3.908   3.773   0.501
  888TIP3    H1 2628   3.894   3.735   0.415
  888TIP3    H2 2629   3.824   3.813   0.524
  889TIP3   OH2 2630   5.880   1.039   5.650
  889TIP3    H1 2631   5.897   1.047   5.556
  889TIP3    H2 2632   5.950   0.982   5.682
  890TIP3   OH2 2633   0.840   2.911   0.696
  890TIP3    H1 2634   0.934   2.897   0.687
  890TIP3    H2 2635   0.815   2.958   0.616
  891TIP3   OH2 2636   0.377   6.182   1.236
  891TIP3    H1 2637   0.318   6.137   1.297
  891TIP3    H2 2638   0.459   6.134   1.243
  892TIP3   OH2 2639   5.904   1.723   4.960
  892TIP3    H1 2640   5.924   1.637   4.997
  892TIP3    H2 2641   5.989   1.766   4.951
  893TIP3   OH2 2642   2.256   4.221   4.396
  893TIP3    H1 2643   2.329   4.279   4.373
  893TIP3    H2 2644   2.277   4.190   4.484
  894TIP3   OH2 2645   0.325   3.634   5.638
  894TIP3    H1 2646   0.402   3.691   5.640
  894TIP3    H2 2647   0.252   3.693   5.655
  895TIP3   OH2 2648   7.055   3.008   1.345
  895TIP3    H1 2649   6.991   3.022   1.414
  895TIP3    H2 2650   7.114   2.942   1.379
  896TIP3   OH2 2651   0.540   2.520   3.660
  896TIP3    H1 2652   0.574   2.489   3.577
  896TIP3    H2 2653   0.552   2.446   3.720
  897TIP3   OH2 2654   2.703   0.251   4.607
  897TIP3    H1 2655   2.743   0.269   4.522
  897TIP3    H2 2656   2.753   0.178   4.643
  898TIP3   OH2 2657   5.604   6.294   4.433
  898TIP3    H1 2658   5.594   6.228   4.364
  898TIP3    H2 2659   5.515   6.314   4.461
  899TIP3   OH2 2660   3.069   3.197   0.970
  899TIP3    H1 2661   3.059   3.127   0.905
  899TIP3    H2 2662   3.114   3.267   0.923
  900TIP3   OH2 2663   5.845   1.933   3.706
  900TIP3    H1 2664   5.842   1.843   3.672
  900TIP3    H2 2665   5.931   1.965   3.679
  901TIP3   OH2 2666   2.076   1.462   5.637
  901TIP3    H1 2667   2.154   1.475   5.583
  901TIP3    H2 2668   2.013   1.420   5.579
  902TIP3   OH2 2669   0.885   2.653   2.396
  902TIP3    H1 2670   0.909   2.630   2.306
  902TIP3    H2 2671   0.868   2.569   2.438
  903TIP3   OH2 2672   6.165   4.946   1.504
  903TIP3    H1 2673   6.182   4.922   1.595
  903TIP3    H2 2674   6.206   4.876   1.453
  904TIP3   OH2 2675   3.147   1.047   5.330
  904TIP3    H1 2676   3.091   1.009   5.263
  904TIP3    H2 2677   3.148   1.141   5.310
  905TIP3   OH2 2678   0.290   5.868   3.477
  905TIP3    H1 2679   0.367   5.871   3.535
  905TIP3    H2 2680   0.216   5.857   3.536
  906TIP3   OH2 2681   2.495   6.392   3.738
  906TIP3    H1 2682   2.494   6.479   3.777
  906TIP3    H2 2683   2.411   6.385   3.692
  907TIP3   OH2 2684   1.360   6.427   4.734
  907TIP3    H1 2685   1.349   6.516   4.701
  907TIP3    H2 2686   1.304   6.423   4.811
  908TIP3   OH2 2687   2.538   4.445   2.881
  908TIP3    H1 2688   2.539   4.530   2.837
  908TIP3    H2 2689   2.517   4.383   2.811
  909TIP3   OH2 2690   0.130   3.257   0.829
  909TIP3    H1 2691   0.083   3.176   0.810
  909TIP3    H2 2692   0.196   3.233   0.893
  910TIP3   OH2 2693   3.517   0.019   1.430
  910TIP3    H1 2694   3.521  -0.076   1.445
  910TIP3    H2 2695   3.427   0.035   1.401
  911TIP3   OH2 2696   4.439   4.170   5.203
  911TIP3    H1 2697   4.415   4.083   5.235
  911TIP3    H2 2698   4.497   4.205   5.270
  912TIP3   OH2 2699   0.432   0.087   3.848
  912TIP3    H1 2700   0.392   0.010   3.806
  912TIP3    H2 2701   0.374   0.159   3.826
  913TIP3   OH2 2702   4.197   1.075   1.345
  913TIP3    H1 2703   4.166   1.165   1.332
  913TIP3    H2 2704   4.267   1.064   1.280
  914TIP3   OH2 2705   3.606   6.088   4.597
  914TIP3    H1 2706   3.693   6.072   4.562
  914TIP3    H2 2707   3.551   6.022   4.555
  915TIP3   OH2 2708   3.736   4.573   5.188
  915TIP3    H1 2709   3.744   4.576   5.283
  915TIP3    H2 2710   3.679   4.499   5.170
  916TIP3   OH2 2711   7.114   2.165   4.321
  916TIP3    H1 2712   7.149   2.159   4.410
  916TIP3    H2 2713   7.146   2.086   4.278
  917TIP3   OH2 2714   3.190   1.774   5.776
  917TIP3    H1 2715   3.122   1.753   5.839
  917TIP3    H2 2716   3.195   1.698   5.718
  918TIP3   OH2 2717   4.220   2.674   3.044
  918TIP3    H1 2718   4.247   2.603   3.102
  918TIP3    H2 2719   4.294   2.734   3.045
  919TIP3   OH2 2720   5.557   6.688   3.607
  919TIP3    H1 2721   5.530   6.775   3.577
  919TIP3    H2 2722   5.560   6.695   3.702
  920TIP3   OH2 2723   2.543   1.750   1.930
  920TIP3    H1 2724   2.593   1.813   1.981
  920TIP3    H2 2725   2.579   1.756   1.841
  921TIP3   OH2 2726   1.612   0.222   2.148
  921TIP3    H1 2727   1.539   0.260   2.196
  921TIP3    H2 2728   1.571   0.169   2.080
  922TIP3   OH2 2729   6.129   3.926   3.116
  922TIP3    H1 2730   6.214   3.967   3.101
  922TIP3    H2 2731   6.149   3.834   3.134
  923TIP3   OH2 2732   7.072   2.172   1.450
  923TIP3    H1 2733   6.990   2.202   1.410
  923TIP3    H2 2734   7.086   2.230   1.524
  924TIP3   OH2 2735   3.392   6.657   1.377
  924TIP3    H1 2736   3.405   6.733   1.320
  924TIP3    H2 2737   3.325   6.685   1.439
  925TIP3   OH2 2738   4.187   0.221   4.713
  925TIP3    H1 2739   4.235   0.284   4.660
  925TIP3    H2 2740   4.168   0.149   4.653
  926TIP3   OH2 2741   5.980   1.114   0.527
  926TIP3    H1 2742   5.929   1.118   0.446
  926TIP3    H2 2743   6.065   1.079   0.500
  927TIP3   OH2 2744   0.596   3.627   4.327
  927TIP3    H1 2745   0.639   3.545   4.351
  927TIP3    H2 2746   0.578   3.618   4.234
  928TIP3   OH2 2747   2.683   4.870   5.652
  928TIP3    H1 2748   2.649   4.780   5.650
  928TIP3    H2 2749   2.695   4.892   5.559
  929TIP3   OH2 2750   2.273   6.024   0.948
  929TIP3    H1 2751   2.314   6.100   0.907
  929TIP3    H2 2752   2.206   5.996   0.885
  930TIP3   OH2 2753   3.627   5.089   1.149
  930TIP3    H1 2754   3.717   5.117   1.137
  930TIP3    H2 2755   3.615   5.083   1.244
  931TIP3   OH2 2756   3.451   1.973   1.008
  931TIP3    H1 2757   3.369   1.938   1.042
  931TIP3    H2 2758   3.465   2.054   1.058
  932TIP3   OH2 2759   4.308   0.441   2.912
  932TIP3    H1 2760   4.282   0.350   2.919
  932TIP3    H2 2761   4.227   0.489   2.897
  933TIP3   OH2 2762   3.218   1.138   3.449
  933TIP3    H1 2763   3.186   1.056   3.486
  933TIP3    H2 2764   3.217   1.123   3.354
  934TIP3   OH2 2765   3.357   6.055   3.107
  934TIP3    H1 2766   3.436   6.060   3.052
  934TIP3    H2 2767   3.358   6.137   3.157
  935TIP3   OH2 2768   3.373   2.341   0.233
  935TIP3    H1 2769   3.294   2.393   0.214
  935TIP3    H2 2770   3.383   2.284   0.156
  936TIP3   OH2 2771   2.806   4.925   4.108
  936TIP3    H1 2772   2.886   4.918   4.158
  936TIP3    H2 2773   2.801   4.844   4.058
  937TIP3   OH2 2774   0.581   4.673   5.912
  937TIP3    H1 2775   0.520   4.678   5.839
  937TIP3    H2 2776   0.589   4.579   5.929
  938TIP3   OH2 2777   0.141   1.398   2.573
  938TIP3    H1 2778   0.091   1.431   2.648
  938TIP3    H2 2779   0.099   1.315   2.550
  939TIP3   OH2 2780   6.581   2.659  -0.031
  939TIP3    H1 2781   6.640   2.701   0.031
  939TIP3    H2 2782   6.580   2.567  -0.005
  940TIP3   OH2 2783   6.239   6.508   3.566
  940TIP3    H1 2784   6.270   6.422   3.594
  940TIP3    H2 2785   6.262   6.566   3.639
  941TIP3   OH2 2786   0.816   5.405   4.964
  941TIP3    H1 2787   0.865   5.448   5.035
  941TIP3    H2 2788   0.847   5.315   4.965
  942TIP3   OH2 2789   2.037   4.924   5.046
  942TIP3    H1 2790   2.100   4.895   5.112
  942TIP3    H2 2791   2.008   4.843   5.004
  943TIP3   OH2 2792   6.996   0.507   0.138
  943TIP3    H1 2793   7.042   0.450   0.200
  943TIP3    H2 2794   6.934   0.449   0.093
  944TIP3   OH2 2795   2.929   1.201   4.906
  944TIP3    H1 2796   2.954   1.282   4.861
  944TIP3    H2 2797   2.869   1.230   4.976
  945TIP3   OH2 2798   0.711   3.106   2.639
  945TIP3    H1 2799   0.625   3.113   2.597
  945TIP3    H2 2800   0.764   3.171   2.595
  946TIP3   OH2 2801   6.263   2.817   5.330
  946TIP3    H1 2802   6.300   2.742   5.378
  946TIP3    H2 2803   6.221   2.870   5.398
  947TIP3   OH2 2804   6.865   5.386   2.167
  947TIP3    H1 2805   6.937   5.350   2.219
  947TIP3    H2 2806   6.786   5.348   2.205
  948TIP3   OH2 2807   6.152   0.443   1.539
  948TIP3    H1 2808   6.202   0.367   1.569
  948TIP3    H2 2809   6.205   0.518   1.567
  949TIP3   OH2 2810   3.428   2.931   5.349
  949TIP3    H1 2811   3.455   2.900   5.436
  949TIP3    H2 2812   3.333   2.931   5.352
  950TIP3   OH2 2813   4.469   2.518   0.291
  950TIP3    H1 2814   4.379   2.540   0.266
  950TIP3    H2 2815   4.519   2.526   0.210
  951TIP3   OH2 2816   5.098   1.259   3.795
  951TIP3    H1 2817   5.139   1.341   3.769
  951TIP3    H2 2818   5.087   1.268   3.890
  952TIP3   OH2 2819   1.814   5.363   0.757
  952TIP3    H1 2820   1.752   5.375   0.829
  952TIP3    H2 2821   1.772   5.299   0.699
  953TIP3   OH2 2822   6.043   1.219   2.186
  953TIP3    H1 2823   5.973   1.276   2.217
  953TIP3    H2 2824   6.093   1.197   2.265
  954TIP3   OH2 2825   3.537   2.339   2.357
  954TIP3    H1 2826   3.524   2.333   2.452
  954TIP3    H2 2827   3.523   2.431   2.337
  955TIP3   OH2 2828   4.238   0.551   4.196
  955TIP3    H1 2829   4.316   0.498   4.214
  955TIP3    H2 2830   4.251   0.630   4.248
  956TIP3   OH2 2831   4.093   5.387   3.083
  956TIP3    H1 2832   4.093   5.466   3.137
  956TIP3    H2 2833   4.013   5.393   3.032
  957TIP3   OH2 2834   6.679   4.427   1.391
  957TIP3    H1 2835   6.726   4.510   1.397
  957TIP3    H2 2836   6.589   4.449   1.418
  958TIP3   OH2 2837   1.897   5.258   3.213
  958TIP3    H1 2838   1.971   5.313   3.187
  958TIP3    H2 2839   1.837   5.262   3.138
  959TIP3   OH2 2840   0.175   5.386   2.119
  959TIP3    H1 2841   0.097   5.407   2.067
  959TIP3    H2 2842   0.243   5.442   2.083
  960TIP3   OH2 2843   0.272   0.751   2.102
  960TIP3    H1 2844   0.335   0.791   2.162
  960TIP3    H2 2845   0.324   0.719   2.029
  961TIP3   OH2 2846   1.880   2.107   2.116
  961TIP3    H1 2847   1.948   2.096   2.049
  961TIP3    H2 2848   1.814   2.162   2.074
  962TIP3   OH2 2849   2.875   5.924   5.599
  962TIP3    H1 2850   2.954   5.875   5.579
  962TIP3    H2 2851   2.825   5.867   5.657
  963TIP3   OH2 2852   0.119   0.456   1.761
  963TIP3    H1 2853   0.101   0.400   1.837
  963TIP3    H2 2854   0.061   0.531   1.772
  964TIP3   OH2 2855  -0.030   3.837   4.771
  964TIP3    H1 2856   0.033   3.836   4.699
  964TIP3    H2 2857   0.023   3.849   4.850
  965TIP3   OH2 2858   5.090   1.016   4.806
  965TIP3    H1 2859   5.124   1.021   4.895
  965TIP3    H2 2860   5.166   1.034   4.750
  966TIP3   OH2 2861   0.155   6.633   3.243
  966TIP3    H1 2862   0.142   6.711   3.189
  966TIP3    H2 2863   0.241   6.600   3.216
  967TIP3   OH2 2864   5.498   2.187   5.211
  967TIP3    H1 2865   5.519   2.098   5.240
  967TIP3    H2 2866   5.582   2.223   5.183
  968TIP3   OH2 2867   5.458   5.879   0.823
  968TIP3    H1 2868   5.460   5.831   0.740
  968TIP3    H2 2869   5.370   5.863   0.858
  969TIP3   OH2 2870   6.210   6.377   4.382
  969TIP3    H1 2871   6.115   6.370   4.377
  969TIP3    H2 2872   6.239   6.287   4.397
  970TIP3   OH2 2873   3.434   6.784   3.156
  970TIP3    H1 2874   3.407   6.788   3.064
  970TIP3    H2 2875   3.407   6.869   3.192
  971TIP3   OH2 2876   5.227   1.986   1.431
  971TIP3    H1 2877   5.238   2.028   1.517
  971TIP3    H2 2878   5.235   2.058   1.369
  972TIP3   OH2 2879   0.047   4.013   1.097
  972TIP3    H1 2880  -0.028   4.066   1.070
  972TIP3    H2 2881   0.085   3.981   1.015
  973TIP3   OH2 2882   3.076   6.198   1.376
  973TIP3    H1 2883   3.078   6.294   1.377
  973TIP3    H2 2884   3.008   6.174   1.438
  974TIP3   OH2 2885   5.926   3.864   4.531
  974TIP3    H1 2886   5.859   3.918   4.573
  974TIP3    H2 2887   5.982   3.926   4.485
  975TIP3   OH2 2888   5.943   5.168   2.621
  975TIP3    H1 2889   5.967   5.075   2.623
  975TIP3    H2 2890   6.003   5.209   2.683
  976TIP3   OH2 2891   1.188  -0.006   4.644
  976TIP3    H1 2892   1.167   0.066   4.703
  976TIP3    H2 2893   1.162   0.025   4.557
  977TIP3   OH2 2894   0.102   0.088   2.818
  977TIP3    H1 2895   0.139   0.149   2.753
  977TIP3    H2 2896   0.166   0.087   2.889
  978TIP3   OH2 2897   3.699   0.186   3.196
  978TIP3    H1 2898   3.620   0.195   3.144
  978TIP3    H2 2899   3.670   0.196   3.286
  979TIP3   OH2 2900   6.943   2.944   4.356
  979TIP3    H1 2901   6.852   2.958   4.328
  979TIP3    H2 2902   6.975   2.874   4.299
  980TIP3   OH2 2903   2.814   4.521   3.531
  980TIP3    H1 2904   2.771   4.463   3.468
  980TIP3    H2 2905   2.755   4.596   3.539
  981TIP3   OH2 2906   5.229   1.613   4.756
  981TIP3    H1 2907   5.293   1.591   4.688
  981TIP3    H2 2908   5.149   1.635   4.707
  982TIP3   OH2 2909   5.898   5.228   5.084
  982TIP3    H1 2910   5.901   5.180   5.001
  982TIP3    H2 2911   5.880   5.161   5.150
  983TIP3   OH2 2912   0.388   5.207   0.317
  983TIP3    H1 2913   0.322   5.243   0.258
  983TIP3    H2 2914   0.386   5.266   0.393
  984TIP3   OH2 2915   7.222   3.361   4.155
  984TIP3    H1 2916   7.289   3.292   4.149
  984TIP3    H2 2917   7.139   3.316   4.141
  985TIP3   OH2 2918   4.164   3.132   1.568
  985TIP3    H1 2919   4.153   3.212   1.620
  985TIP3    H2 2920   4.237   3.152   1.509
  986TIP3   OH2 2921   3.012   1.495   4.851
  986TIP3    H1 2922   3.017   1.536   4.938
  986TIP3    H2 2923   3.069   1.548   4.796
  987TIP3   OH2 2924   1.400   6.589   5.410
  987TIP3    H1 2925   1.333   6.536   5.367
  987TIP3    H2 2926   1.351   6.652   5.463
  988TIP3   OH2 2927   2.587   0.445   5.545
  988TIP3    H1 2928   2.608   0.538   5.558
  988TIP3    H2 2929   2.495   0.439   5.570
  989TIP3   OH2 2930   3.757   6.639   3.609
  989TIP3    H1 2931   3.779   6.618   3.518
  989TIP3    H2 2932   3.690   6.707   3.603
  990TIP3   OH2 2933   7.162   1.876   0.397
  990TIP3    H1 2934   7.227   1.939   0.429
  990TIP3    H2 2935   7.214   1.802   0.366
  991TIP3   OH2 2936   2.415   4.927   2.628
  991TIP3    H1 2937   2.424   4.965   2.541
  991TIP3    H2 2938   2.354   4.854   2.616
  992TIP3   OH2 2939   4.942   1.259   5.172
  992TIP3    H1 2940   4.913   1.306   5.094
  992TIP3    H2 2941   4.899   1.174   5.166
  993TIP3   OH2 2942   0.189   2.483   5.411
  993TIP3    H1 2943   0.157   2.567   5.379
  993TIP3    H2 2944   0.110   2.434   5.435
  994TIP3   OH2 2945   5.045   1.186   3.126
  994TIP3    H1 2946   5.113   1.250   3.105
  994TIP3    H2 2947   5.088   1.101   3.114
  995TIP3   OH2 2948   6.595   5.553   5.807
  995TIP3    H1 2949   6.518   5.593   5.846
  995TIP3    H2 2950   6.622   5.486   5.870
  996TIP3   OH2 2951   0.439   1.326   5.297
  996TIP3    H1 2952   0.501   1.265   5.257
  996TIP3    H2 2953   0.494   1.388   5.345
  997TIP3   OH2 2954   1.564   6.103   3.870
  997TIP3    H1 2955   1.639   6.130   3.923
  997TIP3    H2 2956   1.604   6.055   3.797
  998TIP3   OH2 2957   5.258   4.647   4.723
  998TIP3    H1 2958   5.176   4.678   4.685
  998TIP3    H2 2959   5.242   4.556   4.745
  999TIP3   OH2 2960   1.396   4.757   2.263
  999TIP3    H1 2961   1.348   4.800   2.193
  999TIP3    H2 2962   1.467   4.711   2.219
 1000TIP3   OH2 2963   6.413   2.191   3.226
 1000TIP3    H1 2964   6.377   2.262   3.278
 1000TIP3    H2 2965   6.501   2.220   3.202
 1001TIP3   OH2 2966   1.930   0.874   2.895
 1001TIP3    H1 2967   2.023   0.899   2.896
 1001TIP3    H2 2968   1.896   0.910   2.813
 1002TIP3   OH2 2969   0.110   0.015   4.449
 1002TIP3    H1 2970   0.195  -0.007   4.412
 1002TIP3    H2 2971   0.084   0.096   4.404
 1003TIP3   OH2 2972   3.752   1.911   1.612
 1003TIP3    H1 2973   3.717   1.925   1.523
 1003TIP3    H2 2974   3.727   1.821   1.633
 1004TIP3   OH2 2975   2.706   5.389   4.374
 1004TIP3    H1 2976   2.790   5.409   4.334
 1004TIP3    H2 2977   2.677   5.308   4.331
 1005TIP3   OH2 2978   4.910   6.131   0.382
 1005TIP3    H1 2979   4.937   6.055   0.434
 1005TIP3    H2 2980   4.913   6.204   0.443
 1006TIP3   OH2 2981   1.418   2.099   5.536
 1006TIP3    H1 2982   1.357   2.161   5.575
 1006TIP3    H2 2983   1.433   2.034   5.604
 1007TIP3   OH2 2984   2.774   0.841   0.491
 1007TIP3    H1 2985   2.743   0.778   0.555
 1007TIP3    H2 2986   2.869   0.838   0.497
 1008TIP3   OH2 2987   4.795   6.230   2.622
 1008TIP3    H1 2988   4.738   6.303   2.645
 1008TIP3    H2 2989   4.771   6.209   2.532
 1009TIP3   OH2 2990   4.797   6.617   4.563
 1009TIP3    H1 2991   4.703   6.613   4.545
 1009TIP3    H2 2992   4.831   6.684   4.504
 1010TIP3   OH2 2993   7.239   0.351   2.577
 1010TIP3    H1 2994   7.158   0.302   2.592
 1010TIP3    H2 2995   7.297   0.323   2.648
 1011TIP3   OH2 2996   1.326   3.166   3.193
 1011TIP3    H1 2997   1.301   3.253   3.161
 1011TIP3    H2 2998   1.418   3.176   3.221
 1012TIP3   OH2 2999   4.873   3.397   4.801
 1012TIP3    H1 3000   4.931   3.322   4.787
 1012TIP3    H2 3001   4.830   3.378   4.885
 1013TIP3   OH2 3002   2.486   6.789   0.921
 1013TIP3    H1 3003   2.549   6.861   0.928
 1013TIP3    H2 3004   2.436   6.793   1.002
 1014TIP3   OH2 3005   0.174   2.164   4.006
 1014TIP3    H1 3006   0.141   2.081   4.041
 1014TIP3    H2 3007   0.246   2.139   3.948
 1015TIP3   OH2 3008   5.545   2.612   0.875
 1015TIP3    H1 3009   5.549   2.582   0.784
 1015TIP3    H2 3010   5.630   2.588   0.912
 1016TIP3   OH2 3011   4.182   3.344   0.810
 1016TIP3    H1 3012   4.157   3.362   0.901
 1016TIP3    H2 3013   4.269   3.385   0.801
 1017TIP3   OH2 3014   6.826   2.665   1.386
 1017TIP3    H1 3015   6.842   2.642   1.295
 1017TIP3    H2 3016   6.914   2.680   1.423
 1018TIP3   OH2 3017   6.609   4.536   5.198
 1018TIP3    H1 3018   6.589   4.629   5.207
 1018TIP3    H2 3019   6.679   4.532   5.133
 1019TIP3   OH2 3020   4.958   2.037   2.634
 1019TIP3    H1 3021   4.987   2.053   2.724
 1019TIP3    H2 3022   4.919   1.950   2.636
 1020TIP3   OH2 3023   1.375   4.346   1.510
 1020TIP3    H1 3024   1.297   4.346   1.454
 1020TIP3    H2 3025   1.346   4.387   1.591
 1021TIP3   OH2 3026   4.532   5.045   2.287
 1021TIP3    H1 3027   4.587   5.050   2.209
 1021TIP3    H2 3028   4.454   5.096   2.266
 1022TIP3   OH2 3029   5.002   6.312   5.462
 1022TIP3    H1 3030   4.945   6.382   5.493
 1022TIP3    H2 3031   5.052   6.351   5.391
 1023TIP3   OH2 3032   3.561   5.838   1.753
 1023TIP3    H1 3033   3.544   5.884   1.835
 1023TIP3    H2 3034   3.495   5.768   1.750
 1024TIP3   OH2 3035   3.384   4.269   2.309
 1024TIP3    H1 3036   3.395   4.358   2.340
 1024TIP3    H2 3037   3.290   4.257   2.301
 1025TIP3   OH2 3038   2.578   1.701   0.630
 1025TIP3    H1 3039   2.488   1.681   0.605
 1025TIP3    H2 3040   2.579   1.697   0.725
 1026TIP3   OH2 3041   2.726   3.852   1.174
 1026TIP3    H1 3042   2.631   3.865   1.174
 1026TIP3    H2 3043   2.742   3.784   1.239
 1027TIP3   OH2 3044   1.294   6.790   2.576
 1027TIP3    H1 3045   1.204   6.758   2.573
 1027TIP3    H2 3046   1.294   6.851   2.650
 1028TIP3   OH2 3047   6.782   4.162   0.766
 1028TIP3    H1 3048   6.721   4.228   0.735
 1028TIP3    H2 3049   6.748   4.137   0.852
 1029TIP3   OH2 3050   2.235   4.976   0.012
 1029TIP3    H1 3051   2.198   4.891   0.037
 1029TIP3    H2 3052   2.198   5.038   0.075
 1030TIP3   OH2 3053   6.807   3.208   1.969
 1030TIP3    H1 3054   6.773   3.125   1.938
 1030TIP3    H2 3055   6.835   3.191   2.059
 1031TIP3   OH2 3056   6.604   6.740   1.515
 1031TIP3    H1 3057   6.550   6.718   1.591
 1031TIP3    H2 3058   6.546   6.788   1.457
 1032TIP3   OH2 3059   1.785   4.701   2.079
 1032TIP3    H1 3060   1.767   4.610   2.059
 1032TIP3    H2 3061   1.812   4.701   2.171
 1033TIP3   OH2 3062   3.194   0.394   4.884
 1033TIP3    H1 3063   3.279   0.388   4.840
 1033TIP3    H2 3064   3.205   0.347   4.966
 1034TIP3   OH2 3065   4.948   2.904   3.205
 1034TIP3    H1 3066   4.960   2.826   3.259
 1034TIP3    H2 3067   4.868   2.944   3.239
 1035TIP3   OH2 3068   3.559   0.400   5.449
 1035TIP3    H1 3069   3.620   0.329   5.430
 1035TIP3    H2 3070   3.601   0.478   5.413
 1036TIP3   OH2 3071   5.461   6.739   2.025
 1036TIP3    H1 3072   5.403   6.815   2.024
 1036TIP3    H2 3073   5.403   6.664   2.008
 1037TIP3   OH2 3074   4.593   5.951   4.483
 1037TIP3    H1 3075   4.680   5.973   4.518
 1037TIP3    H2 3076   4.585   6.005   4.404
 1038TIP3   OH2 3077   2.110   5.802   0.406
 1038TIP3    H1 3078   2.075   5.879   0.450
 1038TIP3    H2 3079   2.195   5.829   0.372
 1039TIP3   OH2 3080   3.592   3.903   4.066
 1039TIP3    H1 3081   3.642   3.894   4.147
 1039TIP3    H2 3082   3.565   3.813   4.045
 1040TIP3   OH2 3083   0.114   5.210   2.943
 1040TIP3    H1 3084   0.145   5.147   3.008
 1040TIP3    H2 3085   0.072   5.279   2.994
 1041TIP3   OH2 3086   5.343   3.863   0.551
 1041TIP3    H1 3087   5.438   3.861   0.541
 1041TIP3    H2 3088   5.318   3.953   0.527
 1042TIP3   OH2 3089   2.859   5.087   1.066
 1042TIP3    H1 3090   2.946   5.070   1.031
 1042TIP3    H2 3091   2.839   5.176   1.038
 1043TIP3   OH2 3092   5.993   6.801   2.829
 1043TIP3    H1 3093   6.074   6.842   2.860
 1043TIP3    H2 3094   6.013   6.774   2.739
 1044TIP3   OH2 3095   4.423   4.115   4.701
 1044TIP3    H1 3096   4.355   4.050   4.719
 1044TIP3    H2 3097   4.389   4.165   4.626
 1045TIP3   OH2 3098   1.468   5.991   4.733
 1045TIP3    H1 3099   1.441   6.005   4.824
 1045TIP3    H2 3100   1.459   6.077   4.692
 1046TIP3   OH2 3101   1.102   1.094   2.628
 1046TIP3    H1 3102   1.018   1.141   2.632
 1046TIP3    H2 3103   1.129   1.100   2.536
 1047TIP3   OH2 3104   4.978   3.356   2.633
 1047TIP3    H1 3105   4.988   3.444   2.669
 1047TIP3    H2 3106   4.955   3.302   2.708
 1048TIP3   OH2 3107   3.715   1.135   3.792
 1048TIP3    H1 3108   3.650   1.152   3.860
 1048TIP3    H2 3109   3.709   1.211   3.734
 1049TIP3   OH2 3110   0.956   0.207   2.002
 1049TIP3    H1 3111   0.949   0.140   2.070
 1049TIP3    H2 3112   0.883   0.189   1.943
 1050TIP3   OH2 3113   1.699   2.122   3.089
 1050TIP3    H1 3114   1.655   2.072   3.020
 1050TIP3    H2 3115   1.629   2.148   3.148
 1051TIP3   OH2 3116   1.522   2.503   5.623
 1051TIP3    H1 3117   1.569   2.431   5.582
 1051TIP3    H2 3118   1.523   2.573   5.558
 1052TIP3   OH2 3119   7.123   2.218   3.672
 1052TIP3    H1 3120   7.099   2.218   3.580
 1052TIP3    H2 3121   7.219   2.220   3.673
 1053TIP3   OH2 3122   1.043   4.504   0.703
 1053TIP3    H1 3123   1.055   4.412   0.682
 1053TIP3    H2 3124   1.094   4.551   0.637
 1054TIP3   OH2 3125   7.142   5.951   2.979
 1054TIP3    H1 3126   7.097   5.964   2.895
 1054TIP3    H2 3127   7.076   5.974   3.045
 1055TIP3   OH2 3128   1.739   4.582   4.241
 1055TIP3    H1 3129   1.794   4.596   4.318
 1055TIP3    H2 3130   1.699   4.667   4.224
 1056TIP3   OH2 3131   0.395   2.180   3.000
 1056TIP3    H1 3132   0.427   2.092   2.980
 1056TIP3    H2 3133   0.452   2.238   2.949
 1057TIP3   OH2 3134   1.905   1.269   4.038
 1057TIP3    H1 3135   1.892   1.266   4.133
 1057TIP3    H2 3136   1.969   1.339   4.024
 1058TIP3   OH2 3137   1.279   5.147   1.484
 1058TIP3    H1 3138   1.345   5.104   1.539
 1058TIP3    H2 3139   1.330   5.193   1.418
 1059TIP3   OH2 3140   3.728   3.946   5.825
 1059TIP3    H1 3141   3.642   3.980   5.852
 1059TIP3    H2 3142   3.754   3.887   5.896
 1060TIP3   OH2 3143   2.789   4.105   0.188
 1060TIP3    H1 3144   2.826   4.187   0.220
 1060TIP3    H2 3145   2.697   4.125   0.173
 1061TIP3   OH2 3146   5.163   3.461   0.109
 1061TIP3    H1 3147   5.227   3.458   0.179
 1061TIP3    H2 3148   5.195   3.398   0.044
 1062TIP3   OH2 3149   2.527   0.553   3.642
 1062TIP3    H1 3150   2.591   0.606   3.690
 1062TIP3    H2 3151   2.459   0.615   3.616
 1063TIP3   OH2 3152   5.850   1.769   2.478
 1063TIP3    H1 3153   5.852   1.699   2.413
 1063TIP3    H2 3154   5.834   1.725   2.561
 1064TIP3   OH2 3155   1.575   6.466   0.660
 1064TIP3    H1 3156   1.511   6.421   0.715
 1064TIP3    H2 3157   1.659   6.428   0.684
 1065TIP3   OH2 3158   1.424   6.719   4.336
 1065TIP3    H1 3159   1.345   6.665   4.346
 1065TIP3    H2 3160   1.434   6.763   4.421
 1066TIP3   OH2 3161   0.572   4.513   3.077
 1066TIP3    H1 3162   0.656   4.469   3.064
 1066TIP3    H2 3163   0.596   4.604   3.097
 1067TIP3   OH2 3164   1.387   1.361   5.316
 1067TIP3    H1 3165   1.482   1.347   5.324
 1067TIP3    H2 3166   1.377   1.456   5.313
 1068TIP3   OH2 3167   0.261   0.521   2.263
 1068TIP3    H1 3168   0.277   0.605   2.219
 1068TIP3    H2 3169   0.202   0.544   2.335
 1069TIP3   OH2 3170   0.058   5.015   1.722
 1069TIP3    H1 3171  -0.031   4.984   1.736
 1069TIP3    H2 3172   0.048   5.108   1.699
 1070TIP3   OH2 3173   1.829   6.372   5.541
 1070TIP3    H1 3174   1.794   6.284   5.528
 1070TIP3    H2 3175   1.763   6.430   5.504
 1071TIP3   OH2 3176   5.055   5.539   5.190
 1071TIP3    H1 3177   5.026   5.526   5.100
 1071TIP3    H2 3178   4.988   5.496   5.243
 1072TIP3   OH2 3179   0.606   4.644   4.837
 1072TIP3    H1 3180   0.591   4.558   4.799
 1072TIP3    H2 3181   0.557   4.643   4.920
 1073TIP3   OH2 3182   3.788   3.003   1.212
 1073TIP3    H1 3183   3.877   3.013   1.179
 1073TIP3    H2 3184   3.733   3.012   1.135
 1074TIP3   OH2 3185   1.130   0.531   1.915
 1074TIP3    H1 3186   1.192   0.604   1.904
 1074TIP3    H2 3187   1.180   0.464   1.962
 1075TIP3   OH2 3188   7.221   4.021   2.581
 1075TIP3    H1 3189   7.166   4.090   2.618
 1075TIP3    H2 3190   7.197   3.943   2.631
 1076TIP3   OH2 3191   2.628   0.408   1.986
 1076TIP3    H1 3192   2.563   0.414   1.916
 1076TIP3    H2 3193   2.708   0.378   1.942
 1077TIP3   OH2 3194   5.946   6.382   1.853
 1077TIP3    H1 3195   5.973   6.290   1.856
 1077TIP3    H2 3196   5.857   6.380   1.819
 1078TIP3   OH2 3197   3.613   2.082   1.790
 1078TIP3    H1 3198   3.653   2.021   1.728
 1078TIP3    H2 3199   3.634   2.169   1.756
 1079TIP3   OH2 3200   6.611   1.289   4.627
 1079TIP3    H1 3201   6.642   1.236   4.701
 1079TIP3    H2 3202   6.685   1.291   4.566
 1080TIP3   OH2 3203   6.840   1.492   3.943
 1080TIP3    H1 3204   6.840   1.463   4.034
 1080TIP3    H2 3205   6.845   1.588   3.949
 1081TIP3   OH2 3206   5.250   6.656   4.894
 1081TIP3    H1 3207   5.312   6.701   4.952
 1081TIP3    H2 3208   5.288   6.569   4.881
 1082TIP3   OH2 3209   1.200   5.127   2.577
 1082TIP3    H1 3210   1.117   5.083   2.596
 1082TIP3    H2 3211   1.174   5.211   2.540
 1083TIP3   OH2 3212   2.541   3.724   1.981
 1083TIP3    H1 3213   2.592   3.674   2.044
 1083TIP3    H2 3214   2.453   3.728   2.019
 1084TIP3   OH2 3215   7.097   0.238   3.396
 1084TIP3    H1 3216   7.145   0.159   3.423
 1084TIP3    H2 3217   7.031   0.206   3.334
 1085TIP3   OH2 3218   2.832   4.352   3.766
 1085TIP3    H1 3219   2.834   4.383   3.676
 1085TIP3    H2 3220   2.741   4.325   3.781
 1086TIP3   OH2 3221   4.357   6.323   2.487
 1086TIP3    H1 3222   4.293   6.271   2.439
 1086TIP3    H2 3223   4.353   6.289   2.577
 1087TIP3   OH2 3224   0.258   3.326   4.989
 1087TIP3    H1 3225   0.269   3.240   4.949
 1087TIP3    H2 3226   0.330   3.334   5.051
 1088TIP3   OH2 3227   2.389   6.673   0.111
 1088TIP3    H1 3228   2.417   6.764   0.106
 1088TIP3    H2 3229   2.294   6.676   0.116
 1089TIP3   OH2 3230   0.723   1.371   3.005
 1089TIP3    H1 3231   0.784   1.323   3.062
 1089TIP3    H2 3232   0.769   1.378   2.922
 1090TIP3   OH2 3233   4.150   1.160   2.612
 1090TIP3    H1 3234   4.146   1.156   2.708
 1090TIP3    H2 3235   4.229   1.112   2.589
 1091TIP3   OH2 3236   5.195   6.620   0.867
 1091TIP3    H1 3237   5.119   6.674   0.843
 1091TIP3    H2 3238   5.265   6.683   0.884
 1092TIP3   OH2 3239   6.502   2.762   2.583
 1092TIP3    H1 3240   6.514   2.746   2.489
 1092TIP3    H2 3241   6.546   2.688   2.626
 1093TIP3   OH2 3242   1.780   2.178   2.680
 1093TIP3    H1 3243   1.695   2.189   2.724
 1093TIP3    H2 3244   1.797   2.084   2.685
 1094TIP3   OH2 3245   3.171   6.436   3.550
 1094TIP3    H1 3246   3.101   6.501   3.542
 1094TIP3    H2 3247   3.138   6.359   3.505
 1095TIP3   OH2 3248   4.135   4.977   0.566
 1095TIP3    H1 3249   4.170   4.993   0.654
 1095TIP3    H2 3250   4.099   5.061   0.539
 1096TIP3   OH2 3251   6.540   5.489   4.757
 1096TIP3    H1 3252   6.608   5.529   4.811
 1096TIP3    H2 3253   6.502   5.422   4.813
 1097TIP3   OH2 3254   5.782   2.205   0.672
 1097TIP3    H1 3255   5.717   2.161   0.617
 1097TIP3    H2 3256   5.861   2.153   0.663
 1098TIP3   OH2 3257   2.449   0.574   2.334
 1098TIP3    H1 3258   2.476   0.625   2.410
 1098TIP3    H2 3259   2.513   0.596   2.266
 1099TIP3   OH2 3260   4.737   0.878   5.609
 1099TIP3    H1 3261   4.725   0.790   5.573
 1099TIP3    H2 3262   4.747   0.934   5.533
 1100TIP3   OH2 3263   6.870   0.323   4.257
 1100TIP3    H1 3264   6.834   0.395   4.308
 1100TIP3    H2 3265   6.794   0.278   4.220
 1101TIP3   OH2 3266   1.658   4.310   0.206
 1101TIP3    H1 3267   1.636   4.394   0.166
 1101TIP3    H2 3268   1.585   4.291   0.265
 1102TIP3   OH2 3269   2.551   1.217   2.391
 1102TIP3    H1 3270   2.566   1.305   2.428
 1102TIP3    H2 3271   2.639   1.187   2.367
 1103TIP3   OH2 3272   3.523   1.006   4.984
 1103TIP3    H1 3273   3.556   1.086   4.943
 1103TIP3    H2 3274   3.502   0.949   4.911
 1104TIP3   OH2 3275   0.347   3.361   3.408
 1104TIP3    H1 3276   0.402   3.418   3.462
 1104TIP3    H2 3277   0.258   3.388   3.427
 1105TIP3   OH2 3278   0.343   4.352   4.461
 1105TIP3    H1 3279   0.342   4.302   4.379
 1105TIP3    H2 3280   0.376   4.290   4.526
 1106TIP3   OH2 3281   4.846   3.932   0.485
 1106TIP3    H1 3282   4.857   3.942   0.391
 1106TIP3    H2 3283   4.935   3.942   0.521
 1107TIP3   OH2 3284   5.122   4.818   5.281
 1107TIP3    H1 3285   5.051   4.862   5.330
 1107TIP3    H2 3286   5.174   4.890   5.246
 1108TIP3   OH2 3287   4.300   5.047   2.990
 1108TIP3    H1 3288   4.359   5.083   3.056
 1108TIP3    H2 3289   4.218   5.030   3.037
 1109TIP3   OH2 3290   4.771   3.069   1.083
 1109TIP3    H1 3291   4.861   3.040   1.075
 1109TIP3    H2 3292   4.724   2.996   1.123
 1110TIP3   OH2 3293   4.068   5.588   4.367
 1110TIP3    H1 3294   4.016   5.559   4.442
 1110TIP3    H2 3295   4.028   5.546   4.291
 1111TIP3   OH2 3296   1.048   5.919   0.513
 1111TIP3    H1 3297   1.113   5.947   0.449
 1111TIP3    H2 3298   1.002   5.999   0.537
 1112TIP3   OH2 3299   1.060   4.875   4.082
 1112TIP3    H1 3300   1.015   4.845   4.003
 1112TIP3    H2 3301   0.991   4.884   4.148
 1113TIP3   OH2 3302   3.675   1.410   2.443
 1113TIP3    H1 3303   3.765   1.443   2.440
 1113TIP3    H2 3304   3.622   1.486   2.468
 1114TIP3   OH2 3305   1.841   5.325   4.287
 1114TIP3    H1 3306   1.870   5.235   4.301
 1114TIP3    H2 3307   1.820   5.329   4.194
 1115TIP3   OH2 3308   1.257   4.707   5.228
 1115TIP3    H1 3309   1.188   4.664   5.278
 1115TIP3    H2 3310   1.221   4.714   5.139
 1116TIP3   OH2 3311   2.322   4.328   0.252
 1116TIP3    H1 3312   2.244   4.367   0.212
 1116TIP3    H2 3313   2.342   4.386   0.326
 1117TIP3   OH2 3314   5.752   5.631   5.250
 1117TIP3    H1 3315   5.691   5.603   5.181
 1117TIP3    H2 3316   5.826   5.571   5.241
 1118TIP3   OH2 3317   4.023   2.685   2.742
 1118TIP3    H1 3318   4.068   2.612   2.783
 1118TIP3    H2 3319   4.013   2.750   2.811
 1119TIP3   OH2 3320   4.033   5.097   1.948
 1119TIP3    H1 3321   4.058   5.004   1.949
 1119TIP3    H2 3322   3.970   5.103   1.876
 1120TIP3   OH2 3323   3.103   0.472   3.804
 1120TIP3    H1 3324   3.179   0.492   3.749
 1120TIP3    H2 3325   3.131   0.493   3.893
 1121TIP3   OH2 3326   0.415   6.563   4.357
 1121TIP3    H1 3327   0.424   6.658   4.347
 1121TIP3    H2 3328   0.446   6.545   4.445
 1122TIP3   OH2 3329   6.848   4.285   5.273
 1122TIP3    H1 3330   6.862   4.193   5.294
 1122TIP3    H2 3331   6.791   4.283   5.195
 1123TIP3   OH2 3332   1.893   0.465   0.260
 1123TIP3    H1 3333   1.936   0.406   0.322
 1123TIP3    H2 3334   1.894   0.550   0.304
 1124TIP3   OH2 3335   1.000   2.081   0.535
 1124TIP3    H1 3336   0.915   2.084   0.492
 1124TIP3    H2 3337   1.048   2.012   0.489
 1125TIP3   OH2 3338   6.745   2.692   4.517
 1125TIP3    H1 3339   6.704   2.633   4.453
 1125TIP3    H2 3340   6.673   2.746   4.550
 1126TIP3   OH2 3341   6.652   5.774   1.015
 1126TIP3    H1 3342   6.615   5.861   1.029
 1126TIP3    H2 3343   6.609   5.743   0.935
 1127TIP3   OH2 3344   6.462   1.224   2.500
 1127TIP3    H1 3345   6.502   1.301   2.539
 1127TIP3    H2 3346   6.480   1.232   2.406
 1128TIP3   OH2 3347   0.384   0.565   4.482
 1128TIP3    H1 3348   0.346   0.646   4.446
 1128TIP3    H2 3349   0.474   0.589   4.503
 1129TIP3   OH2 3350   3.655   2.694   4.442
 1129TIP3    H1 3351   3.619   2.711   4.529
 1129TIP3    H2 3352   3.578   2.681   4.386
 1130TIP3   OH2 3353   6.047   3.798   4.228
 1130TIP3    H1 3354   5.995   3.717   4.227
 1130TIP3    H2 3355   6.033   3.836   4.142
 1131TIP3   OH2 3356   1.716   2.532   0.142
 1131TIP3    H1 3357   1.708   2.498   0.053
 1131TIP3    H2 3358   1.676   2.464   0.197
 1132TIP3   OH2 3359   5.618   3.473   3.133
 1132TIP3    H1 3360   5.709   3.491   3.158
 1132TIP3    H2 3361   5.618   3.480   3.037
 1133TIP3   OH2 3362   1.406   0.281   2.311
 1133TIP3    H1 3363   1.407   0.296   2.405
 1133TIP3    H2 3364   1.314   0.263   2.290
 1134TIP3   OH2 3365   5.252   1.665   2.093
 1134TIP3    H1 3366   5.288   1.587   2.137
 1134TIP3    H2 3367   5.204   1.710   2.163
 1135TIP3   OH2 3368   4.510   5.984   2.243
 1135TIP3    H1 3369   4.484   6.019   2.158
 1135TIP3    H2 3370   4.565   5.908   2.222
 1136TIP3   OH2 3371   2.928   0.710   4.624
 1136TIP3    H1 3372   2.942   0.620   4.596
 1136TIP3    H2 3373   2.969   0.715   4.710
 1137TIP3   OH2 3374   3.302   3.534   1.091
 1137TIP3    H1 3375   3.349   3.472   1.035
 1137TIP3    H2 3376   3.222   3.488   1.116
 1138TIP3   OH2 3377   4.506   1.453   2.449
 1138TIP3    H1 3378   4.448   1.377   2.444
 1138TIP3    H2 3379   4.515   1.470   2.543
 1139TIP3   OH2 3380   0.667   6.032   4.095
 1139TIP3    H1 3381   0.716   5.973   4.038
 1139TIP3    H2 3382   0.577   6.026   4.064
 1140TIP3   OH2 3383   2.654   2.347   0.939
 1140TIP3    H1 3384   2.616   2.373   0.855
 1140TIP3    H2 3385   2.691   2.428   0.975
 1141TIP3   OH2 3386   1.562   0.760   1.722
 1141TIP3    H1 3387   1.601   0.847   1.718
 1141TIP3    H2 3388   1.635   0.700   1.706
 1142TIP3   OH2 3389   5.301   0.993   4.257
 1142TIP3    H1 3390   5.239   0.975   4.328
 1142TIP3    H2 3391   5.375   1.035   4.300
 1143TIP3   OH2 3392   2.945   6.289   2.418
 1143TIP3    H1 3393   2.874   6.233   2.387
 1143TIP3    H2 3394   2.912   6.327   2.499
 1144TIP3   OH2 3395   1.235   6.413   1.245
 1144TIP3    H1 3396   1.189   6.390   1.164
 1144TIP3    H2 3397   1.311   6.464   1.217
 1145TIP3   OH2 3398   3.331   5.208   3.844
 1145TIP3    H1 3399   3.321   5.303   3.853
 1145TIP3    H2 3400   3.410   5.198   3.792
 1146TIP3   OH2 3401   6.706   0.503   4.412
 1146TIP3    H1 3402   6.718   0.581   4.465
 1146TIP3    H2 3403   6.614   0.504   4.387
 1147TIP3   OH2 3404   4.052   0.161   3.733
 1147TIP3    H1 3405   3.998   0.239   3.726
 1147TIP3    H2 3406   3.998   0.099   3.783
 1148TIP3   OH2 3407   4.338   4.285   5.588
 1148TIP3    H1 3408   4.356   4.314   5.677
 1148TIP3    H2 3409   4.357   4.362   5.534
 1149TIP3   OH2 3410   1.037   4.029   4.203
 1149TIP3    H1 3411   1.018   3.964   4.135
 1149TIP3    H2 3412   0.956   4.036   4.253
 1150TIP3   OH2 3413   2.356   6.724   4.407
 1150TIP3    H1 3414   2.352   6.819   4.395
 1150TIP3    H2 3415   2.280   6.703   4.460
 1151TIP3   OH2 3416   5.999   4.158   0.217
 1151TIP3    H1 3417   6.013   4.222   0.286
 1151TIP3    H2 3418   6.019   4.205   0.136
 1152TIP3   OH2 3419   4.941   6.372   0.529
 1152TIP3    H1 3420   4.856   6.413   0.541
 1152TIP3    H2 3421   4.978   6.367   0.617
 1153TIP3   OH2 3422   2.090   1.294   0.022
 1153TIP3    H1 3423   2.078   1.219   0.080
 1153TIP3    H2 3424   2.185   1.309   0.021
 1154TIP3   OH2 3425   5.077   6.357   0.234
 1154TIP3    H1 3426   5.008   6.415   0.201
 1154TIP3    H2 3427   5.040   6.320   0.314
 1155TIP3   OH2 3428   0.977   0.022   1.285
 1155TIP3    H1 3429   0.912   0.026   1.356
 1155TIP3    H2 3430   0.938  -0.036   1.220
 1156TIP3   OH2 3431   3.309   0.703   2.423
 1156TIP3    H1 3432   3.248   0.728   2.354
 1156TIP3    H2 3433   3.299   0.771   2.490
 1157TIP3   OH2 3434   3.011   2.649   2.812
 1157TIP3    H1 3435   3.049   2.643   2.900
 1157TIP3    H2 3436   3.086   2.670   2.756
 1158TIP3   OH2 3437   2.871   2.106   5.795
 1158TIP3    H1 3438   2.837   2.033   5.744
 1158TIP3    H2 3439   2.793   2.155   5.822
 1159TIP3   OH2 3440   6.523   3.635   5.053
 1159TIP3    H1 3441   6.611   3.655   5.021
 1159TIP3    H2 3442   6.473   3.613   4.975
 1160TIP3   OH2 3443   5.933   6.152   2.792
 1160TIP3    H1 3444   5.932   6.247   2.782
 1160TIP3    H2 3445   5.857   6.122   2.742
 1161TIP3   OH2 3446   6.261   4.434   2.941
 1161TIP3    H1 3447   6.331   4.488   2.979
 1161TIP3    H2 3448   6.307   4.358   2.906
 1162TIP3   OH2 3449   0.914   3.419   0.373
 1162TIP3    H1 3450   0.964   3.500   0.362
 1162TIP3    H2 3451   0.836   3.432   0.318
 1163TIP3   OH2 3452   4.367   3.544   2.325
 1163TIP3    H1 3453   4.355   3.625   2.374
 1163TIP3    H2 3454   4.401   3.482   2.389
 1164TIP3   OH2 3455   3.435   5.404   1.270
 1164TIP3    H1 3456   3.482   5.416   1.187
 1164TIP3    H2 3457   3.437   5.309   1.284
 1165TIP3   OH2 3458   5.314   1.164   4.648
 1165TIP3    H1 3459   5.389   1.106   4.655
 1165TIP3    H2 3460   5.322   1.222   4.724
 1166TIP3   OH2 3461   3.632   4.762   4.169
 1166TIP3    H1 3462   3.721   4.797   4.157
 1166TIP3    H2 3463   3.640   4.702   4.242
 1167TIP3   OH2 3464   3.673   2.022   3.761
 1167TIP3    H1 3465   3.658   2.061   3.675
 1167TIP3    H2 3466   3.752   1.969   3.750
 1168TIP3   OH2 3467   7.186   0.947   2.948
 1168TIP3    H1 3468   7.131   0.915   2.877
 1168TIP3    H2 3469   7.266   0.977   2.905
 1169TIP3   OH2 3470   5.017   5.746   2.590
 1169TIP3    H1 3471   5.060   5.697   2.520
 1169TIP3    H2 3472   5.077   5.817   2.610
 1170TIP3   OH2 3473   2.728   4.067   3.382
 1170TIP3    H1 3474   2.703   3.984   3.424
 1170TIP3    H2 3475   2.648   4.096   3.338
 1171TIP3   OH2 3476   3.941   0.689   2.215
 1171TIP3    H1 3477   3.856   0.719   2.183
 1171TIP3    H2 3478   4.004   0.723   2.151
 1172TIP3   OH2 3479   2.356   5.772   2.722
 1172TIP3    H1 3480   2.430   5.715   2.739
 1172TIP3    H2 3481   2.378   5.816   2.639
 1173TIP3   OH2 3482   2.269   2.924   5.451
 1173TIP3    H1 3483   2.176   2.901   5.443
 1173TIP3    H2 3484   2.270   3.003   5.505
 1174TIP3   OH2 3485   6.027   2.300   0.343
 1174TIP3    H1 3486   6.048   2.355   0.419
 1174TIP3    H2 3487   5.980   2.358   0.284
 1175TIP3   OH2 3488   0.379   1.344   4.243
 1175TIP3    H1 3489   0.316   1.360   4.172
 1175TIP3    H2 3490   0.463   1.369   4.206
 1176TIP3   OH2 3491   1.421   2.641   2.299
 1176TIP3    H1 3492   1.506   2.686   2.290
 1176TIP3    H2 3493   1.408   2.598   2.215
 1177TIP3   OH2 3494   2.316   1.208   3.071
 1177TIP3    H1 3495   2.355   1.276   3.125
 1177TIP3    H2 3496   2.355   1.220   2.984
 1178TIP3   OH2 3497   1.624   1.511   3.463
 1178TIP3    H1 3498   1.569   1.584   3.491
 1178TIP3    H2 3499   1.700   1.552   3.423
 1179TIP3   OH2 3500   2.168   1.011   5.669
 1179TIP3    H1 3501   2.120   0.949   5.724
 1179TIP3    H2 3502   2.115   1.019   5.590
 1180TIP3   OH2 3503   0.767   3.998   4.679
 1180TIP3    H1 3504   0.764   3.903   4.668
 1180TIP3    H2 3505   0.834   4.027   4.617
 1181TIP3   OH2 3506   2.327   3.068   1.293
 1181TIP3    H1 3507   2.241   3.048   1.329
 1181TIP3    H2 3508   2.309   3.124   1.217
 1182TIP3   OH2 3509   4.821   5.183   1.122
 1182TIP3    H1 3510   4.840   5.276   1.130
 1182TIP3    H2 3511   4.756   5.177   1.052
 1183TIP3   OH2 3512   3.867   3.333   1.549
 1183TIP3    H1 3513   3.833   3.422   1.538
 1183TIP3    H2 3514   3.930   3.340   1.621
 1184TIP3   OH2 3515   6.672   2.423   2.192
 1184TIP3    H1 3516   6.695   2.354   2.130
 1184TIP3    H2 3517   6.735   2.414   2.263
 1185TIP3   OH2 3518   3.730   3.328   5.575
 1185TIP3    H1 3519   3.644   3.340   5.535
 1185TIP3    H2 3520   3.783   3.290   5.505
 1186TIP3   OH2 3521   5.206   2.942   3.144
 1186TIP3    H1 3522   5.230   3.020   3.194
 1186TIP3    H2 3523   5.111   2.938   3.150
 1187TIP3   OH2 3524   5.654   1.049   0.031
 1187TIP3    H1 3525   5.653   1.119  -0.036
 1187TIP3    H2 3526   5.569   1.007   0.023
 1188TIP3   OH2 3527   5.952   5.612   3.021
 1188TIP3    H1 3528   5.931   5.681   2.958
 1188TIP3    H2 3529   5.910   5.641   3.102
 1189TIP3   OH2 3530   0.595   6.517   2.294
 1189TIP3    H1 3531   0.611   6.456   2.366
 1189TIP3    H2 3532   0.630   6.472   2.217
 1190TIP3   OH2 3533   2.489   0.958   0.573
 1190TIP3    H1 3534   2.496   0.872   0.615
 1190TIP3    H2 3535   2.564   1.008   0.607
 1191TIP3   OH2 3536   4.329   2.415   5.110
 1191TIP3    H1 3537   4.289   2.338   5.068
 1191TIP3    H2 3538   4.266   2.485   5.095
 1192TIP3   OH2 3539   2.597   6.305   2.312
 1192TIP3    H1 3540   2.636   6.242   2.373
 1192TIP3    H2 3541   2.579   6.382   2.366
 1193TIP3   OH2 3542   5.124   3.932   0.334
 1193TIP3    H1 3543   5.219   3.942   0.340
 1193TIP3    H2 3544   5.107   3.915   0.241
 1194TIP3   OH2 3545   6.559   3.750   1.083
 1194TIP3    H1 3546   6.470   3.784   1.077
 1194TIP3    H2 3547   6.591   3.751   0.992
 1195TIP3   OH2 3548   6.954   3.288   2.785
 1195TIP3    H1 3549   6.920   3.376   2.772
 1195TIP3    H2 3550   7.039   3.288   2.741
 1196TIP3   OH2 3551   6.251   1.392   1.617
 1196TIP3    H1 3552   6.253   1.381   1.712
 1196TIP3    H2 3553   6.331   1.352   1.586
 1197TIP3   OH2 3554   3.531   3.276   3.223
 1197TIP3    H1 3555   3.565   3.287   3.312
 1197TIP3    H2 3556   3.605   3.297   3.166
 1198TIP3   OH2 3557   1.322   4.155   1.915
 1198TIP3    H1 3558   1.266   4.227   1.888
 1198TIP3    H2 3559   1.288   4.128   2.001
 1199TIP3   OH2 3560   2.971   6.019   0.379
 1199TIP3    H1 3561   2.948   5.981   0.294
 1199TIP3    H2 3562   3.020   6.099   0.358
 1200TIP3   OH2 3563   6.561   3.449   2.755
 1200TIP3    H1 3564   6.642   3.430   2.708
 1200TIP3    H2 3565   6.545   3.372   2.809
 1201TIP3   OH2 3566   3.571   5.146   5.260
 1201TIP3    H1 3567   3.494   5.162   5.205
 1201TIP3    H2 3568   3.567   5.053   5.281
 1202TIP3   OH2 3569   3.667   5.728   0.311
 1202TIP3    H1 3570   3.599   5.714   0.245
 1202TIP3    H2 3571   3.635   5.682   0.389
 1203TIP3   OH2 3572   1.274   4.734   4.184
 1203TIP3    H1 3573   1.221   4.734   4.264
 1203TIP3    H2 3574   1.233   4.798   4.127
 1204TIP3   OH2 3575   4.581   3.264   1.040
 1204TIP3    H1 3576   4.652   3.199   1.035
 1204TIP3    H2 3577   4.502   3.211   1.051
 1205TIP3   OH2 3578   3.100   6.016   3.047
 1205TIP3    H1 3579   3.194   6.030   3.057
 1205TIP3    H2 3580   3.063   6.031   3.134
 1206TIP3   OH2 3581   2.084   4.252   1.891
 1206TIP3    H1 3582   2.046   4.164   1.882
 1206TIP3    H2 3583   2.035   4.305   1.828
 1207TIP3   OH2 3584   4.186   5.438   4.822
 1207TIP3    H1 3585   4.114   5.376   4.816
 1207TIP3    H2 3586   4.144   5.521   4.846
 1208TIP3   OH2 3587   1.213   1.673   4.467
 1208TIP3    H1 3588   1.279   1.644   4.529
 1208TIP3    H2 3589   1.211   1.605   4.399
 1209TIP3   OH2 3590   2.487   6.695   4.711
 1209TIP3    H1 3591   2.510   6.636   4.640
 1209TIP3    H2 3592   2.462   6.637   4.783
 1210TIP3   OH2 3593   3.993   2.750   5.373
 1210TIP3    H1 3594   4.069   2.759   5.430
 1210TIP3    H2 3595   3.919   2.738   5.433
 1211TIP3   OH2 3596   1.291   5.174   0.234
 1211TIP3    H1 3597   1.279   5.091   0.280
 1211TIP3    H2 3598   1.252   5.240   0.292
 1212TIP3   OH2 3599   6.042   1.040   4.039
 1212TIP3    H1 3600   6.002   1.017   3.955
 1212TIP3    H2 3601   5.975   1.019   4.104
 1213TIP3   OH2 3602   2.311   1.619   1.926
 1213TIP3    H1 3603   2.238   1.666   1.967
 1213TIP3    H2 3604   2.387   1.675   1.942
 1214TIP3   OH2 3605   4.120   6.368   4.357
 1214TIP3    H1 3606   4.162   6.282   4.359
 1214TIP3    H2 3607   4.181   6.423   4.307
 1215TIP3   OH2 3608   4.829   1.801   2.522
 1215TIP3    H1 3609   4.838   1.780   2.429
 1215TIP3    H2 3610   4.815   1.716   2.564
 1216TIP3   OH2 3611   2.801   6.480   0.021
 1216TIP3    H1 3612   2.834   6.569   0.030
 1216TIP3    H2 3613   2.712   6.490  -0.013
 1217TIP3   OH2 3614   4.079   2.403   5.436
 1217TIP3    H1 3615   4.132   2.482   5.432
 1217TIP3    H2 3616   4.106   2.359   5.516
 1218TIP3   OH2 3617   3.463   6.557   2.376
 1218TIP3    H1 3618   3.389   6.606   2.412
 1218TIP3    H2 3619   3.538   6.614   2.390
 1219TIP3   OH2 3620   2.662   0.853   2.847
 1219TIP3    H1 3621   2.626   0.769   2.818
 1219TIP3    H2 3622   2.707   0.833   2.929
 1220TIP3   OH2 3623   1.093   4.965   1.044
 1220TIP3    H1 3624   1.160   4.931   0.985
 1220TIP3    H2 3625   1.132   4.958   1.131
 1221TIP3   OH2 3626   0.528   3.801   3.278
 1221TIP3    H1 3627   0.572   3.787   3.362
 1221TIP3    H2 3628   0.447   3.749   3.285
 1222TIP3   OH2 3629   5.791   4.941   4.619
 1222TIP3    H1 3630   5.772   4.953   4.712
 1222TIP3    H2 3631   5.885   4.923   4.616
 1223TIP3   OH2 3632   4.312   4.526   3.930
 1223TIP3    H1 3633   4.276   4.615   3.934
 1223TIP3    H2 3634   4.248   4.476   3.881
 1224TIP3   OH2 3635   2.673   5.176   1.771
 1224TIP3    H1 3636   2.581   5.158   1.791
 1224TIP3    H2 3637   2.676   5.185   1.676
 1225TIP3   OH2 3638   6.632   2.847   3.406
 1225TIP3    H1 3639   6.713   2.870   3.360
 1225TIP3    H2 3640   6.648   2.871   3.497
 1226TIP3   OH2 3641   3.171   6.098   1.824
 1226TIP3    H1 3642   3.255   6.135   1.797
 1226TIP3    H2 3643   3.107   6.165   1.802
 1227TIP3   OH2 3644   5.765   5.691   1.732
 1227TIP3    H1 3645   5.724   5.695   1.645
 1227TIP3    H2 3646   5.749   5.777   1.770
 1228TIP3   OH2 3647   4.131   5.832   5.760
 1228TIP3    H1 3648   4.167   5.768   5.822
 1228TIP3    H2 3649   4.197   5.838   5.691
 1229TIP3   OH2 3650   5.888   4.407   2.991
 1229TIP3    H1 3651   5.934   4.348   3.050
 1229TIP3    H2 3652   5.869   4.354   2.913
 1230TIP3   OH2 3653   2.875   0.600   2.715
 1230TIP3    H1 3654   2.930   0.539   2.765
 1230TIP3    H2 3655   2.935   0.669   2.687
 1231TIP3   OH2 3656   0.572   4.365   4.809
 1231TIP3    H1 3657   0.620   4.287   4.835
 1231TIP3    H2 3658   0.484   4.352   4.844
 1232TIP3   OH2 3659   2.119   5.179   1.088
 1232TIP3    H1 3660   2.100   5.110   1.151
 1232TIP3    H2 3661   2.102   5.260   1.135
 1233TIP3   OH2 3662   0.296   1.961   2.853
 1233TIP3    H1 3663   0.210   1.920   2.861
 1233TIP3    H2 3664   0.350   1.896   2.808
 1234TIP3   OH2 3665   0.120   3.078   5.850
 1234TIP3    H1 3666   0.076   3.139   5.908
 1234TIP3    H2 3667   0.068   3.081   5.769
 1235TIP3   OH2 3668   2.640   3.012   4.037
 1235TIP3    H1 3669   2.550   3.025   4.005
 1235TIP3    H2 3670   2.631   2.948   4.108
 1236TIP3   OH2 3671   0.187   6.087   5.923
 1236TIP3    H1 3672   0.234   6.004   5.932
 1236TIP3    H2 3673   0.135   6.076   5.843
 1237TIP3   OH2 3674   4.497   1.445   3.182
 1237TIP3    H1 3675   4.545   1.412   3.258
 1237TIP3    H2 3676   4.419   1.487   3.219
 1238TIP3   OH2 3677   2.637   4.698   2.675
 1238TIP3    H1 3678   2.681   4.779   2.698
 1238TIP3    H2 3679   2.644   4.692   2.579
 1239TIP3   OH2 3680   3.738   5.767   2.489
 1239TIP3    H1 3681   3.816   5.807   2.449
 1239TIP3    H2 3682   3.713   5.699   2.426
 1240TIP3   OH2 3683   6.185   0.662   0.064
 1240TIP3    H1 3684   6.176   0.731   0.130
 1240TIP3    H2 3685   6.171   0.707  -0.020
 1241TIP3   OH2 3686   1.819   2.354   0.730
 1241TIP3    H1 3687   1.730   2.374   0.703
 1241TIP3    H2 3688   1.868   2.347   0.647
 1242TIP3   OH2 3689   3.671   0.291   1.376
 1242TIP3    H1 3690   3.634   0.204   1.367
 1242TIP3    H2 3691   3.758   0.276   1.413
 1243TIP3   OH2 3692   4.166   3.108   5.641
 1243TIP3    H1 3693   4.196   3.037   5.583
 1243TIP3    H2 3694   4.233   3.175   5.634
 1244TIP3   OH2 3695   0.307   4.552   5.298
 1244TIP3    H1 3696   0.307   4.472   5.351
 1244TIP3    H2 3697   0.251   4.613   5.347
 1245TIP3   OH2 3698   6.885   1.692   5.039
 1245TIP3    H1 3699   6.839   1.775   5.035
 1245TIP3    H2 3700   6.881   1.658   4.949
 1246TIP3   OH2 3701   2.944   3.002   2.070
 1246TIP3    H1 3702   2.994   3.077   2.101
 1246TIP3    H2 3703   2.982   2.982   1.984
 1247TIP3   OH2 3704   1.502   3.039   0.458
 1247TIP3    H1 3705   1.524   3.022   0.366
 1247TIP3    H2 3706   1.475   3.131   0.460
 1248TIP3   OH2 3707   5.330   2.261   0.120
 1248TIP3    H1 3708   5.315   2.337   0.063
 1248TIP3    H2 3709   5.384   2.295   0.191
 1249TIP3   OH2 3710   1.984   0.351   2.697
 1249TIP3    H1 3711   2.046   0.321   2.631
 1249TIP3    H2 3712   2.038   0.399   2.760
 1250TIP3   OH2 3713   6.274   6.626   4.492
 1250TIP3    H1 3714   6.203   6.629   4.556
 1250TIP3    H2 3715   6.263   6.542   4.448
 1251TIP3   OH2 3716   5.943   6.691   3.704
 1251TIP3    H1 3717   5.849   6.707   3.707
 1251TIP3    H2 3718   5.969   6.714   3.615
 1252TIP3   OH2 3719   6.953   3.385   1.437
 1252TIP3    H1 3720   6.952   3.329   1.359
 1252TIP3    H2 3721   6.946   3.474   1.402
 1253TIP3   OH2 3722   0.934   4.143   1.933
 1253TIP3    H1 3723   0.983   4.157   1.852
 1253TIP3    H2 3724   0.850   4.108   1.904
 1254TIP3   OH2 3725   3.952   5.549   1.048
 1254TIP3    H1 3726   3.983   5.459   1.051
 1254TIP3    H2 3727   3.938   5.567   0.955
 1255TIP3   OH2 3728   4.080   1.101   3.494
 1255TIP3    H1 3729   4.038   1.064   3.416
 1255TIP3    H2 3730   4.026   1.071   3.567
 1256TIP3   OH2 3731   0.859   6.270   1.082
 1256TIP3    H1 3732   0.801   6.277   1.159
 1256TIP3    H2 3733   0.811   6.213   1.022
 1257TIP3   OH2 3734   2.281   2.999   0.836
 1257TIP3    H1 3735   2.349   3.065   0.827
 1257TIP3    H2 3736   2.211   3.027   0.777
 1258TIP3   OH2 3737   1.270   0.748   4.397
 1258TIP3    H1 3738   1.245   0.753   4.305
 1258TIP3    H2 3739   1.347   0.805   4.405
 1259TIP3   OH2 3740   2.328   6.554   4.874
 1259TIP3    H1 3741   2.315   6.469   4.916
 1259TIP3    H2 3742   2.336   6.616   4.946
 1260TIP3   OH2 3743   3.026   5.937   3.987
 1260TIP3    H1 3744   3.101   5.917   4.043
 1260TIP3    H2 3745   2.986   5.852   3.969
 1261TIP3   OH2 3746   2.869   2.188   1.981
 1261TIP3    H1 3747   2.888   2.265   1.926
 1261TIP3    H2 3748   2.823   2.128   1.922
 1262TIP3   OH2 3749   6.154   0.479   0.487
 1262TIP3    H1 3750   6.202   0.493   0.569
 1262TIP3    H2 3751   6.118   0.565   0.466
 1263TIP3   OH2 3752   6.835   6.601   3.063
 1263TIP3    H1 3753   6.804   6.625   2.976
 1263TIP3    H2 3754   6.771   6.641   3.123
 1264TIP3   OH2 3755   3.063   2.142   0.668
 1264TIP3    H1 3756   3.021   2.187   0.742
 1264TIP3    H2 3757   3.123   2.207   0.632
 1265TIP3   OH2 3758   7.225   3.208   0.155
 1265TIP3    H1 3759   7.296   3.269   0.172
 1265TIP3    H2 3760   7.241   3.135   0.215
 1266TIP3   OH2 3761   4.351   4.183   2.837
 1266TIP3    H1 3762   4.331   4.260   2.785
 1266TIP3    H2 3763   4.353   4.214   2.928
 1267TIP3   OH2 3764   1.355   6.570   0.296
 1267TIP3    H1 3765   1.406   6.650   0.282
 1267TIP3    H2 3766   1.270   6.587   0.256
 1268TIP3   OH2 3767   4.378   4.329   5.005
 1268TIP3    H1 3768   4.379   4.275   5.084
 1268TIP3    H2 3769   4.470   4.336   4.979
 1269TIP3   OH2 3770   1.004   0.323   5.233
 1269TIP3    H1 3771   0.955   0.400   5.204
 1269TIP3    H2 3772   1.086   0.358   5.266
 1270TIP3   OH2 3773   3.060   0.380   2.704
 1270TIP3    H1 3774   3.056   0.293   2.665
 1270TIP3    H2 3775   3.073   0.439   2.629
 1271TIP3   OH2 3776   1.849   4.342   1.764
 1271TIP3    H1 3777   1.874   4.333   1.672
 1271TIP3    H2 3778   1.770   4.288   1.773
 1272TIP3   OH2 3779   4.558   4.662   5.580
 1272TIP3    H1 3780   4.640   4.667   5.532
 1272TIP3    H2 3781   4.572   4.591   5.644
 1273TIP3   OH2 3782   0.598   0.092   4.640
 1273TIP3    H1 3783   0.565   0.146   4.568
 1273TIP3    H2 3784   0.634   0.015   4.597
 1274TIP3   OH2 3785   5.581   2.585   5.140
 1274TIP3    H1 3786   5.495   2.544   5.149
 1274TIP3    H2 3787   5.598   2.625   5.225
 1275TIP3   OH2 3788   5.965   0.217   3.810
 1275TIP3    H1 3789   6.032   0.271   3.851
 1275TIP3    H2 3790   5.930   0.163   3.882
 1276TIP3   OH2 3791   3.928   2.522   3.141
 1276TIP3    H1 3792   3.924   2.548   3.233
 1276TIP3    H2 3793   3.853   2.567   3.101
 1277TIP3   OH2 3794   5.116   3.563   0.488
 1277TIP3    H1 3795   5.170   3.497   0.445
 1277TIP3    H2 3796   5.177   3.612   0.543
 1278TIP3   OH2 3797   1.948   5.481   4.891
 1278TIP3    H1 3798   1.887   5.552   4.868
 1278TIP3    H2 3799   1.930   5.413   4.827
 1279TIP3   OH2 3800   5.767   3.222   4.133
 1279TIP3    H1 3801   5.717   3.142   4.148
 1279TIP3    H2 3802   5.856   3.192   4.115
 1280TIP3   OH2 3803   2.023   1.287   0.919
 1280TIP3    H1 3804   2.074   1.354   0.964
 1280TIP3    H2 3805   2.088   1.228   0.882
 1281TIP3   OH2 3806   5.253   1.985   5.375
 1281TIP3    H1 3807   5.260   2.067   5.425
 1281TIP3    H2 3808   5.342   1.969   5.344
 1282TIP3   OH2 3809   3.709   2.978   3.830
 1282TIP3    H1 3810   3.755   3.006   3.909
 1282TIP3    H2 3811   3.779   2.954   3.769
 1283TIP3   OH2 3812   0.832   2.761   0.220
 1283TIP3    H1 3813   0.922   2.752   0.250
 1283TIP3    H2 3814   0.826   2.703   0.144
 1284TIP3   OH2 3815   1.030   3.572   3.509
 1284TIP3    H1 3816   1.065   3.614   3.587
 1284TIP3    H2 3817   1.029   3.641   3.443
 1285TIP3   OH2 3818   4.676   2.123   2.870
 1285TIP3    H1 3819   4.737   2.175   2.817
 1285TIP3    H2 3820   4.724   2.106   2.951
 1286TIP3   OH2 3821   0.835   3.950   0.719
 1286TIP3    H1 3822   0.888   3.991   0.788
 1286TIP3    H2 3823   0.780   4.021   0.687
 1287TIP3   OH2 3824   3.994   5.855   4.295
 1287TIP3    H1 3825   4.056   5.895   4.356
 1287TIP3    H2 3826   3.980   5.767   4.330
 1288TIP3   OH2 3827   4.081   1.054   5.248
 1288TIP3    H1 3828   4.046   1.128   5.298
 1288TIP3    H2 3829   4.042   0.977   5.289
 1289TIP3   OH2 3830   0.874   4.983   5.812
 1289TIP3    H1 3831   0.944   5.048   5.811
 1289TIP3    H2 3832   0.808   5.018   5.752
 1290TIP3   OH2 3833   6.864   1.985   1.803
 1290TIP3    H1 3834   6.889   1.967   1.712
 1290TIP3    H2 3835   6.769   1.993   1.800
 1291TIP3   OH2 3836   4.179   5.926   1.195
 1291TIP3    H1 3837   4.226   5.848   1.164
 1291TIP3    H2 3838   4.088   5.899   1.200
 1292TIP3   OH2 3839   2.352   5.884   0.231
 1292TIP3    H1 3840   2.339   5.794   0.202
 1292TIP3    H2 3841   2.438   5.883   0.273
 1293TIP3   OH2 3842   2.965   2.077   5.110
 1293TIP3    H1 3843   2.976   2.169   5.136
 1293TIP3    H2 3844   3.048   2.036   5.136
 1294TIP3   OH2 3845   2.022   2.245   0.886
 1294TIP3    H1 3846   2.086   2.241   0.816
 1294TIP3    H2 3847   1.942   2.276   0.843
 1295TIP3   OH2 3848   4.303   0.698   1.526
 1295TIP3    H1 3849   4.224   0.738   1.562
 1295TIP3    H2 3850   4.271   0.637   1.459
 1296TIP3   OH2 3851   7.016   3.962   0.062
 1296TIP3    H1 3852   6.971   3.983  -0.020
 1296TIP3    H2 3853   7.087   3.903   0.036
 1297TIP3   OH2 3854   4.386   4.402   4.713
 1297TIP3    H1 3855   4.344   4.338   4.770
 1297TIP3    H2 3856   4.448   4.447   4.770
 1298TIP3   OH2 3857   4.859   1.488   4.681
 1298TIP3    H1 3858   4.822   1.491   4.592
 1298TIP3    H2 3859   4.908   1.570   4.689
 1299TIP3   OH2 3860   5.572   6.622   2.701
 1299TIP3    H1 3861   5.530   6.667   2.775
 1299TIP3    H2 3862   5.628   6.688   2.661
 1300TIP3   OH2 3863   3.061   0.997   0.402
 1300TIP3    H1 3864   3.108   1.052   0.466
 1300TIP3    H2 3865   3.072   1.043   0.319
 1301TIP3   OH2 3866   1.870   6.824   3.397
 1301TIP3    H1 3867   1.884   6.858   3.485
 1301TIP3    H2 3868   1.774   6.825   3.386
 1302TIP3   OH2 3869   5.214   4.172   4.517
 1302TIP3    H1 3870   5.142   4.110   4.507
 1302TIP3    H2 3871   5.293   4.121   4.498
 1303TIP3   OH2 3872   3.694   2.977   5.784
 1303TIP3    H1 3873   3.773   2.984   5.730
 1303TIP3    H2 3874   3.624   2.959   5.721
 1304TIP3   OH2 3875   2.775   6.155   0.879
 1304TIP3    H1 3876   2.829   6.195   0.810
 1304TIP3    H2 3877   2.759   6.066   0.848
 1305TIP3   OH2 3878   0.456   0.349   2.215
 1305TIP3    H1 3879   0.526   0.368   2.278
 1305TIP3    H2 3880   0.381   0.401   2.246
 1306TIP3   OH2 3881   2.940   4.251   1.121
 1306TIP3    H1 3882   2.994   4.175   1.143
 1306TIP3    H2 3883   3.000   4.313   1.081
 1307TIP3   OH2 3884   1.179   6.039   5.480
 1307TIP3    H1 3885   1.166   5.999   5.566
 1307TIP3    H2 3886   1.273   6.031   5.464
 1308TIP3   OH2 3887   3.654   1.960   1.362
 1308TIP3    H1 3888   3.566   1.934   1.333
 1308TIP3    H2 3889   3.705   1.967   1.281
 1309TIP3   OH2 3890   6.003   4.901   2.889
 1309TIP3    H1 3891   6.092   4.883   2.919
 1309TIP3    H2 3892   5.993   4.996   2.899
 1310TIP3   OH2 3893   6.894   2.455   1.969
 1310TIP3    H1 3894   6.956   2.452   2.042
 1310TIP3    H2 3895   6.855   2.367   1.968
 1311TIP3   OH2 3896   5.097   4.646   2.619
 1311TIP3    H1 3897   5.002   4.647   2.630
 1311TIP3    H2 3898   5.126   4.729   2.656
 1312TIP3   OH2 3899   6.357   0.793   5.498
 1312TIP3    H1 3900   6.423   0.844   5.452
 1312TIP3    H2 3901   6.400   0.764   5.578
 1313TIP3   OH2 3902   0.361   5.410   3.064
 1313TIP3    H1 3903   0.368   5.329   3.114
 1313TIP3    H2 3904   0.331   5.383   2.977
 1314TIP3   OH2 3905   5.639   0.650   1.449
 1314TIP3    H1 3906   5.712   0.599   1.484
 1314TIP3    H2 3907   5.681   0.718   1.397
 1315TIP3   OH2 3908   1.028   6.056   4.273
 1315TIP3    H1 3909   1.103   6.036   4.329
 1315TIP3    H2 3910   1.006   5.972   4.233
 1316TIP3   OH2 3911   1.496   3.985   0.799
 1316TIP3    H1 3912   1.555   4.035   0.856
 1316TIP3    H2 3913   1.439   3.937   0.859
 1317TIP3   OH2 3914   0.209   5.445   1.655
 1317TIP3    H1 3915   0.168   5.529   1.633
 1317TIP3    H2 3916   0.138   5.382   1.648
 1318TIP3   OH2 3917   1.513   3.116   1.319
 1318TIP3    H1 3918   1.600   3.082   1.300
 1318TIP3    H2 3919   1.501   3.189   1.258
 1319TIP3   OH2 3920   0.643   4.170   3.139
 1319TIP3    H1 3921   0.697   4.186   3.062
 1319TIP3    H2 3922   0.705   4.149   3.209
 1320TIP3   OH2 3923   6.745   6.453   1.143
 1320TIP3    H1 3924   6.790   6.516   1.086
 1320TIP3    H2 3925   6.811   6.386   1.161
 1321TIP3   OH2 3926   3.537   1.192   2.533
 1321TIP3    H1 3927   3.560   1.101   2.515
 1321TIP3    H2 3928   3.613   1.242   2.504
 1322TIP3   OH2 3929   3.568   2.365   0.698
 1322TIP3    H1 3930   3.584   2.450   0.658
 1322TIP3    H2 3931   3.524   2.385   0.781
 1323TIP3   OH2 3932   5.972   4.457   2.622
 1323TIP3    H1 3933   6.004   4.446   2.533
 1323TIP3    H2 3934   6.016   4.536   2.654
 1324TIP3   OH2 3935   3.263   3.402   0.700
 1324TIP3    H1 3936   3.193   3.454   0.738
 1324TIP3    H2 3937   3.220   3.347   0.635
 1325TIP3   OH2 3938   0.716   2.357   0.326
 1325TIP3    H1 3939   0.740   2.397   0.409
 1325TIP3    H2 3940   0.667   2.425   0.279
 1326TIP3   OH2 3941   6.593   4.492   2.533
 1326TIP3    H1 3942   6.507   4.484   2.573
 1326TIP3    H2 3943   6.584   4.447   2.449
 1327TIP3   OH2 3944   1.757   2.369   4.949
 1327TIP3    H1 3945   1.682   2.329   4.905
 1327TIP3    H2 3946   1.829   2.308   4.934
 1328TIP3   OH2 3947   6.436   4.727   3.248
 1328TIP3    H1 3948   6.490   4.796   3.285
 1328TIP3    H2 3949   6.346   4.754   3.267
 1329TIP3   OH2 3950   4.624   0.131   3.551
 1329TIP3    H1 3951   4.610   0.043   3.584
 1329TIP3    H2 3952   4.537   0.160   3.523
 1330TIP3   OH2 3953   2.397   0.155   4.408
 1330TIP3    H1 3954   2.491   0.162   4.425
 1330TIP3    H2 3955   2.366   0.092   4.474
 1331TIP3   OH2 3956   1.623   4.014   2.666
 1331TIP3    H1 3957   1.670   3.931   2.659
 1331TIP3    H2 3958   1.615   4.045   2.576
 1332TIP3   OH2 3959   6.125   6.171   3.645
 1332TIP3    H1 3960   6.098   6.136   3.729
 1332TIP3    H2 3961   6.098   6.263   3.647
 1333TIP3   OH2 3962   0.607   2.595   4.366
 1333TIP3    H1 3963   0.661   2.539   4.422
 1333TIP3    H2 3964   0.521   2.552   4.365
 1334TIP3   OH2 3965   2.731   0.017   5.269
 1334TIP3    H1 3966   2.655   0.057   5.312
 1334TIP3    H2 3967   2.806   0.046   5.321
 1335TIP3   OH2 3968   3.487   2.097   3.995
 1335TIP3    H1 3969   3.542   2.068   3.922
 1335TIP3    H2 3970   3.398   2.080   3.967
 1336TIP3   OH2 3971   4.708   2.059   4.669
 1336TIP3    H1 3972   4.714   1.976   4.716
 1336TIP3    H2 3973   4.799   2.079   4.644
 1337TIP3   OH2 3974   3.702   3.777   1.433
 1337TIP3    H1 3975   3.649   3.736   1.365
 1337TIP3    H2 3976   3.749   3.847   1.389
 1338TIP3   OH2 3977   2.111   3.210   4.359
 1338TIP3    H1 3978   2.035   3.267   4.347
 1338TIP3    H2 3979   2.084   3.149   4.428
 1339TIP3   OH2 3980   2.266   6.145   4.715
 1339TIP3    H1 3981   2.219   6.228   4.707
 1339TIP3    H2 3982   2.269   6.111   4.625
 1340TIP3   OH2 3983   0.306   6.440   1.128
 1340TIP3    H1 3984   0.321   6.355   1.169
 1340TIP3    H2 3985   0.349   6.433   1.043
 1341TIP3   OH2 3986   2.893   1.321   0.679
 1341TIP3    H1 3987   2.823   1.334   0.743
 1341TIP3    H2 3988   2.891   1.399   0.625
 1342TIP3   OH2 3989   5.611   4.115   0.096
 1342TIP3    H1 3990   5.684   4.170   0.068
 1342TIP3    H2 3991   5.534   4.172   0.091
 1343TIP3   OH2 3992   4.548   0.186   1.985
 1343TIP3    H1 3993   4.544   0.110   2.043
 1343TIP3    H2 3994   4.484   0.248   2.021
 1344TIP3   OH2 3995   6.087   2.588   0.848
 1344TIP3    H1 3996   6.051   2.502   0.827
 1344TIP3    H2 3997   6.165   2.596   0.793
 1345TIP3   OH2 3998   4.931   2.288   0.874
 1345TIP3    H1 3999   4.945   2.300   0.780
 1345TIP3    H2 4000   4.871   2.214   0.880
 1346TIP3   OH2 4001   0.613   1.107   4.107
 1346TIP3    H1 4002   0.705   1.124   4.129
 1346TIP3    H2 4003   0.580   1.057   4.181
 1347TIP3   OH2 4004  -0.013   3.409   1.336
 1347TIP3    H1 4005   0.065   3.434   1.287
 1347TIP3    H2 4006  -0.085   3.414   1.273
 1348TIP3   OH2 4007   1.395   4.193   4.093
 1348TIP3    H1 4008   1.432   4.278   4.070
 1348TIP3    H2 4009   1.338   4.211   4.168
 1349TIP3   OH2 4010   2.535   2.526   3.495
 1349TIP3    H1 4011   2.585   2.591   3.445
 1349TIP3    H2 4012   2.561   2.541   3.586
 1350TIP3   OH2 4013   3.041   4.562   2.037
 1350TIP3    H1 4014   3.104   4.538   2.105
 1350TIP3    H2 4015   3.095   4.587   1.962
 1351TIP3   OH2 4016   2.681   1.184   4.744
 1351TIP3    H1 4017   2.706   1.098   4.779
 1351TIP3    H2 4018   2.749   1.243   4.773
 1352TIP3   OH2 4019   4.234   0.819   0.853
 1352TIP3    H1 4020   4.266   0.800   0.764
 1352TIP3    H2 4021   4.139   0.819   0.844
 1353TIP3   OH2 4022   4.335   2.766   4.194
 1353TIP3    H1 4023   4.419   2.751   4.151
 1353TIP3    H2 4024   4.348   2.737   4.284
 1354TIP3   OH2 4025   5.189   3.997   5.020
 1354TIP3    H1 4026   5.156   3.999   5.109
 1354TIP3    H2 4027   5.116   4.029   4.966
 1355TIP3   OH2 4028   4.210   4.820   3.327
 1355TIP3    H1 4029   4.249   4.749   3.274
 1355TIP3    H2 4030   4.175   4.775   3.404
 1356TIP3   OH2 4031   6.558   5.655   2.950
 1356TIP3    H1 4032   6.632   5.692   2.997
 1356TIP3    H2 4033   6.481   5.691   2.994
 1357TIP3   OH2 4034   0.288   4.694   0.277
 1357TIP3    H1 4035   0.300   4.780   0.235
 1357TIP3    H2 4036   0.195   4.676   0.268
 1358TIP3   OH2 4037   3.604   5.679   3.204
 1358TIP3    H1 4038   3.625   5.772   3.195
 1358TIP3    H2 4039   3.623   5.642   3.118
 1359TIP3   OH2 4040   5.854   3.943   4.992
 1359TIP3    H1 4041   5.914   3.918   4.922
 1359TIP3    H2 4042   5.881   3.889   5.067
 1360TIP3   OH2 4043   5.639   0.882   0.824
 1360TIP3    H1 4044   5.548   0.875   0.795
 1360TIP3    H2 4045   5.646   0.821   0.898
 1361TIP3   OH2 4046   5.734   1.968   1.456
 1361TIP3    H1 4047   5.686   1.940   1.534
 1361TIP3    H2 4048   5.818   1.923   1.461
 1362TIP3   OH2 4049   6.001   2.788   1.382
 1362TIP3    H1 4050   5.964   2.875   1.365
 1362TIP3    H2 4051   5.959   2.731   1.318
 1363TIP3   OH2 4052   1.110   3.554   4.089
 1363TIP3    H1 4053   1.098   3.500   4.010
 1363TIP3    H2 4054   1.202   3.541   4.113
 1364TIP3   OH2 4055   1.996   6.012   1.299
 1364TIP3    H1 4056   1.992   5.982   1.390
 1364TIP3    H2 4057   1.909   5.992   1.264
 1365TIP3   OH2 4058   1.348   1.709   1.910
 1365TIP3    H1 4059   1.394   1.625   1.917
 1365TIP3    H2 4060   1.256   1.684   1.903
 1366TIP3   OH2 4061   1.346   0.662   1.544
 1366TIP3    H1 4062   1.388   0.652   1.458
 1366TIP3    H2 4063   1.413   0.704   1.598
 1367TIP3   OH2 4064   4.588   1.091   4.243
 1367TIP3    H1 4065   4.644   1.155   4.199
 1367TIP3    H2 4066   4.606   1.104   4.336
 1368TIP3   OH2 4067   7.216   5.430   0.782
 1368TIP3    H1 4068   7.120   5.432   0.784
 1368TIP3    H2 4069   7.243   5.511   0.826
 1369TIP3   OH2 4070   3.461   6.000   4.074
 1369TIP3    H1 4071   3.397   5.989   4.144
 1369TIP3    H2 4072   3.417   5.967   3.995
 1370TIP3   OH2 4073   0.690   0.969   4.632
 1370TIP3    H1 4074   0.680   1.062   4.655
 1370TIP3    H2 4075   0.706   0.926   4.716
 1371TIP3   OH2 4076   4.177   5.030   4.961
 1371TIP3    H1 4077   4.261   5.036   5.006
 1371TIP3    H2 4078   4.143   4.944   4.986
 1372TIP3   OH2 4079   2.845   1.666   0.819
 1372TIP3    H1 4080   2.872   1.648   0.729
 1372TIP3    H2 4081   2.889   1.749   0.841
 1373TIP3   OH2 4082   6.483   1.118   0.569
 1373TIP3    H1 4083   6.416   1.177   0.536
 1373TIP3    H2 4084   6.558   1.175   0.587
 1374TIP3   OH2 4085   5.608   5.574   4.986
 1374TIP3    H1 4086   5.518   5.598   4.964
 1374TIP3    H2 4087   5.629   5.503   4.926
 1375TIP3   OH2 4088   6.846   2.853   0.360
 1375TIP3    H1 4089   6.821   2.797   0.433
 1375TIP3    H2 4090   6.800   2.936   0.377
 1376TIP3   OH2 4091   3.299   6.248   3.940
 1376TIP3    H1 4092   3.334   6.169   3.980
 1376TIP3    H2 4093   3.376   6.297   3.911
 1377TIP3   OH2 4094   6.975   5.478   2.530
 1377TIP3    H1 4095   7.054   5.499   2.481
 1377TIP3    H2 4096   7.005   5.424   2.603
 1378TIP3   OH2 4097   1.732   0.808   2.009
 1378TIP3    H1 4098   1.687   0.727   1.988
 1378TIP3    H2 4099   1.825   0.785   2.010
 1379TIP3   OH2 4100   3.197   5.013   4.014
 1379TIP3    H1 4101   3.259   5.078   3.981
 1379TIP3    H2 4102   3.212   4.936   3.960
 1380TIP3   OH2 4103   2.303   0.515   1.940
 1380TIP3    H1 4104   2.358   0.520   1.862
 1380TIP3    H2 4105   2.295   0.605   1.970
 1381TIP3   OH2 4106   3.888   5.322   4.300
 1381TIP3    H1 4107   3.807   5.271   4.294
 1381TIP3    H2 4108   3.871   5.399   4.245
 1382TIP3   OH2 4109   1.564   5.870   0.183
 1382TIP3    H1 4110   1.641   5.923   0.204
 1382TIP3    H2 4111   1.595   5.805   0.120
 1383TIP3   OH2 4112   2.987   0.172   4.040
 1383TIP3    H1 4113   2.895   0.150   4.031
 1383TIP3    H2 4114   3.001   0.184   4.134
 1384TIP3   OH2 4115   2.715   2.202   1.182
 1384TIP3    H1 4116   2.762   2.258   1.245
 1384TIP3    H2 4117   2.700   2.259   1.107
 1385TIP3   OH2 4118   6.503   6.672   0.464
 1385TIP3    H1 4119   6.416   6.710   0.470
 1385TIP3    H2 4120   6.554   6.736   0.414
 1386TIP3   OH2 4121   3.888   1.748   0.026
 1386TIP3    H1 4122   3.953   1.758   0.095
 1386TIP3    H2 4123   3.866   1.654   0.028
 1387TIP3   OH2 4124   0.237   0.606   2.892
 1387TIP3    H1 4125   0.263   0.653   2.971
 1387TIP3    H2 4126   0.227   0.515   2.920
 1388TIP3   OH2 4127   1.966   4.375   5.043
 1388TIP3    H1 4128   1.905   4.343   5.109
 1388TIP3    H2 4129   2.044   4.322   5.054
 1389TIP3   OH2 4130   0.921   2.034   1.326
 1389TIP3    H1 4131   0.939   1.985   1.407
 1389TIP3    H2 4132   0.841   1.994   1.292
 1390TIP3   OH2 4133   0.378   1.132   0.934
 1390TIP3    H1 4134   0.306   1.069   0.933
 1390TIP3    H2 4135   0.390   1.155   0.841
 1391TIP3   OH2 4136   4.179   1.927   0.649
 1391TIP3    H1 4137   4.261   1.952   0.607
 1391TIP3    H2 4138   4.205   1.893   0.735
 1392TIP3   OH2 4139   6.080   1.959   2.273
 1392TIP3    H1 4140   6.058   1.885   2.218
 1392TIP3    H2 4141   6.053   2.036   2.222
 1393TIP3   OH2 4142   0.453   6.101   0.466
 1393TIP3    H1 4143   0.389   6.115   0.535
 1393TIP3    H2 4144   0.473   6.008   0.470
 1394TIP3   OH2 4145   7.064   4.976   1.023
 1394TIP3    H1 4146   7.117   4.900   1.050
 1394TIP3    H2 4147   7.087   4.989   0.931
 1395TIP3   OH2 4148   5.650   5.714   1.489
 1395TIP3    H1 4149   5.668   5.744   1.400
 1395TIP3    H2 4150   5.558   5.690   1.488
 1396TIP3   OH2 4151   2.666   0.201   3.628
 1396TIP3    H1 4152   2.729   0.269   3.654
 1396TIP3    H2 4153   2.714   0.119   3.637
 1397TIP3   OH2 4154   1.329   5.982   0.347
 1397TIP3    H1 4155   1.266   6.013   0.282
 1397TIP3    H2 4156   1.414   5.988   0.305
 1398TIP3   OH2 4157   0.860   0.656   1.393
 1398TIP3    H1 4158   0.951   0.628   1.385
 1398TIP3    H2 4159   0.816   0.582   1.435
 1399TIP3   OH2 4160   4.888   6.753   0.060
 1399TIP3    H1 4161   4.882   6.814   0.134
 1399TIP3    H2 4162   4.981   6.750   0.039
 1400TIP3   OH2 4163   3.165   4.122   2.955
 1400TIP3    H1 4164   3.259   4.121   2.968
 1400TIP3    H2 4165   3.130   4.169   3.031
 1401TIP3   OH2 4166   0.123   5.612   3.256
 1401TIP3    H1 4167   0.197   5.592   3.314
 1401TIP3    H2 4168   0.048   5.619   3.315
 1402TIP3   OH2 4169   2.474   5.808   4.560
 1402TIP3    H1 4170   2.503   5.875   4.622
 1402TIP3    H2 4171   2.430   5.743   4.615
 1403TIP3   OH2 4172   6.929   5.487   0.721
 1403TIP3    H1 4173   6.839   5.518   0.726
 1403TIP3    H2 4174   6.948   5.484   0.627
 1404TIP3   OH2 4175   4.414   4.996   5.068
 1404TIP3    H1 4176   4.443   4.919   5.019
 1404TIP3    H2 4177   4.450   4.984   5.156
 1405TIP3   OH2 4178   0.135   1.841   4.324
 1405TIP3    H1 4179   0.158   1.890   4.403
 1405TIP3    H2 4180   0.207   1.859   4.264
 1406TIP3   OH2 4181   5.230   1.160   0.876
 1406TIP3    H1 4182   5.266   1.244   0.905
 1406TIP3    H2 4183   5.280   1.139   0.797
 1407TIP3   OH2 4184   0.917   5.483   2.244
 1407TIP3    H1 4185   0.967   5.537   2.184
 1407TIP3    H2 4186   0.868   5.423   2.188
 1408TIP3   OH2 4187   3.468   6.539   0.234
 1408TIP3    H1 4188   3.376   6.563   0.219
 1408TIP3    H2 4189   3.493   6.488   0.157
 1409TIP3   OH2 4190   4.033   5.161   3.504
 1409TIP3    H1 4191   4.043   5.232   3.568
 1409TIP3    H2 4192   4.088   5.187   3.431
 1410TIP3   OH2 4193   3.799   2.923   4.747
 1410TIP3    H1 4194   3.843   2.892   4.668
 1410TIP3    H2 4195   3.714   2.878   4.746
 1411TIP3   OH2 4196   6.343   3.399   4.552
 1411TIP3    H1 4197   6.269   3.347   4.520
 1411TIP3    H2 4198   6.314   3.490   4.541
 1412TIP3   OH2 4199   5.547   0.173   4.885
 1412TIP3    H1 4200   5.591   0.103   4.837
 1412TIP3    H2 4201   5.535   0.140   4.973
 1413TIP3   OH2 4202   2.775   0.470   3.877
 1413TIP3    H1 4203   2.825   0.438   3.802
 1413TIP3    H2 4204   2.808   0.559   3.891
 1414TIP3   OH2 4205   4.310   5.888   0.470
 1414TIP3    H1 4206   4.335   5.980   0.475
 1414TIP3    H2 4207   4.278   5.876   0.380
 1415TIP3   OH2 4208   7.208   0.166   0.329
 1415TIP3    H1 4209   7.142   0.106   0.363
 1415TIP3    H2 4210   7.286   0.149   0.382
 1416TIP3   OH2 4211   0.143   3.092   3.648
 1416TIP3    H1 4212   0.060   3.139   3.649
 1416TIP3    H2 4213   0.156   3.068   3.556
 1417TIP3   OH2 4214   4.534   2.907   0.690
 1417TIP3    H1 4215   4.625   2.881   0.708
 1417TIP3    H2 4216   4.533   3.002   0.704
 1418TIP3   OH2 4217   3.281   6.221   5.586
 1418TIP3    H1 4218   3.351   6.201   5.649
 1418TIP3    H2 4219   3.302   6.309   5.555
 1419TIP3   OH2 4220   0.218   1.943   4.831
 1419TIP3    H1 4221   0.144   1.951   4.891
 1419TIP3    H2 4222   0.292   1.920   4.886
 1420TIP3   OH2 4223   6.493   0.355   5.151
 1420TIP3    H1 4224   6.402   0.341   5.125
 1420TIP3    H2 4225   6.522   0.271   5.186
 1421TIP3   OH2 4226   5.856   6.759   1.578
 1421TIP3    H1 4227   5.777   6.724   1.619
 1421TIP3    H2 4228   5.859   6.851   1.605
 1422TIP3   OH2 4229   2.464   5.643   3.066
 1422TIP3    H1 4230   2.531   5.635   2.998
 1422TIP3    H2 4231   2.428   5.555   3.075
 1423TIP3   OH2 4232   1.540   5.715   4.419
 1423TIP3    H1 4233   1.622   5.673   4.393
 1423TIP3    H2 4234   1.522   5.777   4.349
 1424TIP3   OH2 4235   5.974   2.520   0.502
 1424TIP3    H1 4236   6.023   2.529   0.584
 1424TIP3    H2 4237   5.950   2.610   0.479
 1425TIP3   OH2 4238   1.058   3.912   5.454
 1425TIP3    H1 4239   1.096   3.924   5.541
 1425TIP3    H2 4240   1.133   3.908   5.395
 1426TIP3   OH2 4241   6.040   5.763   2.425
 1426TIP3    H1 4242   5.979   5.740   2.495
 1426TIP3    H2 4243   6.009   5.847   2.392
 1427TIP3   OH2 4244   5.352   1.602   4.503
 1427TIP3    H1 4245   5.424   1.647   4.459
 1427TIP3    H2 4246   5.370   1.509   4.489
 1428TIP3   OH2 4247   7.195   0.534   4.151
 1428TIP3    H1 4248   7.148   0.464   4.106
 1428TIP3    H2 4249   7.285   0.525   4.121
 1429TIP3   OH2 4250   5.628   3.575   0.340
 1429TIP3    H1 4251   5.656   3.521   0.266
 1429TIP3    H2 4252   5.630   3.515   0.415
 1430TIP3   OH2 4253   2.755   2.885   0.550
 1430TIP3    H1 4254   2.743   2.828   0.474
 1430TIP3    H2 4255   2.839   2.928   0.535
 1431TIP3   OH2 4256   6.431   5.303   5.364
 1431TIP3    H1 4257   6.372   5.342   5.300
 1431TIP3    H2 4258   6.442   5.370   5.431
 1432TIP3   OH2 4259   2.491   6.082   1.171
 1432TIP3    H1 4260   2.438   6.015   1.214
 1432TIP3    H2 4261   2.445   6.099   1.089
 1433TIP3   OH2 4262   7.001   5.553   1.670
 1433TIP3    H1 4263   6.938   5.555   1.598
 1433TIP3    H2 4264   6.947   5.559   1.749
 1434TIP3   OH2 4265   1.341   3.169   4.265
 1434TIP3    H1 4266   1.256   3.192   4.227
 1434TIP3    H2 4267   1.344   3.216   4.348
 1435TIP3   OH2 4268   5.538   4.247   0.390
 1435TIP3    H1 4269   5.585   4.308   0.334
 1435TIP3    H2 4270   5.472   4.207   0.333
 1436TIP3   OH2 4271   0.681   4.613   1.372
 1436TIP3    H1 4272   0.616   4.564   1.322
 1436TIP3    H2 4273   0.754   4.625   1.312
 1437TIP3   OH2 4274   2.319   4.600   0.875
 1437TIP3    H1 4275   2.305   4.542   0.801
 1437TIP3    H2 4276   2.409   4.632   0.865
 1438TIP3   OH2 4277   1.483   5.273   3.984
 1438TIP3    H1 4278   1.553   5.327   4.022
 1438TIP3    H2 4279   1.529   5.214   3.924
 1439TIP3   OH2 4280   2.291   2.512   1.617
 1439TIP3    H1 4281   2.323   2.570   1.548
 1439TIP3    H2 4282   2.334   2.544   1.697
 1440TIP3   OH2 4283   1.050   4.607   5.394
 1440TIP3    H1 4284   0.988   4.537   5.416
 1440TIP3    H2 4285   0.999   4.670   5.343
 1441TIP3   OH2 4286   0.976   5.413   2.714
 1441TIP3    H1 4287   1.009   5.443   2.798
 1441TIP3    H2 4288   1.014   5.472   2.650
 1442TIP3   OH2 4289   3.614   2.353   3.926
 1442TIP3    H1 4290   3.562   2.273   3.935
 1442TIP3    H2 4291   3.663   2.341   3.844
 1443TIP3   OH2 4292   2.151   0.722   0.704
 1443TIP3    H1 4293   2.218   0.772   0.751
 1443TIP3    H2 4294   2.187   0.633   0.702
 1444TIP3   OH2 4295   0.305   4.744   2.239
 1444TIP3    H1 4296   0.298   4.665   2.292
 1444TIP3    H2 4297   0.399   4.762   2.235
 1445TIP3   OH2 4298   0.284   6.165   4.489
 1445TIP3    H1 4299   0.262   6.072   4.477
 1445TIP3    H2 4300   0.323   6.169   4.576
 1446TIP3   OH2 4301   5.708   4.843   2.927
 1446TIP3    H1 4302   5.802   4.854   2.937
 1446TIP3    H2 4303   5.698   4.793   2.846
 1447TIP3   OH2 4304   4.564   6.013   4.002
 1447TIP3    H1 4305   4.596   5.939   4.054
 1447TIP3    H2 4306   4.590   5.991   3.912
 1448TIP3   OH2 4307   0.621   5.869   5.024
 1448TIP3    H1 4308   0.548   5.921   5.056
 1448TIP3    H2 4309   0.667   5.841   5.103
 1449TIP3   OH2 4310   4.420   4.043   5.475
 1449TIP3    H1 4311   4.503   4.091   5.475
 1449TIP3    H2 4312   4.353   4.110   5.488
 1450TIP3   OH2 4313   3.446   6.151   1.692
 1450TIP3    H1 4314   3.511   6.087   1.722
 1450TIP3    H2 4315   3.403   6.109   1.618
 1451TIP3   OH2 4316   2.672   4.808   4.421
 1451TIP3    H1 4317   2.617   4.859   4.481
 1451TIP3    H2 4318   2.631   4.820   4.335
 1452TIP3   OH2 4319   6.024   5.490   4.695
 1452TIP3    H1 4320   5.980   5.570   4.666
 1452TIP3    H2 4321   6.117   5.507   4.681
 1453TIP3   OH2 4322   5.117   0.869   1.105
 1453TIP3    H1 4323   5.114   0.856   1.011
 1453TIP3    H2 4324   5.034   0.911   1.126
 1454TIP3   OH2 4325   3.487   0.386   0.085
 1454TIP3    H1 4326   3.394   0.362   0.081
 1454TIP3    H2 4327   3.506   0.394   0.179
 1455TIP3   OH2 4328   0.394   3.871   0.323
 1455TIP3    H1 4329   0.318   3.927   0.337
 1455TIP3    H2 4330   0.464   3.911   0.375
 1456TIP3   OH2 4331   1.951   5.226   4.721
 1456TIP3    H1 4332   1.999   5.213   4.802
 1456TIP3    H2 4333   1.958   5.143   4.675
 1457TIP3   OH2 4334   3.514   6.318   4.801
 1457TIP3    H1 4335   3.568   6.274   4.866
 1457TIP3    H2 4336   3.527   6.268   4.720
 1458TIP3   OH2 4337   7.070   6.734   3.107
 1458TIP3    H1 4338   7.069   6.797   3.034
 1458TIP3    H2 4339   6.992   6.681   3.092
 1459TIP3   OH2 4340   3.696   6.211   2.185
 1459TIP3    H1 4341   3.607   6.243   2.202
 1459TIP3    H2 4342   3.745   6.288   2.157
 1460TIP3   OH2 4343   0.289   3.673   3.322
 1460TIP3    H1 4344   0.266   3.592   3.367
 1460TIP3    H2 4345   0.220   3.686   3.258
 1461TIP3   OH2 4346   0.590   1.559   5.436
 1461TIP3    H1 4347   0.551   1.540   5.521
 1461TIP3    H2 4348   0.563   1.648   5.416
 1462TIP3   OH2 4349   5.963   4.175   5.181
 1462TIP3    H1 4350   5.890   4.121   5.151
 1462TIP3    H2 4351   5.930   4.219   5.260
 1463TIP3   OH2 4352   0.368   2.323   4.859
 1463TIP3    H1 4353   0.295   2.298   4.801
 1463TIP3    H2 4354   0.442   2.271   4.827
 1464TIP3   OH2 4355   0.745   4.224   0.736
 1464TIP3    H1 4356   0.698   4.304   0.712
 1464TIP3    H2 4357   0.772   4.238   0.826
 1465TIP3   OH2 4358   3.258   2.962   3.505
 1465TIP3    H1 4359   3.241   2.972   3.599
 1465TIP3    H2 4360   3.178   2.991   3.462
 1466TIP3   OH2 4361   2.605   1.584   1.544
 1466TIP3    H1 4362   2.606   1.497   1.583
 1466TIP3    H2 4363   2.696   1.600   1.519
 1467TIP3   OH2 4364   2.584   0.588   2.804
 1467TIP3    H1 4365   2.569   0.503   2.843
 1467TIP3    H2 4366   2.675   0.586   2.774
 1468TIP3   OH2 4367   5.369   6.305   0.484
 1468TIP3    H1 4368   5.353   6.393   0.519
 1468TIP3    H2 4369   5.460   6.286   0.506
 1469TIP3   OH2 4370   0.042   1.149   2.508
 1469TIP3    H1 4371   0.079   1.072   2.552
 1469TIP3    H2 4372  -0.017   1.113   2.442
 1470TIP3   OH2 4373   0.689   0.147   0.296
 1470TIP3    H1 4374   0.709   0.066   0.342
 1470TIP3    H2 4375   0.707   0.217   0.360
 1471TIP3   OH2 4376   6.034   4.078   1.113
 1471TIP3    H1 4377   5.976   4.091   1.038
 1471TIP3    H2 4378   5.977   4.046   1.182
 1472TIP3   OH2 4379   6.847   6.190   2.914
 1472TIP3    H1 4380   6.918   6.245   2.881
 1472TIP3    H2 4381   6.885   6.143   2.988
 1473TIP3   OH2 4382   3.523   5.316   3.457
 1473TIP3    H1 4383   3.570   5.245   3.502
 1473TIP3    H2 4384   3.566   5.396   3.486
 1474TIP3   OH2 4385   0.895   3.395   1.646
 1474TIP3    H1 4386   0.917   3.488   1.648
 1474TIP3    H2 4387   0.972   3.350   1.682
 1475TIP3   OH2 4388   1.503   3.424   4.407
 1475TIP3    H1 4389   1.418   3.405   4.447
 1475TIP3    H2 4390   1.565   3.367   4.452
 1476TIP3   OH2 4391   2.916   4.329   4.375
 1476TIP3    H1 4392   2.849   4.314   4.441
 1476TIP3    H2 4393   2.923   4.424   4.368
 1477TIP3   OH2 4394   1.417   5.699   3.046
 1477TIP3    H1 4395   1.433   5.649   2.966
 1477TIP3    H2 4396   1.421   5.791   3.018
 1478TIP3   OH2 4397   5.840   6.274   3.353
 1478TIP3    H1 4398   5.816   6.258   3.261
 1478TIP3    H2 4399   5.777   6.339   3.383
 1479TIP3   OH2 4400   5.387   4.559   3.807
 1479TIP3    H1 4401   5.386   4.654   3.793
 1479TIP3    H2 4402   5.453   4.546   3.875
 1480TIP3   OH2 4403   4.970   6.433   2.810
 1480TIP3    H1 4404   5.052   6.436   2.760
 1480TIP3    H2 4405   4.918   6.365   2.767
 1481TIP3   OH2 4406   1.043   0.821   1.704
 1481TIP3    H1 4407   1.042   0.838   1.610
 1481TIP3    H2 4408   1.096   0.891   1.741
 1482TIP3   OH2 4409   4.793   2.545   1.355
 1482TIP3    H1 4410   4.773   2.497   1.435
 1482TIP3    H2 4411   4.832   2.627   1.386
 1483TIP3   OH2 4412   6.522   5.815   0.190
 1483TIP3    H1 4413   6.456   5.752   0.163
 1483TIP3    H2 4414   6.472   5.888   0.226
 1484TIP3   OH2 4415   3.212   3.040   3.776
 1484TIP3    H1 4416   3.172   3.120   3.809
 1484TIP3    H2 4417   3.291   3.029   3.829
 1485TIP3   OH2 4418   0.560   3.688   3.820
 1485TIP3    H1 4419   0.648   3.717   3.842
 1485TIP3    H2 4420   0.503   3.754   3.858
 1486TIP3   OH2 4421   6.461   5.763   2.040
 1486TIP3    H1 4422   6.386   5.783   2.095
 1486TIP3    H2 4423   6.534   5.752   2.101
 1487TIP3   OH2 4424   2.685   6.278   3.279
 1487TIP3    H1 4425   2.747   6.237   3.339
 1487TIP3    H2 4426   2.599   6.245   3.306
 1488TIP3   OH2 4427   4.331   6.633   1.689
 1488TIP3    H1 4428   4.309   6.637   1.782
 1488TIP3    H2 4429   4.266   6.575   1.651
 1489TIP3   OH2 4430   1.992   3.607   5.113
 1489TIP3    H1 4431   1.980   3.537   5.048
 1489TIP3    H2 4432   2.080   3.641   5.094
 1490TIP3   OH2 4433   5.350   0.743   3.435
 1490TIP3    H1 4434   5.355   0.834   3.406
 1490TIP3    H2 4435   5.275   0.706   3.387
 1491TIP3   OH2 4436   5.643   0.695   2.468
 1491TIP3    H1 4437   5.695   0.615   2.466
 1491TIP3    H2 4438   5.585   0.684   2.543
 1492TIP3   OH2 4439   1.540   2.591   1.555
 1492TIP3    H1 4440   1.470   2.581   1.490
 1492TIP3    H2 4441   1.526   2.678   1.592
 1493TIP3   OH2 4442   0.747   2.206   1.799
 1493TIP3    H1 4443   0.707   2.158   1.871
 1493TIP3    H2 4444   0.840   2.212   1.821
 1494TIP3   OH2 4445   0.405   1.892   4.265
 1494TIP3    H1 4446   0.425   1.889   4.172
 1494TIP3    H2 4447   0.483   1.928   4.306
 1495TIP3   OH2 4448   2.114   5.432   3.170
 1495TIP3    H1 4449   2.140   5.466   3.084
 1495TIP3    H2 4450   2.196   5.402   3.210
 1496TIP3   OH2 4451   2.826   0.453   5.765
 1496TIP3    H1 4452   2.895   0.482   5.824
 1496TIP3    H2 4453   2.873   0.425   5.686
 1497TIP3   OH2 4454   3.992   4.017   1.099
 1497TIP3    H1 4455   3.978   3.949   1.034
 1497TIP3    H2 4456   4.086   4.015   1.117
 1498TIP3   OH2 4457   0.734   2.990   3.877
 1498TIP3    H1 4458   0.737   2.926   3.806
 1498TIP3    H2 4459   0.642   2.994   3.901
 1499TIP3   OH2 4460   4.828   1.409   0.799
 1499TIP3    H1 4461   4.870   1.325   0.819
 1499TIP3    H2 4462   4.812   1.406   0.704
 1500TIP3   OH2 4463   4.246   3.899   1.237
 1500TIP3    H1 4464   4.296   3.977   1.260
 1500TIP3    H2 4465   4.273   3.877   1.149
 1501TIP3   OH2 4466   5.516   2.545   4.498
 1501TIP3    H1 4467   5.428   2.511   4.509
 1501TIP3    H2 4468   5.573   2.480   4.539
 1502TIP3   OH2 4469   3.734   6.064   3.817
 1502TIP3    H1 4470   3.680   6.132   3.857
 1502TIP3    H2 4471   3.743   5.997   3.884
 1503TIP3   OH2 4472   3.030   0.326   0.645
 1503TIP3    H1 4473   3.001   0.407   0.604
 1503TIP3    H2 4474   3.009   0.337   0.738
 1504TIP3   OH2 4475   6.974   1.674   1.864
 1504TIP3    H1 4476   6.963   1.767   1.844
 1504TIP3    H2 4477   6.886   1.637   1.853
 1505TIP3   OH2 4478   2.230   1.118   1.823
 1505TIP3    H1 4479   2.170   1.185   1.855
 1505TIP3    H2 4480   2.180   1.068   1.759
 1506TIP3   OH2 4481   3.762   6.032   4.362
 1506TIP3    H1 4482   3.762   6.085   4.283
 1506TIP3    H2 4483   3.820   5.959   4.342
 1507TIP3   OH2 4484   0.206   4.747   1.387
 1507TIP3    H1 4485   0.151   4.822   1.410
 1507TIP3    H2 4486   0.270   4.783   1.325
 1508TIP3   OH2 4487   5.585   5.311   3.439
 1508TIP3    H1 4488   5.607   5.254   3.365
 1508TIP3    H2 4489   5.504   5.274   3.474
 1509TIP3   OH2 4490   6.333   5.740   3.169
 1509TIP3    H1 4491   6.305   5.661   3.123
 1509TIP3    H2 4492   6.261   5.802   3.157
 1510TIP3   OH2 4493   2.607   5.187   4.605
 1510TIP3    H1 4494   2.548   5.233   4.664
 1510TIP3    H2 4495   2.628   5.251   4.536
 1511TIP3   OH2 4496   2.804   3.473   0.946
 1511TIP3    H1 4497   2.867   3.433   0.886
 1511TIP3    H2 4498   2.819   3.429   1.030
 1512TIP3   OH2 4499   3.861   5.373   2.528
 1512TIP3    H1 4500   3.865   5.342   2.437
 1512TIP3    H2 4501   3.775   5.346   2.558
 1513TIP3   OH2 4502   7.079   1.433   1.090
 1513TIP3    H1 4503   7.133   1.512   1.098
 1513TIP3    H2 4504   7.142   1.363   1.068
 1514TIP3   OH2 4505   4.734   4.498   1.265
 1514TIP3    H1 4506   4.732   4.491   1.169
 1514TIP3    H2 4507   4.823   4.473   1.289
 1515TIP3   OH2 4508   1.459   6.834   1.639
 1515TIP3    H1 4509   1.484   6.749   1.675
 1515TIP3    H2 4510   1.366   6.842   1.660
 1516TIP3   OH2 4511   3.550   1.659   2.391
 1516TIP3    H1 4512   3.511   1.718   2.327
 1516TIP3    H2 4513   3.618   1.712   2.433
 1517TIP3   OH2 4514   4.504   4.487   3.240
 1517TIP3    H1 4515   4.531   4.397   3.221
 1517TIP3    H2 4516   4.436   4.478   3.307
 1518TIP3   OH2 4517   2.089   5.151   4.928
 1518TIP3    H1 4518   2.184   5.163   4.928
 1518TIP3    H2 4519   2.075   5.066   4.970
 1519TIP3   OH2 4520   2.859   5.381   5.002
 1519TIP3    H1 4521   2.890   5.469   4.981
 1519TIP3    H2 4522   2.870   5.331   4.922
 1520TIP3   OH2 4523   6.045   0.497   3.859
 1520TIP3    H1 4524   5.960   0.489   3.902
 1520TIP3    H2 4525   6.105   0.519   3.929
 1521TIP3   OH2 4526   6.266   0.236   4.400
 1521TIP3    H1 4527   6.303   0.324   4.390
 1521TIP3    H2 4528   6.339   0.182   4.430
 1522TIP3   OH2 4529   0.207   2.806   5.401
 1522TIP3    H1 4530   0.198   2.862   5.478
 1522TIP3    H2 4531   0.296   2.771   5.407
 1523TIP3   OH2 4532   2.919   2.424   5.179
 1523TIP3    H1 4533   2.987   2.395   5.119
 1523TIP3    H2 4534   2.953   2.403   5.266
 1524TIP3   OH2 4535   5.513   1.821   1.949
 1524TIP3    H1 4536   5.516   1.832   1.854
 1524TIP3    H2 4537   5.509   1.726   1.961
 1525TIP3   OH2 4538   4.450   0.636   1.226
 1525TIP3    H1 4539   4.473   0.543   1.227
 1525TIP3    H2 4540   4.364   0.638   1.183
 1526TIP3   OH2 4541   5.006   2.943   2.432
 1526TIP3    H1 4542   5.086   2.925   2.383
 1526TIP3    H2 4543   5.025   2.913   2.521
 1527TIP3   OH2 4544   0.245   5.019   5.447
 1527TIP3    H1 4545   0.155   5.038   5.422
 1527TIP3    H2 4546   0.254   5.057   5.535
 1528TIP3   OH2 4547   0.802   1.107   5.742
 1528TIP3    H1 4548   0.892   1.083   5.721
 1528TIP3    H2 4549   0.749   1.056   5.680
 1529TIP3   OH2 4550   2.950   4.827   0.223
 1529TIP3    H1 4551   2.936   4.774   0.301
 1529TIP3    H2 4552   3.005   4.773   0.167
 1530TIP3   OH2 4553   6.302   0.701   4.499
 1530TIP3    H1 4554   6.284   0.754   4.422
 1530TIP3    H2 4555   6.329   0.765   4.566
 1531TIP3   OH2 4556   6.820   5.557   1.899
 1531TIP3    H1 4557   6.850   5.480   1.946
 1531TIP3    H2 4558   6.858   5.631   1.947
 1532TIP3   OH2 4559   4.782   5.766   0.105
 1532TIP3    H1 4560   4.748   5.854   0.122
 1532TIP3    H2 4561   4.756   5.747   0.015
 1533TIP3   OH2 4562   7.102   0.586   2.202
 1533TIP3    H1 4563   7.065   0.660   2.249
 1533TIP3    H2 4564   7.153   0.538   2.267
 1534TIP3   OH2 4565   3.891   6.838   2.651
 1534TIP3    H1 4566   3.942   6.773   2.602
 1534TIP3    H2 4567   3.908   6.817   2.743
 1535TIP3   OH2 4568   5.235   2.728   1.650
 1535TIP3    H1 4569   5.217   2.671   1.725
 1535TIP3    H2 4570   5.320   2.699   1.617
 1536TIP3   OH2 4571   2.602   4.040   4.617
 1536TIP3    H1 4572   2.687   4.008   4.649
 1536TIP3    H2 4573   2.622   4.078   4.531
 1537TIP3   OH2 4574   6.030   2.220   2.816
 1537TIP3    H1 4575   5.983   2.139   2.795
 1537TIP3    H2 4576   6.122   2.194   2.817
 1538TIP3   OH2 4577   4.876   6.260   4.204
 1538TIP3    H1 4578   4.954   6.306   4.235
 1538TIP3    H2 4579   4.802   6.308   4.243
 1539TIP3   OH2 4580   4.772   3.627   5.201
 1539TIP3    H1 4581   4.816   3.668   5.127
 1539TIP3    H2 4582   4.711   3.693   5.233
 1540TIP3   OH2 4583   4.207   0.003   2.245
 1540TIP3    H1 4584   4.156   0.046   2.176
 1540TIP3    H2 4585   4.254  -0.067   2.199
 1541TIP3   OH2 4586   1.258   2.766   1.448
 1541TIP3    H1 4587   1.216   2.844   1.412
 1541TIP3    H2 4588   1.297   2.794   1.530
 1542TIP3   OH2 4589   4.465   6.341   0.555
 1542TIP3    H1 4590   4.473   6.298   0.640
 1542TIP3    H2 4591   4.535   6.406   0.554
 1543TIP3   OH2 4592   0.972   5.795   1.389
 1543TIP3    H1 4593   1.058   5.755   1.378
 1543TIP3    H2 4594   0.988   5.889   1.382
 1544TIP3   OH2 4595   6.552   5.492   4.227
 1544TIP3    H1 4596   6.567   5.494   4.321
 1544TIP3    H2 4597   6.517   5.404   4.211
 1545TIP3   OH2 4598   4.490   0.923   3.858
 1545TIP3    H1 4599   4.455   0.980   3.926
 1545TIP3    H2 4600   4.577   0.960   3.838
 1546TIP3   OH2 4601   3.086   0.739   5.158
 1546TIP3    H1 4602   3.035   0.819   5.144
 1546TIP3    H2 4603   3.021   0.672   5.178
 1547TIP3   OH2 4604   2.410   0.169   3.697
 1547TIP3    H1 4605   2.491   0.156   3.647
 1547TIP3    H2 4606   2.392   0.083   3.735
 1548TIP3   OH2 4607   3.300   6.041   1.495
 1548TIP3    H1 4608   3.242   5.967   1.512
 1548TIP3    H2 4609   3.247   6.101   1.441
 1549TIP3   OH2 4610   5.222   2.005   3.929
 1549TIP3    H1 4611   5.284   2.078   3.921
 1549TIP3    H2 4612   5.161   2.033   3.997
 1550TIP3   OH2 4613   3.089   0.481   5.914
 1550TIP3    H1 4614   3.127   0.566   5.935
 1550TIP3    H2 4615   3.156   0.438   5.860
 1551TIP3   OH2 4616   4.585   1.235   4.878
 1551TIP3    H1 4617   4.537   1.178   4.937
 1551TIP3    H2 4618   4.537   1.230   4.795
 1552TIP3   OH2 4619   1.567   2.526   4.397
 1552TIP3    H1 4620   1.617   2.451   4.365
 1552TIP3    H2 4621   1.598   2.539   4.487
 1553TIP3   OH2 4622   0.143   3.144   4.110
 1553TIP3    H1 4623   0.174   3.071   4.165
 1553TIP3    H2 4624   0.068   3.109   4.063
 1554TIP3   OH2 4625   3.125   0.019   5.334
 1554TIP3    H1 4626   3.205   0.044   5.380
 1554TIP3    H2 4627   3.154  -0.044   5.267
 1555TIP3   OH2 4628   3.337   5.726   3.017
 1555TIP3    H1 4629   3.332   5.746   2.923
 1555TIP3    H2 4630   3.430   5.710   3.033
 1556TIP3   OH2 4631   6.525   6.634   0.165
 1556TIP3    H1 4632   6.523   6.713   0.219
 1556TIP3    H2 4633   6.532   6.666   0.075
 1557TIP3   OH2 4634   1.427   1.252   5.596
 1557TIP3    H1 4635   1.390   1.231   5.510
 1557TIP3    H2 4636   1.370   1.321   5.630
 1558TIP3   OH2 4637   5.668   1.907   2.334
 1558TIP3    H1 4638   5.736   1.857   2.380
 1558TIP3    H2 4639   5.587   1.885   2.379
 1559TIP3   OH2 4640   4.132   0.717   3.915
 1559TIP3    H1 4641   4.037   0.709   3.918
 1559TIP3    H2 4642   4.155   0.764   3.995
 1560TIP3   OH2 4643   5.961   3.088   2.542
 1560TIP3    H1 4644   6.037   3.059   2.592
 1560TIP3    H2 4645   5.951   3.181   2.564
 1561TIP3   OH2 4646   2.212   1.357   2.376
 1561TIP3    H1 4647   2.264   1.436   2.361
 1561TIP3    H2 4648   2.270   1.285   2.351
 1562TIP3   OH2 4649   5.252   1.475   2.542
 1562TIP3    H1 4650   5.187   1.540   2.515
 1562TIP3    H2 4651   5.253   1.481   2.638
 1563TIP3   OH2 4652   2.571   5.503   1.046
 1563TIP3    H1 4653   2.506   5.499   1.116
 1563TIP3    H2 4654   2.524   5.540   0.971
 1564TIP3   OH2 4655   6.033   2.924   0.098
 1564TIP3    H1 4656   5.988   2.964   0.023
 1564TIP3    H2 4657   6.125   2.944   0.083
 1565TIP3   OH2 4658   4.460   5.299   2.946
 1565TIP3    H1 4659   4.533   5.348   2.911
 1565TIP3    H2 4660   4.462   5.215   2.899
 1566TIP3   OH2 4661   5.748   3.651   3.911
 1566TIP3    H1 4662   5.653   3.650   3.910
 1566TIP3    H2 4663   5.772   3.562   3.937
 1567TIP3   OH2 4664   4.343   1.804   4.440
 1567TIP3    H1 4665   4.358   1.747   4.365
 1567TIP3    H2 4666   4.389   1.885   4.418
 1568TIP3   OH2 4667   2.408   4.847   3.515
 1568TIP3    H1 4668   2.470   4.912   3.481
 1568TIP3    H2 4669   2.323   4.873   3.480
 1569TIP3   OH2 4670   5.071   0.307   2.150
 1569TIP3    H1 4671   5.070   0.308   2.245
 1569TIP3    H2 4672   5.141   0.246   2.127
 1570TIP3   OH2 4673   4.117   6.180   2.552
 1570TIP3    H1 4674   4.085   6.123   2.621
 1570TIP3    H2 4675   4.056   6.254   2.551
 1571TIP3   OH2 4676   2.500   4.905   4.946
 1571TIP3    H1 4677   2.511   4.841   4.876
 1571TIP3    H2 4678   2.589   4.933   4.967
 1572TIP3   OH2 4679   4.155   6.531   1.510
 1572TIP3    H1 4680   4.061   6.515   1.519
 1572TIP3    H2 4681   4.192   6.445   1.495
 1573TIP3   OH2 4682   1.694   0.505   3.184
 1573TIP3    H1 4683   1.768   0.518   3.124
 1573TIP3    H2 4684   1.676   0.411   3.178
 1574TIP3   OH2 4685   6.305   2.762   3.610
 1574TIP3    H1 4686   6.263   2.750   3.525
 1574TIP3    H2 4687   6.313   2.857   3.619
 1575TIP3   OH2 4688   1.344   4.856   0.935
 1575TIP3    H1 4689   1.416   4.875   0.994
 1575TIP3    H2 4690   1.374   4.781   0.884
 1576TIP3   OH2 4691   6.552   5.825   5.506
 1576TIP3    H1 4692   6.470   5.872   5.521
 1576TIP3    H2 4693   6.525   5.733   5.499
 1577TIP3   OH2 4694   1.078   2.331   1.954
 1577TIP3    H1 4695   1.056   2.338   2.047
 1577TIP3    H2 4696   1.009   2.378   1.909
 1578TIP3   OH2 4697   0.814   1.388   4.972
 1578TIP3    H1 4698   0.802   1.335   5.052
 1578TIP3    H2 4699   0.771   1.471   4.992
 1579TIP3   OH2 4700   2.309   4.121   5.492
 1579TIP3    H1 4701   2.307   4.205   5.538
 1579TIP3    H2 4702   2.353   4.141   5.409
 1580TIP3   OH2 4703   0.336   3.295   1.396
 1580TIP3    H1 4704   0.419   3.280   1.350
 1580TIP3    H2 4705   0.351   3.264   1.485
 1581TIP3   OH2 4706   3.130   6.532   0.573
 1581TIP3    H1 4707   3.044   6.545   0.612
 1581TIP3    H2 4708   3.191   6.536   0.647
 1582TIP3   OH2 4709   2.551   5.651   3.353
 1582TIP3    H1 4710   2.639   5.661   3.316
 1582TIP3    H2 4711   2.497   5.622   3.280
 1583TIP3   OH2 4712   0.038   5.163   4.458
 1583TIP3    H1 4713   0.134   5.165   4.460
 1583TIP3    H2 4714   0.016   5.087   4.405
 1584TIP3   OH2 4715   6.147   2.527   2.569
 1584TIP3    H1 4716   6.130   2.500   2.659
 1584TIP3    H2 4717   6.160   2.444   2.522
 1585TIP3   OH2 4718   4.545   6.085   4.797
 1585TIP3    H1 4719   4.491   6.030   4.741
 1585TIP3    H2 4720   4.485   6.153   4.828
 1586TIP3   OH2 4721   6.970   4.465   2.482
 1586TIP3    H1 4722   6.978   4.560   2.487
 1586TIP3    H2 4723   7.057   4.435   2.453
 1587TIP3   OH2 4724   6.584   2.054   1.210
 1587TIP3    H1 4725   6.675   2.033   1.233
 1587TIP3    H2 4726   6.558   1.983   1.151
 1588TIP3   OH2 4727   0.555   6.588   3.950
 1588TIP3    H1 4728   0.606   6.534   4.010
 1588TIP3    H2 4729   0.466   6.555   3.956
 1589TIP3   OH2 4730   1.248   6.834   1.860
 1589TIP3    H1 4731   1.171   6.869   1.904
 1589TIP3    H2 4732   1.277   6.762   1.916
 1590TIP3   OH2 4733   5.030   3.630   1.799
 1590TIP3    H1 4734   5.106   3.609   1.744
 1590TIP3    H2 4735   4.998   3.713   1.764
 1591TIP3   OH2 4736   6.877   6.734   3.912
 1591TIP3    H1 4737   6.826   6.698   3.839
 1591TIP3    H2 4738   6.816   6.792   3.957
 1592TIP3   OH2 4739   1.042   3.122   2.658
 1592TIP3    H1 4740   0.983   3.181   2.609
 1592TIP3    H2 4741   1.037   3.040   2.609
 1593TIP3   OH2 4742   2.397   6.030   1.970
 1593TIP3    H1 4743   2.381   5.961   1.906
 1593TIP3    H2 4744   2.401   6.111   1.918
 1594TIP3   OH2 4745   1.778   5.857   4.125
 1594TIP3    H1 4746   1.867   5.863   4.090
 1594TIP3    H2 4747   1.786   5.801   4.203
 1595TIP3   OH2 4748   5.194   4.191   3.814
 1595TIP3    H1 4749   5.280   4.151   3.820
 1595TIP3    H2 4750   5.201   4.271   3.867
 1596TIP3   OH2 4751   7.080   5.837   1.068
 1596TIP3    H1 4752   7.070   5.813   0.976
 1596TIP3    H2 4753   7.065   5.755   1.116
 1597TIP3   OH2 4754   2.495   1.138   0.224
 1597TIP3    H1 4755   2.445   1.068   0.263
 1597TIP3    H2 4756   2.585   1.124   0.255
 1598TIP3   OH2 4757   2.827   5.521   5.365
 1598TIP3    H1 4758   2.789   5.582   5.429
 1598TIP3    H2 4759   2.796   5.435   5.393
 1599TIP3   OH2 4760   0.643   2.082   2.021
 1599TIP3    H1 4761   0.557   2.122   2.009
 1599TIP3    H2 4762   0.680   2.127   2.097
 1600TIP3   OH2 4763   4.959   1.553   2.876
 1600TIP3    H1 4764   4.875   1.510   2.887
 1600TIP3    H2 4765   4.996   1.557   2.964
 1601TIP3   OH2 4766   4.650   4.912   1.224
 1601TIP3    H1 4767   4.729   4.880   1.179
 1601TIP3    H2 4768   4.608   4.833   1.258
 1602TIP3   OH2 4769   2.823   4.789   2.884
 1602TIP3    H1 4770   2.879   4.713   2.898
 1602TIP3    H2 4771   2.771   4.796   2.964
 1603TIP3   OH2 4772   5.675   5.837   4.565
 1603TIP3    H1 4773   5.581   5.843   4.580
 1603TIP3    H2 4774   5.686   5.842   4.470
 1604TIP3   OH2 4775   3.194   5.781   0.246
 1604TIP3    H1 4776   3.167   5.839   0.175
 1604TIP3    H2 4777   3.113   5.743   0.279
 1605TIP3   OH2 4778   2.119   0.243   5.530
 1605TIP3    H1 4779   2.059   0.232   5.604
 1605TIP3    H2 4780   2.079   0.192   5.459
 1606TIP3   OH2 4781   5.999   4.852   3.678
 1606TIP3    H1 4782   6.029   4.913   3.610
 1606TIP3    H2 4783   6.011   4.899   3.760
 1607TIP3   OH2 4784   1.785   4.688   0.758
 1607TIP3    H1 4785   1.855   4.741   0.796
 1607TIP3    H2 4786   1.811   4.598   0.773
 1608TIP3   OH2 4787   5.979   1.732   2.096
 1608TIP3    H1 4788   5.967   1.667   2.165
 1608TIP3    H2 4789   5.894   1.775   2.089
 1609TIP3   OH2 4790   7.086   1.274   2.956
 1609TIP3    H1 4791   7.052   1.197   2.911
 1609TIP3    H2 4792   7.181   1.264   2.951
 1610TIP3   OH2 4793   6.876   0.485   2.312
 1610TIP3    H1 4794   6.959   0.493   2.265
 1610TIP3    H2 4795   6.815   0.451   2.247
 1611TIP3   OH2 4796   5.634   1.469   2.420
 1611TIP3    H1 4797   5.614   1.376   2.410
 1611TIP3    H2 4798   5.613   1.488   2.512
 1612TIP3   OH2 4799   5.701   3.344   4.428
 1612TIP3    H1 4800   5.732   3.329   4.517
 1612TIP3    H2 4801   5.768   3.304   4.372
 1613TIP3   OH2 4802   0.033   1.835   2.599
 1613TIP3    H1 4803   0.128   1.842   2.600
 1613TIP3    H2 4804   0.006   1.866   2.686
 1614TIP3   OH2 4805   3.904   0.676   4.466
 1614TIP3    H1 4806   3.886   0.611   4.398
 1614TIP3    H2 4807   3.919   0.623   4.545
 1615TIP3   OH2 4808   1.467   5.527   0.620
 1615TIP3    H1 4809   1.468   5.582   0.542
 1615TIP3    H2 4810   1.545   5.471   0.611
 1616TIP3   OH2 4811   5.026   1.545   5.241
 1616TIP3    H1 4812   4.999   1.454   5.231
 1616TIP3    H2 4813   5.119   1.545   5.221
 1617TIP3   OH2 4814   5.062   2.275   0.192
 1617TIP3    H1 4815   5.143   2.294   0.145
 1617TIP3    H2 4816   5.008   2.353   0.180
 1618TIP3   OH2 4817   5.043   1.959   1.949
 1618TIP3    H1 4818   5.069   1.871   1.977
 1618TIP3    H2 4819   5.076   2.017   2.017
 1619TIP3   OH2 4820   6.600   4.414   5.440
 1619TIP3    H1 4821   6.669   4.471   5.476
 1619TIP3    H2 4822   6.577   4.453   5.356
 1620TIP3   OH2 4823   4.219   3.983   4.809
 1620TIP3    H1 4824   4.221   3.997   4.904
 1620TIP3    H2 4825   4.128   4.001   4.784
 1621TIP3   OH2 4826   5.154   1.024   4.499
 1621TIP3    H1 4827   5.214   1.086   4.540
 1621TIP3    H2 4828   5.162   0.944   4.551
 1622TIP3   OH2 4829   5.677   6.684   3.858
 1622TIP3    H1 4830   5.664   6.769   3.899
 1622TIP3    H2 4831   5.624   6.624   3.910
 1623TIP3   OH2 4832   4.782   6.791   2.350
 1623TIP3    H1 4833   4.854   6.844   2.316
 1623TIP3    H2 4834   4.813   6.701   2.342
 1624TIP3   OH2 4835   3.747   0.309   2.065
 1624TIP3    H1 4836   3.685   0.237   2.078
 1624TIP3    H2 4837   3.785   0.293   1.979
 1625TIP3   OH2 4838   3.224   4.995   5.269
 1625TIP3    H1 4839   3.158   4.927   5.256
 1625TIP3    H2 4840   3.174   5.071   5.300
 1626TIP3   OH2 4841   6.584   3.581   3.680
 1626TIP3    H1 4842   6.512   3.540   3.631
 1626TIP3    H2 4843   6.598   3.665   3.635
 1627TIP3   OH2 4844   4.106   4.738   0.344
 1627TIP3    H1 4845   4.075   4.651   0.368
 1627TIP3    H2 4846   4.118   4.733   0.249
 1628TIP3   OH2 4847   5.199   3.336   3.080
 1628TIP3    H1 4848   5.237   3.303   3.161
 1628TIP3    H2 4849   5.261   3.311   3.012
 1629TIP3   OH2 4850   1.741   2.774   4.790
 1629TIP3    H1 4851   1.759   2.725   4.871
 1629TIP3    H2 4852   1.813   2.837   4.784
 1630TIP3   OH2 4853   4.866   2.021   3.059
 1630TIP3    H1 4854   4.918   2.101   3.061
 1630TIP3    H2 4855   4.926   1.954   3.026
 1631TIP3   OH2 4856   3.974   3.025   3.232
 1631TIP3    H1 4857   3.880   3.030   3.245
 1631TIP3    H2 4858   4.011   3.032   3.320
 1632TIP3   OH2 4859   6.896   0.296   4.740
 1632TIP3    H1 4860   6.987   0.265   4.738
 1632TIP3    H2 4861   6.856   0.249   4.812
 1633TIP3   OH2 4862   1.519   1.752   4.463
 1633TIP3    H1 4863   1.482   1.670   4.495
 1633TIP3    H2 4864   1.613   1.736   4.457
 1634TIP3   OH2 4865   2.782   5.346   2.634
 1634TIP3    H1 4866   2.695   5.354   2.674
 1634TIP3    H2 4867   2.826   5.280   2.686
 1635TIP3   OH2 4868   6.128   0.765   2.299
 1635TIP3    H1 4869   6.108   0.773   2.392
 1635TIP3    H2 4870   6.057   0.711   2.264
 1636TIP3   OH2 4871   5.516   2.785   3.147
 1636TIP3    H1 4872   5.477   2.785   3.059
 1636TIP3    H2 4873   5.460   2.724   3.197
 1637TIP3   OH2 4874   3.808   2.107   4.700
 1637TIP3    H1 4875   3.734   2.069   4.747
 1637TIP3    H2 4876   3.813   2.057   4.619
 1638TIP3   OH2 4877   5.853   3.181   4.957
 1638TIP3    H1 4878   5.788   3.159   4.891
 1638TIP3    H2 4879   5.824   3.265   4.993
 1639TIP3   OH2 4880   4.519   0.939   2.368
 1639TIP3    H1 4881   4.544   0.993   2.292
 1639TIP3    H2 4882   4.585   0.870   2.371
 1640TIP3   OH2 4883   7.191   6.657   3.461
 1640TIP3    H1 4884   7.250   6.647   3.386
 1640TIP3    H2 4885   7.103   6.655   3.424
 1641TIP3   OH2 4886   2.380   5.634   0.838
 1641TIP3    H1 4887   2.398   5.717   0.794
 1641TIP3    H2 4888   2.292   5.645   0.875
 1642TIP3   OH2 4889   3.387   4.652   1.076
 1642TIP3    H1 4890   3.326   4.696   1.135
 1642TIP3    H2 4891   3.410   4.571   1.121
 1643TIP3   OH2 4892   7.147   5.201   1.381
 1643TIP3    H1 4893   7.235   5.231   1.361
 1643TIP3    H2 4894   7.093   5.232   1.308
 1644TIP3   OH2 4895   6.529   5.204   4.204
 1644TIP3    H1 4896   6.588   5.182   4.277
 1644TIP3    H2 4897   6.442   5.181   4.237
 1645TIP3   OH2 4898   4.200   5.266   2.815
 1645TIP3    H1 4899   4.291   5.257   2.843
 1645TIP3    H2 4900   4.151   5.284   2.895
 1646TIP3   OH2 4901   3.969   2.669   2.254
 1646TIP3    H1 4902   3.909   2.626   2.193
 1646TIP3    H2 4903   4.055   2.662   2.213
 1647TIP3   OH2 4904   6.938   5.914   1.685
 1647TIP3    H1 4905   6.848   5.884   1.695
 1647TIP3    H2 4906   6.974   5.858   1.616
 1648TIP3   OH2 4907   0.326   4.112   4.270
 1648TIP3    H1 4908   0.269   4.118   4.346
 1648TIP3    H2 4909   0.279   4.160   4.201
 1649TIP3   OH2 4910   0.033   3.263   3.229
 1649TIP3    H1 4911  -0.038   3.202   3.249
 1649TIP3    H2 4912   0.042   3.316   3.309
 1650TIP3   OH2 4913   0.464   3.792   4.564
 1650TIP3    H1 4914   0.552   3.775   4.530
 1650TIP3    H2 4915   0.411   3.719   4.532
 1651TIP3   OH2 4916   6.153   0.697   1.300
 1651TIP3    H1 4917   6.236   0.657   1.275
 1651TIP3    H2 4918   6.092   0.669   1.231
 1652TIP3   OH2 4919   4.259   4.775   1.138
 1652TIP3    H1 4920   4.298   4.770   1.225
 1652TIP3    H2 4921   4.325   4.818   1.084
 1653TIP3   OH2 4922   4.327   5.626   5.575
 1653TIP3    H1 4923   4.345   5.713   5.612
 1653TIP3    H2 4924   4.414   5.592   5.552
 1654TIP3   OH2 4925   3.645   4.407   4.380
 1654TIP3    H1 4926   3.717   4.416   4.442
 1654TIP3    H2 4927   3.566   4.402   4.435
 1655TIP3   OH2 4928   4.147   3.148   3.817
 1655TIP3    H1 4929   4.071   3.149   3.759
 1655TIP3    H2 4930   4.178   3.058   3.814
 1656TIP3   OH2 4931   6.573   4.841   4.418
 1656TIP3    H1 4932   6.550   4.934   4.411
 1656TIP3    H2 4933   6.568   4.822   4.512
 1657TIP3   OH2 4934   6.480   1.679   4.258
 1657TIP3    H1 4935   6.464   1.603   4.313
 1657TIP3    H2 4936   6.412   1.742   4.283
 1658TIP3   OH2 4937   1.452   2.171   4.145
 1658TIP3    H1 4938   1.469   2.119   4.066
 1658TIP3    H2 4939   1.459   2.108   4.217
 1659TIP3   OH2 4940   2.188   0.964   2.930
 1659TIP3    H1 4941   2.263   0.905   2.937
 1659TIP3    H2 4942   2.216   1.044   2.975
 1660TIP3   OH2 4943   0.455   4.734   1.522
 1660TIP3    H1 4944   0.432   4.795   1.592
 1660TIP3    H2 4945   0.374   4.720   1.474
 1661TIP3   OH2 4946   7.088   2.189   2.669
 1661TIP3    H1 4947   7.148   2.183   2.595
 1661TIP3    H2 4948   7.081   2.283   2.686
 1662TIP3   OH2 4949   5.549   4.962   0.984
 1662TIP3    H1 4950   5.488   4.889   0.994
 1662TIP3    H2 4951   5.609   4.953   1.059
 1663TIP3   OH2 4952   5.073   6.767   5.320
 1663TIP3    H1 4953   5.029   6.704   5.264
 1663TIP3    H2 4954   5.046   6.743   5.409
 1664TIP3   OH2 4955   3.033   2.356   1.767
 1664TIP3    H1 4956   3.101   2.334   1.830
 1664TIP3    H2 4957   3.004   2.443   1.792
 1665TIP3   OH2 4958   6.439   3.102   2.426
 1665TIP3    H1 4959   6.470   3.014   2.447
 1665TIP3    H2 4960   6.450   3.109   2.331
 1666TIP3   OH2 4961   2.746   2.189   4.661
 1666TIP3    H1 4962   2.742   2.277   4.621
 1666TIP3    H2 4963   2.672   2.188   4.722
 1667TIP3   OH2 4964   3.185   1.042   5.621
 1667TIP3    H1 4965   3.148   1.060   5.534
 1667TIP3    H2 4966   3.169   1.122   5.671
 1668TIP3   OH2 4967   3.258   0.640   5.463
 1668TIP3    H1 4968   3.241   0.712   5.402
 1668TIP3    H2 4969   3.353   0.642   5.476
 1669TIP3   OH2 4970   1.487   0.770   0.670
 1669TIP3    H1 4971   1.392   0.759   0.662
 1669TIP3    H2 4972   1.508   0.740   0.758
 1670TIP3   OH2 4973   5.483   1.678   5.090
 1670TIP3    H1 4974   5.565   1.632   5.071
 1670TIP3    H2 4975   5.505   1.739   5.160
 1671TIP3   OH2 4976   1.603   4.780   4.748
 1671TIP3    H1 4977   1.558   4.749   4.669
 1671TIP3    H2 4978   1.534   4.790   4.813
 1672TIP3   OH2 4979   0.611   2.729   2.582
 1672TIP3    H1 4980   0.642   2.786   2.511
 1672TIP3    H2 4981   0.668   2.751   2.656
 1673TIP3   OH2 4982   4.940   0.073   2.128
 1673TIP3    H1 4983   4.976   0.160   2.145
 1673TIP3    H2 4984   4.980   0.017   2.195
 1674TIP3   OH2 4985   6.596   5.252   5.660
 1674TIP3    H1 4986   6.602   5.308   5.583
 1674TIP3    H2 4987   6.676   5.271   5.710
 1675TIP3   OH2 4988   1.055   0.390   0.256
 1675TIP3    H1 4989   1.023   0.359   0.172
 1675TIP3    H2 4990   0.999   0.465   0.277
 1676TIP3   OH2 4991   1.625   0.406   0.848
 1676TIP3    H1 4992   1.713   0.419   0.813
 1676TIP3    H2 4993   1.585   0.492   0.845
 1677TIP3   OH2 4994   6.931   4.332   0.204
 1677TIP3    H1 4995   6.880   4.265   0.159
 1677TIP3    H2 4996   6.988   4.368   0.136
 1678TIP3   OH2 4997   7.223   5.654   1.578
 1678TIP3    H1 4998   7.149   5.629   1.633
 1678TIP3    H2 4999   7.250   5.740   1.611
 1679TIP3   OH2 5000   4.552   3.621   4.960
 1679TIP3    H1 5001   4.506   3.620   4.876
 1679TIP3    H2 5002   4.498   3.676   5.017
 1680TIP3   OH2 5003   4.119   4.589   5.275
 1680TIP3    H1 5004   4.082   4.596   5.363
 1680TIP3    H2 5005   4.205   4.630   5.283
 1681TIP3   OH2 5006   6.342   0.575   3.113
 1681TIP3    H1 5007   6.286   0.542   3.183
 1681TIP3    H2 5008   6.431   0.563   3.147
 1682TIP3   OH2 5009   5.483   3.836   3.189
 1682TIP3    H1 5010   5.497   3.894   3.114
 1682TIP3    H2 5011   5.462   3.751   3.151
 1683TIP3   OH2 5012   5.817   1.232   5.865
 1683TIP3    H1 5013   5.770   1.182   5.932
 1683TIP3    H2 5014   5.818   1.174   5.788
 1684TIP3   OH2 5015   1.238   0.487   3.930
 1684TIP3    H1 5016   1.151   0.495   3.890
 1684TIP3    H2 5017   1.287   0.561   3.895
 1685TIP3   OH2 5018   6.452   0.885   1.142
 1685TIP3    H1 5019   6.444   0.851   1.232
 1685TIP3    H2 5020   6.362   0.886   1.110
 1686TIP3   OH2 5021   6.947   2.950   1.074
 1686TIP3    H1 5022   6.871   2.901   1.104
 1686TIP3    H2 5023   7.005   2.954   1.150
 1687TIP3   OH2 5024   6.876   0.843   4.231
 1687TIP3    H1 5025   6.968   0.819   4.228
 1687TIP3    H2 5026   6.843   0.801   4.311
 1688TIP3   OH2 5027   6.237   3.637   3.134
 1688TIP3    H1 5028   6.198   3.569   3.079
 1688TIP3    H2 5029   6.330   3.634   3.112
 1689TIP3   OH2 5030   6.797   6.775   0.604
 1689TIP3    H1 5031   6.797   6.802   0.696
 1689TIP3    H2 5032   6.706   6.779   0.577
 1690TIP3   OH2 5033   3.607   6.734   4.573
 1690TIP3    H1 5034   3.606   6.817   4.621
 1690TIP3    H2 5035   3.532   6.739   4.514
 1691TIP3   OH2 5036   2.299   1.423   4.205
 1691TIP3    H1 5037   2.343   1.349   4.163
 1691TIP3    H2 5038   2.364   1.459   4.265
 1692TIP3   OH2 5039   6.484   1.328   0.806
 1692TIP3    H1 5040   6.460   1.364   0.892
 1692TIP3    H2 5041   6.411   1.350   0.749
 1693TIP3   OH2 5042   6.212   1.140   1.840
 1693TIP3    H1 5043   6.179   1.228   1.855
 1693TIP3    H2 5044   6.233   1.138   1.746
 1694TIP3   OH2 5045   2.766   4.055   1.341
 1694TIP3    H1 5046   2.722   4.135   1.313
 1694TIP3    H2 5047   2.739   3.989   1.276
 1695TIP3   OH2 5048   3.201   6.210   4.283
 1695TIP3    H1 5049   3.151   6.269   4.225
 1695TIP3    H2 5050   3.291   6.239   4.275
 1696TIP3   OH2 5051   6.573   5.023   5.032
 1696TIP3    H1 5052   6.493   5.056   5.073
 1696TIP3    H2 5053   6.562   5.044   4.939
 1697TIP3   OH2 5054   1.357   2.750   0.330
 1697TIP3    H1 5055   1.335   2.843   0.330
 1697TIP3    H2 5056   1.413   2.739   0.253
 1698TIP3   OH2 5057   5.038   3.840   2.473
 1698TIP3    H1 5058   5.124   3.848   2.431
 1698TIP3    H2 5059   5.044   3.896   2.551
 1699TIP3   OH2 5060   3.093   5.334   2.089
 1699TIP3    H1 5061   3.147   5.409   2.063
 1699TIP3    H2 5062   3.018   5.336   2.029
 1700TIP3   OH2 5063   1.255   4.932   0.371
 1700TIP3    H1 5064   1.171   4.892   0.347
 1700TIP3    H2 5065   1.248   4.948   0.465
 1701TIP3   OH2 5066   1.792   2.971   0.583
 1701TIP3    H1 5067   1.764   2.885   0.552
 1701TIP3    H2 5068   1.761   3.032   0.516
 1702TIP3   OH2 5069   3.257   5.195   3.431
 1702TIP3    H1 5070   3.334   5.240   3.396
 1702TIP3    H2 5071   3.243   5.122   3.370
 1703TIP3   OH2 5072   6.947   4.473   1.752
 1703TIP3    H1 5073   7.003   4.532   1.804
 1703TIP3    H2 5074   6.870   4.526   1.731
 1704TIP3   OH2 5075   5.029   4.595   5.158
 1704TIP3    H1 5076   4.999   4.629   5.074
 1704TIP3    H2 5077   5.063   4.672   5.204
 1705TIP3   OH2 5078   0.567   0.312   4.877
 1705TIP3    H1 5079   0.485   0.358   4.896
 1705TIP3    H2 5080   0.540   0.224   4.852
 1706TIP3   OH2 5081   6.106   5.168   5.273
 1706TIP3    H1 5082   6.089   5.073   5.275
 1706TIP3    H2 5083   6.052   5.203   5.344
 1707TIP3   OH2 5084   0.795   4.589   3.922
 1707TIP3    H1 5085   0.884   4.621   3.904
 1707TIP3    H2 5086   0.745   4.668   3.941
 1708TIP3   OH2 5087   3.951   4.053   4.779
 1708TIP3    H1 5088   3.892   4.008   4.840
 1708TIP3    H2 5089   3.986   4.127   4.830
 1709TIP3   OH2 5090   5.084   3.625   0.832
 1709TIP3    H1 5091   5.168   3.584   0.854
 1709TIP3    H2 5092   5.019   3.557   0.851
 1710TIP3   OH2 5093   1.812   4.863   1.184
 1710TIP3    H1 5094   1.847   4.775   1.195
 1710TIP3    H2 5095   1.888   4.920   1.193
 1711TIP3   OH2 5096   4.368   6.058   1.001
 1711TIP3    H1 5097   4.335   5.987   0.946
 1711TIP3    H2 5098   4.297   6.076   1.062
 1712TIP3   OH2 5099   6.208   0.328   4.687
 1712TIP3    H1 5100   6.269   0.361   4.754
 1712TIP3    H2 5101   6.265   0.302   4.615
 1713TIP3   OH2 5102   0.667   2.499   5.405
 1713TIP3    H1 5103   0.602   2.568   5.419
 1713TIP3    H2 5104   0.732   2.538   5.347
 1714TIP3   OH2 5105   3.471   4.001   5.882
 1714TIP3    H1 5106   3.467   3.910   5.854
 1714TIP3    H2 5107   3.384   4.018   5.920
 1715TIP3   OH2 5108   3.446   2.659   0.412
 1715TIP3    H1 5109   3.456   2.749   0.379
 1715TIP3    H2 5110   3.375   2.664   0.476
 1716TIP3   OH2 5111   0.608   2.350   1.620
 1716TIP3    H1 5112   0.686   2.311   1.660
 1716TIP3    H2 5113   0.542   2.349   1.690
 1717TIP3   OH2 5114   4.247   2.925   5.461
 1717TIP3    H1 5115   4.230   2.938   5.368
 1717TIP3    H2 5116   4.256   2.831   5.471
 1718TIP3   OH2 5117   5.762   3.374   1.742
 1718TIP3    H1 5118   5.683   3.336   1.702
 1718TIP3    H2 5119   5.758   3.347   1.834
 1719TIP3   OH2 5120   0.763   0.035   1.464
 1719TIP3    H1 5121   0.772  -0.053   1.500
 1719TIP3    H2 5122   0.696   0.076   1.519
 1720TIP3   OH2 5123   4.812   4.400   5.280
 1720TIP3    H1 5124   4.906   4.415   5.281
 1720TIP3    H2 5125   4.794   4.363   5.194
 1721TIP3   OH2 5126   3.064   4.093   1.480
 1721TIP3    H1 5127   3.100   4.026   1.538
 1721TIP3    H2 5128   2.980   4.057   1.451
 1722TIP3   OH2 5129   1.109   3.288   4.168
 1722TIP3    H1 5130   1.070   3.218   4.117
 1722TIP3    H2 5131   1.073   3.368   4.130
 1723TIP3   OH2 5132   3.211   1.863   1.834
 1723TIP3    H1 5133   3.117   1.867   1.814
 1723TIP3    H2 5134   3.220   1.787   1.892
 1724TIP3   OH2 5135   3.422   2.005   2.980
 1724TIP3    H1 5136   3.344   1.972   3.025
 1724TIP3    H2 5137   3.494   1.953   3.014
 1725TIP3   OH2 5138   6.119   5.976   5.639
 1725TIP3    H1 5139   6.055   6.048   5.640
 1725TIP3    H2 5140   6.142   5.964   5.732
 1726TIP3   OH2 5141   5.956   6.142   0.984
 1726TIP3    H1 5142   5.927   6.106   1.067
 1726TIP3    H2 5143   6.038   6.096   0.964
 1727TIP3   OH2 5144   2.545   5.627   2.529
 1727TIP3    H1 5145   2.522   5.715   2.501
 1727TIP3    H2 5146   2.640   5.629   2.541
 1728TIP3   OH2 5147   6.078   4.432   3.633
 1728TIP3    H1 5148   6.000   4.481   3.608
 1728TIP3    H2 5149   6.077   4.433   3.729
 1729TIP3   OH2 5150   4.171   2.636   0.989
 1729TIP3    H1 5151   4.098   2.693   1.013
 1729TIP3    H2 5152   4.206   2.604   1.072
 1730TIP3   OH2 5153   6.563   4.607   1.947
 1730TIP3    H1 5154   6.584   4.536   2.008
 1730TIP3    H2 5155   6.574   4.687   1.998
 1731TIP3   OH2 5156   5.250   6.083   4.369
 1731TIP3    H1 5157   5.328   6.078   4.314
 1731TIP3    H2 5158   5.276   6.143   4.440
 1732TIP3   OH2 5159   4.531   0.399   0.601
 1732TIP3    H1 5160   4.511   0.306   0.590
 1732TIP3    H2 5161   4.588   0.421   0.527
 1733TIP3   OH2 5162   3.082   1.362   0.180
 1733TIP3    H1 5163   3.032   1.364   0.098
 1733TIP3    H2 5164   3.047   1.435   0.231
 1734TIP3   OH2 5165   5.583   3.118   5.142
 1734TIP3    H1 5166   5.498   3.098   5.102
 1734TIP3    H2 5167   5.644   3.057   5.101
 1735TIP3   OH2 5168   1.742   3.963   4.860
 1735TIP3    H1 5169   1.659   3.947   4.815
 1735TIP3    H2 5170   1.743   3.901   4.933
 1736TIP3   OH2 5171   4.896   5.118   3.644
 1736TIP3    H1 5172   4.816   5.095   3.692
 1736TIP3    H2 5173   4.868   5.125   3.553
 1737TIP3   OH2 5174   5.230   0.569   4.062
 1737TIP3    H1 5175   5.211   0.614   3.980
 1737TIP3    H2 5176   5.198   0.480   4.049
 1738TIP3   OH2 5177   3.354   0.458   0.938
 1738TIP3    H1 5178   3.364   0.393   0.869
 1738TIP3    H2 5179   3.260   0.456   0.959
 1739TIP3   OH2 5180   3.831   5.906   1.728
 1739TIP3    H1 5181   3.814   5.992   1.767
 1739TIP3    H2 5182   3.744   5.870   1.711
 1740TIP3   OH2 5183   2.633   0.335   2.626
 1740TIP3    H1 5184   2.718   0.313   2.587
 1740TIP3    H2 5185   2.629   0.283   2.706
 1741TIP3   OH2 5186   6.925   1.406   4.671
 1741TIP3    H1 5187   6.853   1.440   4.724
 1741TIP3    H2 5188   6.885   1.385   4.586
 1742TIP3   OH2 5189   0.260   2.515   4.431
 1742TIP3    H1 5190   0.264   2.463   4.351
 1742TIP3    H2 5191   0.316   2.468   4.492
 1743TIP3   OH2 5192   6.540   3.694   2.426
 1743TIP3    H1 5193   6.472   3.740   2.377
 1743TIP3    H2 5194   6.579   3.635   2.362
 1744TIP3   OH2 5195   0.382   5.453   2.734
 1744TIP3    H1 5196   0.400   5.544   2.758
 1744TIP3    H2 5197   0.341   5.458   2.648
 1745TIP3   OH2 5198   5.641   5.123   1.611
 1745TIP3    H1 5199   5.586   5.063   1.661
 1745TIP3    H2 5200   5.724   5.077   1.601
 1746TIP3   OH2 5201   6.378   5.493   1.022
 1746TIP3    H1 5202   6.289   5.509   1.053
 1746TIP3    H2 5203   6.368   5.437   0.945
 1747TIP3   OH2 5204   2.367   5.494   4.322
 1747TIP3    H1 5205   2.394   5.426   4.260
 1747TIP3    H2 5206   2.442   5.554   4.327
 1748TIP3   OH2 5207   0.027   2.751   5.182
 1748TIP3    H1 5208   0.098   2.790   5.233
 1748TIP3    H2 5209  -0.018   2.693   5.243
 1749TIP3   OH2 5210   5.086   1.509   3.108
 1749TIP3    H1 5211   5.172   1.473   3.086
 1749TIP3    H2 5212   5.076   1.492   3.202
 1750TIP3   OH2 5213   0.595   5.129   1.362
 1750TIP3    H1 5214   0.613   5.186   1.437
 1750TIP3    H2 5215   0.680   5.092   1.338
 1751TIP3   OH2 5216   2.676   0.307   0.399
 1751TIP3    H1 5217   2.621   0.312   0.321
 1751TIP3    H2 5218   2.624   0.259   0.463
 1752TIP3   OH2 5219   4.034   0.812   1.685
 1752TIP3    H1 5220   3.994   0.892   1.720
 1752TIP3    H2 5221   4.100   0.844   1.623
 1753TIP3   OH2 5222   0.820   2.117   5.852
 1753TIP3    H1 5223   0.909   2.083   5.841
 1753TIP3    H2 5224   0.800   2.103   5.945
 1754TIP3   OH2 5225   2.378   6.156   3.078
 1754TIP3    H1 5226   2.413   6.070   3.102
 1754TIP3    H2 5227   2.312   6.137   3.010
 1755TIP3   OH2 5228   4.133   1.613   0.208
 1755TIP3    H1 5229   4.134   1.548   0.277
 1755TIP3    H2 5230   4.142   1.697   0.253
 1756TIP3   OH2 5231   0.902   5.326   1.383
 1756TIP3    H1 5232   0.951   5.283   1.314
 1756TIP3    H2 5233   0.891   5.260   1.450
 1757TIP3   OH2 5234   3.894   2.725   5.683
 1757TIP3    H1 5235   3.929   2.717   5.771
 1757TIP3    H2 5236   3.890   2.819   5.666
 1758TIP3   OH2 5237   0.592   0.132   3.232
 1758TIP3    H1 5238   0.668   0.120   3.176
 1758TIP3    H2 5239   0.552   0.045   3.238
 1759TIP3   OH2 5240   7.070   0.579   1.927
 1759TIP3    H1 5241   6.975   0.587   1.919
 1759TIP3    H2 5242   7.086   0.572   2.022
 1760TIP3   OH2 5243   4.316   4.926   0.273
 1760TIP3    H1 5244   4.276   5.010   0.252
 1760TIP3    H2 5245   4.409   4.938   0.252
 1761TIP3   OH2 5246   5.758   5.059   0.698
 1761TIP3    H1 5247   5.707   5.015   0.630
 1761TIP3    H2 5248   5.748   5.152   0.679
 1762TIP3   OH2 5249   0.434   1.686   5.739
 1762TIP3    H1 5250   0.401   1.602   5.771
 1762TIP3    H2 5251   0.367   1.750   5.763
 1763TIP3   OH2 5252   4.645   3.968   0.935
 1763TIP3    H1 5253   4.641   3.964   0.840
 1763TIP3    H2 5254   4.575   3.909   0.965
 1764TIP3   OH2 5255   0.557   5.571   3.184
 1764TIP3    H1 5256   0.486   5.510   3.161
 1764TIP3    H2 5257   0.516   5.657   3.179
 1765TIP3   OH2 5258   0.252   2.556   0.224
 1765TIP3    H1 5259   0.298   2.629   0.267
 1765TIP3    H2 5260   0.186   2.599   0.170
 1766TIP3   OH2 5261   3.180   4.418   0.594
 1766TIP3    H1 5262   3.136   4.355   0.537
 1766TIP3    H2 5263   3.109   4.459   0.643
 1767TIP3   OH2 5264   2.946   4.365   2.426
 1767TIP3    H1 5265   2.859   4.379   2.463
 1767TIP3    H2 5266   2.998   4.333   2.500
 1768TIP3   OH2 5267   5.644   4.256   1.953
 1768TIP3    H1 5268   5.718   4.290   1.904
 1768TIP3    H2 5269   5.594   4.205   1.890
 1769TIP3   OH2 5270   6.129   4.087   2.847
 1769TIP3    H1 5271   6.093   4.002   2.872
 1769TIP3    H2 5272   6.205   4.098   2.903
 1770TIP3   OH2 5273   1.855   5.707   4.759
 1770TIP3    H1 5274   1.789   5.768   4.724
 1770TIP3    H2 5275   1.865   5.642   4.690
 1771TIP3   OH2 5276   0.079   6.031   2.008
 1771TIP3    H1 5277   0.033   5.949   2.027
 1771TIP3    H2 5278   0.066   6.045   1.915
 1772TIP3   OH2 5279   0.464   5.862   1.266
 1772TIP3    H1 5280   0.432   5.791   1.210
 1772TIP3    H2 5281   0.558   5.866   1.248
 1773TIP3   OH2 5282   4.160   3.555   2.024
 1773TIP3    H1 5283   4.066   3.566   2.005
 1773TIP3    H2 5284   4.181   3.628   2.082
 1774TIP3   OH2 5285   6.733   1.525   4.253
 1774TIP3    H1 5286   6.690   1.448   4.290
 1774TIP3    H2 5287   6.669   1.562   4.192
 1775TIP3   OH2 5288   4.661   6.522   3.706
 1775TIP3    H1 5289   4.586   6.463   3.714
 1775TIP3    H2 5290   4.640   6.576   3.630
 1776TIP3   OH2 5291   6.719   3.147   2.223
 1776TIP3    H1 5292   6.778   3.072   2.216
 1776TIP3    H2 5293   6.718   3.167   2.317
 1777TIP3   OH2 5294   1.371   5.329   4.978
 1777TIP3    H1 5295   1.436   5.392   5.009
 1777TIP3    H2 5296   1.372   5.259   5.043
 1778TIP3   OH2 5297   4.241   2.506   1.912
 1778TIP3    H1 5298   4.164   2.551   1.879
 1778TIP3    H2 5299   4.314   2.543   1.862
 1779TIP3   OH2 5300   6.988   0.021   2.551
 1779TIP3    H1 5301   6.962   0.113   2.555
 1779TIP3    H2 5302   7.062   0.019   2.489
 1780TIP3   OH2 5303   2.145   0.856   4.434
 1780TIP3    H1 5304   2.184   0.885   4.517
 1780TIP3    H2 5305   2.051   0.869   4.446
 1781TIP3   OH2 5306   4.934   1.538   2.173
 1781TIP3    H1 5307   4.922   1.591   2.095
 1781TIP3    H2 5308   4.850   1.493   2.186
 1782TIP3   OH2 5309   5.891   2.702   1.918
 1782TIP3    H1 5310   5.968   2.731   1.869
 1782TIP3    H2 5311   5.909   2.727   2.008
 1783TIP3   OH2 5312   3.411   1.430   3.083
 1783TIP3    H1 5313   3.436   1.412   3.174
 1783TIP3    H2 5314   3.494   1.426   3.035
 1784TIP3   OH2 5315   0.870   5.541   4.711
 1784TIP3    H1 5316   0.903   5.628   4.732
 1784TIP3    H2 5317   0.867   5.496   4.796
 1785TIP3   OH2 5318   2.629   4.548   4.429
 1785TIP3    H1 5319   2.664   4.636   4.443
 1785TIP3    H2 5320   2.590   4.551   4.342
 1786TIP3   OH2 5321   4.468   4.998   5.396
 1786TIP3    H1 5322   4.443   5.088   5.376
 1786TIP3    H2 5323   4.562   5.003   5.414
 1787TIP3   OH2 5324   3.539   6.118   0.540
 1787TIP3    H1 5325   3.554   6.172   0.463
 1787TIP3    H2 5326   3.449   6.085   0.530
 1788TIP3   OH2 5327   6.462   5.923   1.826
 1788TIP3    H1 5328   6.463   5.885   1.913
 1788TIP3    H2 5329   6.551   5.910   1.793
 1789TIP3   OH2 5330   6.664   6.739   4.995
 1789TIP3    H1 5331   6.610   6.817   4.979
 1789TIP3    H2 5332   6.747   6.758   4.950
 1790TIP3   OH2 5333   5.302   5.481   5.093
 1790TIP3    H1 5334   5.335   5.551   5.037
 1790TIP3    H2 5335   5.219   5.515   5.129
 1791TIP3   OH2 5336   7.046   5.303   2.739
 1791TIP3    H1 5337   7.009   5.336   2.820
 1791TIP3    H2 5338   7.104   5.231   2.767
 1792TIP3   OH2 5339   6.739   1.472   0.303
 1792TIP3    H1 5340   6.776   1.547   0.254
 1792TIP3    H2 5341   6.737   1.502   0.394
 1793TIP3   OH2 5342   7.204   3.814   5.207
 1793TIP3    H1 5343   7.206   3.867   5.287
 1793TIP3    H2 5344   7.115   3.779   5.204
 1794TIP3   OH2 5345   1.322   0.223   1.386
 1794TIP3    H1 5346   1.281   0.235   1.471
 1794TIP3    H2 5347   1.287   0.139   1.354
 1795TIP3   OH2 5348   1.632   6.693   3.528
 1795TIP3    H1 5349   1.589   6.777   3.509
 1795TIP3    H2 5350   1.606   6.636   3.456
 1796TIP3   OH2 5351   5.903   0.190   2.395
 1796TIP3    H1 5352   5.956   0.138   2.455
 1796TIP3    H2 5353   5.919   0.151   2.309
 1797TIP3   OH2 5354   5.663   6.141   0.493
 1797TIP3    H1 5355   5.667   6.072   0.559
 1797TIP3    H2 5356   5.671   6.222   0.543
 1798TIP3   OH2 5357   1.260   4.453   5.486
 1798TIP3    H1 5358   1.221   4.493   5.408
 1798TIP3    H2 5359   1.208   4.487   5.558
 1799TIP3   OH2 5360   6.793   1.067   4.074
 1799TIP3    H1 5361   6.701   1.042   4.071
 1799TIP3    H2 5362   6.833   1.005   4.134
 1800TIP3   OH2 5363   0.128   4.392   3.743
 1800TIP3    H1 5364   0.035   4.398   3.766
 1800TIP3    H2 5365   0.159   4.483   3.747
 1801TIP3   OH2 5366   2.583   5.248   5.455
 1801TIP3    H1 5367   2.596   5.281   5.544
 1801TIP3    H2 5368   2.671   5.230   5.423
 1802TIP3   OH2 5369   3.131   2.324   3.408
 1802TIP3    H1 5370   3.117   2.230   3.392
 1802TIP3    H2 5371   3.113   2.365   3.324
 1803TIP3   OH2 5372   2.490   4.133   1.528
 1803TIP3    H1 5373   2.462   4.102   1.614
 1803TIP3    H2 5374   2.530   4.218   1.544
 1804TIP3   OH2 5375   4.270   2.858   5.202
 1804TIP3    H1 5376   4.226   2.930   5.157
 1804TIP3    H2 5377   4.266   2.785   5.140
 1805TIP3   OH2 5378   5.138   4.778   2.368
 1805TIP3    H1 5379   5.150   4.713   2.437
 1805TIP3    H2 5380   5.207   4.842   2.383
 1806TIP3   OH2 5381   1.979   2.402   1.652
 1806TIP3    H1 5382   1.980   2.404   1.557
 1806TIP3    H2 5383   1.886   2.398   1.675
 1807TIP3   OH2 5384   2.727   6.792   0.716
 1807TIP3    H1 5385   2.815   6.758   0.698
 1807TIP3    H2 5386   2.728   6.811   0.810
 1808TIP3   OH2 5387   2.076   0.135   3.635
 1808TIP3    H1 5388   2.153   0.173   3.591
 1808TIP3    H2 5389   2.108   0.053   3.673
 1809TIP3   OH2 5390   1.022   4.930   3.612
 1809TIP3    H1 5391   1.081   4.856   3.622
 1809TIP3    H2 5392   0.940   4.892   3.579
 1810TIP3   OH2 5393   2.798   2.791   5.625
 1810TIP3    H1 5394   2.761   2.867   5.670
 1810TIP3    H2 5395   2.789   2.720   5.688
 1811TIP3   OH2 5396   2.448   2.712   5.351
 1811TIP3    H1 5397   2.468   2.744   5.262
 1811TIP3    H2 5398   2.403   2.786   5.393
 1812TIP3   OH2 5399   1.832   5.118   5.432
 1812TIP3    H1 5400   1.860   5.079   5.350
 1812TIP3    H2 5401   1.770   5.055   5.469
 1813TIP3   OH2 5402   2.908   0.695   3.934
 1813TIP3    H1 5403   2.999   0.669   3.948
 1813TIP3    H2 5404   2.894   0.768   3.995
 1814TIP3   OH2 5405   0.932   5.588   3.293
 1814TIP3    H1 5406   0.895   5.671   3.261
 1814TIP3    H2 5407   0.991   5.615   3.364
 1815TIP3   OH2 5408   2.878   0.479   0.463
 1815TIP3    H1 5409   2.915   0.531   0.391
 1815TIP3    H2 5410   2.821   0.416   0.420
 1816TIP3   OH2 5411   0.649   6.809   1.972
 1816TIP3    H1 5412   0.580   6.777   1.915
 1816TIP3    H2 5413   0.619   6.790   2.060
 1817TIP3   OH2 5414   6.498   6.287   5.155
 1817TIP3    H1 5415   6.484   6.363   5.098
 1817TIP3    H2 5416   6.455   6.215   5.108
 1818TIP3   OH2 5417   4.337   2.524   5.716
 1818TIP3    H1 5418   4.380   2.519   5.802
 1818TIP3    H2 5419   4.244   2.535   5.736
 1819TIP3   OH2 5420   1.354   5.952   2.244
 1819TIP3    H1 5421   1.446   5.946   2.216
 1819TIP3    H2 5422   1.322   6.033   2.203
 1820TIP3   OH2 5423   5.516   2.129   2.679
 1820TIP3    H1 5424   5.605   2.137   2.644
 1820TIP3    H2 5425   5.459   2.140   2.602
 1821TIP3   OH2 5426   7.249   1.164   1.537
 1821TIP3    H1 5427   7.247   1.250   1.495
 1821TIP3    H2 5428   7.209   1.105   1.473
 1822TIP3   OH2 5429   6.019   2.099   2.017
 1822TIP3    H1 5430   5.947   2.162   2.025
 1822TIP3    H2 5431   5.993   2.042   1.944
 1823TIP3   OH2 5432   1.151   4.641   0.494
 1823TIP3    H1 5433   1.098   4.712   0.458
 1823TIP3    H2 5434   1.193   4.602   0.417
 1824TIP3   OH2 5435   6.241   3.356   2.105
 1824TIP3    H1 5436   6.262   3.355   2.199
 1824TIP3    H2 5437   6.301   3.293   2.066
 1825TIP3   OH2 5438   5.235   5.144   3.860
 1825TIP3    H1 5439   5.197   5.142   3.772
 1825TIP3    H2 5440   5.217   5.056   3.895
 1826TIP3   OH2 5441   5.697   2.500   3.249
 1826TIP3    H1 5442   5.630   2.460   3.194
 1826TIP3    H2 5443   5.700   2.445   3.327
 1827TIP3   OH2 5444   1.364   4.020   5.354
 1827TIP3    H1 5445   1.385   4.114   5.351
 1827TIP3    H2 5446   1.398   3.991   5.439
 1828TIP3   OH2 5447   1.803   0.351   3.398
 1828TIP3    H1 5448   1.771   0.406   3.326
 1828TIP3    H2 5449   1.852   0.281   3.355
 1829TIP3   OH2 5450   3.846   5.289   5.862
 1829TIP3    H1 5451   3.831   5.201   5.894
 1829TIP3    H2 5452   3.866   5.341   5.940
 1830TIP3   OH2 5453   0.690   6.255   5.881
 1830TIP3    H1 5454   0.719   6.179   5.831
 1830TIP3    H2 5455   0.745   6.327   5.850
 1831TIP3   OH2 5456   4.723   5.705   3.316
 1831TIP3    H1 5457   4.734   5.623   3.364
 1831TIP3    H2 5458   4.708   5.679   3.226
 1832TIP3   OH2 5459   2.524   5.259   1.262
 1832TIP3    H1 5460   2.466   5.334   1.250
 1832TIP3    H2 5461   2.479   5.203   1.324
 1833TIP3   OH2 5462   4.606   3.815   3.639
 1833TIP3    H1 5463   4.686   3.813   3.692
 1833TIP3    H2 5464   4.627   3.762   3.562
 1834TIP3   OH2 5465   1.081   1.441   2.928
 1834TIP3    H1 5466   1.044   1.521   2.965
 1834TIP3    H2 5467   1.095   1.461   2.835
 1835TIP3   OH2 5468   5.565   5.060   4.880
 1835TIP3    H1 5469   5.532   4.973   4.905
 1835TIP3    H2 5470   5.523   5.078   4.795
 1836TIP3   OH2 5471   0.440   5.521   1.102
 1836TIP3    H1 5472   0.392   5.557   1.177
 1836TIP3    H2 5473   0.492   5.450   1.140
 1837TIP3   OH2 5474   6.557   0.684   2.373
 1837TIP3    H1 5475   6.559   0.604   2.425
 1837TIP3    H2 5476   6.466   0.712   2.375
 1838TIP3   OH2 5477   6.764   0.268   0.032
 1838TIP3    H1 5478   6.786   0.195   0.089
 1838TIP3    H2 5479   6.693   0.235  -0.023
 1839TIP3   OH2 5480   4.856   4.186   2.939
 1839TIP3    H1 5481   4.782   4.129   2.962
 1839TIP3    H2 5482   4.851   4.258   3.001
 1840TIP3   OH2 5483   5.922   4.238   2.773
 1840TIP3    H1 5484   5.996   4.177   2.777
 1840TIP3    H2 5485   5.952   4.308   2.716
 1841TIP3   OH2 5486   4.934   4.544   4.665
 1841TIP3    H1 5487   4.850   4.560   4.621
 1841TIP3    H2 5488   4.988   4.502   4.599
 1842TIP3   OH2 5489   6.175   5.221   1.446
 1842TIP3    H1 5490   6.213   5.134   1.459
 1842TIP3    H2 5491   6.125   5.214   1.365
 1843TIP3   OH2 5492   6.641   2.916   4.189
 1843TIP3    H1 5493   6.574   2.960   4.137
 1843TIP3    H2 5494   6.609   2.827   4.199
 1844TIP3   OH2 5495   3.459   6.455   5.042
 1844TIP3    H1 5496   3.479   6.425   4.953
 1844TIP3    H2 5497   3.518   6.529   5.056
 1845TIP3   OH2 5498   3.021   1.071   4.637
 1845TIP3    H1 5499   2.952   1.097   4.576
 1845TIP3    H2 5500   2.987   1.098   4.723
 1846TIP3   OH2 5501   6.300   2.138   1.233
 1846TIP3    H1 5502   6.292   2.217   1.180
 1846TIP3    H2 5503   6.392   2.134   1.257
 1847TIP3   OH2 5504   4.565   2.503   3.002
 1847TIP3    H1 5505   4.598   2.540   2.920
 1847TIP3    H2 5506   4.518   2.576   3.044
 1848TIP3   OH2 5507   3.925   3.563   1.902
 1848TIP3    H1 5508   3.848   3.619   1.888
 1848TIP3    H2 5509   3.966   3.557   1.815
 1849TIP3   OH2 5510   2.731   3.816   5.460
 1849TIP3    H1 5511   2.675   3.838   5.534
 1849TIP3    H2 5512   2.758   3.901   5.424
 1850TIP3   OH2 5513   3.402   2.077   2.236
 1850TIP3    H1 5514   3.448   2.079   2.152
 1850TIP3    H2 5515   3.366   2.166   2.246
 1851TIP3   OH2 5516   1.565   3.934   3.138
 1851TIP3    H1 5517   1.659   3.928   3.159
 1851TIP3    H2 5518   1.562   3.990   3.061
 1852TIP3   OH2 5519   5.160   4.513   0.354
 1852TIP3    H1 5520   5.089   4.452   0.333
 1852TIP3    H2 5521   5.119   4.600   0.349
 1853TIP3   OH2 5522   3.825   0.494   4.268
 1853TIP3    H1 5523   3.820   0.508   4.173
 1853TIP3    H2 5524   3.757   0.429   4.286
 1854TIP3   OH2 5525   5.197   6.110   1.027
 1854TIP3    H1 5526   5.287   6.103   1.057
 1854TIP3    H2 5527   5.194   6.056   0.948
 1855TIP3   OH2 5528   0.572   2.398   1.368
 1855TIP3    H1 5529   0.485   2.357   1.367
 1855TIP3    H2 5530   0.604   2.383   1.457
 1856TIP3   OH2 5531   0.913   1.787   0.832
 1856TIP3    H1 5532   1.007   1.785   0.814
 1856TIP3    H2 5533   0.901   1.724   0.903
 1857TIP3   OH2 5534   0.596   2.503   1.983
 1857TIP3    H1 5535   0.680   2.498   2.029
 1857TIP3    H2 5536   0.606   2.577   1.923
 1858TIP3   OH2 5537   1.778   4.451   5.254
 1858TIP3    H1 5538   1.684   4.467   5.265
 1858TIP3    H2 5539   1.815   4.468   5.341
 1859TIP3   OH2 5540   6.170   5.170   0.667
 1859TIP3    H1 5541   6.216   5.184   0.584
 1859TIP3    H2 5542   6.166   5.075   0.676
 1860TIP3   OH2 5543   3.455   4.719   1.883
 1860TIP3    H1 5544   3.534   4.719   1.937
 1860TIP3    H2 5545   3.469   4.648   1.821
 1861TIP3   OH2 5546   6.949   3.613   1.274
 1861TIP3    H1 5547   7.020   3.667   1.238
 1861TIP3    H2 5548   6.872   3.640   1.224
 1862TIP3   OH2 5549   2.470   5.857   5.021
 1862TIP3    H1 5550   2.428   5.869   5.106
 1862TIP3    H2 5551   2.491   5.764   5.017
 1863TIP3   OH2 5552   2.610   6.670   2.294
 1863TIP3    H1 5553   2.570   6.606   2.352
 1863TIP3    H2 5554   2.704   6.660   2.310
 1864TIP3   OH2 5555   3.905   0.985   3.688
 1864TIP3    H1 5556   3.840   1.038   3.735
 1864TIP3    H2 5557   3.854   0.918   3.644
 1865TIP3   OH2 5558   2.085   1.537   4.493
 1865TIP3    H1 5559   2.151   1.475   4.523
 1865TIP3    H2 5560   2.031   1.486   4.433
 1866TIP3   OH2 5561   6.456   0.337   2.261
 1866TIP3    H1 5562   6.471   0.410   2.321
 1866TIP3    H2 5563   6.399   0.373   2.193
 1867TIP3   OH2 5564   5.387   4.863   2.380
 1867TIP3    H1 5565   5.392   4.796   2.448
 1867TIP3    H2 5566   5.421   4.942   2.423
 1868TIP3   OH2 5567   1.132   3.046   4.880
 1868TIP3    H1 5568   1.041   3.015   4.881
 1868TIP3    H2 5569   1.184   2.966   4.878
 1869TIP3   OH2 5570   2.835   3.088   1.669
 1869TIP3    H1 5571   2.851   2.995   1.684
 1869TIP3    H2 5572   2.875   3.106   1.583
 1870TIP3   OH2 5573   2.702   1.765   0.178
 1870TIP3    H1 5574   2.760   1.842   0.179
 1870TIP3    H2 5575   2.706   1.733   0.088
 1871TIP3   OH2 5576   2.507   0.707   0.672
 1871TIP3    H1 5577   2.462   0.693   0.755
 1871TIP3    H2 5578   2.578   0.644   0.671
 1872TIP3   OH2 5579   6.899   5.041   4.204
 1872TIP3    H1 5580   6.875   5.107   4.139
 1872TIP3    H2 5581   6.980   5.002   4.169
 1873TIP3   OH2 5582   6.419   4.770   1.772
 1873TIP3    H1 5583   6.362   4.836   1.811
 1873TIP3    H2 5584   6.450   4.718   1.846
 1874TIP3   OH2 5585   5.704   6.298   5.459
 1874TIP3    H1 5586   5.666   6.229   5.404
 1874TIP3    H2 5587   5.779   6.330   5.409
 1875TIP3   OH2 5588   2.492   3.379   1.072
 1875TIP3    H1 5589   2.519   3.468   1.095
 1875TIP3    H2 5590   2.572   3.327   1.082
 1876TIP3   OH2 5591   6.289   1.240   4.713
 1876TIP3    H1 5592   6.356   1.272   4.773
 1876TIP3    H2 5593   6.267   1.153   4.745
 1877TIP3   OH2 5594   6.689   4.638   0.800
 1877TIP3    H1 5595   6.702   4.546   0.824
 1877TIP3    H2 5596   6.677   4.635   0.705
 1878TIP3   OH2 5597   3.360   6.430   1.672
 1878TIP3    H1 5598   3.435   6.484   1.698
 1878TIP3    H2 5599   3.384   6.341   1.698
 1879TIP3   OH2 5600   1.222   3.770   4.840
 1879TIP3    H1 5601   1.286   3.840   4.829
 1879TIP3    H2 5602   1.259   3.696   4.792
 1880TIP3   OH2 5603   6.149   2.660   3.371
 1880TIP3    H1 5604   6.121   2.702   3.289
 1880TIP3    H2 5605   6.070   2.662   3.426
 1881TIP3   OH2 5606   1.108   1.898   3.906
 1881TIP3    H1 5607   1.186   1.859   3.945
 1881TIP3    H2 5608   1.083   1.968   3.967
 1882TIP3   OH2 5609   6.610   3.441   2.283
 1882TIP3    H1 5610   6.592   3.359   2.237
 1882TIP3    H2 5611   6.691   3.474   2.242
 1883TIP3   OH2 5612   5.266   3.217   2.517
 1883TIP3    H1 5613   5.197   3.245   2.578
 1883TIP3    H2 5614   5.283   3.126   2.541
 1884TIP3   OH2 5615   4.328   6.360   0.065
 1884TIP3    H1 5616   4.376   6.369   0.147
 1884TIP3    H2 5617   4.245   6.406   0.080
 1885TIP3   OH2 5618   6.555   3.851   3.516
 1885TIP3    H1 5619   6.461   3.870   3.517
 1885TIP3    H2 5620   6.584   3.880   3.430
 1886TIP3   OH2 5621   4.257   5.277   3.646
 1886TIP3    H1 5622   4.330   5.220   3.621
 1886TIP3    H2 5623   4.256   5.344   3.577
 1887TIP3   OH2 5624   1.727   1.638   5.673
 1887TIP3    H1 5625   1.721   1.716   5.617
 1887TIP3    H2 5626   1.814   1.603   5.656
 1888TIP3   OH2 5627   3.640   3.089   4.514
 1888TIP3    H1 5628   3.660   3.046   4.597
 1888TIP3    H2 5629   3.691   3.170   4.516
 1889TIP3   OH2 5630   6.772   0.708   3.643
 1889TIP3    H1 5631   6.752   0.772   3.712
 1889TIP3    H2 5632   6.866   0.718   3.627
 1890TIP3   OH2 5633   1.412   0.575   2.514
 1890TIP3    H1 5634   1.354   0.648   2.493
 1890TIP3    H2 5635   1.354   0.507   2.547
 1891TIP3   OH2 5636   5.788   0.680   1.726
 1891TIP3    H1 5637   5.821   0.592   1.746
 1891TIP3    H2 5638   5.795   0.727   1.809
 1892TIP3   OH2 5639   0.045   1.573   4.296
 1892TIP3    H1 5640   0.068   1.665   4.308
 1892TIP3    H2 5641  -0.050   1.573   4.282
 1893TIP3   OH2 5642   4.806   1.176   0.144
 1893TIP3    H1 5643   4.787   1.236   0.072
 1893TIP3    H2 5644   4.877   1.218   0.192
 1894TIP3   OH2 5645   0.053   2.708   0.525
 1894TIP3    H1 5646   0.084   2.697   0.615
 1894TIP3    H2 5647  -0.033   2.666   0.523
 1895TIP3   OH2 5648   2.063   2.816   5.062
 1895TIP3    H1 5649   2.082   2.737   5.112
 1895TIP3    H2 5650   2.148   2.853   5.041
 1896TIP3   OH2 5651   5.499   5.889   3.630
 1896TIP3    H1 5652   5.507   5.930   3.545
 1896TIP3    H2 5653   5.409   5.906   3.658
 1897TIP3   OH2 5654   4.108   2.653   5.133
 1897TIP3    H1 5655   4.028   2.633   5.086
 1897TIP3    H2 5656   4.080   2.707   5.207
 1898TIP3   OH2 5657   2.778   4.231   5.072
 1898TIP3    H1 5658   2.844   4.208   5.007
 1898TIP3    H2 5659   2.771   4.154   5.127
 1899TIP3   OH2 5660   6.514   4.004   0.596
 1899TIP3    H1 5661   6.524   4.038   0.508
 1899TIP3    H2 5662   6.601   4.012   0.636
 1900TIP3   OH2 5663   5.073   5.639   3.425
 1900TIP3    H1 5664   5.123   5.559   3.440
 1900TIP3    H2 5665   5.041   5.630   3.335
 1901TIP3   OH2 5666   1.222   1.999   3.074
 1901TIP3    H1 5667   1.301   1.954   3.048
 1901TIP3    H2 5668   1.153   1.960   3.020
 1902TIP3   OH2 5669   4.012   1.864   1.759
 1902TIP3    H1 5670   3.973   1.795   1.705
 1902TIP3    H2 5671   3.974   1.945   1.726
 1903TIP3   OH2 5672   1.175   4.251   3.032
 1903TIP3    H1 5673   1.090   4.267   2.992
 1903TIP3    H2 5674   1.208   4.339   3.054
 1904TIP3   OH2 5675   0.170   3.164   1.712
 1904TIP3    H1 5676   0.119   3.179   1.791
 1904TIP3    H2 5677   0.141   3.079   1.680
 1905TIP3   OH2 5678   3.096   4.272   2.650
 1905TIP3    H1 5679   3.184   4.275   2.686
 1905TIP3    H2 5680   3.055   4.197   2.693
 1906TIP3   OH2 5681   7.089   6.425   1.820
 1906TIP3    H1 5682   7.014   6.471   1.857
 1906TIP3    H2 5683   7.090   6.451   1.728
 1907TIP3   OH2 5684   0.700   2.076   5.467
 1907TIP3    H1 5685   0.697   2.058   5.374
 1907TIP3    H2 5686   0.613   2.054   5.500
 1908TIP3   OH2 5687   6.485   3.257   1.275
 1908TIP3    H1 5688   6.398   3.286   1.303
 1908TIP3    H2 5689   6.519   3.331   1.223
 1909TIP3   OH2 5690   2.471   4.912   2.165
 1909TIP3    H1 5691   2.411   4.913   2.091
 1909TIP3    H2 5692   2.551   4.953   2.132
 1910TIP3   OH2 5693   6.715   1.634   1.768
 1910TIP3    H1 5694   6.633   1.585   1.765
 1910TIP3    H2 5695   6.707   1.690   1.846
 1911TIP3   OH2 5696   0.269   2.581   1.463
 1911TIP3    H1 5697   0.319   2.505   1.435
 1911TIP3    H2 5698   0.288   2.590   1.556
 1912TIP3   OH2 5699   0.824   4.444   5.389
 1912TIP3    H1 5700   0.781   4.359   5.378
 1912TIP3    H2 5701   0.782   4.500   5.324
 1913TIP3   OH2 5702   2.616   1.356   0.490
 1913TIP3    H1 5703   2.626   1.445   0.456
 1913TIP3    H2 5704   2.704   1.318   0.481
 1914TIP3   OH2 5705   6.680   4.069   1.012
 1914TIP3    H1 5706   6.599   4.047   0.966
 1914TIP3    H2 5707   6.655   4.071   1.105
 1915TIP3   OH2 5708   1.563   4.430   4.368
 1915TIP3    H1 5709   1.580   4.338   4.388
 1915TIP3    H2 5710   1.647   4.465   4.340
 1916TIP3   OH2 5711   4.189   3.287   2.620
 1916TIP3    H1 5712   4.153   3.220   2.561
 1916TIP3    H2 5713   4.118   3.304   2.682
 1917TIP3   OH2 5714   4.648   4.141   4.121
 1917TIP3    H1 5715   4.592   4.106   4.190
 1917TIP3    H2 5716   4.616   4.100   4.041
 1918TIP3   OH2 5717   3.662   2.991   2.942
 1918TIP3    H1 5718   3.637   2.921   2.881
 1918TIP3    H2 5719   3.644   2.955   3.029
 1919TIP3   OH2 5720   2.338   1.715   1.612
 1919TIP3    H1 5721   2.291   1.666   1.680
 1919TIP3    H2 5722   2.283   1.706   1.534
 1920TIP3   OH2 5723   1.888   4.183   5.673
 1920TIP3    H1 5724   1.930   4.268   5.664
 1920TIP3    H2 5725   1.797   4.198   5.649
 1921TIP3   OH2 5726   2.050   0.329   5.227
 1921TIP3    H1 5727   2.137   0.330   5.186
 1921TIP3    H2 5728   2.027   0.236   5.232
 1922TIP3   OH2 5729   2.776   5.604   0.866
 1922TIP3    H1 5730   2.732   5.589   0.950
 1922TIP3    H2 5731   2.869   5.606   0.888
 1923TIP3   OH2 5732   7.165   5.378   1.945
 1923TIP3    H1 5733   7.200   5.362   1.857
 1923TIP3    H2 5734   7.088   5.322   1.951
 1924TIP3   OH2 5735   1.132   4.253   1.735
 1924TIP3    H1 5736   1.169   4.235   1.649
 1924TIP3    H2 5737   1.055   4.307   1.718
 1925TIP3   OH2 5738   4.730   0.477   5.235
 1925TIP3    H1 5739   4.813   0.431   5.226
 1925TIP3    H2 5740   4.699   0.489   5.145
 1926TIP3   OH2 5741   0.297   3.035   2.947
 1926TIP3    H1 5742   0.369   2.988   2.904
 1926TIP3    H2 5743   0.312   3.127   2.927
 1927TIP3   OH2 5744   2.120   6.337   2.344
 1927TIP3    H1 5745   2.108   6.265   2.283
 1927TIP3    H2 5746   2.201   6.317   2.391
 1928TIP3   OH2 5747   4.307   6.026   3.826
 1928TIP3    H1 5748   4.397   6.037   3.858
 1928TIP3    H2 5749   4.253   6.049   3.902
 1929TIP3   OH2 5750   0.167   6.505   2.553
 1929TIP3    H1 5751   0.213   6.517   2.637
 1929TIP3    H2 5752   0.093   6.448   2.574
 1930TIP3   OH2 5753   0.453   0.981   0.072
 1930TIP3    H1 5754   0.460   0.889   0.044
 1930TIP3    H2 5755   0.403   0.977   0.154
 1931TIP3   OH2 5756   5.121   4.197   2.536
 1931TIP3    H1 5757   5.054   4.205   2.604
 1931TIP3    H2 5758   5.171   4.278   2.542
 1932TIP3   OH2 5759   6.541   5.791   1.433
 1932TIP3    H1 5760   6.476   5.855   1.404
 1932TIP3    H2 5761   6.533   5.718   1.371
 1933TIP3   OH2 5762   1.666   4.995   2.720
 1933TIP3    H1 5763   1.642   4.950   2.640
 1933TIP3    H2 5764   1.618   4.949   2.789
 1934TIP3   OH2 5765   4.152   4.059   2.074
 1934TIP3    H1 5766   4.245   4.059   2.053
 1934TIP3    H2 5767   4.137   4.143   2.116
 1935TIP3   OH2 5768   5.400   5.136   1.903
 1935TIP3    H1 5769   5.410   5.124   1.998
 1935TIP3    H2 5770   5.465   5.203   1.881
 1936TIP3   OH2 5771   3.013   3.315   4.892
 1936TIP3    H1 5772   2.945   3.382   4.880
 1936TIP3    H2 5773   3.025   3.277   4.805
 1937TIP3   OH2 5774   2.237   6.495   5.200
 1937TIP3    H1 5775   2.206   6.434   5.267
 1937TIP3    H2 5776   2.267   6.438   5.129
 1938TIP3   OH2 5777   4.645   6.378   1.408
 1938TIP3    H1 5778   4.622   6.444   1.474
 1938TIP3    H2 5779   4.586   6.396   1.334
 1939TIP3   OH2 5780   2.736   3.888   0.005
 1939TIP3    H1 5781   2.697   3.969   0.037
 1939TIP3    H2 5782   2.829   3.895   0.028
 1940TIP3   OH2 5783   4.837   5.201   3.382
 1940TIP3    H1 5784   4.835   5.289   3.418
 1940TIP3    H2 5785   4.812   5.212   3.290
 1941TIP3   OH2 5786   0.629   3.512   2.614
 1941TIP3    H1 5787   0.669   3.599   2.615
 1941TIP3    H2 5788   0.632   3.483   2.705
 1942TIP3   OH2 5789   2.788   1.121   5.281
 1942TIP3    H1 5790   2.722   1.082   5.224
 1942TIP3    H2 5791   2.800   1.058   5.351
 1943TIP3   OH2 5792   0.998   4.820   0.366
 1943TIP3    H1 5793   0.927   4.860   0.418
 1943TIP3    H2 5794   0.954   4.780   0.292
 1944TIP3   OH2 5795   2.440   3.931   5.658
 1944TIP3    H1 5796   2.382   3.982   5.715
 1944TIP3    H2 5797   2.449   3.985   5.579
 1945TIP3   OH2 5798   5.647   0.738   4.761
 1945TIP3    H1 5799   5.566   0.687   4.759
 1945TIP3    H2 5800   5.705   0.693   4.700
 1946TIP3   OH2 5801   0.467   3.563   2.176
 1946TIP3    H1 5802   0.482   3.581   2.083
 1946TIP3    H2 5803   0.398   3.624   2.201
 1947TIP3   OH2 5804   5.531   6.070   4.259
 1947TIP3    H1 5805   5.590   5.995   4.264
 1947TIP3    H2 5806   5.531   6.095   4.167
 1948TIP3   OH2 5807   4.790   3.830   3.157
 1948TIP3    H1 5808   4.757   3.781   3.082
 1948TIP3    H2 5809   4.747   3.915   3.152
 1949TIP3   OH2 5810   1.509   2.764   3.796
 1949TIP3    H1 5811   1.442   2.825   3.767
 1949TIP3    H2 5812   1.461   2.689   3.831
 1950TIP3   OH2 5813   2.381   6.320   2.147
 1950TIP3    H1 5814   2.437   6.290   2.075
 1950TIP3    H2 5815   2.439   6.327   2.222
 1951TIP3   OH2 5816   4.953   4.153   2.307
 1951TIP3    H1 5817   4.964   4.132   2.399
 1951TIP3    H2 5818   5.027   4.111   2.263
 1952TIP3   OH2 5819   7.096   2.146   1.842
 1952TIP3    H1 5820   7.013   2.099   1.851
 1952TIP3    H2 5821   7.150   2.090   1.785
 1953TIP3   OH2 5822   6.688   6.327   5.860
 1953TIP3    H1 5823   6.640   6.298   5.782
 1953TIP3    H2 5824   6.661   6.418   5.872
 1954TIP3   OH2 5825   5.791   3.505   4.695
 1954TIP3    H1 5826   5.752   3.561   4.762
 1954TIP3    H2 5827   5.762   3.416   4.717
 1955TIP3   OH2 5828   2.057   6.363   5.385
 1955TIP3    H1 5829   2.039   6.292   5.324
 1955TIP3    H2 5830   1.980   6.365   5.442
 1956TIP3   OH2 5831   4.758   2.845   1.246
 1956TIP3    H1 5832   4.793   2.822   1.332
 1956TIP3    H2 5833   4.787   2.774   1.189
 1957TIP3   OH2 5834   6.243   6.334   2.156
 1957TIP3    H1 5835   6.282   6.247   2.145
 1957TIP3    H2 5836   6.196   6.329   2.239
 1958TIP3   OH2 5837   7.201   3.379   4.635
 1958TIP3    H1 5838   7.270   3.412   4.693
 1958TIP3    H2 5839   7.226   3.411   4.548
 1959TIP3   OH2 5840   4.672   2.921   1.894
 1959TIP3    H1 5841   4.692   2.890   1.983
 1959TIP3    H2 5842   4.755   2.957   1.863
 1960TIP3   OH2 5843   5.238   0.521   0.987
 1960TIP3    H1 5844   5.299   0.559   1.051
 1960TIP3    H2 5845   5.183   0.462   1.039
 1961TIP3   OH2 5846   6.114   2.729   4.082
 1961TIP3    H1 5847   6.137   2.750   3.992
 1961TIP3    H2 5848   6.082   2.639   4.078
 1962TIP3   OH2 5849   6.966   2.517   0.272
 1962TIP3    H1 5850   7.048   2.468   0.264
 1962TIP3    H2 5851   6.977   2.569   0.352
 1963TIP3   OH2 5852   5.480   2.023   1.295
 1963TIP3    H1 5853   5.541   2.024   1.368
 1963TIP3    H2 5854   5.398   2.057   1.332
 1964TIP3   OH2 5855   5.181   0.237   4.022
 1964TIP3    H1 5856   5.163   0.152   4.062
 1964TIP3    H2 5857   5.197   0.218   3.930
 1965TIP3   OH2 5858   5.121   3.594   4.784
 1965TIP3    H1 5859   5.027   3.578   4.775
 1965TIP3    H2 5860   5.163   3.516   4.747
 1966TIP3   OH2 5861   1.218   1.100   0.697
 1966TIP3    H1 5862   1.218   1.180   0.749
 1966TIP3    H2 5863   1.164   1.120   0.621
 1967TIP3   OH2 5864   4.417   0.845   0.467
 1967TIP3    H1 5865   4.329   0.859   0.502
 1967TIP3    H2 5866   4.406   0.845   0.372
 1968TIP3   OH2 5867   5.522   1.820   3.018
 1968TIP3    H1 5868   5.560   1.907   3.029
 1968TIP3    H2 5869   5.568   1.765   3.081
 1969TIP3   OH2 5870   2.396   3.770   5.311
 1969TIP3    H1 5871   2.388   3.853   5.357
 1969TIP3    H2 5872   2.396   3.704   5.381
 1970TIP3   OH2 5873   1.777   3.325   5.766
 1970TIP3    H1 5874   1.769   3.343   5.860
 1970TIP3    H2 5875   1.860   3.279   5.757
 1971TIP3   OH2 5876   7.192   0.565   4.531
 1971TIP3    H1 5877   7.135   0.588   4.605
 1971TIP3    H2 5878   7.227   0.479   4.553
 1972TIP3   OH2 5879   1.820   2.907   5.219
 1972TIP3    H1 5880   1.885   2.862   5.164
 1972TIP3    H2 5881   1.736   2.874   5.188
 1973TIP3   OH2 5882   2.266   0.130   2.922
 1973TIP3    H1 5883   2.267   0.136   2.826
 1973TIP3    H2 5884   2.331   0.194   2.951
 1974TIP3   OH2 5885   4.010   6.741   5.056
 1974TIP3    H1 5886   4.011   6.832   5.028
 1974TIP3    H2 5887   3.955   6.697   4.991
 1975TIP3   OH2 5888   2.505   4.943   4.230
 1975TIP3    H1 5889   2.442   4.878   4.261
 1975TIP3    H2 5890   2.505   4.933   4.135
 1976TIP3   OH2 5891   1.541   2.142   2.797
 1976TIP3    H1 5892   1.515   2.050   2.792
 1976TIP3    H2 5893   1.463   2.187   2.830
 1977TIP3   OH2 5894   3.385   1.944   3.616
 1977TIP3    H1 5895   3.445   1.973   3.547
 1977TIP3    H2 5896   3.318   1.893   3.570
 1978TIP3   OH2 5897   1.806   1.139   0.560
 1978TIP3    H1 5898   1.826   1.205   0.493
 1978TIP3    H2 5899   1.729   1.173   0.605
 1979TIP3   OH2 5900   3.128   2.394   4.556
 1979TIP3    H1 5901   3.188   2.451   4.605
 1979TIP3    H2 5902   3.097   2.331   4.622
 1980TIP3   OH2 5903   2.873   0.125   0.415
 1980TIP3    H1 5904   2.901   0.145   0.325
 1980TIP3    H2 5905   2.816   0.198   0.439
 1981TIP3   OH2 5906   5.570   3.969   1.887
 1981TIP3    H1 5907   5.546   3.924   1.968
 1981TIP3    H2 5908   5.541   3.911   1.817
 1982TIP3   OH2 5909   5.986   6.540   4.642
 1982TIP3    H1 5910   6.071   6.515   4.677
 1982TIP3    H2 5911   5.982   6.635   4.655
 1983TIP3   OH2 5912   4.398   2.045   0.511
 1983TIP3    H1 5913   4.427   1.981   0.447
 1983TIP3    H2 5914   4.415   2.130   0.470
 1984TIP3   OH2 5915   3.105   3.855   4.355
 1984TIP3    H1 5916   3.078   3.909   4.281
 1984TIP3    H2 5917   3.197   3.835   4.338
 1985TIP3   OH2 5918   3.324   1.151   2.336
 1985TIP3    H1 5919   3.382   1.205   2.391
 1985TIP3    H2 5920   3.331   1.189   2.249
 1986TIP3   OH2 5921   1.982   3.050   4.081
 1986TIP3    H1 5922   1.925   3.082   4.151
 1986TIP3    H2 5923   2.049   3.118   4.072
 1987TIP3   OH2 5924   5.985   2.872   3.647
 1987TIP3    H1 5925   6.036   2.793   3.627
 1987TIP3    H2 5926   5.903   2.838   3.684
 1988TIP3   OH2 5927   7.091   4.963   0.760
 1988TIP3    H1 5928   7.146   4.896   0.718
 1988TIP3    H2 5929   7.002   4.929   0.752
 1989TIP3   OH2 5930   5.232   5.196   4.260
 1989TIP3    H1 5931   5.232   5.271   4.201
 1989TIP3    H2 5932   5.150   5.150   4.240
 1990TIP3   OH2 5933   6.236   0.604   5.285
 1990TIP3    H1 5934   6.258   0.529   5.340
 1990TIP3    H2 5935   6.289   0.676   5.321
 1991TIP3   OH2 5936   5.563   4.638   4.204
 1991TIP3    H1 5937   5.554   4.731   4.181
 1991TIP3    H2 5938   5.505   4.627   4.280
 1992TIP3   OH2 5939   4.703   3.227   0.510
 1992TIP3    H1 5940   4.629   3.247   0.566
 1992TIP3    H2 5941   4.666   3.221   0.422
 1993TIP3   OH2 5942   5.723   0.875   5.294
 1993TIP3    H1 5943   5.781   0.909   5.363
 1993TIP3    H2 5944   5.776   0.877   5.215
 1994TIP3   OH2 5945   2.526   2.809   0.060
 1994TIP3    H1 5946   2.458   2.753   0.021
 1994TIP3    H2 5947   2.586   2.828  -0.012
 1995TIP3   OH2 5948   6.774   3.240   5.248
 1995TIP3    H1 5949   6.729   3.220   5.165
 1995TIP3    H2 5950   6.855   3.190   5.244
 1996TIP3   OH2 5951   0.501   6.301   3.043
 1996TIP3    H1 5952   0.424   6.276   2.991
 1996TIP3    H2 5953   0.571   6.243   3.012
 1997TIP3   OH2 5954   4.385   6.067   1.392
 1997TIP3    H1 5955   4.445   6.010   1.344
 1997TIP3    H2 5956   4.329   6.106   1.324
 1998TIP3   OH2 5957   3.925   3.210   4.380
 1998TIP3    H1 5958   3.904   3.165   4.299
 1998TIP3    H2 5959   3.840   3.240   4.413
 1999TIP3   OH2 5960   4.734   6.142   2.348
 1999TIP3    H1 5961   4.785   6.171   2.272
 1999TIP3    H2 5962   4.667   6.084   2.311
 2000TIP3   OH2 5963   1.745   2.985   1.266
 2000TIP3    H1 5964   1.746   2.986   1.362
 2000TIP3    H2 5965   1.837   2.978   1.241
 2001TIP3   OH2 5966   5.317   5.631   3.985
 2001TIP3    H1 5967   5.405   5.659   3.962
 2001TIP3    H2 5968   5.290   5.692   4.054
 2002TIP3   OH2 5969   4.318   1.951   0.120
 2002TIP3    H1 5970   4.281   1.900   0.192
 2002TIP3    H2 5971   4.401   1.908   0.100
 2003TIP3   OH2 5972   5.099   4.913   2.697
 2003TIP3    H1 5973   5.148   4.925   2.778
 2003TIP3    H2 5974   5.010   4.940   2.718
 2004TIP3   OH2 5975   2.150   3.335   3.245
 2004TIP3    H1 5976   2.172   3.381   3.327
 2004TIP3    H2 5977   2.120   3.249   3.274
 2005TIP3   OH2 5978   6.643   2.525   2.663
 2005TIP3    H1 5979   6.678   2.513   2.752
 2005TIP3    H2 5980   6.713   2.569   2.616
 2006TIP3   OH2 5981   4.945   5.376   3.786
 2006TIP3    H1 5982   4.860   5.375   3.830
 2006TIP3    H2 5983   4.955   5.288   3.749
 2007TIP3   OH2 5984   5.673   2.029   3.935
 2007TIP3    H1 5985   5.714   2.033   3.848
 2007TIP3    H2 5986   5.655   2.120   3.958
 2008TIP3   OH2 5987   5.917   0.598   2.249
 2008TIP3    H1 5988   5.887   0.529   2.190
 2008TIP3    H2 5989   5.879   0.575   2.334
 2009TIP3   OH2 5990   3.979   1.719   1.521
 2009TIP3    H1 5991   3.958   1.807   1.492
 2009TIP3    H2 5992   3.932   1.661   1.461
 2010TIP3   OH2 5993   1.724   5.637   1.239
 2010TIP3    H1 5994   1.710   5.550   1.277
 2010TIP3    H2 5995   1.650   5.689   1.272
 2011TIP3   OH2 5996   6.330   4.477   2.532
 2011TIP3    H1 5997   6.298   4.567   2.538
 2011TIP3    H2 5998   6.276   4.437   2.463
 2012TIP3   OH2 5999   2.307   5.663   4.785
 2012TIP3    H1 6000   2.286   5.605   4.859
 2012TIP3    H2 6001   2.259   5.743   4.803
 2013TIP3   OH2 6002   1.819   2.716   1.720
 2013TIP3    H1 6003   1.908   2.706   1.753
 2013TIP3    H2 6004   1.801   2.635   1.673
 2014TIP3   OH2 6005   4.188   5.938   4.969
 2014TIP3    H1 6006   4.250   5.900   4.907
 2014TIP3    H2 6007   4.176   6.028   4.938
 2015TIP3   OH2 6008   4.649   3.489   5.885
 2015TIP3    H1 6009   4.707   3.447   5.949
 2015TIP3    H2 6010   4.684   3.463   5.800
 2016TIP3   OH2 6011   2.308   6.150   2.485
 2016TIP3    H1 6012   2.342   6.189   2.565
 2016TIP3    H2 6013   2.226   6.108   2.511
 2017TIP3   OH2 6014   5.707   6.094   2.600
 2017TIP3    H1 6015   5.620   6.053   2.609
 2017TIP3    H2 6016   5.689   6.188   2.600
 2018TIP3   OH2 6017   4.634   4.056   3.108
 2018TIP3    H1 6018   4.540   4.038   3.104
 2018TIP3    H2 6019   4.646   4.099   3.192
 2019TIP3   OH2 6020   6.045   1.440   2.571
 2019TIP3    H1 6021   6.042   1.431   2.667
 2019TIP3    H2 6022   6.092   1.362   2.542
 2020TIP3   OH2 6023   5.816   1.248   1.980
 2020TIP3    H1 6024   5.808   1.224   1.888
 2020TIP3    H2 6025   5.897   1.299   1.985
 2021TIP3   OH2 6026   3.601   1.006   0.071
 2021TIP3    H1 6027   3.592   0.919   0.032
 2021TIP3    H2 6028   3.588   1.066  -0.003
 2022TIP3   OH2 6029   3.265   6.637   3.724
 2022TIP3    H1 6030   3.272   6.713   3.665
 2022TIP3    H2 6031   3.247   6.563   3.666
 2023TIP3   OH2 6032   4.996   0.872   3.639
 2023TIP3    H1 6033   5.036   0.876   3.552
 2023TIP3    H2 6034   5.057   0.918   3.695
 2024TIP3   OH2 6035   0.972   3.010   5.572
 2024TIP3    H1 6036   0.958   2.981   5.662
 2024TIP3    H2 6037   0.959   3.105   5.574
 2025TIP3   OH2 6038   1.927   6.433   5.031
 2025TIP3    H1 6039   1.944   6.515   5.078
 2025TIP3    H2 6040   1.968   6.366   5.085
 2026TIP3   OH2 6041   0.441   3.057   2.620
 2026TIP3    H1 6042   0.402   3.004   2.551
 2026TIP3    H2 6043   0.456   2.996   2.692
 2027TIP3   OH2 6044   3.733   5.022   4.664
 2027TIP3    H1 6045   3.796   5.086   4.630
 2027TIP3    H2 6046   3.721   5.047   4.755
 2028TIP3   OH2 6047   5.377   4.695   2.641
 2028TIP3    H1 6048   5.411   4.745   2.715
 2028TIP3    H2 6049   5.419   4.609   2.649
 2029TIP3   OH2 6050   7.235   3.846   2.343
 2029TIP3    H1 6051   7.224   3.901   2.421
 2029TIP3    H2 6052   7.159   3.788   2.344
 2030TIP3   OH2 6053   5.040   0.231   1.357
 2030TIP3    H1 6054   5.038   0.299   1.290
 2030TIP3    H2 6055   4.957   0.240   1.403
 2031TIP3   OH2 6056   3.201   3.839   4.877
 2031TIP3    H1 6057   3.295   3.819   4.870
 2031TIP3    H2 6058   3.190   3.918   4.823
 2032TIP3   OH2 6059   4.937   0.864   5.809
 2032TIP3    H1 6060   4.870   0.838   5.747
 2032TIP3    H2 6061   4.983   0.936   5.766
 2033TIP3   OH2 6062   4.430   5.616   1.686
 2033TIP3    H1 6063   4.437   5.584   1.596
 2033TIP3    H2 6064   4.508   5.582   1.730
 2034TIP3   OH2 6065   3.144   1.372   5.732
 2034TIP3    H1 6066   3.168   1.347   5.643
 2034TIP3    H2 6067   3.048   1.374   5.731
 2035TIP3   OH2 6068   6.768   5.951   2.842
 2035TIP3    H1 6069   6.844   5.938   2.785
 2035TIP3    H2 6070   6.785   6.033   2.887
 2036TIP3   OH2 6071   6.275   6.339   3.204
 2036TIP3    H1 6072   6.243   6.316   3.116
 2036TIP3    H2 6073   6.213   6.297   3.263
 2037TIP3   OH2 6074   1.925   6.233   4.418
 2037TIP3    H1 6075   1.838   6.259   4.447
 2037TIP3    H2 6076   1.984   6.292   4.465
 2038TIP3   OH2 6077   4.873   2.584   3.164
 2038TIP3    H1 6078   4.928   2.608   3.239
 2038TIP3    H2 6079   4.798   2.643   3.169
 2039TIP3   OH2 6080   1.913   6.566   1.957
 2039TIP3    H1 6081   1.940   6.571   1.866
 2039TIP3    H2 6082   1.970   6.500   1.996
 2040TIP3   OH2 6083   1.739   5.841   1.613
 2040TIP3    H1 6084   1.829   5.869   1.595
 2040TIP3    H2 6085   1.746   5.786   1.692
 2041TIP3   OH2 6086   1.692   2.661   3.441
 2041TIP3    H1 6087   1.616   2.631   3.390
 2041TIP3    H2 6088   1.677   2.754   3.455
 2042TIP3   OH2 6089   1.880   1.974   4.765
 2042TIP3    H1 6090   1.882   2.067   4.742
 2042TIP3    H2 6091   1.952   1.935   4.715
 2043TIP3   OH2 6092   5.881   1.613   5.880
 2043TIP3    H1 6093   5.878   1.698   5.922
 2043TIP3    H2 6094   5.789   1.593   5.858
 2044TIP3   OH2 6095   0.975   0.105   4.450
 2044TIP3    H1 6096   1.019   0.186   4.421
 2044TIP3    H2 6097   0.889   0.134   4.479
 2045TIP3   OH2 6098   6.504   3.696   3.961
 2045TIP3    H1 6099   6.593   3.728   3.976
 2045TIP3    H2 6100   6.514   3.627   3.896
 2046TIP3   OH2 6101   2.525   0.906   3.369
 2046TIP3    H1 6102   2.459   0.880   3.305
 2046TIP3    H2 6103   2.485   0.887   3.454
 2047TIP3   OH2 6104   5.816   4.380   0.789
 2047TIP3    H1 6105   5.758   4.326   0.734
 2047TIP3    H2 6106   5.862   4.318   0.845
 2048TIP3   OH2 6107   3.167   1.551   0.837
 2048TIP3    H1 6108   3.089   1.564   0.783
 2048TIP3    H2 6109   3.180   1.456   0.837
 2049TIP3   OH2 6110   1.286   1.453   3.427
 2049TIP3    H1 6111   1.255   1.422   3.513
 2049TIP3    H2 6112   1.381   1.446   3.432
 2050TIP3   OH2 6113   6.892   1.989   2.737
 2050TIP3    H1 6114   6.814   2.046   2.742
 2050TIP3    H2 6115   6.933   2.014   2.654
 2051TIP3   OH2 6116   6.183   6.096   4.818
 2051TIP3    H1 6117   6.275   6.101   4.844
 2051TIP3    H2 6118   6.164   6.002   4.815
 2052TIP3   OH2 6119   5.326   4.416   2.104
 2052TIP3    H1 6120   5.293   4.366   2.178
 2052TIP3    H2 6121   5.338   4.351   2.034
 2053TIP3   OH2 6122   7.017   5.199   3.103
 2053TIP3    H1 6123   6.945   5.230   3.049
 2053TIP3    H2 6124   7.071   5.277   3.118
 2054TIP3   OH2 6125   5.109   1.727   1.025
 2054TIP3    H1 6126   5.151   1.800   1.070
 2054TIP3    H2 6127   5.140   1.735   0.934
 2055TIP3   OH2 6128   3.823   0.332   0.933
 2055TIP3    H1 6129   3.758   0.302   0.869
 2055TIP3    H2 6130   3.781   0.406   0.977
 2056TIP3   OH2 6131   6.972   4.571   0.385
 2056TIP3    H1 6132   7.005   4.482   0.396
 2056TIP3    H2 6133   6.971   4.586   0.291
 2057TIP3   OH2 6134   4.153   4.827   4.714
 2057TIP3    H1 6135   4.216   4.846   4.784
 2057TIP3    H2 6136   4.189   4.750   4.670
 2058TIP3   OH2 6137   5.342   1.341   4.411
 2058TIP3    H1 6138   5.302   1.287   4.479
 2058TIP3    H2 6139   5.425   1.296   4.391
 2059TIP3   OH2 6140   0.408   5.225   4.863
 2059TIP3    H1 6141   0.400   5.319   4.881
 2059TIP3    H2 6142   0.500   5.212   4.843
 2060TIP3   OH2 6143   0.669   0.782   1.081
 2060TIP3    H1 6144   0.595   0.794   1.022
 2060TIP3    H2 6145   0.629   0.758   1.165
 2061TIP3   OH2 6146   5.181   0.422   5.380
 2061TIP3    H1 6147   5.248   0.457   5.321
 2061TIP3    H2 6148   5.142   0.500   5.420
 2062TIP3   OH2 6149   2.386   1.269   5.625
 2062TIP3    H1 6150   2.330   1.192   5.621
 2062TIP3    H2 6151   2.353   1.326   5.555
 2063TIP3   OH2 6152   0.619   1.472   1.803
 2063TIP3    H1 6153   0.663   1.446   1.884
 2063TIP3    H2 6154   0.628   1.395   1.746
 2064TIP3   OH2 6155   3.192   5.604   5.080
 2064TIP3    H1 6156   3.125   5.622   5.014
 2064TIP3    H2 6157   3.262   5.560   5.031
 2065TIP3   OH2 6158   5.946   6.540   1.436
 2065TIP3    H1 6159   5.874   6.554   1.374
 2065TIP3    H2 6160   5.927   6.600   1.509
 2066TIP3   OH2 6161   5.364   3.301   3.579
 2066TIP3    H1 6162   5.442   3.350   3.551
 2066TIP3    H2 6163   5.291   3.345   3.534
 2067TIP3   OH2 6164   4.836   6.606   4.857
 2067TIP3    H1 6165   4.901   6.676   4.861
 2067TIP3    H2 6166   4.790   6.621   4.774
 2068TIP3   OH2 6167   2.369   6.615   1.595
 2068TIP3    H1 6168   2.363   6.596   1.501
 2068TIP3    H2 6169   2.456   6.584   1.619
 2069TIP3   OH2 6170   4.746   0.788   2.291
 2069TIP3    H1 6171   4.788   0.776   2.376
 2069TIP3    H2 6172   4.811   0.834   2.238
 2070TIP3   OH2 6173   7.066   0.725   2.818
 2070TIP3    H1 6174   7.011   0.677   2.756
 2070TIP3    H2 6175   7.004   0.776   2.869
 2071TIP3   OH2 6176   5.932   0.041   2.184
 2071TIP3    H1 6177   5.847   0.005   2.158
 2071TIP3    H2 6178   5.994  -0.029   2.164
 2072TIP3   OH2 6179   4.632   6.261   4.608
 2072TIP3    H1 6180   4.589   6.187   4.650
 2072TIP3    H2 6181   4.710   6.224   4.566
 2073TIP3   OH2 6182   4.248   1.138   0.310
 2073TIP3    H1 6183   4.314   1.139   0.241
 2073TIP3    H2 6184   4.240   1.046   0.335
 2074TIP3   OH2 6185   2.239   5.975   1.223
 2074TIP3    H1 6186   2.153   6.006   1.252
 2074TIP3    H2 6187   2.240   5.991   1.129
 2075TIP3   OH2 6188   5.681   2.662   0.575
 2075TIP3    H1 6189   5.589   2.637   0.588
 2075TIP3    H2 6190   5.707   2.616   0.495
 2076TIP3   OH2 6191   6.624   5.018   4.036
 2076TIP3    H1 6192   6.657   4.940   4.081
 2076TIP3    H2 6193   6.595   5.077   4.106
 2077TIP3   OH2 6194   1.166   4.129   5.138
 2077TIP3    H1 6195   1.230   4.071   5.180
 2077TIP3    H2 6196   1.089   4.124   5.194
 2078TIP3   OH2 6197   1.469   1.043   0.583
 2078TIP3    H1 6198   1.393   1.047   0.641
 2078TIP3    H2 6199   1.507   0.956   0.599
 2079TIP3   OH2 6200   2.663   4.658   2.407
 2079TIP3    H1 6201   2.757   4.674   2.415
 2079TIP3    H2 6202   2.655   4.606   2.327
 2080TIP3   OH2 6203   0.447   0.397   0.895
 2080TIP3    H1 6204   0.360   0.394   0.857
 2080TIP3    H2 6205   0.432   0.415   0.988
 2081TIP3   OH2 6206   2.238   6.405   1.810
 2081TIP3    H1 6207   2.213   6.426   1.900
 2081TIP3    H2 6208   2.190   6.468   1.757
 2082TIP3   OH2 6209   1.952   2.887   3.779
 2082TIP3    H1 6210   1.966   2.812   3.836
 2082TIP3    H2 6211   1.868   2.923   3.808
 2083TIP3   OH2 6212   3.011   5.316   0.767
 2083TIP3    H1 6213   3.013   5.330   0.862
 2083TIP3    H2 6214   3.039   5.399   0.730
 2084TIP3   OH2 6215   3.542   0.227   3.725
 2084TIP3    H1 6216   3.609   0.174   3.768
 2084TIP3    H2 6217   3.494   0.268   3.797
 2085TIP3   OH2 6218   5.533   1.557   5.648
 2085TIP3    H1 6219   5.452   1.597   5.617
 2085TIP3    H2 6220   5.554   1.605   5.728
 2086TIP3   OH2 6221   6.795   6.787   4.412
 2086TIP3    H1 6222   6.830   6.717   4.357
 2086TIP3    H2 6223   6.707   6.802   4.379
 2087TIP3   OH2 6224   1.371   6.145   5.672
 2087TIP3    H1 6225   1.311   6.092   5.724
 2087TIP3    H2 6226   1.452   6.147   5.724
 2088TIP3   OH2 6227   1.912   3.652   2.766
 2088TIP3    H1 6228   1.969   3.723   2.733
 2088TIP3    H2 6229   1.915   3.662   2.861
 2089TIP3   OH2 6230   4.352   1.180   0.595
 2089TIP3    H1 6231   4.267   1.155   0.630
 2089TIP3    H2 6232   4.331   1.225   0.513
 2090TIP3   OH2 6233   0.813   5.182   0.841
 2090TIP3    H1 6234   0.902   5.166   0.811
 2090TIP3    H2 6235   0.783   5.098   0.877
 2091TIP3   OH2 6236   5.318   6.487   1.482
 2091TIP3    H1 6237   5.270   6.560   1.522
 2091TIP3    H2 6238   5.392   6.527   1.437
 2092TIP3   OH2 6239   3.219   1.136   0.159
 2092TIP3    H1 6240   3.162   1.213   0.164
 2092TIP3    H2 6241   3.288   1.153   0.223
 2093TIP3   OH2 6242   1.951   3.223   2.178
 2093TIP3    H1 6243   1.895   3.145   2.183
 2093TIP3    H2 6244   2.005   3.209   2.101
 2094TIP3   OH2 6245   3.503   4.853   5.762
 2094TIP3    H1 6246   3.450   4.777   5.740
 2094TIP3    H2 6247   3.450   4.902   5.826
 2095TIP3   OH2 6248   1.031   6.062   1.367
 2095TIP3    H1 6249   0.940   6.086   1.351
 2095TIP3    H2 6250   1.081   6.115   1.305
 2096TIP3   OH2 6251   5.209   3.861   1.723
 2096TIP3    H1 6252   5.184   3.918   1.651
 2096TIP3    H2 6253   5.178   3.906   1.802
 2097TIP3   OH2 6254   3.124   1.724   4.028
 2097TIP3    H1 6255   3.097   1.791   4.091
 2097TIP3    H2 6256   3.218   1.713   4.044
 2098TIP3   OH2 6257   1.249   2.903   3.982
 2098TIP3    H1 6258   1.159   2.900   4.014
 2098TIP3    H2 6259   1.255   2.986   3.935
 2099TIP3   OH2 6260   6.039   4.569   5.390
 2099TIP3    H1 6261   6.122   4.528   5.364
 2099TIP3    H2 6262   6.042   4.569   5.486
 2100TIP3   OH2 6263   5.741   5.886   4.293
 2100TIP3    H1 6264   5.723   5.877   4.199
 2100TIP3    H2 6265   5.823   5.839   4.306
 2101TIP3   OH2 6266   2.389   5.077   1.479
 2101TIP3    H1 6267   2.456   5.100   1.544
 2101TIP3    H2 6268   2.398   4.982   1.469
 2102TIP3   OH2 6269   5.418   0.896   0.664
 2102TIP3    H1 6270   5.402   0.946   0.585
 2102TIP3    H2 6271   5.397   0.805   0.640
 2103TIP3   OH2 6272   0.179   2.726   4.059
 2103TIP3    H1 6273   0.098   2.676   4.061
 2103TIP3    H2 6274   0.155   2.810   4.019
 2104TIP3   OH2 6275   4.833   1.025   0.611
 2104TIP3    H1 6276   4.854   0.956   0.674
 2104TIP3    H2 6277   4.738   1.026   0.607
 2105TIP3   OH2 6278   2.917   0.662   0.860
 2105TIP3    H1 6279   2.872   0.745   0.878
 2105TIP3    H2 6280   3.002   0.688   0.824
 2106TIP3   OH2 6281   1.914   0.510   4.719
 2106TIP3    H1 6282   1.869   0.537   4.638
 2106TIP3    H2 6283   1.986   0.573   4.728
 2107TIP3   OH2 6284   4.468   5.773   0.698
 2107TIP3    H1 6285   4.415   5.795   0.775
 2107TIP3    H2 6286   4.432   5.828   0.628
 2108TIP3   OH2 6287   4.427   2.779   1.519
 2108TIP3    H1 6288   4.416   2.826   1.437
 2108TIP3    H2 6289   4.512   2.809   1.552
 2109TIP3   OH2 6290   3.142   4.527   5.096
 2109TIP3    H1 6291   3.224   4.509   5.141
 2109TIP3    H2 6292   3.081   4.462   5.130
 2110TIP3   OH2 6293   1.771   0.071   0.302
 2110TIP3    H1 6294   1.732   0.140   0.248
 2110TIP3    H2 6295   1.817   0.118   0.372
 2111TIP3   OH2 6296   2.155   1.946   1.026
 2111TIP3    H1 6297   2.127   1.882   1.090
 2111TIP3    H2 6298   2.245   1.920   1.004
 2112TIP3   OH2 6299   2.923   3.597   5.480
 2112TIP3    H1 6300   2.857   3.667   5.491
 2112TIP3    H2 6301   2.878   3.529   5.430
 2113TIP3   OH2 6302   3.217   4.439   0.225
 2113TIP3    H1 6303   3.232   4.345   0.231
 2113TIP3    H2 6304   3.252   4.475   0.307
 2114TIP3   OH2 6305   5.740   2.400   0.476
 2114TIP3    H1 6306   5.824   2.444   0.480
 2114TIP3    H2 6307   5.752   2.319   0.526
 2115TIP3   OH2 6308   0.588   1.196   1.082
 2115TIP3    H1 6309   0.539   1.245   1.149
 2115TIP3    H2 6310   0.531   1.197   1.005
 2116TIP3   OH2 6311   1.947   1.031   3.867
 2116TIP3    H1 6312   1.914   1.112   3.906
 2116TIP3    H2 6313   1.966   0.974   3.941
 2117TIP3   OH2 6314   4.376   3.102   0.953
 2117TIP3    H1 6315   4.369   3.007   0.964
 2117TIP3    H2 6316   4.285   3.133   0.956
 2118TIP3   OH2 6317   3.590   4.929   4.465
 2118TIP3    H1 6318   3.637   4.961   4.542
 2118TIP3    H2 6319   3.498   4.927   4.491
 2119TIP3   OH2 6320   4.219   2.133   5.055
 2119TIP3    H1 6321   4.164   2.110   4.979
 2119TIP3    H2 6322   4.302   2.089   5.039
 2120TIP3   OH2 6323   2.458   2.762   4.094
 2120TIP3    H1 6324   2.364   2.744   4.101
 2120TIP3    H2 6325   2.463   2.829   4.026
 2121TIP3   OH2 6326   7.080   4.419   5.261
 2121TIP3    H1 6327   7.074   4.480   5.187
 2121TIP3    H2 6328   6.994   4.378   5.265
 2122TIP3   OH2 6329   2.528   4.525   0.143
 2122TIP3    H1 6330   2.550   4.471   0.067
 2122TIP3    H2 6331   2.433   4.527   0.144
 2123TIP3   OH2 6332   2.192   2.908   1.968
 2123TIP3    H1 6333   2.176   2.834   1.910
 2123TIP3    H2 6334   2.279   2.940   1.943
 2124TIP3   OH2 6335   0.278   5.350   4.244
 2124TIP3    H1 6336   0.184   5.353   4.225
 2124TIP3    H2 6337   0.318   5.402   4.175
 2125TIP3   OH2 6338   3.398   2.462   1.310
 2125TIP3    H1 6339   3.422   2.522   1.380
 2125TIP3    H2 6340   3.408   2.375   1.349
 2126TIP3   OH2 6341   5.959   2.486   5.201
 2126TIP3    H1 6342   5.959   2.570   5.246
 2126TIP3    H2 6343   6.021   2.497   5.129
 2127TIP3   OH2 6344   2.950   5.815   1.000
 2127TIP3    H1 6345   2.982   5.850   1.083
 2127TIP3    H2 6346   2.874   5.869   0.979
 2128TIP3   OH2 6347   4.448   1.858   3.809
 2128TIP3    H1 6348   4.404   1.891   3.731
 2128TIP3    H2 6349   4.542   1.862   3.787
 2129TIP3   OH2 6350   1.388   1.640   0.077
 2129TIP3    H1 6351   1.367   1.589   0.155
 2129TIP3    H2 6352   1.350   1.588   0.005
 2130TIP3   OH2 6353   3.064   6.614   0.055
 2130TIP3    H1 6354   3.069   6.558  -0.022
 2130TIP3    H2 6355   3.125   6.575   0.118
 2131TIP3   OH2 6356   5.523   5.130   5.324
 2131TIP3    H1 6357   5.489   5.131   5.234
 2131TIP3    H2 6358   5.461   5.076   5.373
 2132TIP3   OH2 6359   0.989   0.751   4.856
 2132TIP3    H1 6360   1.075   0.790   4.842
 2132TIP3    H2 6361   1.000   0.659   4.832
 2133TIP3   OH2 6362   3.478   1.875   5.436
 2133TIP3    H1 6363   3.548   1.828   5.482
 2133TIP3    H2 6364   3.403   1.815   5.440
 2134TIP3   OH2 6365   7.076   1.415   1.999
 2134TIP3    H1 6366   7.077   1.502   1.958
 2134TIP3    H2 6367   7.055   1.432   2.091
 2135TIP3   OH2 6368   0.958   2.237   4.047
 2135TIP3    H1 6369   1.021   2.275   4.109
 2135TIP3    H2 6370   0.879   2.290   4.059
 2136TIP3   OH2 6371   4.227   5.289   0.731
 2136TIP3    H1 6372   4.209   5.343   0.654
 2136TIP3    H2 6373   4.149   5.298   0.786
 2137TIP3   OH2 6374   0.266   6.605   3.908
 2137TIP3    H1 6375   0.216   6.645   3.979
 2137TIP3    H2 6376   0.216   6.624   3.829
 2138TIP3   OH2 6377   6.534   5.018   0.370
 2138TIP3    H1 6378   6.537   4.996   0.463
 2138TIP3    H2 6379   6.450   4.983   0.340
 2139TIP3   OH2 6380   3.854   1.599   2.328
 2139TIP3    H1 6381   3.934   1.618   2.377
 2139TIP3    H2 6382   3.822   1.685   2.300
 2140TIP3   OH2 6383   3.416   2.822   1.878
 2140TIP3    H1 6384   3.486   2.800   1.939
 2140TIP3    H2 6385   3.450   2.798   1.792
 2141TIP3   OH2 6386   1.629   1.064   1.984
 2141TIP3    H1 6387   1.553   1.054   2.042
 2141TIP3    H2 6388   1.676   0.981   1.992
 2142TIP3   OH2 6389   6.559   0.976   1.500
 2142TIP3    H1 6390   6.515   0.892   1.509
 2142TIP3    H2 6391   6.566   1.009   1.590
 2143TIP3   OH2 6392   0.849   2.387   3.565
 2143TIP3    H1 6393   0.822   2.376   3.656
 2143TIP3    H2 6394   0.771   2.365   3.514
 2144TIP3   OH2 6395   7.098   1.885   4.246
 2144TIP3    H1 6396   7.186   1.862   4.273
 2144TIP3    H2 6397   7.063   1.805   4.206
 2145TIP3   OH2 6398   0.279   2.869   1.395
 2145TIP3    H1 6399   0.242   2.783   1.412
 2145TIP3    H2 6400   0.202   2.927   1.390
 2146TIP3   OH2 6401   6.145   5.985   0.858
 2146TIP3    H1 6402   6.183   6.015   0.776
 2146TIP3    H2 6403   6.181   5.897   0.870
 2147TIP3   OH2 6404   2.738  -0.012   4.202
 2147TIP3    H1 6405   2.798  -0.028   4.129
 2147TIP3    H2 6406   2.656  -0.054   4.175
 2148TIP3   OH2 6407   5.993   1.143   1.267
 2148TIP3    H1 6408   6.025   1.218   1.316
 2148TIP3    H2 6409   6.033   1.067   1.309
 2149TIP3   OH2 6410   0.695   6.018   2.970
 2149TIP3    H1 6411   0.646   5.955   3.024
 2149TIP3    H2 6412   0.787   6.001   2.990
 2150TIP3   OH2 6413   1.817   3.747   0.723
 2150TIP3    H1 6414   1.721   3.744   0.727
 2150TIP3    H2 6415   1.842   3.658   0.695
 2151TIP3   OH2 6416   1.285   2.340   5.654
 2151TIP3    H1 6417   1.232   2.400   5.603
 2151TIP3    H2 6418   1.352   2.395   5.694
 2152TIP3   OH2 6419   0.311   1.823   2.561
 2152TIP3    H1 6420   0.371   1.828   2.486
 2152TIP3    H2 6421   0.364   1.784   2.631
 2153TIP3   OH2 6422   1.566   3.901   4.264
 2153TIP3    H1 6423   1.506   3.903   4.190
 2153TIP3    H2 6424   1.626   3.829   4.244
 2154TIP3   OH2 6425   2.270   3.245   1.742
 2154TIP3    H1 6426   2.286   3.339   1.730
 2154TIP3    H2 6427   2.355   3.204   1.726
 2155TIP3   OH2 6428   3.264   4.958   2.423
 2155TIP3    H1 6429   3.235   4.908   2.499
 2155TIP3    H2 6430   3.342   5.006   2.453
 2156TIP3   OH2 6431   2.911   0.497   4.460
 2156TIP3    H1 6432   2.931   0.405   4.475
 2156TIP3    H2 6433   2.815   0.499   4.452
 2157TIP3   OH2 6434   3.734   2.719   3.559
 2157TIP3    H1 6435   3.665   2.728   3.625
 2157TIP3    H2 6436   3.804   2.776   3.589
 2158TIP3   OH2 6437   6.829   2.316   0.952
 2158TIP3    H1 6438   6.858   2.228   0.930
 2158TIP3    H2 6439   6.870   2.335   1.036
 2159TIP3   OH2 6440   2.668   6.342   1.518
 2159TIP3    H1 6441   2.649   6.430   1.549
 2159TIP3    H2 6442   2.726   6.354   1.443
 2160TIP3   OH2 6443   6.453   5.940   5.875
 2160TIP3    H1 6444   6.397   5.864   5.865
 2160TIP3    H2 6445   6.542   5.906   5.864
 2161TIP3   OH2 6446   3.501   2.841   1.173
 2161TIP3    H1 6447   3.537   2.906   1.111
 2161TIP3    H2 6448   3.576   2.815   1.226
 2162TIP3   OH2 6449   1.362   3.919   0.029
 2162TIP3    H1 6450   1.313   3.840   0.049
 2162TIP3    H2 6451   1.396   3.905  -0.060
 2163TIP3   OH2 6452   5.644   2.870   5.011
 2163TIP3    H1 6453   5.602   2.888   4.927
 2163TIP3    H2 6454   5.584   2.810   5.056
 2164TIP3   OH2 6455   5.828   5.817   2.062
 2164TIP3    H1 6456   5.817   5.884   2.130
 2164TIP3    H2 6457   5.752   5.759   2.073
 2165TIP3   OH2 6458   5.643   1.619   4.101
 2165TIP3    H1 6459   5.703   1.598   4.030
 2165TIP3    H2 6460   5.559   1.584   4.073
 2166TIP3   OH2 6461   4.030   4.250   1.291
 2166TIP3    H1 6462   4.103   4.311   1.279
 2166TIP3    H2 6463   3.988   4.246   1.205
 2167TIP3   OH2 6464   0.344   5.766   3.955
 2167TIP3    H1 6465   0.287   5.828   3.910
 2167TIP3    H2 6466   0.364   5.808   4.039
 2168TIP3   OH2 6467   5.600   3.046   1.418
 2168TIP3    H1 6468   5.689   3.069   1.391
 2168TIP3    H2 6469   5.577   2.970   1.365
 2169TIP3   OH2 6470   5.136   4.047   5.281
 2169TIP3    H1 6471   5.163   3.984   5.348
 2169TIP3    H2 6472   5.188   4.125   5.298
 2170TIP3   OH2 6473   2.225   5.877   5.701
 2170TIP3    H1 6474   2.289   5.817   5.664
 2170TIP3    H2 6475   2.148   5.823   5.717
 2171TIP3   OH2 6476   3.088   2.949   1.219
 2171TIP3    H1 6477   3.152   2.947   1.290
 2171TIP3    H2 6478   3.113   3.024   1.166
 2172TIP3   OH2 6479   5.390   3.619   3.040
 2172TIP3    H1 6480   5.310   3.575   3.069
 2172TIP3    H2 6481   5.460   3.561   3.069
 2173TIP3   OH2 6482   5.724   0.293   3.698
 2173TIP3    H1 6483   5.817   0.271   3.704
 2173TIP3    H2 6484   5.703   0.328   3.785
 2174TIP3   OH2 6485   4.403   1.046   2.580
 2174TIP3    H1 6486   4.458   1.091   2.644
 2174TIP3    H2 6487   4.464   1.014   2.514
 2175TIP3   OH2 6488   6.227   3.013   5.694
 2175TIP3    H1 6489   6.162   2.968   5.748
 2175TIP3    H2 6490   6.282   3.061   5.757
 2176TIP3   OH2 6491   4.097   5.213   5.155
 2176TIP3    H1 6492   4.032   5.280   5.134
 2176TIP3    H2 6493   4.105   5.161   5.075
 2177TIP3   OH2 6494   4.219   6.512   1.011
 2177TIP3    H1 6495   4.160   6.437   1.016
 2177TIP3    H2 6496   4.270   6.497   0.932
 2178TIP3   OH2 6497   1.593   5.432   5.074
 2178TIP3    H1 6498   1.650   5.355   5.079
 2178TIP3    H2 6499   1.622   5.487   5.147
 2179TIP3   OH2 6500   6.529   4.452   3.433
 2179TIP3    H1 6501   6.533   4.492   3.346
 2179TIP3    H2 6502   6.458   4.498   3.477
 2180TIP3   OH2 6503   5.951   3.580   5.816
 2180TIP3    H1 6504   5.860   3.550   5.814
 2180TIP3    H2 6505   5.945   3.671   5.845
 2181TIP3   OH2 6506   3.747   3.662   2.305
 2181TIP3    H1 6507   3.701   3.656   2.221
 2181TIP3    H2 6508   3.800   3.742   2.298
 2182TIP3   OH2 6509   2.189   6.421   4.475
 2182TIP3    H1 6510   2.185   6.517   4.474
 2182TIP3    H2 6511   2.169   6.397   4.566
 2183TIP3   OH2 6512   5.212   1.508   2.807
 2183TIP3    H1 6513   5.118   1.497   2.822
 2183TIP3    H2 6514   5.231   1.596   2.839
 2184TIP3   OH2 6515   7.097   5.269   3.564
 2184TIP3    H1 6516   7.087   5.176   3.545
 2184TIP3    H2 6517   7.165   5.299   3.505
 2185TIP3   OH2 6518   5.035   5.088   0.736
 2185TIP3    H1 6519   5.047   5.139   0.816
 2185TIP3    H2 6520   4.952   5.042   0.750
 2186TIP3   OH2 6521   5.577   1.539   1.994
 2186TIP3    H1 6522   5.608   1.471   1.934
 2186TIP3    H2 6523   5.510   1.496   2.047
 2187TIP3   OH2 6524   4.872   5.051   5.107
 2187TIP3    H1 6525   4.847   5.130   5.059
 2187TIP3    H2 6526   4.966   5.043   5.092
 2188TIP3   OH2 6527   2.555   6.279   0.562
 2188TIP3    H1 6528   2.632   6.293   0.507
 2188TIP3    H2 6529   2.489   6.339   0.525
 2189TIP3   OH2 6530   4.936   3.017   1.870
 2189TIP3    H1 6531   4.918   3.106   1.903
 2189TIP3    H2 6532   5.020   2.994   1.908
 2190TIP3   OH2 6533   3.410   1.663   2.621
 2190TIP3    H1 6534   3.454   1.720   2.683
 2190TIP3    H2 6535   3.470   1.658   2.546
 2191TIP3   OH2 6536   0.121   3.017   4.357
 2191TIP3    H1 6537   0.121   2.921   4.361
 2191TIP3    H2 6538   0.070   3.043   4.434
 2192TIP3   OH2 6539   3.720   4.954   0.779
 2192TIP3    H1 6540   3.790   4.912   0.829
 2192TIP3    H2 6541   3.646   4.959   0.839
 2193TIP3   OH2 6542   4.271   5.472   1.387
 2193TIP3    H1 6543   4.333   5.531   1.346
 2193TIP3    H2 6544   4.185   5.512   1.372
 2194TIP3   OH2 6545   5.985   6.010   4.219
 2194TIP3    H1 6546   5.905   6.022   4.169
 2194TIP3    H2 6547   5.988   6.084   4.280
 2195TIP3   OH2 6548   4.115   3.920   0.360
 2195TIP3    H1 6549   4.090   3.961   0.277
 2195TIP3    H2 6550   4.035   3.925   0.413
 2196TIP3   OH2 6551   0.358   1.735   3.833
 2196TIP3    H1 6552   0.388   1.726   3.923
 2196TIP3    H2 6553   0.438   1.748   3.782
 2197TIP3   OH2 6554   4.787   0.434   0.005
 2197TIP3    H1 6555   4.734   0.409  -0.070
 2197TIP3    H2 6556   4.734   0.499   0.051
 2198TIP3   OH2 6557   0.731   2.324   3.798
 2198TIP3    H1 6558   0.737   2.360   3.886
 2198TIP3    H2 6559   0.728   2.229   3.811
 2199TIP3   OH2 6560   6.294   5.448   0.307
 2199TIP3    H1 6561   6.226   5.498   0.353
 2199TIP3    H2 6562   6.277   5.463   0.215
 2200TIP3   OH2 6563   0.680   3.325   5.231
 2200TIP3    H1 6564   0.644   3.339   5.143
 2200TIP3    H2 6565   0.610   3.354   5.290
 2201TIP3   OH2 6566   0.115   0.746   2.717
 2201TIP3    H1 6567   0.033   0.713   2.755
 2201TIP3    H2 6568   0.183   0.699   2.765
 2202TIP3   OH2 6569   2.316   5.298   3.350
 2202TIP3    H1 6570   2.407   5.308   3.380
 2202TIP3    H2 6571   2.273   5.249   3.420
 2203TIP3   OH2 6572   1.125   5.204   0.924
 2203TIP3    H1 6573   1.106   5.256   1.002
 2203TIP3    H2 6574   1.106   5.114   0.950
 2204TIP3   OH2 6575   3.942   4.709   5.085
 2204TIP3    H1 6576   3.988   4.772   5.141
 2204TIP3    H2 6577   3.871   4.675   5.140
 2205TIP3   OH2 6578   0.870   6.495   2.387
 2205TIP3    H1 6579   0.899   6.409   2.419
 2205TIP3    H2 6580   0.802   6.474   2.323
 2206TIP3   OH2 6581   0.649   3.831   3.532
 2206TIP3    H1 6582   0.603   3.896   3.585
 2206TIP3    H2 6583   0.613   3.747   3.560
 2207TIP3   OH2 6584   1.403   1.027   4.228
 2207TIP3    H1 6585   1.420   1.047   4.320
 2207TIP3    H2 6586   1.489   1.028   4.186
 2208TIP3   OH2 6587   6.226   3.422   0.825
 2208TIP3    H1 6588   6.222   3.327   0.808
 2208TIP3    H2 6589   6.160   3.436   0.893
 2209TIP3   OH2 6590   5.010   2.653   3.390
 2209TIP3    H1 6591   5.012   2.716   3.462
 2209TIP3    H2 6592   5.017   2.568   3.433
 2210TIP3   OH2 6593   2.018   2.896   4.801
 2210TIP3    H1 6594   2.101   2.886   4.755
 2210TIP3    H2 6595   2.034   2.861   4.888
 2211TIP3   OH2 6596   2.058   1.869   5.623
 2211TIP3    H1 6597   2.031   1.822   5.545
 2211TIP3    H2 6598   2.039   1.810   5.695
 2212TIP3   OH2 6599   0.087   5.380   4.780
 2212TIP3    H1 6600   0.162   5.418   4.825
 2212TIP3    H2 6601   0.106   5.394   4.687
 2213TIP3   OH2 6602   1.471   0.443   1.317
 2213TIP3    H1 6603   1.408   0.376   1.343
 2213TIP3    H2 6604   1.533   0.397   1.261
 2214TIP3   OH2 6605   4.129   6.669   2.556
 2214TIP3    H1 6606   4.203   6.728   2.547
 2214TIP3    H2 6607   4.137   6.635   2.646
 2215TIP3   OH2 6608   4.368   3.946   3.219
 2215TIP3    H1 6609   4.359   3.971   3.311
 2215TIP3    H2 6610   4.374   3.850   3.222
 2216TIP3   OH2 6611   6.014   3.484   4.041
 2216TIP3    H1 6612   6.094   3.520   4.003
 2216TIP3    H2 6613   5.969   3.443   3.967
 2217TIP3   OH2 6614   2.158   2.829   0.187
 2217TIP3    H1 6615   2.181   2.838   0.095
 2217TIP3    H2 6616   2.200   2.747   0.215
 2218TIP3   OH2 6617   5.245   2.877   5.292
 2218TIP3    H1 6618   5.193   2.949   5.256
 2218TIP3    H2 6619   5.297   2.845   5.218
 2219TIP3   OH2 6620   4.333   2.197   2.331
 2219TIP3    H1 6621   4.268   2.210   2.400
 2219TIP3    H2 6622   4.417   2.210   2.374
 2220TIP3   OH2 6623   5.917   0.265   2.827
 2220TIP3    H1 6624   5.970   0.339   2.858
 2220TIP3    H2 6625   5.860   0.302   2.760
 2221TIP3   OH2 6626   4.358   3.827   3.985
 2221TIP3    H1 6627   4.422   3.767   4.025
 2221TIP3    H2 6628   4.274   3.802   4.024
 2222TIP3   OH2 6629   6.491   3.255   2.930
 2222TIP3    H1 6630   6.456   3.169   2.953
 2222TIP3    H2 6631   6.536   3.285   3.009
 2223TIP3   OH2 6632   4.940   1.174   0.973
 2223TIP3    H1 6633   5.027   1.193   0.940
 2223TIP3    H2 6634   4.930   1.229   1.051
 2224TIP3   OH2 6635   1.345   0.897   0.341
 2224TIP3    H1 6636   1.355   0.972   0.283
 2224TIP3    H2 6637   1.338   0.935   0.429
 2225TIP3   OH2 6638   4.400   3.559   1.324
 2225TIP3    H1 6639   4.456   3.620   1.371
 2225TIP3    H2 6640   4.411   3.582   1.231
 2226TIP3   OH2 6641   3.410   2.403   3.100
 2226TIP3    H1 6642   3.431   2.384   3.192
 2226TIP3    H2 6643   3.314   2.403   3.098
 2227TIP3   OH2 6644   0.801   6.205   4.266
 2227TIP3    H1 6645   0.764   6.130   4.219
 2227TIP3    H2 6646   0.893   6.181   4.280
 2228TIP3   OH2 6647   4.638   5.456   3.640
 2228TIP3    H1 6648   4.655   5.493   3.726
 2228TIP3    H2 6649   4.583   5.380   3.656
 2229TIP3   OH2 6650   0.964   0.204   1.649
 2229TIP3    H1 6651   0.944   0.295   1.626
 2229TIP3    H2 6652   0.885   0.174   1.695
 2230TIP3   OH2 6653   1.907   3.726   3.042
 2230TIP3    H1 6654   1.889   3.804   2.990
 2230TIP3    H2 6655   1.917   3.758   3.131
 2231TIP3   OH2 6656   5.068   3.054   5.535
 2231TIP3    H1 6657   5.090   2.961   5.529
 2231TIP3    H2 6658   5.100   3.092   5.454
 2232TIP3   OH2 6659   4.261   0.608   1.845
 2232TIP3    H1 6660   4.252   0.619   1.940
 2232TIP3    H2 6661   4.351   0.637   1.826
 2233TIP3   OH2 6662   2.899   4.450   5.187
 2233TIP3    H1 6663   2.877   4.528   5.136
 2233TIP3    H2 6664   2.856   4.378   5.141
 2234TIP3   OH2 6665   7.086   2.402   0.827
 2234TIP3    H1 6666   7.005   2.366   0.864
 2234TIP3    H2 6667   7.103   2.481   0.879
 2235TIP3   OH2 6668   5.648   4.501   2.958
 2235TIP3    H1 6669   5.735   4.467   2.980
 2235TIP3    H2 6670   5.628   4.563   3.027
 2236TIP3   OH2 6671   4.550   0.217   1.361
 2236TIP3    H1 6672   4.535   0.307   1.390
 2236TIP3    H2 6673   4.546   0.221   1.266
 2237TIP3   OH2 6674   1.335   2.982   5.224
 2237TIP3    H1 6675   1.365   2.897   5.190
 2237TIP3    H2 6676   1.415   3.023   5.257
 2238TIP3   OH2 6677   7.238   6.308   4.660
 2238TIP3    H1 6678   7.155   6.357   4.658
 2238TIP3    H2 6679   7.253   6.284   4.568
 2239TIP3   OH2 6680   1.835   1.555   1.105
 2239TIP3    H1 6681   1.810   1.503   1.028
 2239TIP3    H2 6682   1.857   1.490   1.172
 2240TIP3   OH2 6683   5.337   1.266   2.734
 2240TIP3    H1 6684   5.420   1.248   2.689
 2240TIP3    H2 6685   5.339   1.359   2.754
 2241TIP3   OH2 6686   0.363   1.819   1.735
 2241TIP3    H1 6687   0.408   1.814   1.819
 2241TIP3    H2 6688   0.376   1.909   1.706
 2242TIP3   OH2 6689   3.192   0.661   1.737
 2242TIP3    H1 6690   3.230   0.582   1.699
 2242TIP3    H2 6691   3.107   0.633   1.771
 2243TIP3   OH2 6692   3.889   3.208   3.696
 2243TIP3    H1 6693   3.845   3.234   3.776
 2243TIP3    H2 6694   3.911   3.290   3.652
 2244TIP3   OH2 6695   1.441   6.352   2.040
 2244TIP3    H1 6696   1.369   6.291   2.056
 2244TIP3    H2 6697   1.470   6.332   1.950
 2245TIP3   OH2 6698   5.966   5.292   5.487
 2245TIP3    H1 6699   6.008   5.274   5.570
 2245TIP3    H2 6700   5.875   5.312   5.509
 2246TIP3   OH2 6701   2.240   0.211   0.314
 2246TIP3    H1 6702   2.264   0.279   0.377
 2246TIP3    H2 6703   2.166   0.248   0.265
 2247TIP3   OH2 6704   0.491   4.712   1.937
 2247TIP3    H1 6705   0.515   4.674   2.022
 2247TIP3    H2 6706   0.459   4.799   1.958
 2248TIP3   OH2 6707   6.118   6.551   2.974
 2248TIP3    H1 6708   6.079   6.490   3.036
 2248TIP3    H2 6709   6.112   6.507   2.889
 2249TIP3   OH2 6710   2.008   2.639   2.078
 2249TIP3    H1 6711   2.029   2.655   1.986
 2249TIP3    H2 6712   2.027   2.723   2.121
 2250TIP3   OH2 6713   5.785   0.831   1.286
 2250TIP3    H1 6714   5.836   0.902   1.247
 2250TIP3    H2 6715   5.834   0.752   1.262
 2251TIP3   OH2 6716   6.928   3.007   4.994
 2251TIP3    H1 6717   6.921   3.018   5.089
 2251TIP3    H2 6718   7.015   3.041   4.973
 2252TIP3   OH2 6719   7.009   6.481   4.629
 2252TIP3    H1 6720   6.934   6.533   4.657
 2252TIP3    H2 6721   6.979   6.435   4.551
 2253TIP3   OH2 6722   4.831   3.549   3.651
 2253TIP3    H1 6723   4.899   3.557   3.584
 2253TIP3    H2 6724   4.842   3.628   3.705
 2254TIP3   OH2 6725   2.835   1.217   4.464
 2254TIP3    H1 6726   2.845   1.290   4.526
 2254TIP3    H2 6727   2.743   1.191   4.474
 2255TIP3   OH2 6728   3.480   3.665   4.047
 2255TIP3    H1 6729   3.560   3.617   4.066
 2255TIP3    H2 6730   3.409   3.603   4.064
 2256TIP3   OH2 6731   0.913   4.650   2.973
 2256TIP3    H1 6732   0.928   4.735   2.932
 2256TIP3    H2 6733   0.883   4.672   3.062
 2257TIP3   OH2 6734   3.702   0.413   5.168
 2257TIP3    H1 6735   3.657   0.330   5.186
 2257TIP3    H2 6736   3.632   0.473   5.143
 2258TIP3   OH2 6737   3.803   5.911   3.567
 2258TIP3    H1 6738   3.766   5.967   3.634
 2258TIP3    H2 6739   3.727   5.877   3.519
 2259TIP3   OH2 6740   0.250   2.862   3.164
 2259TIP3    H1 6741   0.264   2.939   3.109
 2259TIP3    H2 6742   0.241   2.790   3.101
 2260TIP3   OH2 6743   7.029   5.242   1.110
 2260TIP3    H1 6744   7.016   5.154   1.075
 2260TIP3    H2 6745   6.950   5.290   1.084
 2261TIP3   OH2 6746   5.804   1.603   2.274
 2261TIP3    H1 6747   5.753   1.624   2.196
 2261TIP3    H2 6748   5.747   1.545   2.325
 2262TIP3   OH2 6749   2.769   5.095   2.318
 2262TIP3    H1 6750   2.785   5.189   2.319
 2262TIP3    H2 6751   2.714   5.081   2.241
 2263TIP3   OH2 6752   5.595   2.381   1.791
 2263TIP3    H1 6753   5.624   2.452   1.847
 2263TIP3    H2 6754   5.519   2.344   1.835
 2264TIP3   OH2 6755   0.668   4.822   3.945
 2264TIP3    H1 6756   0.629   4.836   4.032
 2264TIP3    H2 6757   0.619   4.880   3.887
 2265TIP3   OH2 6758   0.758   6.788   4.511
 2265TIP3    H1 6759   0.851   6.795   4.489
 2265TIP3    H2 6760   0.739   6.695   4.503
 2266TIP3   OH2 6761   1.326   3.712   5.703
 2266TIP3    H1 6762   1.232   3.694   5.707
 2266TIP3    H2 6763   1.368   3.626   5.712
 2267TIP3   OH2 6764   4.392   6.704   5.766
 2267TIP3    H1 6765   4.417   6.677   5.854
 2267TIP3    H2 6766   4.466   6.756   5.735
 2268TIP3   OH2 6767   4.104   0.194   2.441
 2268TIP3    H1 6768   4.185   0.155   2.410
 2268TIP3    H2 6769   4.035   0.143   2.399
 2269TIP3   OH2 6770   6.978   4.205   1.165
 2269TIP3    H1 6771   6.894   4.172   1.196
 2269TIP3    H2 6772   6.993   4.160   1.082
 2270TIP3   OH2 6773   6.082   3.943   5.848
 2270TIP3    H1 6774   6.055   4.032   5.872
 2270TIP3    H2 6775   6.045   3.888   5.917
 2271TIP3   OH2 6776   5.332   3.038   2.122
 2271TIP3    H1 6777   5.384   3.099   2.175
 2271TIP3    H2 6778   5.387   2.960   2.113
 2272TIP3   OH2 6779   2.944   0.514   5.246
 2272TIP3    H1 6780   3.032   0.509   5.284
 2272TIP3    H2 6781   2.915   0.423   5.243
 2273TIP3   OH2 6782   4.328   0.996   4.483
 2273TIP3    H1 6783   4.406   1.034   4.443
 2273TIP3    H2 6784   4.327   1.033   4.572
 2274TIP3   OH2 6785   5.517   3.932   5.232
 2274TIP3    H1 6786   5.533   3.974   5.316
 2274TIP3    H2 6787   5.489   3.843   5.255
 2275TIP3   OH2 6788   3.814   5.011   2.688
 2275TIP3    H1 6789   3.887   4.988   2.746
 2275TIP3    H2 6790   3.783   5.095   2.722
 2276TIP3   OH2 6791   2.245   3.435   3.508
 2276TIP3    H1 6792   2.237   3.367   3.575
 2276TIP3    H2 6793   2.210   3.514   3.550
 2277TIP3   OH2 6794   3.762   0.900   4.159
 2277TIP3    H1 6795   3.759   0.991   4.131
 2277TIP3    H2 6796   3.836   0.895   4.219
 2278TIP3   OH2 6797   3.458   1.955   1.987
 2278TIP3    H1 6798   3.378   1.948   1.935
 2278TIP3    H2 6799   3.520   1.998   1.929
 2279TIP3   OH2 6800   1.996   4.836   0.139
 2279TIP3    H1 6801   1.920   4.890   0.160
 2279TIP3    H2 6802   2.031   4.812   0.225
 2280TIP3   OH2 6803   7.156   6.489   3.799
 2280TIP3    H1 6804   7.079   6.457   3.845
 2280TIP3    H2 6805   7.221   6.420   3.810
 2281TIP3   OH2 6806   2.363   5.935   1.471
 2281TIP3    H1 6807   2.390   6.027   1.481
 2281TIP3    H2 6808   2.304   5.935   1.396
 2282TIP3   OH2 6809   0.456   4.515   1.259
 2282TIP3    H1 6810   0.433   4.427   1.231
 2282TIP3    H2 6811   0.374   4.564   1.256
 2283TIP3   OH2 6812   0.153   2.758   4.502
 2283TIP3    H1 6813   0.162   2.669   4.467
 2283TIP3    H2 6814   0.094   2.748   4.577
 2284TIP3   OH2 6815   6.710   0.503   4.925
 2284TIP3    H1 6816   6.681   0.470   5.011
 2284TIP3    H2 6817   6.793   0.547   4.944
 2285TIP3   OH2 6818   6.073   3.459   3.723
 2285TIP3    H1 6819   6.120   3.519   3.781
 2285TIP3    H2 6820   6.074   3.375   3.770
 2286TIP3   OH2 6821   1.409   4.562   3.523
 2286TIP3    H1 6822   1.469   4.498   3.563
 2286TIP3    H2 6823   1.425   4.553   3.429
 2287TIP3   OH2 6824   1.047   1.171   0.471
 2287TIP3    H1 6825   0.979   1.170   0.404
 2287TIP3    H2 6826   1.126   1.201   0.425
 2288TIP3   OH2 6827   6.751   3.733   5.510
 2288TIP3    H1 6828   6.765   3.812   5.563
 2288TIP3    H2 6829   6.718   3.668   5.572
 2289TIP3   OH2 6830   4.491   6.672   3.998
 2289TIP3    H1 6831   4.483   6.650   3.905
 2289TIP3    H2 6832   4.577   6.639   4.023
 2290TIP3   OH2 6833   0.772   5.130   2.450
 2290TIP3    H1 6834   0.830   5.098   2.519
 2290TIP3    H2 6835   0.789   5.071   2.376
 2291TIP3   OH2 6836   0.680   5.915   4.589
 2291TIP3    H1 6837   0.639   5.921   4.503
 2291TIP3    H2 6838   0.757   5.972   4.583
 2292TIP3   OH2 6839   6.083   4.064   3.941
 2292TIP3    H1 6840   6.177   4.045   3.934
 2292TIP3    H2 6841   6.042   3.978   3.947
 2293TIP3   OH2 6842   5.534   0.572   3.571
 2293TIP3    H1 6843   5.507   0.645   3.514
 2293TIP3    H2 6844   5.458   0.514   3.573
 2294TIP3   OH2 6845   4.794   2.699   2.516
 2294TIP3    H1 6846   4.869   2.731   2.467
 2294TIP3    H2 6847   4.731   2.770   2.514
 2295TIP3   OH2 6848   4.420   6.364   1.184
 2295TIP3    H1 6849   4.345   6.306   1.172
 2295TIP3    H2 6850   4.384   6.452   1.172
 2296TIP3   OH2 6851   3.215   2.004   0.366
 2296TIP3    H1 6852   3.126   2.039   0.363
 2296TIP3    H2 6853   3.258   2.055   0.434
 2297TIP3   OH2 6854   4.146   0.075   1.057
 2297TIP3    H1 6855   4.064   0.050   1.013
 2297TIP3    H2 6856   4.177  -0.007   1.097
 2298TIP3   OH2 6857   5.721   4.542   2.121
 2298TIP3    H1 6858   5.693   4.469   2.066
 2298TIP3    H2 6859   5.802   4.573   2.081
 2299TIP3   OH2 6860   5.530   5.712   2.445
 2299TIP3    H1 6861   5.524   5.756   2.360
 2299TIP3    H2 6862   5.475   5.634   2.435
 2300TIP3   OH2 6863   1.109   5.717   2.990
 2300TIP3    H1 6864   1.196   5.755   3.002
 2300TIP3    H2 6865   1.124   5.623   2.987
 2301TIP3   OH2 6866   1.695   5.293   0.457
 2301TIP3    H1 6867   1.775   5.244   0.442
 2301TIP3    H2 6868   1.686   5.349   0.379
 2302TIP3   OH2 6869   5.343   0.074   5.684
 2302TIP3    H1 6870   5.280   0.017   5.730
 2302TIP3    H2 6871   5.302   0.160   5.686
 2303TIP3   OH2 6872   5.517   3.140   4.504
 2303TIP3    H1 6873   5.503   3.077   4.433
 2303TIP3    H2 6874   5.549   3.219   4.461
 2304TIP3   OH2 6875   3.212   4.849   2.683
 2304TIP3    H1 6876   3.119   4.870   2.684
 2304TIP3    H2 6877   3.225   4.795   2.761
 2305TIP3   OH2 6878   1.345   2.503   4.889
 2305TIP3    H1 6879   1.253   2.523   4.873
 2305TIP3    H2 6880   1.385   2.588   4.906
 2306TIP3   OH2 6881   0.090   4.896   2.821
 2306TIP3    H1 6882   0.109   4.823   2.880
 2306TIP3    H2 6883   0.007   4.932   2.854
 2307TIP3   OH2 6884   0.313   5.611   1.349
 2307TIP3    H1 6885   0.240   5.671   1.332
 2307TIP3    H2 6886   0.341   5.633   1.438
 2308TIP3   OH2 6887   4.045   5.599   1.371
 2308TIP3    H1 6888   4.012   5.644   1.293
 2308TIP3    H2 6889   4.037   5.665   1.440
 2309TIP3   OH2 6890   4.858   5.532   1.625
 2309TIP3    H1 6891   4.891   5.618   1.650
 2309TIP3    H2 6892   4.929   5.472   1.646
 2310TIP3   OH2 6893   4.282   4.388   1.295
 2310TIP3    H1 6894   4.361   4.382   1.348
 2310TIP3    H2 6895   4.308   4.440   1.218
 2311TIP3   OH2 6896   7.234   1.017   0.401
 2311TIP3    H1 6897   7.166   0.989   0.340
 2311TIP3    H2 6898   7.225   0.958   0.476
 2312TIP3   OH2 6899   2.454   5.303   4.122
 2312TIP3    H1 6900   2.456   5.327   4.030
 2312TIP3    H2 6901   2.539   5.263   4.139
 2313TIP3   OH2 6902   6.635   4.881   3.361
 2313TIP3    H1 6903   6.643   4.827   3.440
 2313TIP3    H2 6904   6.632   4.971   3.394
 2314TIP3   OH2 6905   2.368   3.186   2.142
 2314TIP3    H1 6906   2.445   3.148   2.184
 2314TIP3    H2 6907   2.326   3.112   2.098
 2315TIP3   OH2 6908   5.993   5.559   1.780
 2315TIP3    H1 6909   5.924   5.622   1.759
 2315TIP3    H2 6910   6.069   5.591   1.732
 2316TIP3   OH2 6911   4.097   3.484   2.364
 2316TIP3    H1 6912   4.187   3.497   2.333
 2316TIP3    H2 6913   4.101   3.508   2.457
 2317TIP3   OH2 6914   1.120   2.420   3.082
 2317TIP3    H1 6915   1.157   2.438   3.168
 2317TIP3    H2 6916   1.127   2.503   3.035
 2318TIP3   OH2 6917   4.529   0.944   3.508
 2318TIP3    H1 6918   4.440   0.907   3.507
 2318TIP3    H2 6919   4.519   1.029   3.551
 2319TIP3   OH2 6920   5.605   0.991   1.398
 2319TIP3    H1 6921   5.515   0.975   1.368
 2319TIP3    H2 6922   5.659   0.930   1.348
 2320TIP3   OH2 6923   2.051   0.231   0.713
 2320TIP3    H1 6924   2.143   0.216   0.694
 2320TIP3    H2 6925   2.044   0.221   0.808
 2321TIP3   OH2 6926   6.160   5.901   1.947
 2321TIP3    H1 6927   6.074   5.872   1.976
 2321TIP3    H2 6928   6.209   5.917   2.027
 2322TIP3   OH2 6929   6.940   5.628   2.818
 2322TIP3    H1 6930   6.892   5.677   2.885
 2322TIP3    H2 6931   6.874   5.576   2.773
 2323TIP3   OH2 6932   5.464   5.957   4.695
 2323TIP3    H1 6933   5.546   5.984   4.738
 2323TIP3    H2 6934   5.411   5.921   4.766
 2324TIP3   OH2 6935   0.601   0.815   3.063
 2324TIP3    H1 6936   0.534   0.778   3.119
 2324TIP3    H2 6937   0.562   0.895   3.027
 2325TIP3   OH2 6938   4.439   0.192   3.254
 2325TIP3    H1 6939   4.391   0.275   3.258
 2325TIP3    H2 6940   4.382   0.129   3.298
 2326TIP3   OH2 6941   3.421   1.747   2.161
 2326TIP3    H1 6942   3.353   1.705   2.109
 2326TIP3    H2 6943   3.462   1.810   2.102
 2327TIP3   OH2 6944   5.473   4.744   0.286
 2327TIP3    H1 6945   5.400   4.798   0.317
 2327TIP3    H2 6946   5.534   4.807   0.247
 2328TIP3   OH2 6947   3.619   1.408   3.335
 2328TIP3    H1 6948   3.683   1.461   3.288
 2328TIP3    H2 6949   3.668   1.330   3.363
 2329TIP3   OH2 6950   2.717   1.401   2.966
 2329TIP3    H1 6951   2.694   1.379   2.875
 2329TIP3    H2 6952   2.651   1.356   3.018
 2330TIP3   OH2 6953   2.094   0.288   4.140
 2330TIP3    H1 6954   2.183   0.305   4.110
 2330TIP3    H2 6955   2.043   0.361   4.104
 2331TIP3   OH2 6956   2.472   2.711   3.093
 2331TIP3    H1 6957   2.450   2.620   3.110
 2331TIP3    H2 6958   2.491   2.714   2.999
 2332TIP3   OH2 6959   2.908   5.191   2.814
 2332TIP3    H1 6960   2.976   5.136   2.854
 2332TIP3    H2 6961   2.828   5.166   2.859
 2333TIP3   OH2 6962   0.312   6.561   2.821
 2333TIP3    H1 6963   0.299   6.467   2.810
 2333TIP3    H2 6964   0.341   6.571   2.912
 2334TIP3   OH2 6965   1.541   2.321   3.293
 2334TIP3    H1 6966   1.594   2.380   3.238
 2334TIP3    H2 6967   1.481   2.379   3.338
 2335TIP3   OH2 6968   5.547   4.552   1.711
 2335TIP3    H1 6969   5.522   4.613   1.641
 2335TIP3    H2 6970   5.610   4.601   1.764
 2336TIP3   OH2 6971   2.107   0.595   5.888
 2336TIP3    H1 6972   2.192   0.567   5.922
 2336TIP3    H2 6973   2.056   0.515   5.879
 2337TIP3   OH2 6974   6.277   1.656   4.749
 2337TIP3    H1 6975   6.286   1.604   4.829
 2337TIP3    H2 6976   6.362   1.648   4.706
 2338TIP3   OH2 6977   1.532   6.640   4.055
 2338TIP3    H1 6978   1.546   6.725   4.014
 2338TIP3    H2 6979   1.459   6.654   4.115
 2339TIP3   OH2 6980   3.770   2.627   1.740
 2339TIP3    H1 6981   3.788   2.659   1.828
 2339TIP3    H2 6982   3.827   2.679   1.683
 2340TIP3   OH2 6983   4.314   1.835   1.687
 2340TIP3    H1 6984   4.222   1.815   1.704
 2340TIP3    H2 6985   4.313   1.890   1.609
 2341TIP3   OH2 6986   5.864   2.417   1.778
 2341TIP3    H1 6987   5.879   2.511   1.783
 2341TIP3    H2 6988   5.771   2.408   1.758
 2342TIP3   OH2 6989   2.915   2.747   1.130
 2342TIP3    H1 6990   2.947   2.827   1.172
 2342TIP3    H2 6991   2.981   2.681   1.149
 2343TIP3   OH2 6992   4.303   3.678   2.702
 2343TIP3    H1 6993   4.300   3.652   2.794
 2343TIP3    H2 6994   4.327   3.771   2.704
 2344TIP3   OH2 6995   3.705   1.215   1.871
 2344TIP3    H1 6996   3.736   1.286   1.926
 2344TIP3    H2 6997   3.640   1.169   1.925
 2345TIP3   OH2 6998   6.518   6.279   4.536
 2345TIP3    H1 6999   6.573   6.267   4.458
 2345TIP3    H2 7000   6.531   6.370   4.561
 2346TIP3   OH2 7001   4.991   5.060   4.260
 2346TIP3    H1 7002   4.910   5.032   4.217
 2346TIP3    H2 7003   4.970   5.058   4.353
 2347TIP3   OH2 7004   3.943   4.303   0.198
 2347TIP3    H1 7005   3.874   4.264   0.145
 2347TIP3    H2 7006   3.933   4.262   0.284
 2348TIP3   OH2 7007   3.838   2.728   0.128
 2348TIP3    H1 7008   3.872   2.658   0.073
 2348TIP3    H2 7009   3.746   2.736   0.104
 2349TIP3   OH2 7010   1.288   2.841   2.731
 2349TIP3    H1 7011   1.264   2.769   2.672
 2349TIP3    H2 7012   1.207   2.890   2.744
 2350TIP3   OH2 7013   1.739   3.247   1.558
 2350TIP3    H1 7014   1.743   3.156   1.528
 2350TIP3    H2 7015   1.756   3.241   1.652
 2351TIP3   OH2 7016   3.034   4.866   4.233
 2351TIP3    H1 7017   3.031   4.885   4.327
 2351TIP3    H2 7018   3.087   4.936   4.196
 2352TIP3   OH2 7019   5.615   0.483   4.429
 2352TIP3    H1 7020   5.658   0.399   4.448
 2352TIP3    H2 7021   5.521   0.464   4.434
 2353TIP3   OH2 7022   4.680   5.575   4.633
 2353TIP3    H1 7023   4.605   5.538   4.586
 2353TIP3    H2 7024   4.725   5.629   4.568
 2354TIP3   OH2 7025   5.978   3.526   2.018
 2354TIP3    H1 7026   6.060   3.479   2.032
 2354TIP3    H2 7027   6.002   3.619   2.021
 2355TIP3   OH2 7028   7.209   3.196   2.670
 2355TIP3    H1 7029   7.304   3.203   2.667
 2355TIP3    H2 7030   7.179   3.252   2.598
 2356TIP3   OH2 7031   5.762   5.387   1.687
 2356TIP3    H1 7032   5.669   5.404   1.699
 2356TIP3    H2 7033   5.804   5.473   1.699
 2357TIP3   OH2 7034   3.556   5.245   0.930
 2357TIP3    H1 7035   3.461   5.242   0.939
 2357TIP3    H2 7036   3.589   5.180   0.992
 2358TIP3   OH2 7037   4.383   5.799   0.026
 2358TIP3    H1 7038   4.462   5.752  -0.002
 2358TIP3    H2 7039   4.325   5.731   0.059
 2359TIP3   OH2 7040   6.195   1.413   4.499
 2359TIP3    H1 7041   6.153   1.363   4.430
 2359TIP3    H2 7042   6.199   1.353   4.574
 2360TIP3   OH2 7043   5.133   5.781   2.306
 2360TIP3    H1 7044   5.048   5.824   2.316
 2360TIP3    H2 7045   5.196   5.853   2.303
 2361TIP3   OH2 7046   6.348   3.652   4.168
 2361TIP3    H1 7047   6.369   3.565   4.203
 2361TIP3    H2 7048   6.426   3.676   4.117
 2362TIP3   OH2 7049   3.633   4.494   2.103
 2362TIP3    H1 7050   3.699   4.428   2.124
 2362TIP3    H2 7051   3.549   4.450   2.120
 2363TIP3   OH2 7052   2.300   3.547   3.821
 2363TIP3    H1 7053   2.341   3.629   3.794
 2363TIP3    H2 7054   2.371   3.484   3.824
 2364TIP3   OH2 7055   5.085   1.476   0.866
 2364TIP3    H1 7056   5.087   1.541   0.935
 2364TIP3    H2 7057   4.993   1.468   0.843
 2365TIP3   OH2 7058   2.147   6.122   5.787
 2365TIP3    H1 7059   2.090   6.088   5.856
 2365TIP3    H2 7060   2.195   6.046   5.755
 2366TIP3   OH2 7061   4.297   2.779   0.564
 2366TIP3    H1 7062   4.374   2.826   0.596
 2366TIP3    H2 7063   4.223   2.838   0.581
 2367TIP3   OH2 7064   6.389   0.563   1.214
 2367TIP3    H1 7065   6.415   0.553   1.123
 2367TIP3    H2 7066   6.418   0.483   1.257
 2368TIP3   OH2 7067   1.951   6.550   0.852
 2368TIP3    H1 7068   1.871   6.521   0.896
 2368TIP3    H2 7069   2.000   6.597   0.920
 2369TIP3   OH2 7070   4.569   2.861   4.788
 2369TIP3    H1 7071   4.663   2.880   4.783
 2369TIP3    H2 7072   4.560   2.772   4.754
 2370TIP3   OH2 7073   4.976   3.771   5.000
 2370TIP3    H1 7074   4.957   3.743   4.911
 2370TIP3    H2 7075   5.054   3.827   4.993
 2371TIP3   OH2 7076   5.329   6.125   0.700
 2371TIP3    H1 7077   5.418   6.093   0.714
 2371TIP3    H2 7078   5.326   6.148   0.607
 2372TIP3   OH2 7079   5.950   1.553   5.279
 2372TIP3    H1 7080   5.963   1.647   5.267
 2372TIP3    H2 7081   5.960   1.539   5.374
 2373TIP3   OH2 7082   1.918   0.736   5.558
 2373TIP3    H1 7083   1.912   0.808   5.496
 2373TIP3    H2 7084   1.931   0.658   5.504
 2374TIP3   OH2 7085   2.005   2.558   3.575
 2374TIP3    H1 7086   2.071   2.615   3.534
 2374TIP3    H2 7087   2.019   2.473   3.535
 2375TIP3   OH2 7088   2.834   3.668   3.547
 2375TIP3    H1 7089   2.929   3.663   3.540
 2375TIP3    H2 7090   2.809   3.582   3.581
 2376TIP3   OH2 7091   0.040   1.262   1.844
 2376TIP3    H1 7092   0.094   1.338   1.823
 2376TIP3    H2 7093  -0.016   1.291   1.915
 2377TIP3   OH2 7094   3.676   0.870   5.871
 2377TIP3    H1 7095   3.770   0.861   5.888
 2377TIP3    H2 7096   3.671   0.924   5.792
 2378TIP3   OH2 7097   7.149   2.907   5.635
 2378TIP3    H1 7098   7.191   2.984   5.596
 2378TIP3    H2 7099   7.081   2.943   5.692
 2379TIP3   OH2 7100   0.158   6.030   3.056
 2379TIP3    H1 7101   0.221   6.002   2.989
 2379TIP3    H2 7102   0.080   5.976   3.040
 2380TIP3   OH2 7103   6.006   2.058   0.608
 2380TIP3    H1 7104   6.012   1.994   0.537
 2380TIP3    H2 7105   6.018   2.007   0.688
 2381TIP3   OH2 7106   7.011   0.909   0.134
 2381TIP3    H1 7107   6.988   0.828   0.180
 2381TIP3    H2 7108   6.950   0.974   0.170
 2382TIP3   OH2 7109   6.448   1.527   1.829
 2382TIP3    H1 7110   6.444   1.531   1.733
 2382TIP3    H2 7111   6.377   1.584   1.858
 2383TIP3   OH2 7112   7.064   1.542   5.456
 2383TIP3    H1 7113   7.102   1.598   5.524
 2383TIP3    H2 7114   7.047   1.459   5.501
 2384TIP3   OH2 7115   0.838   6.734   2.921
 2384TIP3    H1 7116   0.890   6.721   3.000
 2384TIP3    H2 7117   0.852   6.655   2.869
 2385TIP3   OH2 7118   3.482   6.270   1.416
 2385TIP3    H1 7119   3.496   6.176   1.431
 2385TIP3    H2 7120   3.501   6.310   1.501
 2386TIP3   OH2 7121   3.391   0.421   5.701
 2386TIP3    H1 7122   3.407   0.515   5.710
 2386TIP3    H2 7123   3.424   0.399   5.614
 2387TIP3   OH2 7124   1.224   1.905   4.744
 2387TIP3    H1 7125   1.140   1.891   4.788
 2387TIP3    H2 7126   1.269   1.821   4.751
 2388TIP3   OH2 7127   4.455   0.149   0.652
 2388TIP3    H1 7128   4.375   0.128   0.702
 2388TIP3    H2 7129   4.524   0.102   0.698
 2389TIP3   OH2 7130   2.767   5.348   2.363
 2389TIP3    H1 7131   2.766   5.332   2.457
 2389TIP3    H2 7132   2.835   5.415   2.351
 2390TIP3   OH2 7133   6.273   6.434   2.729
 2390TIP3    H1 7134   6.314   6.370   2.788
 2390TIP3    H2 7135   6.311   6.415   2.644
 2391TIP3   OH2 7136   0.750   3.092   1.055
 2391TIP3    H1 7137   0.844   3.102   1.067
 2391TIP3    H2 7138   0.731   3.141   0.975
 2392TIP3   OH2 7139   6.149   0.730   2.593
 2392TIP3    H1 7140   6.136   0.647   2.639
 2392TIP3    H2 7141   6.217   0.775   2.642
 2393TIP3   OH2 7142   2.363   0.199   1.556
 2393TIP3    H1 7143   2.299   0.129   1.568
 2393TIP3    H2 7144   2.323   0.275   1.597
 2394TIP3   OH2 7145   1.425   5.857   3.704
 2394TIP3    H1 7146   1.438   5.765   3.680
 2394TIP3    H2 7147   1.513   5.895   3.700
 2395TIP3   OH2 7148   1.751   1.746   0.917
 2395TIP3    H1 7149   1.754   1.840   0.932
 2395TIP3    H2 7150   1.771   1.707   1.002
 2396TIP3   OH2 7151   0.891   3.173   3.412
 2396TIP3    H1 7152   0.945   3.244   3.380
 2396TIP3    H2 7153   0.933   3.146   3.494
 2397TIP3   OH2 7154   5.789   4.853   1.438
 2397TIP3    H1 7155   5.840   4.772   1.435
 2397TIP3    H2 7156   5.842   4.914   1.489
 2398TIP3   OH2 7157   3.373   3.564   3.109
 2398TIP3    H1 7158   3.333   3.478   3.102
 2398TIP3    H2 7159   3.454   3.557   3.057
 2399TIP3   OH2 7160   1.153   2.967   2.060
 2399TIP3    H1 7161   1.170   3.061   2.064
 2399TIP3    H2 7162   1.186   2.933   2.143
 2400TIP3   OH2 7163   5.520   0.372   3.973
 2400TIP3    H1 7164   5.543   0.460   3.942
 2400TIP3    H2 7165   5.460   0.339   3.906
 2401TIP3   OH2 7166   5.942   4.981   4.921
 2401TIP3    H1 7167   5.997   4.936   4.857
 2401TIP3    H2 7168   5.951   4.929   5.001
 2402TIP3   OH2 7169   6.434   4.520   1.516
 2402TIP3    H1 7170   6.445   4.612   1.494
 2402TIP3    H2 7171   6.374   4.486   1.450
 2403TIP3   OH2 7172   2.789   1.733   5.510
 2403TIP3    H1 7173   2.708   1.689   5.538
 2403TIP3    H2 7174   2.827   1.767   5.591
 2404TIP3   OH2 7175   3.955   5.350   4.884
 2404TIP3    H1 7176   3.882   5.344   4.822
 2404TIP3    H2 7177   3.915   5.385   4.964
 2405TIP3   OH2 7178   4.346   3.791   3.709
 2405TIP3    H1 7179   4.326   3.807   3.801
 2405TIP3    H2 7180   4.435   3.823   3.697
 2406TIP3   OH2 7181   3.090   6.605   2.857
 2406TIP3    H1 7182   3.003   6.576   2.885
 2406TIP3    H2 7183   3.138   6.524   2.839
 2407TIP3   OH2 7184   1.652   5.055   4.172
 2407TIP3    H1 7185   1.633   5.050   4.079
 2407TIP3    H2 7186   1.636   5.146   4.196
 2408TIP3   OH2 7187   4.109   6.657   2.133
 2408TIP3    H1 7188   4.051   6.733   2.140
 2408TIP3    H2 7189   4.086   6.601   2.207
 2409TIP3   OH2 7190   0.135   5.630   5.062
 2409TIP3    H1 7191   0.071   5.642   5.132
 2409TIP3    H2 7192   0.096   5.674   4.986
 2410TIP3   OH2 7193   2.125   2.093   4.677
 2410TIP3    H1 7194   2.139   2.187   4.665
 2410TIP3    H2 7195   2.093   2.063   4.591
 2411TIP3   OH2 7196   6.731   4.784   0.512
 2411TIP3    H1 7197   6.661   4.843   0.540
 2411TIP3    H2 7198   6.767   4.824   0.433
 2412TIP3   OH2 7199   5.517   6.728   4.256
 2412TIP3    H1 7200   5.600   6.719   4.303
 2412TIP3    H2 7201   5.501   6.822   4.252
 2413TIP3   OH2 7202   4.001   5.854   2.413
 2413TIP3    H1 7203   3.964   5.937   2.384
 2413TIP3    H2 7204   4.095   5.871   2.423
 2414TIP3   OH2 7205   2.765   2.344   1.464
 2414TIP3    H1 7206   2.770   2.439   1.463
 2414TIP3    H2 7207   2.674   2.324   1.442
 2415TIP3   OH2 7208   0.403   1.523   1.964
 2415TIP3    H1 7209   0.425   1.575   2.041
 2415TIP3    H2 7210   0.483   1.522   1.911
 2416TIP3   OH2 7211   2.104   2.405   2.943
 2416TIP3    H1 7212   2.131   2.369   2.858
 2416TIP3    H2 7213   2.018   2.443   2.927
 2417TIP3   OH2 7214   3.750   4.856   3.007
 2417TIP3    H1 7215   3.810   4.853   3.082
 2417TIP3    H2 7216   3.805   4.839   2.931
 2418TIP3   OH2 7217   6.193   0.744   4.242
 2418TIP3    H1 7218   6.229   0.807   4.180
 2418TIP3    H2 7219   6.215   0.658   4.206
 2419TIP3   OH2 7220   5.979   4.658   1.476
 2419TIP3    H1 7221   6.060   4.685   1.521
 2419TIP3    H2 7222   5.984   4.563   1.473
 2420TIP3   OH2 7223   4.960   1.252   5.784
 2420TIP3    H1 7224   4.939   1.271   5.876
 2420TIP3    H2 7225   5.025   1.183   5.789
 2421TIP3   OH2 7226   3.504   5.775   5.066
 2421TIP3    H1 7227   3.446   5.841   5.027
 2421TIP3    H2 7228   3.469   5.692   5.032
 2422TIP3   OH2 7229   6.555   5.998   2.615
 2422TIP3    H1 7230   6.626   5.953   2.659
 2422TIP3    H2 7231   6.573   6.091   2.628
 2423TIP3   OH2 7232   3.011   3.563   5.862
 2423TIP3    H1 7233   3.080   3.547   5.798
 2423TIP3    H2 7234   3.012   3.486   5.919
 2424TIP3   OH2 7235   5.331   1.219   1.258
 2424TIP3    H1 7236   5.309   1.225   1.165
 2424TIP3    H2 7237   5.357   1.308   1.281
 2425TIP3   OH2 7238   5.287   1.543   0.043
 2425TIP3    H1 7239   5.357   1.494   0.001
 2425TIP3    H2 7240   5.291   1.630   0.002
 2426TIP3   OH2 7241   3.370   0.821   2.085
 2426TIP3    H1 7242   3.364   0.890   2.151
 2426TIP3    H2 7243   3.402   0.865   2.007
 2427TIP3   OH2 7244   1.278   4.319   0.465
 2427TIP3    H1 7245   1.298   4.406   0.431
 2427TIP3    H2 7246   1.304   4.259   0.395
 2428TIP3   OH2 7247   4.100   1.555   0.873
 2428TIP3    H1 7248   4.093   1.651   0.876
 2428TIP3    H2 7249   4.182   1.538   0.828
 2429TIP3   OH2 7250   5.343   3.562   0.934
 2429TIP3    H1 7251   5.286   3.583   1.008
 2429TIP3    H2 7252   5.424   3.532   0.973
 2430TIP3   OH2 7253   2.258   6.473   3.870
 2430TIP3    H1 7254   2.283   6.392   3.826
 2430TIP3    H2 7255   2.243   6.448   3.961
 2431TIP3   OH2 7256   6.158   6.039   2.463
 2431TIP3    H1 7257   6.149   6.019   2.556
 2431TIP3    H2 7258   6.068   6.037   2.430
 2432TIP3   OH2 7259   3.506   4.317   3.890
 2432TIP3    H1 7260   3.520   4.305   3.796
 2432TIP3    H2 7261   3.569   4.384   3.915
 2433TIP3   OH2 7262   4.586   5.554   5.538
 2433TIP3    H1 7263   4.654   5.508   5.488
 2433TIP3    H2 7264   4.578   5.503   5.619
 2434TIP3   OH2 7265   6.443   6.104   5.379
 2434TIP3    H1 7266   6.461   6.156   5.302
 2434TIP3    H2 7267   6.360   6.061   5.360
 2435TIP3   OH2 7268   1.126   6.156   4.886
 2435TIP3    H1 7269   1.117   6.226   4.951
 2435TIP3    H2 7270   1.170   6.085   4.932
 2436TIP3   OH2 7271   1.862   2.535   4.193
 2436TIP3    H1 7272   1.809   2.456   4.206
 2436TIP3    H2 7273   1.842   2.590   4.269
 2437TIP3   OH2 7274   2.046   4.043   5.442
 2437TIP3    H1 7275   2.137   4.048   5.470
 2437TIP3    H2 7276   2.000   4.105   5.499
 2438TIP3   OH2 7277   2.433   5.175   0.476
 2438TIP3    H1 7278   2.384   5.137   0.548
 2438TIP3    H2 7279   2.480   5.248   0.516
 2439TIP3   OH2 7280   2.212   4.950   4.576
 2439TIP3    H1 7281   2.237   5.028   4.526
 2439TIP3    H2 7282   2.131   4.974   4.619
 2440TIP3   OH2 7283   2.415   0.142   2.374
 2440TIP3    H1 7284   2.378   0.229   2.393
 2440TIP3    H2 7285   2.373   0.116   2.292
 2441TIP3   OH2 7286   3.154   3.717   5.425
 2441TIP3    H1 7287   3.207   3.652   5.378
 2441TIP3    H2 7288   3.068   3.676   5.434
 2442TIP3   OH2 7289   0.486   2.404   4.561
 2442TIP3    H1 7290   0.462   2.312   4.570
 2442TIP3    H2 7291   0.580   2.402   4.542
 2443TIP3   OH2 7292   6.690   5.566   2.725
 2443TIP3    H1 7293   6.649   5.616   2.796
 2443TIP3    H2 7294   6.639   5.484   2.721
 2444TIP3   OH2 7295   5.364   5.680   4.911
 2444TIP3    H1 7296   5.351   5.770   4.939
 2444TIP3    H2 7297   5.362   5.684   4.815
 2445TIP3   OH2 7298   6.820   4.748   4.506
 2445TIP3    H1 7299   6.747   4.780   4.453
 2445TIP3    H2 7300   6.778   4.706   4.581
 2446TIP3   OH2 7301   6.815   2.664   0.565
 2446TIP3    H1 7302   6.753   2.598   0.595
 2446TIP3    H2 7303   6.852   2.701   0.645
 2447TIP3   OH2 7304   2.602   6.590   5.596
 2447TIP3    H1 7305   2.590   6.509   5.545
 2447TIP3    H2 7306   2.522   6.598   5.647
 2448TIP3   OH2 7307   5.144   1.926   5.122
 2448TIP3    H1 7308   5.190   1.950   5.202
 2448TIP3    H2 7309   5.161   1.832   5.112
 2449TIP3   OH2 7310   3.912   3.581   5.799
 2449TIP3    H1 7311   3.822   3.553   5.818
 2449TIP3    H2 7312   3.931   3.645   5.867
 2450TIP3   OH2 7313   0.415   0.123   0.208
 2450TIP3    H1 7314   0.386   0.061   0.140
 2450TIP3    H2 7315   0.510   0.123   0.201
 2451TIP3   OH2 7316   3.875   3.892   5.024
 2451TIP3    H1 7317   3.824   3.839   4.963
 2451TIP3    H2 7318   3.853   3.858   5.111
 2452TIP3   OH2 7319   4.870   6.037   3.067
 2452TIP3    H1 7320   4.951   5.993   3.091
 2452TIP3    H2 7321   4.874   6.043   2.971
 2453TIP3   OH2 7322   1.063   0.614   1.197
 2453TIP3    H1 7323   1.153   0.630   1.227
 2453TIP3    H2 7324   1.048   0.521   1.215
 2454TIP3   OH2 7325   2.445   0.227   0.564
 2454TIP3    H1 7326   2.434   0.132   0.553
 2454TIP3    H2 7327   2.430   0.241   0.658
 2455TIP3   OH2 7328   3.073   2.107   3.197
 2455TIP3    H1 7329   3.021   2.044   3.147
 2455TIP3    H2 7330   3.092   2.177   3.135
 2456TIP3   OH2 7331   5.099   5.344   3.077
 2456TIP3    H1 7332   5.052   5.418   3.115
 2456TIP3    H2 7333   5.056   5.267   3.115
 2457TIP3   OH2 7334   0.747   4.146   4.907
 2457TIP3    H1 7335   0.839   4.123   4.917
 2457TIP3    H2 7336   0.708   4.072   4.861
 2458TIP3   OH2 7337   1.160   4.958   1.309
 2458TIP3    H1 7338   1.193   4.871   1.335
 2458TIP3    H2 7339   1.205   5.019   1.368
 2459TIP3   OH2 7340   5.063   6.639   2.262
 2459TIP3    H1 7341   5.022   6.698   2.199
 2459TIP3    H2 7342   4.991   6.584   2.294
 2460TIP3   OH2 7343   3.791   1.432   1.543
 2460TIP3    H1 7344   3.833   1.346   1.550
 2460TIP3    H2 7345   3.813   1.461   1.454
 2461TIP3   OH2 7346   4.309   3.773   5.121
 2461TIP3    H1 7347   4.273   3.862   5.131
 2461TIP3    H2 7348   4.283   3.747   5.033
 2462TIP3   OH2 7349   0.204   0.054   0.509
 2462TIP3    H1 7350   0.215  -0.028   0.460
 2462TIP3    H2 7351   0.286   0.101   0.496
 2463TIP3   OH2 7352   0.485   3.561   1.908
 2463TIP3    H1 7353   0.536   3.630   1.866
 2463TIP3    H2 7354   0.540   3.483   1.904
 2464TIP3   OH2 7355   6.249   6.161   1.257
 2464TIP3    H1 7356   6.186   6.210   1.310
 2464TIP3    H2 7357   6.282   6.226   1.195
 2465TIP3   OH2 7358   7.143   2.913   4.788
 2465TIP3    H1 7359   7.116   2.854   4.858
 2465TIP3    H2 7360   7.125   2.865   4.707
 2466TIP3   OH2 7361   4.614   3.106   5.528
 2466TIP3    H1 7362   4.693   3.160   5.522
 2466TIP3    H2 7363   4.623   3.059   5.611
 2467TIP3   OH2 7364   5.501   5.610   0.057
 2467TIP3    H1 7365   5.565   5.540   0.069
 2467TIP3    H2 7366   5.431   5.570   0.005
 2468TIP3   OH2 7367   3.637   6.836   0.481
 2468TIP3    H1 7368   3.693   6.769   0.442
 2468TIP3    H2 7369   3.549   6.799   0.477
 2469TIP3   OH2 7370   6.402   3.158   5.830
 2469TIP3    H1 7371   6.473   3.138   5.891
 2469TIP3    H2 7372   6.414   3.250   5.809
 2470TIP3   OH2 7373   2.361   6.252   2.749
 2470TIP3    H1 7374   2.392   6.339   2.774
 2470TIP3    H2 7375   2.281   6.240   2.800
 2471TIP3   OH2 7376   4.883   3.800   3.774
 2471TIP3    H1 7377   4.860   3.788   3.866
 2471TIP3    H2 7378   4.915   3.890   3.768
 2472TIP3   OH2 7379   4.890   1.879   2.238
 2472TIP3    H1 7380   4.977   1.897   2.202
 2472TIP3    H2 7381   4.841   1.960   2.225
 2473TIP3   OH2 7382   4.198   5.720   5.348
 2473TIP3    H1 7383   4.184   5.643   5.293
 2473TIP3    H2 7384   4.204   5.686   5.437
 2474TIP3   OH2 7385   5.243   2.574   2.323
 2474TIP3    H1 7386   5.267   2.655   2.369
 2474TIP3    H2 7387   5.161   2.596   2.278
 2475TIP3   OH2 7388   2.890   5.168   1.536
 2475TIP3    H1 7389   2.889   5.249   1.588
 2475TIP3    H2 7390   2.902   5.198   1.446
 2476TIP3   OH2 7391   4.987   5.858   4.659
 2476TIP3    H1 7392   4.924   5.930   4.670
 2476TIP3    H2 7393   5.042   5.862   4.737
 2477TIP3   OH2 7394   2.403   2.378   0.452
 2477TIP3    H1 7395   2.324   2.407   0.406
 2477TIP3    H2 7396   2.450   2.326   0.388
 2478TIP3   OH2 7397   1.923   5.101   0.584
 2478TIP3    H1 7398   1.855   5.035   0.572
 2478TIP3    H2 7399   1.951   5.092   0.675
 2479TIP3   OH2 7400   1.045   2.168   1.748
 2479TIP3    H1 7401   1.060   2.220   1.669
 2479TIP3    H2 7402   1.057   2.230   1.820
 2480TIP3   OH2 7403   6.105   5.722   3.583
 2480TIP3    H1 7404   6.089   5.734   3.677
 2480TIP3    H2 7405   6.103   5.627   3.571
 2481TIP3   OH2 7406   4.749   3.867   2.452
 2481TIP3    H1 7407   4.740   3.908   2.365
 2481TIP3    H2 7408   4.837   3.831   2.452
 2482TIP3   OH2 7409   1.393   1.076   2.898
 2482TIP3    H1 7410   1.477   1.120   2.902
 2482TIP3    H2 7411   1.404   1.009   2.831
 2483TIP3   OH2 7412   1.709   6.414   4.378
 2483TIP3    H1 7413   1.622   6.375   4.363
 2483TIP3    H2 7414   1.745   6.427   4.290
 2484TIP3   OH2 7415   3.542   2.575   2.658
 2484TIP3    H1 7416   3.635   2.553   2.671
 2484TIP3    H2 7417   3.519   2.627   2.735
 2485TIP3   OH2 7418   0.369   0.745   3.261
 2485TIP3    H1 7419   0.390   0.764   3.352
 2485TIP3    H2 7420   0.274   0.757   3.255
 2486TIP3   OH2 7421   1.747   1.523   1.731
 2486TIP3    H1 7422   1.687   1.496   1.800
 2486TIP3    H2 7423   1.699   1.589   1.681
 2487TIP3   OH2 7424   5.941   4.653   0.197
 2487TIP3    H1 7425   5.996   4.575   0.198
 2487TIP3    H2 7426   5.991   4.718   0.147
 2488TIP3   OH2 7427   0.321   0.655   1.662
 2488TIP3    H1 7428   0.288   0.679   1.576
 2488TIP3    H2 7429   0.243   0.644   1.716
 2489TIP3   OH2 7430   1.220   6.589   4.504
 2489TIP3    H1 7431   1.197   6.496   4.514
 2489TIP3    H2 7432   1.192   6.630   4.586
 2490TIP3   OH2 7433   1.798   4.280   4.461
 2490TIP3    H1 7434   1.737   4.230   4.408
 2490TIP3    H2 7435   1.804   4.233   4.544
 2491TIP3   OH2 7436   4.329   4.697   0.510
 2491TIP3    H1 7437   4.347   4.613   0.468
 2491TIP3    H2 7438   4.332   4.678   0.604
 2492TIP3   OH2 7439   3.878   3.036   4.102
 2492TIP3    H1 7440   3.835   2.963   4.146
 2492TIP3    H2 7441   3.963   3.002   4.074
 2493TIP3   OH2 7442   5.258   2.978   0.681
 2493TIP3    H1 7443   5.199   3.019   0.617
 2493TIP3    H2 7444   5.207   2.905   0.717
 2494TIP3   OH2 7445   1.278   4.356   0.054
 2494TIP3    H1 7446   1.305   4.410  -0.020
 2494TIP3    H2 7447   1.206   4.303   0.020
 2495TIP3   OH2 7448   0.086   6.685   0.920
 2495TIP3    H1 7449   0.023   6.656   0.986
 2495TIP3    H2 7450   0.048   6.656   0.837
 2496TIP3   OH2 7451   5.890   3.296   2.234
 2496TIP3    H1 7452   5.980   3.325   2.216
 2496TIP3    H2 7453   5.893   3.201   2.224
 2497TIP3   OH2 7454   6.657   0.790   2.616
 2497TIP3    H1 7455   6.584   0.774   2.556
 2497TIP3    H2 7456   6.616   0.834   2.691
 2498TIP3   OH2 7457   5.327   0.365   5.072
 2498TIP3    H1 7458   5.312   0.306   4.998
 2498TIP3    H2 7459   5.379   0.314   5.133
 2499TIP3   OH2 7460   4.128   6.683   0.780
 2499TIP3    H1 7461   4.043   6.642   0.799
 2499TIP3    H2 7462   4.186   6.609   0.761
 2500TIP3   OH2 7463   4.861   3.795   4.714
 2500TIP3    H1 7464   4.790   3.857   4.699
 2500TIP3    H2 7465   4.825   3.711   4.689
 2501TIP3   OH2 7466   3.141   4.426   3.469
 2501TIP3    H1 7467   3.221   4.465   3.507
 2501TIP3    H2 7468   3.088   4.402   3.544
 2502TIP3   OH2 7469   1.357   2.537   1.340
 2502TIP3    H1 7470   1.301   2.540   1.263
 2502TIP3    H2 7471   1.311   2.589   1.406
 2503TIP3   OH2 7472   6.281   1.761   5.659
 2503TIP3    H1 7473   6.372   1.739   5.680
 2503TIP3    H2 7474   6.230   1.689   5.696
 2504TIP3   OH2 7475   0.749   0.317   0.505
 2504TIP3    H1 7476   0.686   0.389   0.512
 2504TIP3    H2 7477   0.822   0.343   0.562
 2505TIP3   OH2 7478   5.887   4.230   3.269
 2505TIP3    H1 7479   5.850   4.166   3.207
 2505TIP3    H2 7480   5.973   4.251   3.234
 2506TIP3   OH2 7481   6.414   6.124   2.188
 2506TIP3    H1 7482   6.495   6.170   2.168
 2506TIP3    H2 7483   6.426   6.091   2.277
 2507TIP3   OH2 7484   6.918   2.017   0.080
 2507TIP3    H1 7485   6.955   2.055   0.159
 2507TIP3    H2 7486   6.964   1.933   0.070
 2508TIP3   OH2 7487   4.149   5.738   0.255
 2508TIP3    H1 7488   4.110   5.729   0.168
 2508TIP3    H2 7489   4.074   5.740   0.315
 2509TIP3   OH2 7490   3.651   6.353   4.503
 2509TIP3    H1 7491   3.654   6.266   4.544
 2509TIP3    H2 7492   3.728   6.354   4.446
 2510TIP3   OH2 7493   7.145   3.006   3.295
 2510TIP3    H1 7494   7.160   2.943   3.226
 2510TIP3    H2 7495   7.096   2.958   3.362
 2511TIP3   OH2 7496   4.644   4.585   1.661
 2511TIP3    H1 7497   4.629   4.577   1.755
 2511TIP3    H2 7498   4.604   4.669   1.638
 2512TIP3   OH2 7499   2.242   0.624   4.096
 2512TIP3    H1 7500   2.303   0.567   4.049
 2512TIP3    H2 7501   2.278   0.629   4.185
 2513TIP3   OH2 7502   7.106   1.119   4.232
 2513TIP3    H1 7503   7.125   1.158   4.147
 2513TIP3    H2 7504   7.126   1.026   4.222
 2514TIP3   OH2 7505   5.694   2.649   5.401
 2514TIP3    H1 7506   5.765   2.692   5.354
 2514TIP3    H2 7507   5.686   2.697   5.483
 2515TIP3   OH2 7508   1.240   0.141   2.510
 2515TIP3    H1 7509   1.282   0.064   2.473
 2515TIP3    H2 7510   1.173   0.166   2.446
 2516TIP3   OH2 7511   3.866   2.704   0.541
 2516TIP3    H1 7512   3.892   2.778   0.487
 2516TIP3    H2 7513   3.938   2.641   0.533
 2517TIP3   OH2 7514   2.413   6.709   0.495
 2517TIP3    H1 7515   2.370   6.750   0.570
 2517TIP3    H2 7516   2.369   6.624   0.485
 2518TIP3   OH2 7517   3.241   1.734   0.389
 2518TIP3    H1 7518   3.217   1.825   0.405
 2518TIP3    H2 7519   3.171   1.699   0.334
 2519TIP3   OH2 7520   5.347   2.233   5.467
 2519TIP3    H1 7521   5.376   2.227   5.375
 2519TIP3    H2 7522   5.363   2.324   5.491
 2520TIP3   OH2 7523   2.107   6.765   3.033
 2520TIP3    H1 7524   2.163   6.837   3.062
 2520TIP3    H2 7525   2.090   6.714   3.112
 2521TIP3   OH2 7526   1.359   6.194   3.656
 2521TIP3    H1 7527   1.387   6.141   3.731
 2521TIP3    H2 7528   1.440   6.229   3.620
 2522TIP3   OH2 7529   6.951   6.585   2.006
 2522TIP3    H1 7530   6.901   6.622   1.933
 2522TIP3    H2 7531   7.037   6.628   2.000
 2523TIP3   OH2 7532   0.152   0.376   2.057
 2523TIP3    H1 7533   0.188   0.427   2.129
 2523TIP3    H2 7534   0.095   0.311   2.098
 2524TIP3   OH2 7535   5.669   6.270   4.087
 2524TIP3    H1 7536   5.749   6.321   4.103
 2524TIP3    H2 7537   5.598   6.334   4.095
 2525TIP3   OH2 7538   3.334   3.713   1.499
 2525TIP3    H1 7539   3.322   3.647   1.567
 2525TIP3    H2 7540   3.351   3.794   1.546
 2526TIP3   OH2 7541   0.080   1.497   3.083
 2526TIP3    H1 7542   0.046   1.409   3.065
 2526TIP3    H2 7543   0.012   1.538   3.136
 2527TIP3   OH2 7544   1.633   4.387   4.025
 2527TIP3    H1 7545   1.694   4.314   4.035
 2527TIP3    H2 7546   1.650   4.443   4.101
 2528TIP3   OH2 7547   4.775   2.098   5.083
 2528TIP3    H1 7548   4.757   2.027   5.021
 2528TIP3    H2 7549   4.703   2.160   5.070
 2529TIP3   OH2 7550   5.646   0.175   3.200
 2529TIP3    H1 7551   5.576   0.124   3.160
 2529TIP3    H2 7552   5.655   0.252   3.145
 2530TIP3   OH2 7553   1.829   3.193   4.298
 2530TIP3    H1 7554   1.741   3.163   4.276
 2530TIP3    H2 7555   1.821   3.227   4.387
 2531TIP3   OH2 7556   4.963   1.017   1.401
 2531TIP3    H1 7557   4.908   0.956   1.450
 2531TIP3    H2 7558   4.914   1.035   1.321
 2532TIP3   OH2 7559   6.708   2.929   0.904
 2532TIP3    H1 7560   6.659   2.877   0.968
 2532TIP3    H2 7561   6.731   3.009   0.951
 2533TIP3   OH2 7562   0.798   1.617   4.563
 2533TIP3    H1 7563   0.837   1.634   4.477
 2533TIP3    H2 7564   0.785   1.522   4.565
 2534TIP3   OH2 7565   3.462   6.530   3.445
 2534TIP3    H1 7566   3.400   6.603   3.446
 2534TIP3    H2 7567   3.513   6.539   3.526
 2535TIP3   OH2 7568   3.008   5.035   3.415
 2535TIP3    H1 7569   3.073   4.997   3.355
 2535TIP3    H2 7570   3.050   5.032   3.501
 2536TIP3   OH2 7571   0.666   3.119   2.990
 2536TIP3    H1 7572   0.727   3.093   2.922
 2536TIP3    H2 7573   0.583   3.131   2.945
 2537TIP3   OH2 7574   5.871   5.126   4.246
 2537TIP3    H1 7575   5.809   5.142   4.317
 2537TIP3    H2 7576   5.835   5.051   4.199
 2538TIP3   OH2 7577   4.999   3.143   0.707
 2538TIP3    H1 7578   4.923   3.198   0.689
 2538TIP3    H2 7579   4.963   3.067   0.753
 2539TIP3   OH2 7580   3.315   3.306   3.576
 2539TIP3    H1 7581   3.399   3.262   3.589
 2539TIP3    H2 7582   3.282   3.320   3.665
 2540TIP3   OH2 7583   5.374   2.135   2.435
 2540TIP3    H1 7584   5.409   2.072   2.373
 2540TIP3    H2 7585   5.283   2.147   2.408
 2541TIP3   OH2 7586   2.755   2.203   4.000
 2541TIP3    H1 7587   2.850   2.198   4.011
 2541TIP3    H2 7588   2.721   2.198   4.089
 2542TIP3   OH2 7589   3.237   6.715   1.034
 2542TIP3    H1 7590   3.305   6.707   0.967
 2542TIP3    H2 7591   3.272   6.780   1.096
 2543TIP3   OH2 7592   5.644   1.487   5.006
 2543TIP3    H1 7593   5.739   1.478   4.995
 2543TIP3    H2 7594   5.621   1.417   5.067
 2544TIP3   OH2 7595   5.015   1.259   2.783
 2544TIP3    H1 7596   5.010   1.178   2.833
 2544TIP3    H2 7597   5.108   1.281   2.781
 2545TIP3   OH2 7598   6.358   0.903   5.776
 2545TIP3    H1 7599   6.369   0.904   5.681
 2545TIP3    H2 7600   6.295   0.973   5.794
 2546TIP3   OH2 7601   2.745   5.841   5.827
 2546TIP3    H1 7602   2.654   5.842   5.858
 2546TIP3    H2 7603   2.794   5.801   5.898
 2547TIP3   OH2 7604   6.891   6.633   2.678
 2547TIP3    H1 7605   6.828   6.676   2.735
 2547TIP3    H2 7606   6.915   6.700   2.614
 2548TIP3   OH2 7607   0.964   5.154   3.748
 2548TIP3    H1 7608   1.027   5.129   3.816
 2548TIP3    H2 7609   0.960   5.078   3.690
 2549TIP3   OH2 7610   1.553   3.749   1.464
 2549TIP3    H1 7611   1.581   3.660   1.444
 2549TIP3    H2 7612   1.520   3.783   1.381
 2550TIP3   OH2 7613   6.412   4.287   2.308
 2550TIP3    H1 7614   6.444   4.258   2.394
 2550TIP3    H2 7615   6.383   4.206   2.265
 2551TIP3   OH2 7616   3.530   0.476   2.909
 2551TIP3    H1 7617   3.485   0.440   2.832
 2551TIP3    H2 7618   3.611   0.426   2.914
 2552TIP3   OH2 7619   7.172   6.754   4.626
 2552TIP3    H1 7620   7.169   6.761   4.722
 2552TIP3    H2 7621   7.115   6.680   4.606
 2553TIP3   OH2 7622   4.980   5.678   3.893
 2553TIP3    H1 7623   4.917   5.617   3.856
 2553TIP3    H2 7624   5.012   5.635   3.971
 2554TIP3   OH2 7625   1.458   6.210   2.896
 2554TIP3    H1 7626   1.463   6.300   2.865
 2554TIP3    H2 7627   1.486   6.214   2.987
 2555TIP3   OH2 7628   6.355   1.743   0.103
 2555TIP3    H1 7629   6.268   1.768   0.135
 2555TIP3    H2 7630   6.410   1.746   0.182
 2556TIP3   OH2 7631   1.246   3.427  -0.003
 2556TIP3    H1 7632   1.338   3.431  -0.030
 2556TIP3    H2 7633   1.217   3.340  -0.031
 2557TIP3   OH2 7634   6.916   1.309   4.191
 2557TIP3    H1 7635   6.858   1.258   4.133
 2557TIP3    H2 7636   6.985   1.247   4.215
 2558TIP3   OH2 7637   6.284   0.468   0.719
 2558TIP3    H1 7638   6.222   0.463   0.792
 2558TIP3    H2 7639   6.370   0.456   0.759
 2559TIP3   OH2 7640   1.686   0.906   2.504
 2559TIP3    H1 7641   1.626   0.952   2.446
 2559TIP3    H2 7642   1.743   0.856   2.446
 2560TIP3   OH2 7643   0.621   6.014   2.161
 2560TIP3    H1 7644   0.680   6.007   2.086
 2560TIP3    H2 7645   0.560   6.084   2.137
 2561TIP3   OH2 7646   5.713   5.502   0.737
 2561TIP3    H1 7647   5.708   5.564   0.810
 2561TIP3    H2 7648   5.697   5.416   0.777
 2562TIP3   OH2 7649   1.074   3.159   2.290
 2562TIP3    H1 7650   0.982   3.181   2.272
 2562TIP3    H2 7651   1.118   3.243   2.299
 2563TIP3   OH2 7652   1.964   4.482   3.675
 2563TIP3    H1 7653   1.976   4.536   3.753
 2563TIP3    H2 7654   1.932   4.398   3.709
 2564TIP3   OH2 7655   4.562   4.786   2.703
 2564TIP3    H1 7656   4.651   4.794   2.737
 2564TIP3    H2 7657   4.519   4.868   2.726
 2565TIP3   OH2 7658   3.855   4.554   0.248
 2565TIP3    H1 7659   3.920   4.486   0.229
 2565TIP3    H2 7660   3.810   4.522   0.327
 2566TIP3   OH2 7661   3.579   2.023   0.559
 2566TIP3    H1 7662   3.574   1.938   0.515
 2566TIP3    H2 7663   3.672   2.046   0.555
 2567TIP3   OH2 7664   5.856   0.677   4.532
 2567TIP3    H1 7665   5.892   0.759   4.568
 2567TIP3    H2 7666   5.927   0.614   4.540
 2568TIP3   OH2 7667   4.427   0.356   4.310
 2568TIP3    H1 7668   4.394   0.279   4.356
 2568TIP3    H2 7669   4.479   0.321   4.238
 2569TIP3   OH2 7670   5.905   0.906   0.027
 2569TIP3    H1 7671   5.812   0.923   0.044
 2569TIP3    H2 7672   5.948   0.925   0.110
 2570TIP3   OH2 7673   1.261   3.775   4.334
 2570TIP3    H1 7674   1.293   3.808   4.250
 2570TIP3    H2 7675   1.340   3.743   4.378
 2571TIP3   OH2 7676   2.077   2.093   3.060
 2571TIP3    H1 7677   2.046   2.116   2.973
 2571TIP3    H2 7678   2.167   2.066   3.048
 2572TIP3   OH2 7679   2.602   3.462   0.667
 2572TIP3    H1 7680   2.526   3.460   0.609
 2572TIP3    H2 7681   2.573   3.514   0.742
 2573TIP3   OH2 7682   5.776   1.142   4.719
 2573TIP3    H1 7683   5.687   1.107   4.720
 2573TIP3    H2 7684   5.774   1.211   4.653
 2574TIP3   OH2 7685   6.212   0.800   0.758
 2574TIP3    H1 7686   6.136   0.742   0.747
 2574TIP3    H2 7687   6.260   0.793   0.676
 2575TIP3   OH2 7688   4.359   4.755   5.298
 2575TIP3    H1 7689   4.379   4.842   5.332
 2575TIP3    H2 7690   4.442   4.725   5.260
 2576TIP3   OH2 7691   2.793   1.334   5.099
 2576TIP3    H1 7692   2.728   1.405   5.095
 2576TIP3    H2 7693   2.766   1.281   5.173
 2577TIP3   OH2 7694   4.961   2.838   3.600
 2577TIP3    H1 7695   5.020   2.905   3.563
 2577TIP3    H2 7696   4.988   2.832   3.692
 2578TIP3   OH2 7697   0.621   5.703   5.247
 2578TIP3    H1 7698   0.634   5.610   5.266
 2578TIP3    H2 7699   0.565   5.735   5.318
 2579TIP3   OH2 7700   5.654   3.008   4.278
 2579TIP3    H1 7701   5.628   2.965   4.360
 2579TIP3    H2 7702   5.658   2.937   4.214
 2580TIP3   OH2 7703   1.002   6.607   2.639
 2580TIP3    H1 7704   0.942   6.646   2.576
 2580TIP3    H2 7705   1.005   6.514   2.616
 2581TIP3   OH2 7706   3.622   6.440   0.041
 2581TIP3    H1 7707   3.623   6.523  -0.007
 2581TIP3    H2 7708   3.711   6.407   0.033
 2582TIP3   OH2 7709   5.794   6.333   4.663
 2582TIP3    H1 7710   5.827   6.422   4.649
 2582TIP3    H2 7711   5.730   6.320   4.593
 2583TIP3   OH2 7712   3.272   6.416   1.258
 2583TIP3    H1 7713   3.329   6.493   1.258
 2583TIP3    H2 7714   3.298   6.367   1.336
 2584TIP3   OH2 7715   5.624   1.174   2.463
 2584TIP3    H1 7716   5.685   1.127   2.406
 2584TIP3    H2 7717   5.544   1.122   2.462
 2585TIP3   OH2 7718   0.716   2.928   2.405
 2585TIP3    H1 7719   0.808   2.932   2.431
 2585TIP3    H2 7720   0.718   2.897   2.315
 2586TIP3   OH2 7721   5.615   0.703   4.260
 2586TIP3    H1 7722   5.522   0.712   4.278
 2586TIP3    H2 7723   5.648   0.648   4.332
 2587TIP3   OH2 7724   3.712   3.888   4.333
 2587TIP3    H1 7725   3.787   3.862   4.388
 2587TIP3    H2 7726   3.670   3.958   4.381
 2588TIP3   OH2 7727   3.521   5.050   5.539
 2588TIP3    H1 7728   3.483   4.969   5.504
 2588TIP3    H2 7729   3.599   5.065   5.485
 2589TIP3   OH2 7730   1.085   5.367   1.145
 2589TIP3    H1 7731   0.996   5.388   1.118
 2589TIP3    H2 7732   1.138   5.439   1.111
 2590TIP3   OH2 7733   2.240   0.723   5.489
 2590TIP3    H1 7734   2.262   0.646   5.437
 2590TIP3    H2 7735   2.152   0.706   5.522
 2591TIP3   OH2 7736   1.873   2.553   2.884
 2591TIP3    H1 7737   1.890   2.632   2.936
 2591TIP3    H2 7738   1.778   2.548   2.878
 2592TIP3   OH2 7739   6.318   4.594   3.577
 2592TIP3    H1 7740   6.254   4.530   3.609
 2592TIP3    H2 7741   6.268   4.674   3.562
 2593TIP3   OH2 7742   6.056   2.278   2.465
 2593TIP3    H1 7743   5.978   2.271   2.411
 2593TIP3    H2 7744   6.044   2.212   2.534
 2594TIP3   OH2 7745   5.846   6.382   0.945
 2594TIP3    H1 7746   5.870   6.296   0.979
 2594TIP3    H2 7747   5.750   6.383   0.947
 2595TIP3   OH2 7748   3.168   3.877   5.144
 2595TIP3    H1 7749   3.215   3.802   5.180
 2595TIP3    H2 7750   3.194   3.880   5.052
 2596TIP3   OH2 7751   5.577   6.535   0.338
 2596TIP3    H1 7752   5.502   6.518   0.281
 2596TIP3    H2 7753   5.560   6.622   0.375
 2597TIP3   OH2 7754   6.807   0.615   1.880
 2597TIP3    H1 7755   6.756   0.584   1.805
 2597TIP3    H2 7756   6.750   0.597   1.955
 2598TIP3   OH2 7757   3.570   1.115   3.430
 2598TIP3    H1 7758   3.543   1.184   3.490
 2598TIP3    H2 7759   3.559   1.034   3.479
 2599TIP3   OH2 7760   2.099   1.974   2.555
 2599TIP3    H1 7761   2.176   1.939   2.600
 2599TIP3    H2 7762   2.025   1.949   2.609
 2600TIP3   OH2 7763   4.660   1.203   1.123
 2600TIP3    H1 7764   4.628   1.269   1.062
 2600TIP3    H2 7765   4.741   1.239   1.158
 2601TIP3   OH2 7766   5.518   4.237   3.752
 2601TIP3    H1 7767   5.470   4.301   3.804
 2601TIP3    H2 7768   5.504   4.263   3.661
 2602TIP3   OH2 7769   1.818   3.953   2.884
 2602TIP3    H1 7770   1.734   3.999   2.884
 2602TIP3    H2 7771   1.881   4.020   2.857
 2603TIP3   OH2 7772   3.969   4.480   3.480
 2603TIP3    H1 7773   3.957   4.467   3.386
 2603TIP3    H2 7774   3.894   4.436   3.519
 2604TIP3   OH2 7775   6.080   4.605   2.843
 2604TIP3    H1 7776   6.156   4.561   2.880
 2604TIP3    H2 7777   6.005   4.559   2.882
 2605TIP3   OH2 7778   6.332   1.030   3.453
 2605TIP3    H1 7779   6.330   0.942   3.414
 2605TIP3    H2 7780   6.253   1.072   3.420
 2606TIP3   OH2 7781   3.132   5.051   1.722
 2606TIP3    H1 7782   3.040   5.072   1.736
 2606TIP3    H2 7783   3.142   5.048   1.626
 2607TIP3   OH2 7784   1.798   4.674   3.581
 2607TIP3    H1 7785   1.804   4.659   3.487
 2607TIP3    H2 7786   1.855   4.607   3.620
 2608TIP3   OH2 7787   3.785   3.375   0.095
 2608TIP3    H1 7788   3.788   3.317   0.171
 2608TIP3    H2 7789   3.868   3.422   0.098
 2609TIP3   OH2 7790   6.948   5.197   1.860
 2609TIP3    H1 7791   6.942   5.102   1.864
 2609TIP3    H2 7792   6.910   5.221   1.776
 2610TIP3   OH2 7793   3.037   2.520   4.234
 2610TIP3    H1 7794   3.032   2.610   4.265
 2610TIP3    H2 7795   2.951   2.483   4.255
 2611TIP3   OH2 7796   3.428   6.220   5.242
 2611TIP3    H1 7797   3.333   6.208   5.235
 2611TIP3    H2 7798   3.457   6.148   5.298
 2612TIP3   OH2 7799   4.842   4.837   4.599
 2612TIP3    H1 7800   4.859   4.774   4.529
 2612TIP3    H2 7801   4.750   4.863   4.586
 2613TIP3   OH2 7802   3.953   5.341   0.785
 2613TIP3    H1 7803   3.876   5.321   0.731
 2613TIP3    H2 7804   3.964   5.436   0.777
 2614TIP3   OH2 7805   2.581   4.589   5.698
 2614TIP3    H1 7806   2.522   4.620   5.767
 2614TIP3    H2 7807   2.532   4.602   5.617
 2615TIP3   OH2 7808   5.099   5.110   0.467
 2615TIP3    H1 7809   5.101   5.115   0.562
 2615TIP3    H2 7810   5.074   5.197   0.438
 2616TIP3   OH2 7811   2.830   5.664   3.245
 2616TIP3    H1 7812   2.880   5.678   3.325
 2616TIP3    H2 7813   2.885   5.605   3.193
 2617TIP3   OH2 7814   0.775   6.379   3.023
 2617TIP3    H1 7815   0.848   6.359   2.965
 2617TIP3    H2 7816   0.793   6.331   3.103
 2618TIP3   OH2 7817   4.261   3.218   4.374
 2618TIP3    H1 7818   4.326   3.147   4.376
 2618TIP3    H2 7819   4.224   3.219   4.462
 2619TIP3   OH2 7820   4.089   1.203   0.990
 2619TIP3    H1 7821   4.085   1.173   0.900
 2619TIP3    H2 7822   4.180   1.232   1.002
 2620TIP3   OH2 7823   0.409   0.751   0.977
 2620TIP3    H1 7824   0.437   0.715   0.893
 2620TIP3    H2 7825   0.313   0.754   0.971
 2621TIP3   OH2 7826   5.350   4.206   0.766
 2621TIP3    H1 7827   5.299   4.246   0.696
 2621TIP3    H2 7828   5.441   4.212   0.736
 2622TIP3   OH2 7829   5.245   1.741   5.825
 2622TIP3    H1 7830   5.288   1.767   5.743
 2622TIP3    H2 7831   5.267   1.811   5.886
 2623TIP3   OH2 7832   1.217   1.277   0.880
 2623TIP3    H1 7833   1.193   1.325   0.958
 2623TIP3    H2 7834   1.255   1.343   0.821
 2624TIP3   OH2 7835   2.383   0.738   5.731
 2624TIP3    H1 7836   2.451   0.671   5.726
 2624TIP3    H2 7837   2.322   0.716   5.661
 2625TIP3   OH2 7838   3.864   4.833   0.174
 2625TIP3    H1 7839   3.796   4.835   0.107
 2625TIP3    H2 7840   3.867   4.742   0.203
 2626TIP3   OH2 7841   6.472   1.029   0.317
 2626TIP3    H1 7842   6.522   1.042   0.398
 2626TIP3    H2 7843   6.464   0.934   0.309
 2627TIP3   OH2 7844   3.194   6.294   2.237
 2627TIP3    H1 7845   3.252   6.240   2.290
 2627TIP3    H2 7846   3.116   6.306   2.291
 2628TIP3   OH2 7847   7.076   6.741   1.285
 2628TIP3    H1 7848   7.081   6.684   1.209
 2628TIP3    H2 7849   7.053   6.827   1.250
 2629TIP3   OH2 7850   0.067   0.955   0.044
 2629TIP3    H1 7851  -0.024   0.952   0.073
 2629TIP3    H2 7852   0.092   1.047   0.052
 2630TIP3   OH2 7853   6.476   5.074   1.225
 2630TIP3    H1 7854   6.530   4.995   1.216
 2630TIP3    H2 7855   6.388   5.046   1.197
 2631TIP3   OH2 7856   2.921   4.332   0.273
 2631TIP3    H1 7857   2.950   4.335   0.182
 2631TIP3    H2 7858   2.908   4.424   0.296
 2632TIP3   OH2 7859   0.504   1.601   4.365
 2632TIP3    H1 7860   0.450   1.558   4.299
 2632TIP3    H2 7861   0.586   1.620   4.321
 2633TIP3   OH2 7862   1.104   1.512   4.910
 2633TIP3    H1 7863   1.027   1.511   4.854
 2633TIP3    H2 7864   1.073   1.478   4.994
 2634TIP3   OH2 7865   2.829   2.542   0.289
 2634TIP3    H1 7866   2.817   2.498   0.205
 2634TIP3    H2 7867   2.904   2.498   0.329
 2635TIP3   OH2 7868   7.155   1.192   5.774
 2635TIP3    H1 7869   7.140   1.214   5.865
 2635TIP3    H2 7870   7.223   1.124   5.776
 2636TIP3   OH2 7871   5.018   1.746   4.098
 2636TIP3    H1 7872   5.015   1.832   4.055
 2636TIP3    H2 7873   4.956   1.752   4.170
 2637TIP3   OH2 7874   3.021   0.241   4.533
 2637TIP3    H1 7875   3.003   0.221   4.625
 2637TIP3    H2 7876   3.078   0.169   4.504
 2638TIP3   OH2 7877   6.780   5.243   1.330
 2638TIP3    H1 7878   6.773   5.280   1.242
 2638TIP3    H2 7879   6.827   5.161   1.318
 2639TIP3   OH2 7880   0.219   2.848   2.069
 2639TIP3    H1 7881   0.208   2.782   2.138
 2639TIP3    H2 7882   0.309   2.836   2.039
 2640TIP3   OH2 7883   4.497   1.447   4.048
 2640TIP3    H1 7884   4.477   1.392   3.972
 2640TIP3    H2 7885   4.580   1.489   4.027
 2641TIP3   OH2 7886   2.808   1.564   4.030
 2641TIP3    H1 7887   2.899   1.588   4.045
 2641TIP3    H2 7888   2.774   1.633   3.974
 2642TIP3   OH2 7889   7.103   6.588   0.176
 2642TIP3    H1 7890   7.130   6.496   0.182
 2642TIP3    H2 7891   7.007   6.585   0.180
 2643TIP3   OH2 7892   6.239   2.241   4.333
 2643TIP3    H1 7893   6.293   2.173   4.294
 2643TIP3    H2 7894   6.301   2.311   4.355
 2644TIP3   OH2 7895   2.374   3.390   5.705
 2644TIP3    H1 7896   2.411   3.381   5.793
 2644TIP3    H2 7897   2.301   3.450   5.716
 2645TIP3   OH2 7898   0.479   5.786   0.945
 2645TIP3    H1 7899   0.551   5.791   0.882
 2645TIP3    H2 7900   0.496   5.707   0.995
 2646TIP3   OH2 7901   6.962   5.777   3.999
 2646TIP3    H1 7902   7.001   5.690   4.014
 2646TIP3    H2 7903   6.888   5.781   4.060
 2647TIP3   OH2 7904   5.363   4.196   3.088
 2647TIP3    H1 7905   5.454   4.165   3.093
 2647TIP3    H2 7906   5.314   4.120   3.056
 2648TIP3   OH2 7907   0.576   1.580   2.557
 2648TIP3    H1 7908   0.537   1.634   2.488
 2648TIP3    H2 7909   0.522   1.501   2.559
 2649TIP3   OH2 7910   5.253   3.128   4.547
 2649TIP3    H1 7911   5.347   3.145   4.539
 2649TIP3    H2 7912   5.232   3.149   4.638
 2650TIP3   OH2 7913   5.027   3.585   1.453
 2650TIP3    H1 7914   4.974   3.528   1.509
 2650TIP3    H2 7915   5.117   3.568   1.481
 2651TIP3   OH2 7916   1.301   0.296   4.089
 2651TIP3    H1 7917   1.225   0.267   4.140
 2651TIP3    H2 7918   1.266   0.362   4.029
 2652TIP3   OH2 7919   4.649   4.501   4.569
 2652TIP3    H1 7920   4.648   4.498   4.473
 2652TIP3    H2 7921   4.650   4.409   4.595
 2653TIP3   OH2 7922   6.531   6.540   0.683
 2653TIP3    H1 7923   6.533   6.596   0.605
 2653TIP3    H2 7924   6.604   6.480   0.672
 2654TIP3   OH2 7925   0.068   0.885   2.296
 2654TIP3    H1 7926   0.006   0.958   2.287
 2654TIP3    H2 7927   0.082   0.854   2.206
 2655TIP3   OH2 7928   6.154   2.433   4.628
 2655TIP3    H1 7929   6.190   2.351   4.664
 2655TIP3    H2 7930   6.228   2.494   4.631
 2656TIP3   OH2 7931   4.721   3.459   5.625
 2656TIP3    H1 7932   4.676   3.487   5.545
 2656TIP3    H2 7933   4.768   3.379   5.599
 2657TIP3   OH2 7934   4.432   5.555   3.900
 2657TIP3    H1 7935   4.342   5.523   3.902
 2657TIP3    H2 7936   4.431   5.626   3.836
 2658TIP3   OH2 7937   4.070   4.966   3.110
 2658TIP3    H1 7938   4.099   4.914   3.185
 2658TIP3    H2 7939   3.999   5.020   3.144
 2659TIP3   OH2 7940   2.242   0.972   4.229
 2659TIP3    H1 7941   2.222   0.919   4.306
 2659TIP3    H2 7942   2.236   1.063   4.261
 2660TIP3   OH2 7943   6.014   0.734   3.559
 2660TIP3    H1 7944   6.080   0.670   3.585
 2660TIP3    H2 7945   5.941   0.720   3.619
 2661TIP3   OH2 7946   2.764   4.829   0.469
 2661TIP3    H1 7947   2.731   4.915   0.443
 2661TIP3    H2 7948   2.828   4.847   0.538
 2662TIP3   OH2 7949   5.238   2.343   1.677
 2662TIP3    H1 7950   5.279   2.367   1.760
 2662TIP3    H2 7951   5.160   2.294   1.701
 2663TIP3   OH2 7952   0.206   6.796   1.835
 2663TIP3    H1 7953   0.229   6.810   1.927
 2663TIP3    H2 7954   0.233   6.706   1.817
 2664TIP3   OH2 7955   0.718   2.422   4.054
 2664TIP3    H1 7956   0.692   2.511   4.030
 2664TIP3    H2 7957   0.647   2.389   4.109
 2665TIP3   OH2 7958   5.446   2.391   3.140
 2665TIP3    H1 7959   5.412   2.312   3.098
 2665TIP3    H2 7960   5.371   2.429   3.185
 2666TIP3   OH2 7961   1.227   6.688   4.758
 2666TIP3    H1 7962   1.268   6.774   4.768
 2666TIP3    H2 7963   1.174   6.677   4.837
 2667TIP3   OH2 7964   7.071   2.537   0.553
 2667TIP3    H1 7965   6.985   2.579   0.565
 2667TIP3    H2 7966   7.084   2.487   0.633
 2668TIP3   OH2 7967   7.117   5.387   0.098
 2668TIP3    H1 7968   7.117   5.477   0.130
 2668TIP3    H2 7969   7.092   5.334   0.174
 2669TIP3   OH2 7970   3.736   1.119   5.378
 2669TIP3    H1 7971   3.811   1.174   5.397
 2669TIP3    H2 7972   3.666   1.180   5.356
 2670TIP3   OH2 7973   1.878   1.662   1.432
 2670TIP3    H1 7974   1.872   1.702   1.518
 2670TIP3    H2 7975   1.830   1.722   1.375
 2671TIP3   OH2 7976   6.695   2.420   5.724
 2671TIP3    H1 7977   6.781   2.391   5.694
 2671TIP3    H2 7978   6.684   2.507   5.686
 2672TIP3   OH2 7979   5.781   5.617   0.966
 2672TIP3    H1 7980   5.703   5.619   1.021
 2672TIP3    H2 7981   5.804   5.709   0.953
 2673TIP3   OH2 7982   3.536   1.435   3.974
 2673TIP3    H1 7983   3.612   1.491   3.958
 2673TIP3    H2 7984   3.484   1.442   3.894
 2674TIP3   OH2 7985   4.879   1.997   1.657
 2674TIP3    H1 7986   4.894   1.903   1.665
 2674TIP3    H2 7987   4.820   2.018   1.729
 2675TIP3   OH2 7988   5.961   3.534   3.483
 2675TIP3    H1 7989   5.937   3.624   3.503
 2675TIP3    H2 7990   6.030   3.513   3.546
 2676TIP3   OH2 7991   2.403   3.502   0.455
 2676TIP3    H1 7992   2.342   3.431   0.476
 2676TIP3    H2 7993   2.388   3.519   0.362
 2677TIP3   OH2 7994   3.247   2.461   5.596
 2677TIP3    H1 7995   3.193   2.425   5.526
 2677TIP3    H2 7996   3.303   2.388   5.623
 2678TIP3   OH2 7997   2.790   0.555   3.250
 2678TIP3    H1 7998   2.751   0.492   3.311
 2678TIP3    H2 7999   2.804   0.506   3.169
 2679TIP3   OH2 8000   3.687   6.423   2.928
 2679TIP3    H1 8001   3.717   6.512   2.946
 2679TIP3    H2 8002   3.642   6.395   3.007
 2680TIP3   OH2 8003   0.660   0.783   4.075
 2680TIP3    H1 8004   0.694   0.854   4.021
 2680TIP3    H2 8005   0.643   0.823   4.160
 2681TIP3   OH2 8006   3.028   6.399   4.170
 2681TIP3    H1 8007   2.961   6.394   4.101
 2681TIP3    H2 8008   3.103   6.440   4.126
 2682TIP3   OH2 8009   4.599   1.392   1.639
 2682TIP3    H1 8010   4.615   1.469   1.584
 2682TIP3    H2 8011   4.558   1.329   1.580
 2683TIP3   OH2 8012   0.297   1.476   0.862
 2683TIP3    H1 8013   0.381   1.481   0.815
 2683TIP3    H2 8014   0.233   1.506   0.798
 2684TIP3   OH2 8015   6.031   4.569   3.242
 2684TIP3    H1 8016   5.979   4.516   3.302
 2684TIP3    H2 8017   5.984   4.564   3.159
 2685TIP3   OH2 8018   0.391   4.246   0.457
 2685TIP3    H1 8019   0.356   4.335   0.458
 2685TIP3    H2 8020   0.321   4.193   0.421
 2686TIP3   OH2 8021   6.944   6.150   4.229
 2686TIP3    H1 8022   7.022   6.137   4.176
 2686TIP3    H2 8023   6.872   6.148   4.166
 2687TIP3   OH2 8024   5.633   1.386   0.090
 2687TIP3    H1 8025   5.542   1.358   0.079
 2687TIP3    H2 8026   5.639   1.467   0.041
 2688TIP3   OH2 8027   7.120   3.195   5.002
 2688TIP3    H1 8028   7.149   3.286   4.997
 2688TIP3    H2 8029   7.200   3.145   5.017
 2689TIP3   OH2 8030   3.140   2.030   3.439
 2689TIP3    H1 8031   3.107   2.041   3.350
 2689TIP3    H2 8032   3.172   1.940   3.442
 2690TIP3   OH2 8033   4.430   6.606   2.569
 2690TIP3    H1 8034   4.482   6.684   2.587
 2690TIP3    H2 8035   4.426   6.601   2.474
 2691TIP3   OH2 8036   1.007   0.475   3.021
 2691TIP3    H1 8037   0.952   0.515   2.954
 2691TIP3    H2 8038   1.049   0.401   2.977
 2692TIP3   OH2 8039   5.514   0.026   3.014
 2692TIP3    H1 8040   5.501  -0.067   2.994
 2692TIP3    H2 8041   5.600   0.047   2.978
 2693TIP3   OH2 8042   2.476   3.131   2.998
 2693TIP3    H1 8043   2.455   3.213   2.953
 2693TIP3    H2 8044   2.550   3.095   2.950
 2694TIP3   OH2 8045   2.620   3.416   3.545
 2694TIP3    H1 8046   2.540   3.427   3.493
 2694TIP3    H2 8047   2.617   3.488   3.608
 2695TIP3   OH2 8048   6.210   6.374   3.890
 2695TIP3    H1 8049   6.206   6.421   3.974
 2695TIP3    H2 8050   6.302   6.349   3.882
 2696TIP3   OH2 8051   0.461   4.757   5.650
 2696TIP3    H1 8052   0.378   4.745   5.604
 2696TIP3    H2 8053   0.524   4.777   5.581
 2697TIP3   OH2 8054   3.610   0.138   5.110
 2697TIP3    H1 8055   3.687   0.114   5.161
 2697TIP3    H2 8056   3.641   0.144   5.020
 2698TIP3   OH2 8057   1.819   4.658   4.494
 2698TIP3    H1 8058   1.803   4.752   4.507
 2698TIP3    H2 8059   1.749   4.615   4.543
 2699TIP3   OH2 8060   6.346   3.227   5.128
 2699TIP3    H1 8061   6.360   3.320   5.147
 2699TIP3    H2 8062   6.434   3.192   5.118
 2700TIP3   OH2 8063   4.640   2.182   0.906
 2700TIP3    H1 8064   4.565   2.152   0.854
 2700TIP3    H2 8065   4.678   2.253   0.853
 2701TIP3   OH2 8066   1.300   5.678   4.992
 2701TIP3    H1 8067   1.336   5.626   4.920
 2701TIP3    H2 8068   1.375   5.728   5.025
 2702TIP3   OH2 8069   4.945   4.469   0.163
 2702TIP3    H1 8070   4.905   4.432   0.241
 2702TIP3    H2 8071   4.896   4.431   0.090
 2703TIP3   OH2 8072   0.343   3.442   3.834
 2703TIP3    H1 8073   0.287   3.402   3.900
 2703TIP3    H2 8074   0.312   3.532   3.826
 2704TIP3   OH2 8075   4.085   4.807   1.976
 2704TIP3    H1 8076   4.058   4.771   2.060
 2704TIP3    H2 8077   4.130   4.735   1.932
 2705TIP3   OH2 8078   6.060   2.503   4.933
 2705TIP3    H1 8079   6.148   2.534   4.956
 2705TIP3    H2 8080   6.074   2.438   4.864
 2706TIP3   OH2 8081   2.201   2.274   3.261
 2706TIP3    H1 8082   2.169   2.226   3.185
 2706TIP3    H2 8083   2.134   2.261   3.328
 2707TIP3   OH2 8084   0.418   3.209   4.560
 2707TIP3    H1 8085   0.419   3.115   4.576
 2707TIP3    H2 8086   0.327   3.229   4.539
 2708TIP3   OH2 8087   4.307   0.383   0.301
 2708TIP3    H1 8088   4.283   0.377   0.208
 2708TIP3    H2 8089   4.355   0.303   0.318
 2709TIP3   OH2 8090   3.630   5.104   4.914
 2709TIP3    H1 8091   3.710   5.084   4.962
 2709TIP3    H2 8092   3.563   5.116   4.982
 2710TIP3   OH2 8093   4.347   4.527   3.477
 2710TIP3    H1 8094   4.279   4.586   3.511
 2710TIP3    H2 8095   4.426   4.581   3.475
 2711TIP3   OH2 8096   0.693   1.827   0.674
 2711TIP3    H1 8097   0.775   1.809   0.719
 2711TIP3    H2 8098   0.710   1.805   0.583
 2712TIP3   OH2 8099   3.593   0.700   2.400
 2712TIP3    H1 8100   3.503   0.667   2.400
 2712TIP3    H2 8101   3.646   0.624   2.379
 2713TIP3   OH2 8102   6.396   2.708   0.506
 2713TIP3    H1 8103   6.479   2.684   0.464
 2713TIP3    H2 8104   6.346   2.627   0.510
 2714TIP3   OH2 8105   0.003   1.221   3.264
 2714TIP3    H1 8106  -0.083   1.178   3.259
 2714TIP3    H2 8107   0.064   1.157   3.227
 2715TIP3   OH2 8108   3.017   4.814   5.186
 2715TIP3    H1 8109   3.007   4.729   5.143
 2715TIP3    H2 8110   2.953   4.870   5.142
 2716TIP3   OH2 8111   0.801   1.858   5.678
 2716TIP3    H1 8112   0.776   1.791   5.742
 2716TIP3    H2 8113   0.796   1.940   5.726
 2717TIP3   OH2 8114   2.819   3.581   1.908
 2717TIP3    H1 8115   2.781   3.501   1.871
 2717TIP3    H2 8116   2.850   3.630   1.831
 2718TIP3   OH2 8117   1.388   1.402   2.654
 2718TIP3    H1 8118   1.345   1.318   2.669
 2718TIP3    H2 8119   1.477   1.380   2.627
 2719TIP3   OH2 8120   0.511   4.932   4.491
 2719TIP3    H1 8121   0.488   4.903   4.580
 2719TIP3    H2 8122   0.504   4.852   4.438
 2720TIP3   OH2 8123   3.631   2.633   5.648
 2720TIP3    H1 8124   3.647   2.572   5.576
 2720TIP3    H2 8125   3.718   2.645   5.688
 2721TIP3   OH2 8126   3.442   6.609   2.690
 2721TIP3    H1 8127   3.371   6.616   2.626
 2721TIP3    H2 8128   3.442   6.517   2.715
 2722TIP3   OH2 8129   3.912   2.271   3.060
 2722TIP3    H1 8130   3.907   2.360   3.094
 2722TIP3    H2 8131   3.847   2.269   2.989
 2723TIP3   OH2 8132   0.473   6.338   3.707
 2723TIP3    H1 8133   0.467   6.386   3.789
 2723TIP3    H2 8134   0.404   6.376   3.652
 2724TIP3   OH2 8135   0.081   6.751   4.067
 2724TIP3    H1 8136   0.001   6.778   4.113
 2724TIP3    H2 8137   0.078   6.801   3.985
 2725TIP3   OH2 8138   0.098   5.215   2.671
 2725TIP3    H1 8139   0.106   5.124   2.643
 2725TIP3    H2 8140   0.092   5.211   2.766
 2726TIP3   OH2 8141   5.034   0.814   1.728
 2726TIP3    H1 8142   5.115   0.862   1.714
 2726TIP3    H2 8143   5.062   0.729   1.761
 2727TIP3   OH2 8144   2.593   2.147   5.741
 2727TIP3    H1 8145   2.573   2.073   5.798
 2727TIP3    H2 8146   2.561   2.120   5.655
 2728TIP3   OH2 8147   3.574   3.357   1.182
 2728TIP3    H1 8148   3.645   3.311   1.138
 2728TIP3    H2 8149   3.500   3.297   1.178
 2729TIP3   OH2 8150   4.545   3.249   2.411
 2729TIP3    H1 8151   4.635   3.270   2.388
 2729TIP3    H2 8152   4.516   3.322   2.466
 2730TIP3   OH2 8153   1.102   2.956   1.274
 2730TIP3    H1 8154   1.039   2.940   1.203
 2730TIP3    H2 8155   1.187   2.930   1.237
 2731TIP3   OH2 8156   0.922   1.341   3.406
 2731TIP3    H1 8157   0.878   1.422   3.381
 2731TIP3    H2 8158   0.913   1.283   3.330
 2732TIP3   OH2 8159   4.546   4.812   1.550
 2732TIP3    H1 8160   4.538   4.858   1.633
 2732TIP3    H2 8161   4.519   4.877   1.484
 2733TIP3   OH2 8162   1.290   6.709   2.204
 2733TIP3    H1 8163   1.348   6.762   2.258
 2733TIP3    H2 8164   1.342   6.685   2.127
 2734TIP3   OH2 8165   1.163   6.544   2.879
 2734TIP3    H1 8166   1.205   6.628   2.896
 2734TIP3    H2 8167   1.074   6.567   2.850
 2735TIP3   OH2 8168   0.046   5.968   0.760
 2735TIP3    H1 8169  -0.037   5.991   0.802
 2735TIP3    H2 8170   0.107   5.955   0.833
 2736TIP3   OH2 8171   4.428   4.786   2.338
 2736TIP3    H1 8172   4.341   4.815   2.309
 2736TIP3    H2 8173   4.482   4.865   2.334
 2737TIP3   OH2 8174   6.922   4.691   3.242
 2737TIP3    H1 8175   6.937   4.785   3.245
 2737TIP3    H2 8176   6.898   4.667   3.331
 2738TIP3   OH2 8177   1.677   0.697   3.450
 2738TIP3    H1 8178   1.638   0.621   3.493
 2738TIP3    H2 8179   1.714   0.662   3.369
 2739TIP3   OH2 8180   4.366   4.524   5.476
 2739TIP3    H1 8181   4.351   4.595   5.414
 2739TIP3    H2 8182   4.425   4.561   5.541
 2740TIP3   OH2 8183   2.694   5.890   0.845
 2740TIP3    H1 8184   2.702   5.799   0.817
 2740TIP3    H2 8185   2.601   5.900   0.868
 2741TIP3   OH2 8186   1.903   5.596   5.532
 2741TIP3    H1 8187   1.997   5.581   5.543
 2741TIP3    H2 8188   1.864   5.509   5.546
 2742TIP3   OH2 8189   4.642   4.912   4.407
 2742TIP3    H1 8190   4.549   4.889   4.405
 2742TIP3    H2 8191   4.687   4.828   4.398
 2743TIP3   OH2 8192   1.253   6.698   3.462
 2743TIP3    H1 8193   1.245   6.772   3.521
 2743TIP3    H2 8194   1.174   6.646   3.478
 2744TIP3   OH2 8195   3.685   1.290   2.807
 2744TIP3    H1 8196   3.607   1.309   2.756
 2744TIP3    H2 8197   3.756   1.284   2.743
 2745TIP3   OH2 8198   6.559   0.355   5.692
 2745TIP3    H1 8199   6.503   0.287   5.655
 2745TIP3    H2 8200   6.526   0.366   5.782
 2746TIP3   OH2 8201   5.219   5.827   4.462
 2746TIP3    H1 8202   5.153   5.822   4.531
 2746TIP3    H2 8203   5.229   5.921   4.446
 2747TIP3   OH2 8204   0.637   5.338   4.572
 2747TIP3    H1 8205   0.645   5.283   4.650
 2747TIP3    H2 8206   0.727   5.354   4.545
 2748TIP3   OH2 8207   2.286   5.359   2.106
 2748TIP3    H1 8208   2.357   5.416   2.135
 2748TIP3    H2 8209   2.225   5.358   2.180
 2749TIP3   OH2 8210   7.077   1.614   4.530
 2749TIP3    H1 8211   7.163   1.624   4.572
 2749TIP3    H2 8212   7.024   1.568   4.594
 2750TIP3   OH2 8213   6.678   4.211   3.304
 2750TIP3    H1 8214   6.686   4.304   3.324
 2750TIP3    H2 8215   6.751   4.170   3.350
 2751TIP3   OH2 8216   0.698  -0.003   1.200
 2751TIP3    H1 8217   0.717  -0.019   1.292
 2751TIP3    H2 8218   0.671   0.089   1.196
 2752TIP3   OH2 8219   4.277   2.197   1.084
 2752TIP3    H1 8220   4.210   2.250   1.128
 2752TIP3    H2 8221   4.317   2.258   1.022
 2753TIP3   OH2 8222   0.791   0.131   3.053
 2753TIP3    H1 8223   0.775   0.158   2.963
 2753TIP3    H2 8224   0.883   0.106   3.055
 2754TIP3   OH2 8225   5.283   4.895   3.246
 2754TIP3    H1 8226   5.211   4.940   3.290
 2754TIP3    H2 8227   5.243   4.819   3.205
 2755TIP3   OH2 8228   4.244   2.531   2.812
 2755TIP3    H1 8229   4.323   2.500   2.769
 2755TIP3    H2 8230   4.273   2.558   2.899
 2756TIP3   OH2 8231   7.054   4.617   1.991
 2756TIP3    H1 8232   7.144   4.636   1.963
 2756TIP3    H2 8233   7.011   4.703   1.990
 2757TIP3   OH2 8234   2.234   6.520   2.570
 2757TIP3    H1 8235   2.194   6.581   2.632
 2757TIP3    H2 8236   2.168   6.451   2.559
 2758TIP3   OH2 8237   2.723   6.619   3.608
 2758TIP3    H1 8238   2.652   6.607   3.545
 2758TIP3    H2 8239   2.700   6.699   3.656
 2759TIP3   OH2 8240   4.557   5.605   0.459
 2759TIP3    H1 8241   4.509   5.649   0.530
 2759TIP3    H2 8242   4.638   5.576   0.500
 2760TIP3   OH2 8243   2.364   1.449   0.831
 2760TIP3    H1 8244   2.308   1.468   0.755
 2760TIP3    H2 8245   2.305   1.454   0.906
 2761TIP3   OH2 8246   3.440   0.542   2.171
 2761TIP3    H1 8247   3.524   0.535   2.126
 2761TIP3    H2 8248   3.403   0.626   2.141
 2762TIP3   OH2 8249   5.189   6.306   3.943
 2762TIP3    H1 8250   5.161   6.221   3.977
 2762TIP3    H2 8251   5.222   6.287   3.855
 2763TIP3   OH2 8252   2.375   1.211   0.550
 2763TIP3    H1 8253   2.396   1.118   0.558
 2763TIP3    H2 8254   2.460   1.255   0.551
 2764TIP3   OH2 8255   2.105   0.651   1.207
 2764TIP3    H1 8256   2.181   0.604   1.240
 2764TIP3    H2 8257   2.100   0.730   1.260
 2765TIP3   OH2 8258   1.796   2.203   4.625
 2765TIP3    H1 8259   1.853   2.267   4.581
 2765TIP3    H2 8260   1.735   2.257   4.676
 2766TIP3   OH2 8261   4.807   3.051   5.044
 2766TIP3    H1 8262   4.771   3.115   4.982
 2766TIP3    H2 8263   4.738   3.041   5.110
 2767TIP3   OH2 8264   1.991   2.872   5.463
 2767TIP3    H1 8265   1.933   2.901   5.393
 2767TIP3    H2 8266   1.937   2.876   5.542
 2768TIP3   OH2 8267   2.918   3.968   2.523
 2768TIP3    H1 8268   2.906   4.033   2.454
 2768TIP3    H2 8269   2.986   4.005   2.579
 2769TIP3   OH2 8270   0.013   4.332   2.470
 2769TIP3    H1 8271  -0.010   4.297   2.383
 2769TIP3    H2 8272   0.108   4.347   2.465
 2770TIP3   OH2 8273   4.367   6.790   3.654
 2770TIP3    H1 8274   4.409   6.875   3.666
 2770TIP3    H2 8275   4.273   6.809   3.659
 2771TIP3   OH2 8276   5.083   3.134   0.376
 2771TIP3    H1 8277   5.146   3.184   0.427
 2771TIP3    H2 8278   5.006   3.127   0.432
 2772TIP3   OH2 8279   5.151   3.369   5.529
 2772TIP3    H1 8280   5.113   3.289   5.565
 2772TIP3    H2 8281   5.095   3.439   5.560
 2773TIP3   OH2 8282   4.757   4.267   3.543
 2773TIP3    H1 8283   4.796   4.180   3.543
 2773TIP3    H2 8284   4.697   4.266   3.618
 2774TIP3   OH2 8285   6.567   5.922   0.570
 2774TIP3    H1 8286   6.615   5.976   0.507
 2774TIP3    H2 8287   6.631   5.857   0.600
 2775TIP3   OH2 8288   1.641   0.925   5.694
 2775TIP3    H1 8289   1.714   0.871   5.723
 2775TIP3    H2 8290   1.565   0.887   5.737
 2776TIP3   OH2 8291   1.011   2.324   4.387
 2776TIP3    H1 8292   1.049   2.267   4.454
 2776TIP3    H2 8293   1.078   2.331   4.320
 2777TIP3   OH2 8294   1.331   6.036   3.291
 2777TIP3    H1 8295   1.296   5.975   3.356
 2777TIP3    H2 8296   1.406   6.077   3.334
 2778TIP3   OH2 8297   3.218   5.722   2.183
 2778TIP3    H1 8298   3.242   5.640   2.141
 2778TIP3    H2 8299   3.186   5.777   2.112
 2779TIP3   OH2 8300   0.662   1.173   5.455
 2779TIP3    H1 8301   0.570   1.147   5.448
 2779TIP3    H2 8302   0.662   1.243   5.520
 2780TIP3   OH2 8303   4.264   2.503   0.572
 2780TIP3    H1 8304   4.241   2.587   0.532
 2780TIP3    H2 8305   4.250   2.439   0.503
 2781TIP3   OH2 8306   3.478   3.248   5.463
 2781TIP3    H1 8307   3.396   3.201   5.481
 2781TIP3    H2 8308   3.529   3.186   5.411
 2782TIP3   OH2 8309   2.492   3.251   4.536
 2782TIP3    H1 8310   2.517   3.199   4.613
 2782TIP3    H2 8311   2.576   3.274   4.495
 2783TIP3   OH2 8312   4.102   5.594   2.155
 2783TIP3    H1 8313   4.030   5.655   2.137
 2783TIP3    H2 8314   4.168   5.648   2.199
 2784TIP3   OH2 8315   7.125   1.214   4.763
 2784TIP3    H1 8316   7.050   1.248   4.715
 2784TIP3    H2 8317   7.182   1.176   4.696
 2785TIP3   OH2 8318   4.201   1.174   2.897
 2785TIP3    H1 8319   4.168   1.248   2.948
 2785TIP3    H2 8320   4.277   1.142   2.946
 2786TIP3   OH2 8321   1.649   6.496   4.771
 2786TIP3    H1 8322   1.671   6.553   4.845
 2786TIP3    H2 8323   1.553   6.496   4.768
 2787TIP3   OH2 8324   5.469   3.730   3.908
 2787TIP3    H1 8325   5.437   3.757   3.994
 2787TIP3    H2 8326   5.508   3.809   3.871
 2788TIP3   OH2 8327   5.555   1.445   1.339
 2788TIP3    H1 8328   5.571   1.440   1.245
 2788TIP3    H2 8329   5.618   1.510   1.371
 2789TIP3   OH2 8330   5.501   4.234   1.275
 2789TIP3    H1 8331   5.565   4.281   1.222
 2789TIP3    H2 8332   5.508   4.143   1.246
 2790TIP3   OH2 8333   4.282   2.029   3.324
 2790TIP3    H1 8334   4.342   2.102   3.311
 2790TIP3    H2 8335   4.196   2.064   3.299
 2791TIP3   OH2 8336   2.921   6.559   5.174
 2791TIP3    H1 8337   2.948   6.570   5.265
 2791TIP3    H2 8338   2.908   6.465   5.164
 2792TIP3   OH2 8339   6.269   4.191   4.428
 2792TIP3    H1 8340   6.285   4.285   4.415
 2792TIP3    H2 8341   6.334   4.165   4.493
 2793TIP3   OH2 8342   2.212   1.920   0.544
 2793TIP3    H1 8343   2.209   1.897   0.637
 2793TIP3    H2 8344   2.133   1.972   0.530
 2794TIP3   OH2 8345   6.955   3.665   5.050
 2794TIP3    H1 8346   6.967   3.587   4.996
 2794TIP3    H2 8347   6.969   3.634   5.140
 2795TIP3   OH2 8348   5.252   1.950   1.099
 2795TIP3    H1 8349   5.267   2.032   1.146
 2795TIP3    H2 8350   5.319   1.891   1.133
 2796TIP3   OH2 8351   4.423   0.424   2.576
 2796TIP3    H1 8352   4.501   0.412   2.631
 2796TIP3    H2 8353   4.410   0.519   2.573
 2797TIP3   OH2 8354   1.430   0.758   5.753
 2797TIP3    H1 8355   1.378   0.759   5.833
 2797TIP3    H2 8356   1.426   0.667   5.723
 2798TIP3   OH2 8357   3.806   2.520   2.686
 2798TIP3    H1 8358   3.861   2.591   2.719
 2798TIP3    H2 8359   3.862   2.475   2.622
 2799TIP3   OH2 8360   3.288   4.685   4.592
 2799TIP3    H1 8361   3.281   4.634   4.673
 2799TIP3    H2 8362   3.307   4.620   4.525
 2800TIP3   OH2 8363   5.697   6.622   1.951
 2800TIP3    H1 8364   5.618   6.668   1.981
 2800TIP3    H2 8365   5.679   6.529   1.968
 2801TIP3   OH2 8366   5.089   5.898   3.544
 2801TIP3    H1 8367   5.114   5.814   3.506
 2801TIP3    H2 8368   5.026   5.935   3.481
 2802TIP3   OH2 8369   2.429   0.876   3.631
 2802TIP3    H1 8370   2.350   0.861   3.682
 2802TIP3    H2 8371   2.444   0.970   3.637
 2803TIP3   OH2 8372   2.351   0.677   4.372
 2803TIP3    H1 8373   2.281   0.741   4.387
 2803TIP3    H2 8374   2.427   0.713   4.417
 2804TIP3   OH2 8375   0.898   5.926   0.166
 2804TIP3    H1 8376   0.857   5.918   0.080
 2804TIP3    H2 8377   0.901   5.837   0.200
 2805TIP3   OH2 8378   1.801   1.771   4.461
 2805TIP3    H1 8379   1.837   1.709   4.397
 2805TIP3    H2 8380   1.865   1.842   4.464
 2806TIP3   OH2 8381   3.753   0.945   5.181
 2806TIP3    H1 8382   3.743   0.977   5.270
 2806TIP3    H2 8383   3.672   0.968   5.137
 2807TIP3   OH2 8384   5.186   3.378   4.977
 2807TIP3    H1 8385   5.246   3.448   5.004
 2807TIP3    H2 8386   5.104   3.399   5.022
 2808TIP3   OH2 8387   1.833   2.918   0.852
 2808TIP3    H1 8388   1.808   2.990   0.794
 2808TIP3    H2 8389   1.807   2.839   0.804
 2809TIP3   OH2 8390   0.823   3.290   2.241
 2809TIP3    H1 8391   0.807   3.384   2.240
 2809TIP3    H2 8392   0.760   3.254   2.178
 2810TIP3   OH2 8393   3.196   2.784   0.883
 2810TIP3    H1 8394   3.106   2.758   0.903
 2810TIP3    H2 8395   3.247   2.755   0.959
 2811TIP3   OH2 8396   6.593   2.763   2.321
 2811TIP3    H1 8397   6.636   2.717   2.248
 2811TIP3    H2 8398   6.515   2.801   2.281
 2812TIP3   OH2 8399   7.025   5.732   0.818
 2812TIP3    H1 8400   6.986   5.645   0.816
 2812TIP3    H2 8401   7.113   5.720   0.783
 2813TIP3   OH2 8402   5.788   2.053   4.772
 2813TIP3    H1 8403   5.776   1.995   4.848
 2813TIP3    H2 8404   5.874   2.094   4.787
 2814TIP3   OH2 8405   2.105   5.873   3.307
 2814TIP3    H1 8406   2.038   5.905   3.368
 2814TIP3    H2 8407   2.171   5.834   3.363
 2815TIP3   OH2 8408   6.136   3.690   5.219
 2815TIP3    H1 8409   6.045   3.713   5.238
 2815TIP3    H2 8410   6.151   3.723   5.130
 2816TIP3   OH2 8411   0.887   4.708   3.232
 2816TIP3    H1 8412   0.964   4.655   3.251
 2816TIP3    H2 8413   0.857   4.739   3.317
 2817TIP3   OH2 8414   4.703   2.082   0.531
 2817TIP3    H1 8415   4.640   2.022   0.490
 2817TIP3    H2 8416   4.721   2.148   0.464
 2818TIP3   OH2 8417   0.954   5.945   3.001
 2818TIP3    H1 8418   1.027   6.007   2.999
 2818TIP3    H2 8419   0.996   5.859   2.999
 2819TIP3   OH2 8420   2.243   3.905   1.004
 2819TIP3    H1 8421   2.254   3.826   1.057
 2819TIP3    H2 8422   2.279   3.881   0.918
 2820TIP3   OH2 8423   1.869   5.987   5.249
 2820TIP3    H1 8424   1.786   6.026   5.277
 2820TIP3    H2 8425   1.906   5.949   5.329
 2821TIP3   OH2 8426   3.064   0.766   3.692
 2821TIP3    H1 8427   3.054   0.672   3.707
 2821TIP3    H2 8428   3.011   0.808   3.759
 2822TIP3   OH2 8429   3.789   4.272   2.209
 2822TIP3    H1 8430   3.844   4.272   2.130
 2822TIP3    H2 8431   3.851   4.269   2.282
 2823TIP3   OH2 8432   0.162   2.798   2.754
 2823TIP3    H1 8433   0.112   2.852   2.814
 2823TIP3    H2 8434   0.253   2.808   2.782
 2824TIP3   OH2 8435   3.865   6.055   4.906
 2824TIP3    H1 8436   3.801   6.089   4.969
 2824TIP3    H2 8437   3.913   5.987   4.953
 2825TIP3   OH2 8438   1.608   4.630   0.390
 2825TIP3    H1 8439   1.613   4.559   0.327
 2825TIP3    H2 8440   1.589   4.587   0.473
 2826TIP3   OH2 8441   4.394   5.778   3.134
 2826TIP3    H1 8442   4.379   5.700   3.080
 2826TIP3    H2 8443   4.471   5.820   3.095
 2827TIP3   OH2 8444   5.268   4.279   5.056
 2827TIP3    H1 8445   5.308   4.265   4.970
 2827TIP3    H2 8446   5.179   4.244   5.047
 2828TIP3   OH2 8447   2.959   0.408   0.037
 2828TIP3    H1 8448   2.895   0.418  -0.033
 2828TIP3    H2 8449   2.941   0.481   0.097
 2829TIP3   OH2 8450   3.401   5.012   0.350
 2829TIP3    H1 8451   3.384   4.991   0.259
 2829TIP3    H2 8452   3.497   5.018   0.356
 2830TIP3   OH2 8453   5.046   2.017   0.090
 2830TIP3    H1 8454   5.097   2.018   0.009
 2830TIP3    H2 8455   5.061   2.103   0.129
 2831TIP3   OH2 8456   0.357   1.162   1.948
 2831TIP3    H1 8457   0.397   1.096   2.003
 2831TIP3    H2 8458   0.430   1.219   1.922
 2832TIP3   OH2 8459   6.172   3.256   4.392
 2832TIP3    H1 8460   6.104   3.319   4.369
 2832TIP3    H2 8461   6.192   3.213   4.308
 2833TIP3   OH2 8462   4.551   5.260   1.262
 2833TIP3    H1 8463   4.602   5.325   1.311
 2833TIP3    H2 8464   4.615   5.192   1.240
 2834TIP3   OH2 8465   0.090   2.916   1.700
 2834TIP3    H1 8466   0.053   2.872   1.777
 2834TIP3    H2 8467   0.033   2.889   1.628
 2835TIP3   OH2 8468   5.520   3.816   4.688
 2835TIP3    H1 8469   5.479   3.801   4.774
 2835TIP3    H2 8470   5.480   3.750   4.631
 2836TIP3   OH2 8471   2.179   3.241   0.057
 2836TIP3    H1 8472   2.225   3.157   0.052
 2836TIP3    H2 8473   2.154   3.248   0.149
 2837TIP3   OH2 8474   2.095   3.169   5.218
 2837TIP3    H1 8475   2.095   3.242   5.279
 2837TIP3    H2 8476   2.003   3.145   5.209
 2838TIP3   OH2 8477   3.953   0.827   5.930
 2838TIP3    H1 8478   3.959   0.748   5.874
 2838TIP3    H2 8479   3.986   0.897   5.874
 2839TIP3   OH2 8480   3.038   4.977   2.948
 2839TIP3    H1 8481   3.115   4.938   2.989
 2839TIP3    H2 8482   2.969   4.911   2.958
 2840TIP3   OH2 8483   2.026   3.563   3.801
 2840TIP3    H1 8484   2.112   3.533   3.831
 2840TIP3    H2 8485   1.974   3.483   3.794
 2841TIP3   OH2 8486   6.955   1.725   2.741
 2841TIP3    H1 8487   6.950   1.818   2.764
 2841TIP3    H2 8488   6.870   1.689   2.768
 2842TIP3   OH2 8489   0.789   6.733   5.083
 2842TIP3    H1 8490   0.857   6.715   5.148
 2842TIP3    H2 8491   0.835   6.779   5.012
 2843TIP3   OH2 8492   2.744   3.976   1.617
 2843TIP3    H1 8493   2.731   4.010   1.528
 2843TIP3    H2 8494   2.768   4.053   1.668
 2844TIP3   OH2 8495   0.294   0.475   4.747
 2844TIP3    H1 8496   0.232   0.403   4.737
 2844TIP3    H2 8497   0.316   0.501   4.658
 2845TIP3   OH2 8498   4.401   1.276   3.860
 2845TIP3    H1 8499   4.402   1.198   3.915
 2845TIP3    H2 8500   4.313   1.278   3.824
 2846TIP3   OH2 8501   7.162   3.533   5.508
 2846TIP3    H1 8502   7.189   3.493   5.591
 2846TIP3    H2 8503   7.240   3.580   5.478
 2847TIP3   OH2 8504   6.954   0.817   1.098
 2847TIP3    H1 8505   6.981   0.767   1.021
 2847TIP3    H2 8506   6.996   0.902   1.086
 2848TIP3   OH2 8507   5.899   1.579   5.556
 2848TIP3    H1 8508   5.906   1.669   5.524
 2848TIP3    H2 8509   5.878   1.588   5.649
 2849TIP3   OH2 8510   6.339   2.858   4.169
 2849TIP3    H1 8511   6.256   2.823   4.136
 2849TIP3    H2 8512   6.398   2.854   4.094
 2850TIP3   OH2 8513   1.854   3.357   2.871
 2850TIP3    H1 8514   1.815   3.402   2.796
 2850TIP3    H2 8515   1.840   3.264   2.853
 2851TIP3   OH2 8516   7.050   6.179   0.810
 2851TIP3    H1 8517   7.098   6.250   0.852
 2851TIP3    H2 8518   6.960   6.190   0.838
 2852TIP3   OH2 8519   4.185   4.472   4.332
 2852TIP3    H1 8520   4.240   4.410   4.285
 2852TIP3    H2 8521   4.106   4.422   4.354
 2853TIP3   OH2 8522   1.137   0.947   4.139
 2853TIP3    H1 8523   1.144   0.852   4.130
 2853TIP3    H2 8524   1.226   0.975   4.161
 2854TIP3   OH2 8525   0.762   2.489   2.896
 2854TIP3    H1 8526   0.857   2.486   2.910
 2854TIP3    H2 8527   0.731   2.560   2.953
 2855TIP3   OH2 8528   4.043   1.237   0.138
 2855TIP3    H1 8529   4.121   1.213   0.187
 2855TIP3    H2 8530   4.076   1.275   0.057
 2856TIP3   OH2 8531   3.586   3.921   2.680
 2856TIP3    H1 8532   3.510   3.866   2.659
 2856TIP3    H2 8533   3.639   3.920   2.600
 2857TIP3   OH2 8534   2.386   5.795   3.702
 2857TIP3    H1 8535   2.481   5.805   3.708
 2857TIP3    H2 8536   2.352   5.855   3.768
 2858TIP3   OH2 8537   4.038   0.659   2.476
 2858TIP3    H1 8538   4.013   0.745   2.510
 2858TIP3    H2 8539   4.028   0.668   2.381
 2859TIP3   OH2 8540   5.930   1.552   1.868
 2859TIP3    H1 8541   5.942   1.603   1.948
 2859TIP3    H2 8542   5.885   1.613   1.809
 2860TIP3   OH2 8543   3.843   5.040   3.814
 2860TIP3    H1 8544   3.829   5.122   3.862
 2860TIP3    H2 8545   3.857   4.975   3.883
 2861TIP3   OH2 8546   0.832   6.483   5.804
 2861TIP3    H1 8547   0.889   6.541   5.856
 2861TIP3    H2 8548   0.885   6.461   5.727
 2862TIP3   OH2 8549   2.556   0.700   5.318
 2862TIP3    H1 8550   2.502   0.775   5.344
 2862TIP3    H2 8551   2.507   0.624   5.349
 2863TIP3   OH2 8552   6.251   6.510   0.197
 2863TIP3    H1 8553   6.208   6.506   0.282
 2863TIP3    H2 8554   6.344   6.510   0.218
 2864TIP3   OH2 8555   6.167   3.818   0.646
 2864TIP3    H1 8556   6.099   3.751   0.650
 2864TIP3    H2 8557   6.157   3.858   0.560
 2865TIP3   OH2 8558   0.596   4.769   2.210
 2865TIP3    H1 8559   0.565   4.856   2.233
 2865TIP3    H2 8560   0.686   4.766   2.241
 2866TIP3   OH2 8561   0.388   2.729   3.362
 2866TIP3    H1 8562   0.340   2.651   3.335
 2866TIP3    H2 8563   0.363   2.796   3.299
 2867TIP3   OH2 8564   0.092   3.779   0.290
 2867TIP3    H1 8565   0.149   3.856   0.300
 2867TIP3    H2 8566   0.012   3.803   0.337
 2868TIP3   OH2 8567   7.125   3.916   3.886
 2868TIP3    H1 8568   7.160   3.832   3.916
 2868TIP3    H2 8569   7.201   3.961   3.849
 2869TIP3   OH2 8570   4.262   5.413   2.583
 2869TIP3    H1 8571   4.189   5.470   2.562
 2869TIP3    H2 8572   4.230   5.357   2.653
 2870TIP3   OH2 8573   2.301   0.438   5.622
 2870TIP3    H1 8574   2.270   0.363   5.572
 2870TIP3    H2 8575   2.261   0.427   5.708
 2871TIP3   OH2 8576   5.581   6.275   4.809
 2871TIP3    H1 8577   5.599   6.223   4.887
 2871TIP3    H2 8578   5.667   6.302   4.778
 2872TIP3   OH2 8579   2.978   4.724   4.649
 2872TIP3    H1 8580   3.053   4.702   4.705
 2872TIP3    H2 8581   2.985   4.664   4.574
 2873TIP3   OH2 8582   4.979   3.076   1.381
 2873TIP3    H1 8583   5.037   3.022   1.328
 2873TIP3    H2 8584   4.892   3.061   1.346
 2874TIP3   OH2 8585   1.613   6.760   2.847
 2874TIP3    H1 8586   1.552   6.716   2.907
 2874TIP3    H2 8587   1.595   6.853   2.859
 2875TIP3   OH2 8588   0.187   4.521   1.191
 2875TIP3    H1 8589   0.179   4.593   1.254
 2875TIP3    H2 8590   0.098   4.489   1.180
 2876TIP3   OH2 8591   3.351   5.683   1.802
 2876TIP3    H1 8592   3.272   5.737   1.796
 2876TIP3    H2 8593   3.366   5.652   1.712
 2877TIP3   OH2 8594   0.477   2.244   0.307
 2877TIP3    H1 8595   0.566   2.278   0.296
 2877TIP3    H2 8596   0.451   2.217   0.219
 2878TIP3   OH2 8597   6.382   0.393   0.385
 2878TIP3    H1 8598   6.433   0.473   0.399
 2878TIP3    H2 8599   6.296   0.413   0.423
 2879TIP3   OH2 8600   2.084   3.340   5.455
 2879TIP3    H1 8601   2.115   3.407   5.515
 2879TIP3    H2 8602   1.988   3.345   5.461
 2880TIP3   OH2 8603   3.714   5.801   4.516
 2880TIP3    H1 8604   3.657   5.763   4.449
 2880TIP3    H2 8605   3.753   5.878   4.474
 2881TIP3   OH2 8606   1.770   2.625   5.043
 2881TIP3    H1 8607   1.765   2.623   5.138
 2881TIP3    H2 8608   1.745   2.537   5.016
 2882TIP3   OH2 8609   3.025   0.999   2.364
 2882TIP3    H1 8610   3.100   1.008   2.422
 2882TIP3    H2 8611   3.049   0.928   2.304
 2883TIP3   OH2 8612   3.259   4.309   4.011
 2883TIP3    H1 8613   3.189   4.366   3.980
 2883TIP3    H2 8614   3.338   4.342   3.969
 2884TIP3   OH2 8615   1.138   5.595   5.899
 2884TIP3    H1 8616   1.182   5.539   5.835
 2884TIP3    H2 8617   1.199   5.666   5.916
 2885TIP3   OH2 8618   6.270   0.190   5.274
 2885TIP3    H1 8619   6.218   0.133   5.331
 2885TIP3    H2 8620   6.264   0.150   5.188
 2886TIP3   OH2 8621   6.873   0.226   2.866
 2886TIP3    H1 8622   6.959   0.267   2.862
 2886TIP3    H2 8623   6.812   0.299   2.869
 2887TIP3   OH2 8624   1.797   3.529   3.288
 2887TIP3    H1 8625   1.703   3.536   3.272
 2887TIP3    H2 8626   1.825   3.456   3.232
 2888TIP3   OH2 8627   6.735   3.788   4.935
 2888TIP3    H1 8628   6.803   3.749   4.989
 2888TIP3    H2 8629   6.782   3.840   4.869
 2889TIP3   OH2 8630   6.039   1.335   4.797
 2889TIP3    H1 8631   5.976   1.267   4.776
 2889TIP3    H2 8632   6.123   1.300   4.766
 2890TIP3   OH2 8633   4.004   3.765   1.679
 2890TIP3    H1 8634   3.996   3.792   1.587
 2890TIP3    H2 8635   3.953   3.830   1.727
 2891TIP3   OH2 8636   2.505   4.929   4.632
 2891TIP3    H1 8637   2.528   5.021   4.618
 2891TIP3    H2 8638   2.411   4.925   4.621
 2892TIP3   OH2 8639   2.953   6.090   5.837
 2892TIP3    H1 8640   2.896   6.025   5.795
 2892TIP3    H2 8641   2.974   6.152   5.767
 2893TIP3   OH2 8642   5.511   1.840   4.195
 2893TIP3    H1 8643   5.423   1.803   4.195
 2893TIP3    H2 8644   5.564   1.774   4.151
 2894TIP3   OH2 8645   5.812   4.551   4.732
 2894TIP3    H1 8646   5.778   4.590   4.812
 2894TIP3    H2 8647   5.746   4.572   4.665
 2895TIP3   OH2 8648   4.914   5.435   1.109
 2895TIP3    H1 8649   4.983   5.411   1.171
 2895TIP3    H2 8650   4.906   5.530   1.118
 2896TIP3   OH2 8651   1.610   6.279   3.206
 2896TIP3    H1 8652   1.617   6.205   3.267
 2896TIP3    H2 8653   1.593   6.355   3.263
 2897TIP3   OH2 8654   0.065   5.684   0.893
 2897TIP3    H1 8655   0.135   5.747   0.907
 2897TIP3    H2 8656   0.047   5.648   0.980
 2898TIP3   OH2 8657   2.759   1.212   3.610
 2898TIP3    H1 8658   2.793   1.123   3.595
 2898TIP3    H2 8659   2.830   1.257   3.655
 2899TIP3   OH2 8660   3.759   3.375   4.539
 2899TIP3    H1 8661   3.702   3.437   4.494
 2899TIP3    H2 8662   3.806   3.429   4.603
 2900TIP3   OH2 8663   6.854   1.206   2.311
 2900TIP3    H1 8664   6.829   1.287   2.355
 2900TIP3    H2 8665   6.806   1.137   2.357
 2901TIP3   OH2 8666   3.071   5.549   0.641
 2901TIP3    H1 8667   3.060   5.639   0.671
 2901TIP3    H2 8668   3.016   5.541   0.564
 2902TIP3   OH2 8669   3.439   5.550   4.916
 2902TIP3    H1 8670   3.473   5.613   4.852
 2902TIP3    H2 8671   3.421   5.471   4.865
 2903TIP3   OH2 8672   4.890   0.495   2.456
 2903TIP3    H1 8673   4.814   0.496   2.398
 2903TIP3    H2 8674   4.853   0.507   2.544
 2904TIP3   OH2 8675   4.514   4.378   2.456
 2904TIP3    H1 8676   4.552   4.302   2.414
 2904TIP3    H2 8677   4.521   4.448   2.390
 2905TIP3   OH2 8678   0.472   2.110   4.536
 2905TIP3    H1 8679   0.515   2.036   4.495
 2905TIP3    H2 8680   0.378   2.090   4.530
 2906TIP3   OH2 8681   3.973   5.117   1.659
 2906TIP3    H1 8682   4.035   5.045   1.668
 2906TIP3    H2 8683   3.974   5.137   1.565
 2907TIP3   OH2 8684   3.188   0.330   5.375
 2907TIP3    H1 8685   3.244   0.407   5.369
 2907TIP3    H2 8686   3.244   0.262   5.411
 2908TIP3   OH2 8687   1.595   3.058   4.252
 2908TIP3    H1 8688   1.557   2.970   4.247
 2908TIP3    H2 8689   1.519   3.116   4.254
 2909TIP3   OH2 8690   3.760   6.031   0.383
 2909TIP3    H1 8691   3.685   6.082   0.355
 2909TIP3    H2 8692   3.771   5.964   0.316
 2910TIP3   OH2 8693   3.736   5.224   5.600
 2910TIP3    H1 8694   3.658   5.181   5.637
 2910TIP3    H2 8695   3.780   5.262   5.676
 2911TIP3   OH2 8696   6.966   5.393   3.744
 2911TIP3    H1 8697   7.021   5.342   3.685
 2911TIP3    H2 8698   6.883   5.344   3.748
 2912TIP3   OH2 8699   6.548   0.059   1.575
 2912TIP3    H1 8700   6.473   0.006   1.547
 2912TIP3    H2 8701   6.624   0.002   1.561
 2913TIP3   OH2 8702   3.225   5.464   4.383
 2913TIP3    H1 8703   3.272   5.540   4.417
 2913TIP3    H2 8704   3.291   5.413   4.337
 2914TIP3   OH2 8705   7.136   0.104   5.512
 2914TIP3    H1 8706   7.202   0.152   5.462
 2914TIP3    H2 8707   7.127   0.021   5.466
 2915TIP3   OH2 8708   6.608   2.060   2.222
 2915TIP3    H1 8709   6.681   2.030   2.276
 2915TIP3    H2 8710   6.530   2.039   2.272
 2916TIP3   OH2 8711   5.331   2.953   4.358
 2916TIP3    H1 8712   5.354   3.010   4.285
 2916TIP3    H2 8713   5.283   3.010   4.418
 2917TIP3   OH2 8714   5.388   0.977   0.377
 2917TIP3    H1 8715   5.400   1.063   0.335
 2917TIP3    H2 8716   5.304   0.946   0.343
 2918TIP3   OH2 8717   6.874   4.118   4.977
 2918TIP3    H1 8718   6.886   4.184   4.909
 2918TIP3    H2 8719   6.884   4.035   4.931
 2919TIP3   OH2 8720   7.142   0.794   4.155
 2919TIP3    H1 8721   7.180   0.809   4.068
 2919TIP3    H2 8722   7.152   0.700   4.169
 2920TIP3   OH2 8723   3.496   1.879   5.140
 2920TIP3    H1 8724   3.492   1.876   5.236
 2920TIP3    H2 8725   3.482   1.971   5.118
 2921TIP3   OH2 8726   3.436   5.705   0.161
 2921TIP3    H1 8727   3.350   5.717   0.201
 2921TIP3    H2 8728   3.424   5.730   0.069
 2922TIP3   OH2 8729   5.261   1.750   2.971
 2922TIP3    H1 8730   5.345   1.791   2.991
 2922TIP3    H2 8731   5.226   1.725   3.057
 2923TIP3   OH2 8732   5.664   3.862   1.432
 2923TIP3    H1 8733   5.595   3.846   1.496
 2923TIP3    H2 8734   5.623   3.918   1.366
 2924TIP3   OH2 8735   0.510   0.453   1.761
 2924TIP3    H1 8736   0.464   0.514   1.703
 2924TIP3    H2 8737   0.479   0.477   1.849
 2925TIP3   OH2 8738   1.518   5.271   3.234
 2925TIP3    H1 8739   1.542   5.346   3.288
 2925TIP3    H2 8740   1.473   5.212   3.294
 2926TIP3   OH2 8741   0.107   0.712   5.541
 2926TIP3    H1 8742   0.075   0.755   5.462
 2926TIP3    H2 8743   0.029   0.676   5.582
 2927TIP3   OH2 8744   1.709   3.957   4.571
 2927TIP3    H1 8745   1.779   4.009   4.532
 2927TIP3    H2 8746   1.737   3.943   4.661
 2928TIP3   OH2 8747   5.555   2.660   2.302
 2928TIP3    H1 8748   5.578   2.706   2.222
 2928TIP3    H2 8749   5.491   2.716   2.345
 2929TIP3   OH2 8750   7.133   0.681   4.799
 2929TIP3    H1 8751   7.082   0.621   4.852
 2929TIP3    H2 8752   7.072   0.753   4.778
 2930TIP3   OH2 8753   0.209   4.710   5.511
 2930TIP3    H1 8754   0.149   4.784   5.509
 2930TIP3    H2 8755   0.165   4.644   5.564
 2931TIP3   OH2 8756   3.216   0.996   4.173
 2931TIP3    H1 8757   3.187   1.074   4.125
 2931TIP3    H2 8758   3.135   0.957   4.207
 2932TIP3   OH2 8759   4.135   1.494   1.555
 2932TIP3    H1 8760   4.227   1.517   1.557
 2932TIP3    H2 8761   4.089   1.578   1.560
 2933TIP3   OH2 8762   1.976   5.399   0.176
 2933TIP3    H1 8763   1.963   5.487   0.210
 2933TIP3    H2 8764   1.998   5.346   0.253
 2934TIP3   OH2 8765   5.583   1.706   2.754
 2934TIP3    H1 8766   5.531   1.745   2.825
 2934TIP3    H2 8767   5.673   1.709   2.787
 2935TIP3   OH2 8768   0.837   1.047  -0.016
 2935TIP3    H1 8769   0.745   1.056   0.011
 2935TIP3    H2 8770   0.876   0.989   0.049
 2936TIP3   OH2 8771   3.274   0.387   3.561
 2936TIP3    H1 8772   3.304   0.409   3.473
 2936TIP3    H2 8773   3.352   0.399   3.616
 2937TIP3   OH2 8774   6.777   0.969   3.172
 2937TIP3    H1 8775   6.682   0.969   3.181
 2937TIP3    H2 8776   6.807   1.038   3.231
 2938TIP3   OH2 8777   3.080   3.610   4.782
 2938TIP3    H1 8778   3.045   3.582   4.867
 2938TIP3    H2 8779   3.119   3.696   4.800
 2939TIP3   OH2 8780   2.206   2.968   3.674
 2939TIP3    H1 8781   2.120   2.933   3.695
 2939TIP3    H2 8782   2.215   2.954   3.580
 2940TIP3   OH2 8783   4.417   5.461   4.987
 2940TIP3    H1 8784   4.458   5.544   4.962
 2940TIP3    H2 8785   4.359   5.440   4.914
 2941TIP3   OH2 8786   6.212   2.025   5.616
 2941TIP3    H1 8787   6.131   2.032   5.666
 2941TIP3    H2 8788   6.250   1.941   5.643
 2942TIP3   OH2 8789   1.036   5.252   0.097
 2942TIP3    H1 8790   1.043   5.277   0.189
 2942TIP3    H2 8791   0.973   5.314   0.060
 2943TIP3   OH2 8792   3.760   5.450   3.670
 2943TIP3    H1 8793   3.752   5.500   3.589
 2943TIP3    H2 8794   3.790   5.513   3.734
 2944TIP3   OH2 8795   5.660   3.468   5.759
 2944TIP3    H1 8796   5.566   3.456   5.772
 2944TIP3    H2 8797   5.692   3.381   5.734
 2945TIP3   OH2 8798   6.024   5.516   0.847
 2945TIP3    H1 8799   5.939   5.535   0.888
 2945TIP3    H2 8800   6.077   5.481   0.918
 2946TIP3   OH2 8801   6.085   1.391   2.860
 2946TIP3    H1 8802   6.116   1.479   2.881
 2946TIP3    H2 8803   6.153   1.332   2.894
 2947TIP3   OH2 8804   1.247   3.151   3.808
 2947TIP3    H1 8805   1.214   3.237   3.833
 2947TIP3    H2 8806   1.341   3.154   3.826
 2948TIP3   OH2 8807   1.064   5.821   5.020
 2948TIP3    H1 8808   1.124   5.747   5.006
 2948TIP3    H2 8809   1.030   5.840   4.932
 2949TIP3   OH2 8810   5.743   5.175   2.153
 2949TIP3    H1 8811   5.737   5.187   2.058
 2949TIP3    H2 8812   5.788   5.254   2.184
 2950TIP3   OH2 8813   1.677   2.312   4.270
 2950TIP3    H1 8814   1.617   2.292   4.198
 2950TIP3    H2 8815   1.685   2.229   4.317
 2951TIP3   OH2 8816   6.865   4.630   3.531
 2951TIP3    H1 8817   6.936   4.648   3.593
 2951TIP3    H2 8818   6.785   4.654   3.579
 2952TIP3   OH2 8819   1.636   1.035   2.760
 2952TIP3    H1 8820   1.651   0.962   2.820
 2952TIP3    H2 8821   1.647   0.997   2.673
 2953TIP3   OH2 8822   2.969   0.308   0.920
 2953TIP3    H1 8823   3.043   0.268   0.966
 2953TIP3    H2 8824   2.965   0.398   0.953
 2954TIP3   OH2 8825   1.534   5.060   2.033
 2954TIP3    H1 8826   1.486   4.977   2.038
 2954TIP3    H2 8827   1.625   5.037   2.052
 2955TIP3   OH2 8828   5.726   2.989   5.430
 2955TIP3    H1 8829   5.757   2.929   5.362
 2955TIP3    H2 8830   5.801   3.047   5.447
 2956TIP3   OH2 8831   1.431   3.156   1.596
 2956TIP3    H1 8832   1.424   3.071   1.639
 2956TIP3    H2 8833   1.445   3.136   1.504
 2957TIP3   OH2 8834   3.138   2.397   0.909
 2957TIP3    H1 8835   3.054   2.392   0.863
 2957TIP3    H2 8836   3.152   2.308   0.943
 2958TIP3   OH2 8837   6.120   3.492   1.363
 2958TIP3    H1 8838   6.085   3.537   1.441
 2958TIP3    H2 8839   6.132   3.402   1.391
 2959TIP3   OH2 8840   6.534   1.022   4.074
 2959TIP3    H1 8841   6.457   0.965   4.066
 2959TIP3    H2 8842   6.507   1.104   4.032
 2960TIP3   OH2 8843   5.945   6.341   2.150
 2960TIP3    H1 8844   5.911   6.345   2.060
 2960TIP3    H2 8845   5.884   6.283   2.196
 2961TIP3   OH2 8846   0.652   5.779   5.664
 2961TIP3    H1 8847   0.586   5.793   5.595
 2961TIP3    H2 8848   0.627   5.697   5.705
 2962TIP3   OH2 8849   6.720   1.305   0.612
 2962TIP3    H1 8850   6.758   1.392   0.606
 2962TIP3    H2 8851   6.718   1.285   0.706
 2963TIP3   OH2 8852   4.046   3.179   4.630
 2963TIP3    H1 8853   4.081   3.092   4.615
 2963TIP3    H2 8854   3.984   3.193   4.558
 2964TIP3   OH2 8855   6.418   6.035   0.324
 2964TIP3    H1 8856   6.467   6.082   0.391
 2964TIP3    H2 8857   6.334   6.082   0.319
 2965TIP3   OH2 8858   5.173   2.036   3.192
 2965TIP3    H1 8859   5.215   1.998   3.269
 2965TIP3    H2 8860   5.082   2.006   3.199
 2966TIP3   OH2 8861   0.147   1.473   1.525
 2966TIP3    H1 8862   0.142   1.426   1.608
 2966TIP3    H2 8863   0.237   1.459   1.495
 2967TIP3   OH2 8864   6.730   3.038   0.099
 2967TIP3    H1 8865   6.764   3.122   0.127
 2967TIP3    H2 8866   6.771   3.022   0.014
 2968TIP3   OH2 8867   3.206   3.191   5.065
 2968TIP3    H1 8868   3.206   3.145   5.149
 2968TIP3    H2 8869   3.114   3.205   5.045
 2969TIP3   OH2 8870   4.781   3.373   2.422
 2969TIP3    H1 8871   4.776   3.468   2.425
 2969TIP3    H2 8872   4.865   3.352   2.463
 2970TIP3   OH2 8873   1.753   2.946   3.989
 2970TIP3    H1 8874   1.716   2.981   4.070
 2970TIP3    H2 8875   1.843   2.977   3.988
 2971TIP3   OH2 8876   5.058   2.720   5.058
 2971TIP3    H1 8877   4.974   2.750   5.025
 2971TIP3    H2 8878   5.040   2.688   5.146
 2972TIP3   OH2 8879   1.590   6.553   3.278
 2972TIP3    H1 8880   1.650   6.561   3.205
 2972TIP3    H2 8881   1.515   6.607   3.254
 2973TIP3   OH2 8882   4.404   4.392   0.573
 2973TIP3    H1 8883   4.405   4.452   0.648
 2973TIP3    H2 8884   4.481   4.336   0.587
 2974TIP3   OH2 8885   3.105   1.331   2.411
 2974TIP3    H1 8886   3.169   1.262   2.397
 2974TIP3    H2 8887   3.092   1.371   2.325
 2975TIP3   OH2 8888   1.485   4.971   5.413
 2975TIP3    H1 8889   1.416   4.905   5.408
 2975TIP3    H2 8890   1.558   4.927   5.456
 2976TIP3   OH2 8891   6.253   6.560   1.485
 2976TIP3    H1 8892   6.160   6.584   1.486
 2976TIP3    H2 8893   6.295   6.628   1.433
 2977TIP3   OH2 8894   2.370   5.116   5.039
 2977TIP3    H1 8895   2.422   5.195   5.053
 2977TIP3    H2 8896   2.431   5.055   4.998
 2978TIP3   OH2 8897   4.342   5.578   2.957
 2978TIP3    H1 8898   4.346   5.491   2.997
 2978TIP3    H2 8899   4.253   5.584   2.923
 2979TIP3   OH2 8900   5.958   6.610   2.607
 2979TIP3    H1 8901   5.882   6.667   2.598
 2979TIP3    H2 8902   5.981   6.587   2.516
 2980TIP3   OH2 8903   7.229   3.165   1.950
 2980TIP3    H1 8904   7.178   3.245   1.961
 2980TIP3    H2 8905   7.170   3.104   1.906
 2981TIP3   OH2 8906   0.090   4.884   4.384
 2981TIP3    H1 8907   0.126   4.845   4.464
 2981TIP3    H2 8908   0.001   4.850   4.378
 2982TIP3   OH2 8909   0.975   0.323   3.581
 2982TIP3    H1 8910   0.899   0.289   3.628
 2982TIP3    H2 8911   0.945   0.331   3.490
 2983TIP3   OH2 8912   0.662   1.637   2.113
 2983TIP3    H1 8913   0.742   1.584   2.110
 2983TIP3    H2 8914   0.639   1.643   2.206
 2984TIP3   OH2 8915   5.387   5.945   4.967
 2984TIP3    H1 8916   5.459   6.008   4.967
 2984TIP3    H2 8917   5.351   5.951   5.055
 2985TIP3   OH2 8918   6.106   6.274   1.486
 2985TIP3    H1 8919   6.126   6.367   1.499
 2985TIP3    H2 8920   6.020   6.262   1.527
 2986TIP3   OH2 8921   5.923   6.589   0.058
 2986TIP3    H1 8922   5.859   6.535   0.012
 2986TIP3    H2 8923   5.879   6.672   0.072
 2987TIP3   OH2 8924   1.492   6.560   2.467
 2987TIP3    H1 8925   1.461   6.625   2.531
 2987TIP3    H2 8926   1.422   6.494   2.464
 2988TIP3   OH2 8927   4.360   1.633   5.716
 2988TIP3    H1 8928   4.319   1.705   5.667
 2988TIP3    H2 8929   4.395   1.575   5.649
 2989TIP3   OH2 8930   2.847   4.597   4.171
 2989TIP3    H1 8931   2.756   4.568   4.180
 2989TIP3    H2 8932   2.847   4.648   4.090
 2990TIP3   OH2 8933   6.227   5.964   1.680
 2990TIP3    H1 8934   6.310   5.936   1.719
 2990TIP3    H2 8935   6.163   5.958   1.751
 2991TIP3   OH2 8936   6.528   0.663   0.677
 2991TIP3    H1 8937   6.464   0.700   0.617
 2991TIP3    H2 8938   6.587   0.612   0.620
 2992TIP3   OH2 8939   6.948   4.303   4.792
 2992TIP3    H1 8940   6.954   4.399   4.792
 2992TIP3    H2 8941   7.003   4.276   4.719
 2993TIP3   OH2 8942   6.769   2.525   2.917
 2993TIP3    H1 8943   6.808   2.608   2.888
 2993TIP3    H2 8944   6.773   2.530   3.012
 2994TIP3   OH2 8945   3.711   4.232   3.382
 2994TIP3    H1 8946   3.721   4.138   3.400
 2994TIP3    H2 8947   3.678   4.268   3.464
 2995TIP3   OH2 8948   1.894   1.650   4.207
 2995TIP3    H1 8949   1.849   1.574   4.244
 2995TIP3    H2 8950   1.955   1.613   4.143
 2996TIP3   OH2 8951   2.899   1.339   3.819
 2996TIP3    H1 8952   2.984   1.374   3.845
 2996TIP3    H2 8953   2.840   1.414   3.822
 2997TIP3   OH2 8954   3.036   4.538   5.703
 2997TIP3    H1 8955   2.966   4.562   5.763
 2997TIP3    H2 8956   3.023   4.594   5.627
 2998TIP3   OH2 8957   2.043   2.211   2.402
 2998TIP3    H1 8958   2.026   2.142   2.466
 2998TIP3    H2 8959   1.992   2.185   2.325
 2999TIP3   OH2 8960   2.518   1.100   1.206
 2999TIP3    H1 8961   2.563   1.052   1.275
 2999TIP3    H2 8962   2.565   1.183   1.200
 3000TIP3   OH2 8963   5.669   6.021   4.868
 3000TIP3    H1 8964   5.735   6.052   4.805
 3000TIP3    H2 8965   5.705   5.939   4.901
 3001TIP3   OH2 8966   4.465   2.882   1.282
 3001TIP3    H1 8967   4.446   2.847   1.195
 3001TIP3    H2 8968   4.560   2.894   1.283
 3002TIP3   OH2 8969   2.796   3.293   2.537
 3002TIP3    H1 8970   2.706   3.302   2.569
 3002TIP3    H2 8971   2.803   3.201   2.513
 3003TIP3   OH2 8972   7.190   4.573   4.185
 3003TIP3    H1 8973   7.155   4.484   4.191
 3003TIP3    H2 8974   7.186   4.607   4.274
 3004TIP3   OH2 8975   2.304   2.478   4.430
 3004TIP3    H1 8976   2.260   2.461   4.346
 3004TIP3    H2 8977   2.337   2.568   4.421
 3005TIP3   OH2 8978   0.625   2.348   5.846
 3005TIP3    H1 8979   0.684   2.274   5.828
 3005TIP3    H2 8980   0.547   2.307   5.883
 3006TIP3   OH2 8981   6.603   3.549   4.375
 3006TIP3    H1 8982   6.679   3.495   4.353
 3006TIP3    H2 8983   6.528   3.490   4.365
 3007TIP3   OH2 8984   0.783   0.435   1.614
 3007TIP3    H1 8985   0.702   0.413   1.660
 3007TIP3    H2 8986   0.826   0.499   1.670
 3008TIP3   OH2 8987   6.527   1.315   1.964
 3008TIP3    H1 8988   6.511   1.408   1.952
 3008TIP3    H2 8989   6.490   1.274   1.886
 3009TIP3   OH2 8990   6.023   4.791   1.172
 3009TIP3    H1 8991   5.974   4.710   1.181
 3009TIP3    H2 8992   5.960   4.854   1.136
 3010TIP3   OH2 8993   4.129   3.216   0.576
 3010TIP3    H1 8994   4.133   3.268   0.495
 3010TIP3    H2 8995   4.164   3.274   0.643
 3011TIP3   OH2 8996   2.237   6.035   2.212
 3011TIP3    H1 8997   2.314   6.049   2.157
 3011TIP3    H2 8998   2.257   6.084   2.293
 3012TIP3   OH2 8999   6.605   2.546   1.493
 3012TIP3    H1 9000   6.685   2.600   1.492
 3012TIP3    H2 9001   6.540   2.600   1.447
 3013TIP3   OH2 9002   4.535   0.970   5.031
 3013TIP3    H1 9003   4.592   0.898   5.057
 3013TIP3    H2 9004   4.474   0.981   5.105
 3014TIP3   OH2 9005   6.944   2.337   4.075
 3014TIP3    H1 9006   6.878   2.280   4.035
 3014TIP3    H2 9007   7.023   2.324   4.023
 3015TIP3   OH2 9008   1.131   0.080   5.105
 3015TIP3    H1 9009   1.129   0.094   5.010
 3015TIP3    H2 9010   1.074   0.148   5.140
 3016TIP3   OH2 9011   6.002   6.329   1.235
 3016TIP3    H1 9012   6.019   6.399   1.299
 3016TIP3    H2 9013   6.071   6.338   1.170
 3017TIP3   OH2 9014   6.177   3.232   4.889
 3017TIP3    H1 9015   6.241   3.239   4.961
 3017TIP3    H2 9016   6.093   3.218   4.933
 3018TIP3   OH2 9017   2.753   6.754   4.829
 3018TIP3    H1 9018   2.802   6.684   4.785
 3018TIP3    H2 9019   2.690   6.708   4.884
 3019TIP3   OH2 9020   6.503   5.747   3.641
 3019TIP3    H1 9021   6.429   5.782   3.690
 3019TIP3    H2 9022   6.498   5.791   3.556
 3020TIP3   OH2 9023   6.172   4.801   3.369
 3020TIP3    H1 9024   6.128   4.722   3.338
 3020TIP3    H2 9025   6.119   4.873   3.334
 3021TIP3   OH2 9026   4.826   6.051   4.782
 3021TIP3    H1 9027   4.882   6.063   4.859
 3021TIP3    H2 9028   4.739   6.074   4.812
 3022TIP3   OH2 9029   3.623   4.120   4.515
 3022TIP3    H1 9030   3.633   4.086   4.604
 3022TIP3    H2 9031   3.698   4.178   4.503
 3023TIP3   OH2 9032   6.360   4.488   4.358
 3023TIP3    H1 9033   6.343   4.575   4.320
 3023TIP3    H2 9034   6.378   4.505   4.450
 3024TIP3   OH2 9035   4.233   5.902   0.841
 3024TIP3    H1 9036   4.192   5.925   0.757
 3024TIP3    H2 9037   4.208   5.811   0.855
 3025TIP3   OH2 9038   6.235   0.666   2.876
 3025TIP3    H1 9039   6.159   0.713   2.910
 3025TIP3    H2 9040   6.290   0.650   2.953
 3026TIP3   OH2 9041   1.309   4.243   0.953
 3026TIP3    H1 9042   1.302   4.184   0.878
 3026TIP3    H2 9043   1.221   4.280   0.963
 3027TIP3   OH2 9044   1.527   1.742   1.429
 3027TIP3    H1 9045   1.554   1.751   1.520
 3027TIP3    H2 9046   1.450   1.685   1.432
 3028TIP3   OH2 9047   5.212   1.731   1.837
 3028TIP3    H1 9048   5.270   1.678   1.781
 3028TIP3    H2 9049   5.228   1.699   1.925
 3029TIP3   OH2 9050   3.092   3.565   3.592
 3029TIP3    H1 9051   3.073   3.486   3.642
 3029TIP3    H2 9052   3.120   3.629   3.657
 3030TIP3   OH2 9053   1.310   2.885   3.620
 3030TIP3    H1 9054   1.239   2.826   3.647
 3030TIP3    H2 9055   1.266   2.968   3.602
 3031TIP3   OH2 9056   0.869   1.603   1.810
 3031TIP3    H1 9057   0.900   1.693   1.822
 3031TIP3    H2 9058   0.782   1.612   1.773
 3032TIP3   OH2 9059   6.615   1.778   3.384
 3032TIP3    H1 9060   6.589   1.823   3.464
 3032TIP3    H2 9061   6.570   1.694   3.388
 3033TIP3   OH2 9062   4.832   0.936   3.278
 3033TIP3    H1 9063   4.783   1.014   3.304
 3033TIP3    H2 9064   4.766   0.867   3.269
 3034TIP3   OH2 9065   0.939   6.327   5.237
 3034TIP3    H1 9066   0.990   6.252   5.206
 3034TIP3    H2 9067   0.913   6.373   5.157
 3035TIP3   OH2 9068   4.926   0.379   4.600
 3035TIP3    H1 9069   4.993   0.311   4.595
 3035TIP3    H2 9070   4.971   0.454   4.637
 3036TIP3   OH2 9071   4.653   6.639   1.839
 3036TIP3    H1 9072   4.666   6.567   1.902
 3036TIP3    H2 9073   4.624   6.713   1.893
 3037TIP3   OH2 9074   3.664   6.607   4.254
 3037TIP3    H1 9075   3.581   6.629   4.295
 3037TIP3    H2 9076   3.713   6.689   4.251
 3038TIP3   OH2 9077   3.401   4.736   0.737
 3038TIP3    H1 9078   3.476   4.712   0.792
 3038TIP3    H2 9079   3.355   4.803   0.787
 3039TIP3   OH2 9080   6.289   0.758   0.490
 3039TIP3    H1 9081   6.329   0.707   0.420
 3039TIP3    H2 9082   6.253   0.835   0.447
 3040TIP3   OH2 9083   3.869   0.387   3.722
 3040TIP3    H1 9084   3.929   0.427   3.659
 3040TIP3    H2 9085   3.783   0.419   3.697
 3041TIP3   OH2 9086   1.114   6.065   3.981
 3041TIP3    H1 9087   1.038   6.039   4.033
 3041TIP3    H2 9088   1.185   6.009   4.011
 3042TIP3   OH2 9089   6.221   0.232   1.094
 3042TIP3    H1 9090   6.310   0.265   1.082
 3042TIP3    H2 9091   6.183   0.289   1.161
 3043TIP3   OH2 9092   6.273   5.016   2.989
 3043TIP3    H1 9093   6.273   4.934   2.940
 3043TIP3    H2 9094   6.363   5.046   2.987
 3044TIP3   OH2 9095   7.146   2.386   5.786
 3044TIP3    H1 9096   7.116   2.477   5.789
 3044TIP3    H2 9097   7.241   2.392   5.786
 3045TIP3   OH2 9098   0.191   1.248   3.851
 3045TIP3    H1 9099   0.281   1.217   3.850
 3045TIP3    H2 9100   0.183   1.304   3.774
 3046TIP3   OH2 9101   0.457   1.942   2.360
 3046TIP3    H1 9102   0.457   2.016   2.420
 3046TIP3    H2 9103   0.411   1.973   2.283
 3047TIP3   OH2 9104   1.191   4.981   0.625
 3047TIP3    H1 9105   1.179   4.902   0.679
 3047TIP3    H2 9106   1.250   5.036   0.677
 3048TIP3   OH2 9107   3.641   4.037   2.204
 3048TIP3    H1 9108   3.718   4.055   2.150
 3048TIP3    H2 9109   3.586   4.114   2.192
 3049TIP3   OH2 9110   1.144   5.963   1.894
 3049TIP3    H1 9111   1.210   5.894   1.893
 3049TIP3    H2 9112   1.124   5.978   1.802
 3050TIP3   OH2 9113   1.343   5.520   2.236
 3050TIP3    H1 9114   1.275   5.484   2.293
 3050TIP3    H2 9115   1.402   5.446   2.219
 3051TIP3   OH2 9116   3.418   2.172   2.598
 3051TIP3    H1 9117   3.434   2.211   2.684
 3051TIP3    H2 9118   3.326   2.145   2.600
 3052TIP3   OH2 9119   5.602   2.380   2.296
 3052TIP3    H1 9120   5.604   2.474   2.311
 3052TIP3    H2 9121   5.514   2.352   2.320
 3053TIP3   OH2 9122   6.595   3.962   1.457
 3053TIP3    H1 9123   6.672   4.006   1.494
 3053TIP3    H2 9124   6.527   3.975   1.523
 3054TIP3   OH2 9125   1.515   4.957   3.949
 3054TIP3    H1 9126   1.470   5.013   4.012
 3054TIP3    H2 9127   1.446   4.901   3.913
 3055TIP3   OH2 9128   5.278   4.093   1.940
 3055TIP3    H1 9129   5.360   4.050   1.917
 3055TIP3    H2 9130   5.243   4.041   2.012
 3056TIP3   OH2 9131   3.043   5.499   3.170
 3056TIP3    H1 9132   3.077   5.425   3.119
 3056TIP3    H2 9133   3.009   5.458   3.250
 3057TIP3   OH2 9134   7.175   1.294   3.995
 3057TIP3    H1 9135   7.119   1.260   3.925
 3057TIP3    H2 9136   7.264   1.275   3.965
 3058TIP3   OH2 9137   0.850   5.141   5.006
 3058TIP3    H1 9138   0.788   5.135   5.078
 3058TIP3    H2 9139   0.919   5.078   5.028
 3059TIP3   OH2 9140   6.800   3.055   2.857
 3059TIP3    H1 9141   6.716   3.043   2.813
 3059TIP3    H2 9142   6.846   3.120   2.804
 3060TIP3   OH2 9143   2.219   5.484   2.651
 3060TIP3    H1 9144   2.289   5.503   2.588
 3060TIP3    H2 9145   2.244   5.401   2.690
 3061TIP3   OH2 9146   6.641   5.012   0.845
 3061TIP3    H1 9147   6.723   4.991   0.801
 3061TIP3    H2 9148   6.658   4.993   0.937
 3062TIP3   OH2 9149   5.194   1.818   2.427
 3062TIP3    H1 9150   5.173   1.862   2.509
 3062TIP3    H2 9151   5.133   1.745   2.422
 3063TIP3   OH2 9152   3.719   0.421   2.673
 3063TIP3    H1 9153   3.690   0.512   2.680
 3063TIP3    H2 9154   3.812   0.427   2.649
 3064TIP3   OH2 9155   4.902   4.880   1.376
 3064TIP3    H1 9156   4.829   4.940   1.361
 3064TIP3    H2 9157   4.892   4.853   1.467
 3065TIP3   OH2 9158   2.147   4.829   5.278
 3065TIP3    H1 9159   2.075   4.784   5.323
 3065TIP3    H2 9160   2.196   4.759   5.236
 3066TIP3   OH2 9161   1.803   4.173   5.253
 3066TIP3    H1 9162   1.775   4.105   5.315
 3066TIP3    H2 9163   1.764   4.254   5.288
 3067TIP3   OH2 9164   0.714   3.499   4.657
 3067TIP3    H1 9165   0.622   3.479   4.675
 3067TIP3    H2 9166   0.741   3.431   4.595
 3068TIP3   OH2 9167   4.026   3.815   1.399
 3068TIP3    H1 9168   3.991   3.783   1.316
 3068TIP3    H2 9169   4.120   3.825   1.383
 3069TIP3   OH2 9170   6.651   4.432   0.072
 3069TIP3    H1 9171   6.670   4.343   0.044
 3069TIP3    H2 9172   6.681   4.436   0.163
 3070TIP3   OH2 9173   4.187   3.805   2.167
 3070TIP3    H1 9174   4.166   3.895   2.141
 3070TIP3    H2 9175   4.181   3.806   2.262
 3071TIP3   OH2 9176   2.991  -0.047   3.015
 3071TIP3    H1 9177   3.080  -0.070   2.987
 3071TIP3    H2 9178   3.003   0.021   3.081
 3072TIP3   OH2 9179   0.308   0.835   4.434
 3072TIP3    H1 9180   0.335   0.918   4.474
 3072TIP3    H2 9181   0.212   0.834   4.442
 3073TIP3   OH2 9182   3.923   2.832   3.732
 3073TIP3    H1 9183   3.902   2.768   3.800
 3073TIP3    H2 9184   3.996   2.793   3.684
 3074TIP3   OH2 9185   4.552   0.257   5.411
 3074TIP3    H1 9186   4.616   0.319   5.444
 3074TIP3    H2 9187   4.553   0.185   5.474
 3075TIP3   OH2 9188   2.643   1.945   2.107
 3075TIP3    H1 9189   2.712   1.953   2.173
 3075TIP3    H2 9190   2.668   2.007   2.038
 3076TIP3   OH2 9191   4.530   6.315   0.243
 3076TIP3    H1 9192   4.563   6.235   0.203
 3076TIP3    H2 9193   4.523   6.295   0.337
 3077TIP3   OH2 9194   2.972   6.636   3.544
 3077TIP3    H1 9195   2.882   6.632   3.578
 3077TIP3    H2 9196   2.969   6.707   3.480
 3078TIP3   OH2 9197   6.781   1.938   3.770
 3078TIP3    H1 9198   6.844   1.918   3.701
 3078TIP3    H2 9199   6.697   1.908   3.735
 3079TIP3   OH2 9200   1.293   1.687   3.683
 3079TIP3    H1 9201   1.326   1.713   3.770
 3079TIP3    H2 9202   1.362   1.714   3.623
 3080TIP3   OH2 9203   5.417   0.235   2.676
 3080TIP3    H1 9204   5.367   0.178   2.617
 3080TIP3    H2 9205   5.500   0.189   2.690
 3081TIP3   OH2 9206   2.477   0.776   1.502
 3081TIP3    H1 9207   2.549   0.830   1.469
 3081TIP3    H2 9208   2.459   0.810   1.590
 3082TIP3   OH2 9209   3.608   5.314   2.600
 3082TIP3    H1 9210   3.551   5.303   2.676
 3082TIP3    H2 9211   3.548   5.327   2.526
 3083TIP3   OH2 9212   1.587   4.552   5.530
 3083TIP3    H1 9213   1.669   4.596   5.511
 3083TIP3    H2 9214   1.543   4.544   5.446
 3084TIP3   OH2 9215   0.090   0.779   3.139
 3084TIP3    H1 9216   0.051   0.692   3.130
 3084TIP3    H2 9217   0.044   0.833   3.075
 3085TIP3   OH2 9218   5.841   0.345   0.521
 3085TIP3    H1 9219   5.876   0.272   0.572
 3085TIP3    H2 9220   5.917   0.399   0.501
 3086TIP3   OH2 9221   2.936   5.424   1.615
 3086TIP3    H1 9222   2.882   5.483   1.667
 3086TIP3    H2 9223   2.966   5.478   1.542
 3087TIP3   OH2 9224   4.936   0.257   5.440
 3087TIP3    H1 9225   5.013   0.289   5.393
 3087TIP3    H2 9226   4.969   0.183   5.491
 3088TIP3   OH2 9227   6.389   0.894   3.698
 3088TIP3    H1 9228   6.477   0.930   3.686
 3088TIP3    H2 9229   6.332   0.951   3.647
 3089TIP3   OH2 9230   3.418   2.241   5.743
 3089TIP3    H1 9231   3.484   2.176   5.768
 3089TIP3    H2 9232   3.339   2.190   5.724
 3090TIP3   OH2 9233   5.857   6.097   0.719
 3090TIP3    H1 9234   5.892   6.110   0.808
 3090TIP3    H2 9235   5.921   6.139   0.662
 3091TIP3   OH2 9236   1.963   6.628   0.562
 3091TIP3    H1 9237   1.938   6.650   0.651
 3091TIP3    H2 9238   1.897   6.672   0.507
 3092TIP3   OH2 9239   4.646   0.034   5.592
 3092TIP3    H1 9240   4.643  -0.062   5.586
 3092TIP3    H2 9241   4.699   0.051   5.670
 3093TIP3   OH2 9242   2.090   0.198   1.004
 3093TIP3    H1 9243   2.160   0.206   1.069
 3093TIP3    H2 9244   2.034   0.274   1.019
 3094TIP3   OH2 9245   4.159   6.664   5.624
 3094TIP3    H1 9246   4.246   6.682   5.660
 3094TIP3    H2 9247   4.162   6.701   5.536
 3095TIP3   OH2 9248   1.509   5.486   1.447
 3095TIP3    H1 9249   1.570   5.429   1.494
 3095TIP3    H2 9250   1.474   5.431   1.377
 3096TIP3   OH2 9251   0.939   2.402   0.976
 3096TIP3    H1 9252   0.849   2.432   0.987
 3096TIP3    H2 9253   0.939   2.354   0.893
 3097TIP3   OH2 9254   6.655   0.178   5.311
 3097TIP3    H1 9255   6.592   0.111   5.338
 3097TIP3    H2 9256   6.711   0.190   5.388
 3098TIP3   OH2 9257   4.558   6.140   4.266
 3098TIP3    H1 9258   4.590   6.100   4.185
 3098TIP3    H2 9259   4.561   6.234   4.250
 3099TIP3   OH2 9260   1.606   0.839   2.943
 3099TIP3    H1 9261   1.614   0.820   3.037
 3099TIP3    H2 9262   1.600   0.753   2.902
 3100TIP3   OH2 9263   7.147   4.978   3.809
 3100TIP3    H1 9264   7.058   4.998   3.837
 3100TIP3    H2 9265   7.192   5.062   3.811
 3101TIP3   OH2 9266   2.726   5.675   5.596
 3101TIP3    H1 9267   2.730   5.682   5.692
 3101TIP3    H2 9268   2.632   5.675   5.576
 3102TIP3   OH2 9269   2.184   0.107   3.364
 3102TIP3    H1 9270   2.258   0.070   3.317
 3102TIP3    H2 9271   2.137   0.031   3.398
 3103TIP3   OH2 9272   1.983   1.194   2.889
 3103TIP3    H1 9273   1.935   1.178   2.808
 3103TIP3    H2 9274   2.031   1.112   2.906
 3104TIP3   OH2 9275   6.620   1.373   3.822
 3104TIP3    H1 9276   6.705   1.405   3.852
 3104TIP3    H2 9277   6.581   1.334   3.900
 3105TIP3   OH2 9278   0.018   5.668   4.642
 3105TIP3    H1 9279   0.074   5.639   4.714
 3105TIP3    H2 9280   0.044   5.612   4.568
 3106TIP3   OH2 9281   1.631   0.807   3.959
 3106TIP3    H1 9282   1.654   0.890   4.001
 3106TIP3    H2 9283   1.653   0.820   3.866
 3107TIP3   OH2 9284   6.568   1.784   4.888
 3107TIP3    H1 9285   6.649   1.758   4.843
 3107TIP3    H2 9286   6.568   1.879   4.886
 3108TIP3   OH2 9287   3.862   4.013   1.694
 3108TIP3    H1 9288   3.772   4.012   1.663
 3108TIP3    H2 9289   3.913   4.042   1.618
 3109TIP3   OH2 9290   2.724   4.731   5.387
 3109TIP3    H1 9291   2.644   4.687   5.416
 3109TIP3    H2 9292   2.694   4.794   5.322
 3110TIP3   OH2 9293   3.023   5.620   4.271
 3110TIP3    H1 9294   3.090   5.569   4.317
 3110TIP3    H2 9295   3.007   5.695   4.328
 3111TIP3   OH2 9296   6.970   4.738   5.624
 3111TIP3    H1 9297   7.046   4.708   5.575
 3111TIP3    H2 9298   6.900   4.745   5.559
 3112TIP3   OH2 9299   6.337   2.815   2.252
 3112TIP3    H1 9300   6.326   2.833   2.159
 3112TIP3    H2 9301   6.257   2.850   2.292
 3113TIP3   OH2 9302   6.225   5.732   0.805
 3113TIP3    H1 9303   6.183   5.734   0.719
 3113TIP3    H2 9304   6.174   5.669   0.855
 3114TIP3   OH2 9305   5.479   1.822   2.508
 3114TIP3    H1 9306   5.393   1.830   2.467
 3114TIP3    H2 9307   5.464   1.769   2.586
 3115TIP3   OH2 9308   2.142   3.472   1.474
 3115TIP3    H1 9309   2.152   3.565   1.498
 3115TIP3    H2 9310   2.048   3.457   1.477
 3116TIP3   OH2 9311   2.737   6.339   0.351
 3116TIP3    H1 9312   2.694   6.309   0.271
 3116TIP3    H2 9313   2.751   6.433   0.337
 3117TIP3   OH2 9314   4.390   1.738   0.464
 3117TIP3    H1 9315   4.298   1.726   0.485
 3117TIP3    H2 9316   4.399   1.700   0.376
 3118TIP3   OH2 9317   1.221   4.181   4.710
 3118TIP3    H1 9318   1.232   4.103   4.657
 3118TIP3    H2 9319   1.238   4.254   4.650
 3119TIP3   OH2 9320   0.335   2.650   2.419
 3119TIP3    H1 9321   0.372   2.723   2.370
 3119TIP3    H2 9322   0.396   2.636   2.492
 3120TIP3   OH2 9323   4.189   5.866   2.678
 3120TIP3    H1 9324   4.109   5.918   2.674
 3120TIP3    H2 9325   4.241   5.896   2.603
 3121TIP3   OH2 9326   1.547   2.164   5.314
 3121TIP3    H1 9327   1.483   2.210   5.259
 3121TIP3    H2 9328   1.495   2.117   5.378
 3122TIP3   OH2 9329   3.347   4.525   2.490
 3122TIP3    H1 9330   3.253   4.541   2.478
 3122TIP3    H2 9331   3.351   4.451   2.550
 3123TIP3   OH2 9332   2.631   2.846   3.735
 3123TIP3    H1 9333   2.708   2.812   3.781
 3123TIP3    H2 9334   2.623   2.936   3.766
 3124TIP3   OH2 9335   0.442   1.354   2.912
 3124TIP3    H1 9336   0.524   1.339   2.960
 3124TIP3    H2 9337   0.470   1.382   2.825
 3125TIP3   OH2 9338   2.488   4.602   5.451
 3125TIP3    H1 9339   2.395   4.580   5.453
 3125TIP3    H2 9340   2.522   4.556   5.374
 3126TIP3   OH2 9341   6.045   1.618   4.341
 3126TIP3    H1 9342   5.972   1.661   4.385
 3126TIP3    H2 9343   6.065   1.543   4.396
 3127TIP3   OH2 9344   3.414   5.918   2.194
 3127TIP3    H1 9345   3.394   5.972   2.271
 3127TIP3    H2 9346   3.357   5.842   2.202
 3128TIP3   OH2 9347   2.233   4.699   4.667
 3128TIP3    H1 9348   2.216   4.793   4.659
 3128TIP3    H2 9349   2.172   4.658   4.605
 3129TIP3   OH2 9350   4.038   4.072   0.122
 3129TIP3    H1 9351   4.076   4.092   0.036
 3129TIP3    H2 9352   3.997   4.154   0.149
 3130TIP3   OH2 9353   0.737   3.766   4.540
 3130TIP3    H1 9354   0.724   3.685   4.591
 3130TIP3    H2 9355   0.809   3.744   4.480
 3131TIP3   OH2 9356   2.299   4.882   1.899
 3131TIP3    H1 9357   2.222   4.855   1.848
 3131TIP3    H2 9358   2.310   4.975   1.880
 3132TIP3   OH2 9359   4.091   3.366   1.713
 3132TIP3    H1 9360   4.138   3.429   1.659
 3132TIP3    H2 9361   4.153   3.343   1.783
 3133TIP3   OH2 9362   0.899   1.016   5.470
 3133TIP3    H1 9363   0.808   1.045   5.479
 3133TIP3    H2 9364   0.900   0.963   5.390
 3134TIP3   OH2 9365   2.816   6.169   3.506
 3134TIP3    H1 9366   2.804   6.240   3.569
 3134TIP3    H2 9367   2.851   6.097   3.557
 3135TIP3   OH2 9368   2.389   3.879   0.233
 3135TIP3    H1 9369   2.369   3.912   0.145
 3135TIP3    H2 9370   2.382   3.956   0.290
 3136TIP3   OH2 9371   3.186   2.012   5.308
 3136TIP3    H1 9372   3.247   2.082   5.286
 3136TIP3    H2 9373   3.124   2.052   5.369
 3137TIP3   OH2 9374   5.282   0.929   3.720
 3137TIP3    H1 9375   5.324   0.978   3.649
 3137TIP3    H2 9376   5.350   0.869   3.751
 3138TIP3   OH2 9377   5.124   3.829   3.506
 3138TIP3    H1 9378   5.071   3.772   3.450
 3138TIP3    H2 9379   5.191   3.772   3.543
 3139TIP3   OH2 9380   0.759   4.387   4.292
 3139TIP3    H1 9381   0.752   4.418   4.383
 3139TIP3    H2 9382   0.822   4.447   4.252
 3140TIP3   OH2 9383   3.165   5.413   1.267
 3140TIP3    H1 9384   3.137   5.321   1.262
 3140TIP3    H2 9385   3.260   5.408   1.281
 3141TIP3   OH2 9386   0.450   2.366   3.226
 3141TIP3    H1 9387   0.427   2.278   3.200
 3141TIP3    H2 9388   0.368   2.416   3.220
 3142TIP3   OH2 9389   3.257   4.649   3.226
 3142TIP3    H1 9390   3.320   4.588   3.265
 3142TIP3    H2 9391   3.177   4.597   3.216
 3143TIP3   OH2 9392   6.780   1.367   3.591
 3143TIP3    H1 9393   6.764   1.277   3.562
 3143TIP3    H2 9394   6.703   1.389   3.644
 3144TIP3   OH2 9395   0.832   0.682   5.588
 3144TIP3    H1 9396   0.839   0.654   5.679
 3144TIP3    H2 9397   0.918   0.719   5.568
 3145TIP3   OH2 9398   6.712   0.289   2.152
 3145TIP3    H1 9399   6.624   0.279   2.188
 3145TIP3    H2 9400   6.700   0.284   2.057
 3146TIP3   OH2 9401   0.742   6.177   2.741
 3146TIP3    H1 9402   0.748   6.137   2.829
 3146TIP3    H2 9403   0.698   6.110   2.688
 3147TIP3   OH2 9404   5.265   2.476   4.030
 3147TIP3    H1 9405   5.248   2.522   3.948
 3147TIP3    H2 9406   5.267   2.545   4.097
 3148TIP3   OH2 9407   2.002   5.567   4.117
 3148TIP3    H1 9408   1.998   5.544   4.024
 3148TIP3    H2 9409   2.085   5.613   4.127
 3149TIP3   OH2 9410   3.686   3.927   0.765
 3149TIP3    H1 9411   3.608   3.872   0.759
 3149TIP3    H2 9412   3.685   3.979   0.685
 3150TIP3   OH2 9413   5.738   3.115   2.828
 3150TIP3    H1 9414   5.703   3.204   2.831
 3150TIP3    H2 9415   5.749   3.097   2.734
 3151TIP3   OH2 9416   3.919   6.024   5.688
 3151TIP3    H1 9417   3.871   5.983   5.759
 3151TIP3    H2 9418   4.009   5.992   5.697
 3152TIP3   OH2 9419   5.323   6.408   4.432
 3152TIP3    H1 9420   5.295   6.356   4.508
 3152TIP3    H2 9421   5.384   6.472   4.467
 3153TIP3   OH2 9422   5.921   6.740   2.066
 3153TIP3    H1 9423   5.842   6.702   2.026
 3153TIP3    H2 9424   5.989   6.675   2.048
 3154TIP3   OH2 9425   1.305   2.460   3.583
 3154TIP3    H1 9426   1.245   2.395   3.546
 3154TIP3    H2 9427   1.332   2.423   3.667
 3155TIP3   OH2 9428   1.364   2.980   0.108
 3155TIP3    H1 9429   1.380   2.894   0.070
 3155TIP3    H2 9430   1.450   3.014   0.131
 3156TIP3   OH2 9431   7.139   5.170   4.687
 3156TIP3    H1 9432   7.185   5.164   4.603
 3156TIP3    H2 9433   7.193   5.230   4.739
 3157TIP3   OH2 9434   1.117   0.851   1.044
 3157TIP3    H1 9435   1.199   0.898   1.057
 3157TIP3    H2 9436   1.109   0.795   1.121
 3158TIP3   OH2 9437   0.342   5.231   2.556
 3158TIP3    H1 9438   0.276   5.251   2.622
 3158TIP3    H2 9439   0.359   5.137   2.566
 3159TIP3   OH2 9440   2.148   6.412   4.172
 3159TIP3    H1 9441   2.104   6.495   4.154
 3159TIP3    H2 9442   2.196   6.427   4.253
 3160TIP3   OH2 9443   6.808   2.680   2.493
 3160TIP3    H1 9444   6.749   2.715   2.426
 3160TIP3    H2 9445   6.881   2.742   2.496
 3161TIP3   OH2 9446   5.079   2.193   0.447
 3161TIP3    H1 9447   5.063   2.214   0.355
 3161TIP3    H2 9448   5.007   2.236   0.494
 3162TIP3   OH2 9449   6.549   4.658   0.194
 3162TIP3    H1 9450   6.558   4.591   0.126
 3162TIP3    H2 9451   6.630   4.708   0.189
 3163TIP3   OH2 9452   2.021   1.773   3.613
 3163TIP3    H1 9453   2.013   1.686   3.574
 3163TIP3    H2 9454   2.114   1.782   3.635
 3164TIP3   OH2 9455   0.586   2.851   4.478
 3164TIP3    H1 9456   0.500   2.852   4.521
 3164TIP3    H2 9457   0.609   2.758   4.473
 3165TIP3   OH2 9458   1.452   4.910   3.220
 3165TIP3    H1 9459   1.426   4.925   3.129
 3165TIP3    H2 9460   1.398   4.972   3.270
 3166TIP3   OH2 9461   0.781   6.643   0.413
 3166TIP3    H1 9462   0.753   6.645   0.322
 3166TIP3    H2 9463   0.833   6.563   0.420
 3167TIP3   OH2 9464   4.423   3.784   0.233
 3167TIP3    H1 9465   4.509   3.747   0.256
 3167TIP3    H2 9466   4.404   3.845   0.303
 3168TIP3   OH2 9467   5.214   1.120   1.496
 3168TIP3    H1 9468   5.254   1.165   1.421
 3168TIP3    H2 9469   5.132   1.085   1.463
 3169TIP3   OH2 9470   6.750   5.024   5.597
 3169TIP3    H1 9471   6.716   4.957   5.538
 3169TIP3    H2 9472   6.689   5.097   5.589
 3170TIP3   OH2 9473   5.603   2.481   4.836
 3170TIP3    H1 9474   5.608   2.401   4.889
 3170TIP3    H2 9475   5.670   2.538   4.873
 3171TIP3   OH2 9476   6.631   2.962   1.969
 3171TIP3    H1 9477   6.544   2.993   1.943
 3171TIP3    H2 9478   6.614   2.883   2.020
 3172TIP3   OH2 9479   5.645   3.736   3.633
 3172TIP3    H1 9480   5.668   3.748   3.541
 3172TIP3    H2 9481   5.713   3.783   3.682
 3173TIP3   OH2 9482   1.239   5.521   4.625
 3173TIP3    H1 9483   1.327   5.535   4.660
 3173TIP3    H2 9484   1.254   5.495   4.534
 3174TIP3   OH2 9485   0.765   4.565   2.589
 3174TIP3    H1 9486   0.683   4.532   2.626
 3174TIP3    H2 9487   0.752   4.561   2.495
 3175TIP3   OH2 9488   5.042   1.346   4.083
 3175TIP3    H1 9489   4.984   1.409   4.040
 3175TIP3    H2 9490   5.003   1.332   4.169
 3176TIP3   OH2 9491   1.874   2.483   1.142
 3176TIP3    H1 9492   1.834   2.563   1.176
 3176TIP3    H2 9493   1.800   2.434   1.106
 3177TIP3   OH2 9494   1.266   5.356   3.708
 3177TIP3    H1 9495   1.250   5.296   3.780
 3177TIP3    H2 9496   1.265   5.443   3.748
 3178TIP3   OH2 9497   6.353   4.561   4.638
 3178TIP3    H1 9498   6.373   4.548   4.730
 3178TIP3    H2 9499   6.257   4.567   4.634
 3179TIP3   OH2 9500   1.659   0.877   3.683
 3179TIP3    H1 9501   1.649   0.816   3.610
 3179TIP3    H2 9502   1.735   0.931   3.660
 3180TIP3   OH2 9503   4.090   5.158   1.046
 3180TIP3    H1 9504   3.996   5.170   1.046
 3180TIP3    H2 9505   4.104   5.078   1.098
 3181TIP3   OH2 9506   2.293   4.040   2.271
 3181TIP3    H1 9507   2.268   3.990   2.349
 3181TIP3    H2 9508   2.212   4.046   2.220
 3182TIP3   OH2 9509   3.943   0.050   4.537
 3182TIP3    H1 9510   3.964   0.140   4.513
 3182TIP3    H2 9511   4.029   0.007   4.549
 3183TIP3   OH2 9512   6.661   1.374   5.565
 3183TIP3    H1 9513   6.576   1.373   5.610
 3183TIP3    H2 9514   6.699   1.289   5.584
 3184TIP3   OH2 9515   1.021   6.698   2.181
 3184TIP3    H1 9516   0.976   6.648   2.249
 3184TIP3    H2 9517   1.112   6.703   2.210
 3185TIP3   OH2 9518   6.956   6.668   5.893
 3185TIP3    H1 9519   6.992   6.754   5.872
 3185TIP3    H2 9520   6.993   6.610   5.827
 3186TIP3   OH2 9521   1.339   1.563   3.084
 3186TIP3    H1 9522   1.386   1.512   3.151
 3186TIP3    H2 9523   1.315   1.499   3.018
 3187TIP3   OH2 9524   2.428   5.070   2.369
 3187TIP3    H1 9525   2.438   5.152   2.322
 3187TIP3    H2 9526   2.449   5.002   2.305
 3188TIP3   OH2 9527   0.014   6.727   3.747
 3188TIP3    H1 9528  -0.010   6.637   3.769
 3188TIP3    H2 9529  -0.002   6.733   3.653
 3189TIP3   OH2 9530   5.444   0.037   3.371
 3189TIP3    H1 9531   5.439   0.133   3.361
 3189TIP3    H2 9532   5.383   0.003   3.305
 3190TIP3   OH2 9533   4.770   6.793   3.352
 3190TIP3    H1 9534   4.693   6.745   3.321
 3190TIP3    H2 9535   4.834   6.783   3.282
 3191TIP3   OH2 9536   4.064   5.168   2.585
 3191TIP3    H1 9537   3.993   5.232   2.582
 3191TIP3    H2 9538   4.114   5.190   2.664
 3192TIP3   OH2 9539   4.766   1.208   3.154
 3192TIP3    H1 9540   4.749   1.265   3.229
 3192TIP3    H2 9541   4.861   1.206   3.147
 3193TIP3   OH2 9542   2.818   3.435   3.907
 3193TIP3    H1 9543   2.885   3.499   3.931
 3193TIP3    H2 9544   2.764   3.428   3.986
 3194TIP3   OH2 9545   4.638   4.459   4.295
 3194TIP3    H1 9546   4.607   4.491   4.211
 3194TIP3    H2 9547   4.630   4.364   4.289
 3195TIP3   OH2 9548   4.264   1.265   5.620
 3195TIP3    H1 9549   4.301   1.291   5.704
 3195TIP3    H2 9550   4.240   1.347   5.577
 3196TIP3   OH2 9551   1.326   2.611   3.950
 3196TIP3    H1 9552   1.269   2.687   3.961
 3196TIP3    H2 9553   1.348   2.584   4.039
 3197TIP3   OH2 9554   4.641   4.149   1.136
 3197TIP3    H1 9555   4.598   4.089   1.198
 3197TIP3    H2 9556   4.664   4.094   1.061
 3198TIP3   OH2 9557   0.985   5.116   0.526
 3198TIP3    H1 9558   1.009   5.207   0.510
 3198TIP3    H2 9559   1.067   5.073   0.550
 3199TIP3   OH2 9560   2.218   3.671   1.145
 3199TIP3    H1 9561   2.229   3.656   1.051
 3199TIP3    H2 9562   2.146   3.614   1.170
 3200TIP3   OH2 9563   2.262   3.429   0.708
 3200TIP3    H1 9564   2.207   3.436   0.629
 3200TIP3    H2 9565   2.278   3.335   0.718
 3201TIP3   OH2 9566   5.742   3.379   5.090
 3201TIP3    H1 9567   5.740   3.337   5.176
 3201TIP3    H2 9568   5.654   3.417   5.080
 3202TIP3   OH2 9569   4.117   1.861   0.345
 3202TIP3    H1 9570   4.102   1.795   0.412
 3202TIP3    H2 9571   4.075   1.940   0.379
 3203TIP3   OH2 9572   6.978   2.771   3.818
 3203TIP3    H1 9573   6.927   2.703   3.863
 3203TIP3    H2 9574   6.936   2.853   3.843
 3204TIP3   OH2 9575   3.231   5.351   0.181
 3204TIP3    H1 9576   3.246   5.344   0.276
 3204TIP3    H2 9577   3.286   5.282   0.144
 3205TIP3   OH2 9578   1.895   4.678   5.094
 3205TIP3    H1 9579   1.952   4.618   5.047
 3205TIP3    H2 9580   1.901   4.650   5.185
 3206TIP3   OH2 9581   5.059   1.172   3.524
 3206TIP3    H1 9582   5.108   1.095   3.493
 3206TIP3    H2 9583   5.103   1.197   3.606
 3207TIP3   OH2 9584   5.002   6.505   5.185
 3207TIP3    H1 9585   4.907   6.494   5.194
 3207TIP3    H2 9586   5.016   6.506   5.090
 3208TIP3   OH2 9587   4.392   1.954   2.189
 3208TIP3    H1 9588   4.442   1.975   2.111
 3208TIP3    H2 9589   4.373   2.038   2.230
 3209TIP3   OH2 9590   1.999   5.909   4.574
 3209TIP3    H1 9591   1.968   5.996   4.549
 3209TIP3    H2 9592   1.950   5.887   4.653
 3210TIP3   OH2 9593   0.511   3.243   1.922
 3210TIP3    H1 9594   0.561   3.257   2.002
 3210TIP3    H2 9595   0.422   3.224   1.953
 3211TIP3   OH2 9596   0.750   3.392   1.202
 3211TIP3    H1 9597   0.719   3.383   1.292
 3211TIP3    H2 9598   0.793   3.309   1.184
 3212TIP3   OH2 9599   7.174   4.247   1.382
 3212TIP3    H1 9600   7.235   4.300   1.332
 3212TIP3    H2 9601   7.098   4.238   1.325
 3213TIP3   OH2 9602   6.664   5.567   2.176
 3213TIP3    H1 9603   6.741   5.510   2.175
 3213TIP3    H2 9604   6.693   5.646   2.222
 3214TIP3   OH2 9605   0.994   2.871   5.337
 3214TIP3    H1 9606   1.030   2.938   5.279
 3214TIP3    H2 9607   0.978   2.917   5.420
 3215TIP3   OH2 9608   0.301   5.409   0.491
 3215TIP3    H1 9609   0.314   5.490   0.541
 3215TIP3    H2 9610   0.223   5.370   0.530
 3216TIP3   OH2 9611   5.456   0.433   5.728
 3216TIP3    H1 9612   5.363   0.438   5.707
 3216TIP3    H2 9613   5.492   0.371   5.666
 3217TIP3   OH2 9614   4.025   4.081   1.495
 3217TIP3    H1 9615   4.033   3.995   1.455
 3217TIP3    H2 9616   4.028   4.142   1.421
 3218TIP3   OH2 9617   6.126   0.433   3.601
 3218TIP3    H1 9618   6.091   0.453   3.687
 3218TIP3    H2 9619   6.213   0.474   3.600
 3219TIP3   OH2 9620   0.267   4.991   3.459
 3219TIP3    H1 9621   0.264   4.942   3.542
 3219TIP3    H2 9622   0.325   4.940   3.403
 3220TIP3   OH2 9623   0.884   0.941   1.149
 3220TIP3    H1 9624   0.962   0.906   1.107
 3220TIP3    H2 9625   0.815   0.878   1.130
 3221TIP3   OH2 9626   3.438   2.270   2.871
 3221TIP3    H1 9627   3.421   2.328   2.945
 3221TIP3    H2 9628   3.445   2.183   2.910
 3222TIP3   OH2 9629   5.898   4.836   5.421
 3222TIP3    H1 9630   5.933   4.892   5.490
 3222TIP3    H2 9631   5.862   4.760   5.467
 3223TIP3   OH2 9632   1.842   6.022   2.377
 3223TIP3    H1 9633   1.824   6.088   2.444
 3223TIP3    H2 9634   1.841   6.070   2.294
 3224TIP3   OH2 9635   1.677   0.297   0.136
 3224TIP3    H1 9636   1.663   0.390   0.152
 3224TIP3    H2 9637   1.760   0.293   0.090
 3225TIP3   OH2 9638   2.353   2.462   3.139
 3225TIP3    H1 9639   2.307   2.392   3.186
 3225TIP3    H2 9640   2.294   2.483   3.066
 3226TIP3   OH2 9641   1.266   3.915   3.562
 3226TIP3    H1 9642   1.170   3.917   3.568
 3226TIP3    H2 9643   1.292   4.006   3.551
 3227TIP3   OH2 9644   1.811   0.125   3.552
 3227TIP3    H1 9645   1.895   0.142   3.595
 3227TIP3    H2 9646   1.780   0.211   3.524
 3228TIP3   OH2 9647   4.095   1.699   3.069
 3228TIP3    H1 9648   4.060   1.773   3.119
 3228TIP3    H2 9649   4.141   1.739   2.995
 3229TIP3   OH2 9650   1.977   3.743   4.193
 3229TIP3    H1 9651   2.060   3.770   4.231
 3229TIP3    H2 9652   1.956   3.660   4.237
 3230TIP3   OH2 9653   5.100   3.972   1.255
 3230TIP3    H1 9654   5.111   4.067   1.252
 3230TIP3    H2 9655   5.034   3.953   1.188
 3231TIP3   OH2 9656   1.223   4.495   4.648
 3231TIP3    H1 9657   1.314   4.520   4.662
 3231TIP3    H2 9658   1.188   4.480   4.736
 3232TIP3   OH2 9659   0.788   4.919   0.547
 3232TIP3    H1 9660   0.747   4.971   0.478
 3232TIP3    H2 9661   0.835   4.984   0.600
 3233TIP3   OH2 9662   0.445   3.675   0.654
 3233TIP3    H1 9663   0.519   3.637   0.700
 3233TIP3    H2 9664   0.409   3.603   0.602
 3234TIP3   OH2 9665   4.943   4.708   3.596
 3234TIP3    H1 9666   4.906   4.773   3.536
 3234TIP3    H2 9667   4.933   4.625   3.550
 3235TIP3   OH2 9668   4.287   5.097   3.958
 3235TIP3    H1 9669   4.362   5.147   3.925
 3235TIP3    H2 9670   4.247   5.153   4.024
 3236TIP3   OH2 9671   0.170   3.506   4.778
 3236TIP3    H1 9672   0.204   3.463   4.857
 3236TIP3    H2 9673   0.132   3.588   4.811
 3237TIP3   OH2 9674   6.307   5.443   5.130
 3237TIP3    H1 9675   6.247   5.508   5.167
 3237TIP3    H2 9676   6.274   5.426   5.042
 3238TIP3   OH2 9677   1.501   6.006   2.650
 3238TIP3    H1 9678   1.585   6.019   2.605
 3238TIP3    H2 9679   1.464   6.094   2.655
 3239TIP3   OH2 9680   3.181   5.779   2.534
 3239TIP3    H1 9681   3.139   5.859   2.567
 3239TIP3    H2 9682   3.262   5.811   2.494
 3240TIP3   OH2 9683   1.143   2.175   3.816
 3240TIP3    H1 9684   1.092   2.183   3.897
 3240TIP3    H2 9685   1.226   2.219   3.836
 3241TIP3   OH2 9686   0.148   1.351   5.278
 3241TIP3    H1 9687   0.129   1.437   5.241
 3241TIP3    H2 9688   0.244   1.344   5.276
 3242TIP3   OH2 9689   1.093   1.371   1.089
 3242TIP3    H1 9690   1.019   1.315   1.068
 3242TIP3    H2 9691   1.072   1.407   1.175
 3243TIP3   OH2 9692   6.541   3.115   3.377
 3243TIP3    H1 9693   6.537   3.024   3.347
 3243TIP3    H2 9694   6.504   3.166   3.305
 3244TIP3   OH2 9695   6.725   0.853   4.893
 3244TIP3    H1 9696   6.652   0.797   4.868
 3244TIP3    H2 9697   6.717   0.863   4.988
 3245TIP3   OH2 9698   6.811   2.696   0.141
 3245TIP3    H1 9699   6.822   2.776   0.192
 3245TIP3    H2 9700   6.871   2.633   0.181
 3246TIP3   OH2 9701   7.229   2.949   3.932
 3246TIP3    H1 9702   7.157   2.886   3.939
 3246TIP3    H2 9703   7.283   2.916   3.860
 3247TIP3   OH2 9704   1.876   4.833   5.875
 3247TIP3    H1 9705   1.797   4.796   5.836
 3247TIP3    H2 9706   1.937   4.759   5.882
 3248TIP3   OH2 9707   4.218   1.393   0.422
 3248TIP3    H1 9708   4.219   1.308   0.380
 3248TIP3    H2 9709   4.307   1.426   0.410
 3249TIP3   OH2 9710   5.363   4.463   3.029
 3249TIP3    H1 9711   5.447   4.508   3.032
 3249TIP3    H2 9712   5.380   4.376   3.065
 3250TIP3   OH2 9713   7.101   3.223   3.619
 3250TIP3    H1 9714   7.047   3.301   3.609
 3250TIP3    H2 9715   7.047   3.152   3.583
 3251TIP3   OH2 9716   7.006   1.623   4.273
 3251TIP3    H1 9717   6.921   1.586   4.250
 3251TIP3    H2 9718   7.000   1.638   4.368
 3252TIP3   OH2 9719   3.139   4.972   1.030
 3252TIP3    H1 9720   3.129   4.940   0.940
 3252TIP3    H2 9721   3.171   4.896   1.079
 3253TIP3   OH2 9722   2.541   0.962   5.605
 3253TIP3    H1 9723   2.450   0.947   5.578
 3253TIP3    H2 9724   2.588   0.981   5.524
 3254TIP3   OH2 9725   6.903   6.178   1.465
 3254TIP3    H1 9726   6.893   6.241   1.394
 3254TIP3    H2 9727   6.843   6.108   1.443
 3255TIP3   OH2 9728   4.943   4.054   3.784
 3255TIP3    H1 9729   5.038   4.067   3.788
 3255TIP3    H2 9730   4.907   4.127   3.836
 3256TIP3   OH2 9731   2.545   1.370   3.839
 3256TIP3    H1 9732   2.598   1.446   3.815
 3256TIP3    H2 9733   2.473   1.370   3.777
 3257TIP3   OH2 9734   2.810   5.393   3.928
 3257TIP3    H1 9735   2.796   5.479   3.966
 3257TIP3    H2 9736   2.902   5.374   3.945
 3258TIP3   OH2 9737   3.805   5.804   5.027
 3258TIP3    H1 9738   3.846   5.769   5.106
 3258TIP3    H2 9739   3.714   5.818   5.052
 3259TIP3   OH2 9740   6.233   6.304   2.467
 3259TIP3    H1 9741   6.215   6.210   2.475
 3259TIP3    H2 9742   6.328   6.310   2.467
 3260TIP3   OH2 9743   2.422   0.552   1.153
 3260TIP3    H1 9744   2.427   0.511   1.239
 3260TIP3    H2 9745   2.511   0.582   1.135
 3261TIP3   OH2 9746   1.527   1.423   1.110
 3261TIP3    H1 9747   1.576   1.370   1.047
 3261TIP3    H2 9748   1.591   1.446   1.177
 3262TIP3   OH2 9749   7.115   4.654   0.814
 3262TIP3    H1 9750   7.071   4.594   0.754
 3262TIP3    H2 9751   7.069   4.642   0.897
 3263TIP3   OH2 9752   2.404   3.521   1.771
 3263TIP3    H1 9753   2.318   3.559   1.787
 3263TIP3    H2 9754   2.457   3.553   1.844
 3264TIP3   OH2 9755   2.610   5.960   3.431
 3264TIP3    H1 9756   2.588   5.887   3.489
 3264TIP3    H2 9757   2.704   5.953   3.417
 3265TIP3   OH2 9758   4.915   0.610   1.900
 3265TIP3    H1 9759   4.869   0.574   1.976
 3265TIP3    H2 9760   5.007   0.589   1.915
 3266TIP3   OH2 9761   5.968   0.036   3.590
 3266TIP3    H1 9762   5.930   0.079   3.513
 3266TIP3    H2 9763   5.938   0.088   3.664
 3267TIP3   OH2 9764   6.015   1.918   0.848
 3267TIP3    H1 9765   6.100   1.937   0.887
 3267TIP3    H2 9766   5.952   1.966   0.903
 3268TIP3   OH2 9767   0.195   0.975   3.729
 3268TIP3    H1 9768   0.288   0.970   3.706
 3268TIP3    H2 9769   0.187   1.054   3.782
 3269TIP3   OH2 9770   2.539   0.344   2.960
 3269TIP3    H1 9771   2.599   0.291   2.907
 3269TIP3    H2 9772   2.545   0.307   3.048
 3270TIP3   OH2 9773   0.938   2.067   0.898
 3270TIP3    H1 9774   0.925   1.972   0.897
 3270TIP3    H2 9775   0.850   2.103   0.890
 3271TIP3   OH2 9776   3.740   0.536   3.439
 3271TIP3    H1 9777   3.678   0.562   3.370
 3271TIP3    H2 9778   3.797   0.472   3.396
 3272TIP3   OH2 9779   4.732   2.992   3.323
 3272TIP3    H1 9780   4.749   3.000   3.417
 3272TIP3    H2 9781   4.722   3.081   3.292
 3273TIP3   OH2 9782   1.328   2.296   0.447
 3273TIP3    H1 9783   1.277   2.325   0.523
 3273TIP3    H2 9784   1.334   2.201   0.458
 3274TIP3   OH2 9785   1.888   4.246   3.421
 3274TIP3    H1 9786   1.866   4.185   3.350
 3274TIP3    H2 9787   1.964   4.207   3.464
 3275TIP3   OH2 9788   4.500   1.518   3.739
 3275TIP3    H1 9789   4.420   1.543   3.785
 3275TIP3    H2 9790   4.483   1.429   3.709
 3276TIP3   OH2 9791   1.569   5.442   4.251
 3276TIP3    H1 9792   1.651   5.492   4.246
 3276TIP3    H2 9793   1.582   5.380   4.323
 3277TIP3   OH2 9794   5.301   3.399   4.684
 3277TIP3    H1 9795   5.357   3.341   4.737
 3277TIP3    H2 9796   5.363   3.451   4.633
 3278TIP3   OH2 9797   2.137   4.197   1.377
 3278TIP3    H1 9798   2.149   4.103   1.359
 3278TIP3    H2 9799   2.225   4.228   1.397
 3279TIP3   OH2 9800   5.276   2.207   1.225
 3279TIP3    H1 9801   5.203   2.258   1.190
 3279TIP3    H2 9802   5.351   2.235   1.174
 3280TIP3   OH2 9803   3.804   6.499   2.173
 3280TIP3    H1 9804   3.736   6.565   2.168
 3280TIP3    H2 9805   3.861   6.528   2.244
 3281TIP3   OH2 9806   4.938   5.643   4.468
 3281TIP3    H1 9807   4.952   5.721   4.523
 3281TIP3    H2 9808   4.905   5.679   4.386
 3282TIP3   OH2 9809   6.965   4.403   2.160
 3282TIP3    H1 9810   6.985   4.431   2.250
 3282TIP3    H2 9811   7.005   4.471   2.105
 3283TIP3   OH2 9812   5.599   3.963   4.126
 3283TIP3    H1 9813   5.679   3.986   4.174
 3283TIP3    H2 9814   5.628   3.955   4.035
 3284TIP3   OH2 9815   4.788   4.859   3.867
 3284TIP3    H1 9816   4.814   4.782   3.817
 3284TIP3    H2 9817   4.735   4.910   3.807
 3285TIP3   OH2 9818   1.628   3.575   1.029
 3285TIP3    H1 9819   1.533   3.562   1.029
 3285TIP3    H2 9820   1.655   3.551   0.940
 3286TIP3   OH2 9821   1.020   2.375   5.764
 3286TIP3    H1 9822   1.099   2.347   5.718
 3286TIP3    H2 9823   0.951   2.318   5.730
 3287TIP3   OH2 9824   3.921   2.553   4.006
 3287TIP3    H1 9825   3.925   2.519   4.095
 3287TIP3    H2 9826   3.829   2.579   3.995
 3288TIP3   OH2 9827   0.834   3.296   3.817
 3288TIP3    H1 9828   0.875   3.218   3.779
 3288TIP3    H2 9829   0.742   3.272   3.827
 3289TIP3   OH2 9830   5.298   4.340   0.539
 3289TIP3    H1 9831   5.373   4.298   0.498
 3289TIP3    H2 9832   5.261   4.397   0.470
 3290TIP3   OH2 9833   3.329   5.700   4.421
 3290TIP3    H1 9834   3.341   5.786   4.461
 3290TIP3    H2 9835   3.398   5.694   4.356
 3291TIP3   OH2 9836   5.327   4.796   5.863
 3291TIP3    H1 9837   5.356   4.853   5.791
 3291TIP3    H2 9838   5.311   4.711   5.821
 3292TIP3   OH2 9839   1.173   5.041   2.025
 3292TIP3    H1 9840   1.116   5.102   1.978
 3292TIP3    H2 9841   1.165   5.067   2.117
 3293TIP3   OH2 9842   2.272   3.166   5.549
 3293TIP3    H1 9843   2.192   3.208   5.517
 3293TIP3    H2 9844   2.330   3.239   5.572
 3294TIP3   OH2 9845   4.197   1.757   2.239
 3294TIP3    H1 9846   4.149   1.747   2.157
 3294TIP3    H2 9847   4.262   1.825   2.220
 3295TIP3   OH2 9848   5.644   0.642   3.999
 3295TIP3    H1 9849   5.606   0.679   4.079
 3295TIP3    H2 9850   5.716   0.586   4.030
 3296TIP3   OH2 9851   6.724   3.790   1.741
 3296TIP3    H1 9852   6.691   3.730   1.809
 3296TIP3    H2 9853   6.656   3.789   1.673
 3297TIP3   OH2 9854   0.300   1.836   3.123
 3297TIP3    H1 9855   0.376   1.827   3.066
 3297TIP3    H2 9856   0.225   1.814   3.067
 3298TIP3   OH2 9857   4.045   2.411   4.983
 3298TIP3    H1 9858   3.950   2.416   4.999
 3298TIP3    H2 9859   4.059   2.322   4.952
 3299TIP3   OH2 9860   6.792   1.467   2.423
 3299TIP3    H1 9861   6.813   1.561   2.427
 3299TIP3    H2 9862   6.737   1.452   2.500
 3300TIP3   OH2 9863   0.771   0.118   3.935
 3300TIP3    H1 9864   0.805   0.163   4.012
 3300TIP3    H2 9865   0.726   0.186   3.885
 3301TIP3   OH2 9866   2.494   0.405   1.378
 3301TIP3    H1 9867   2.525   0.325   1.336
 3301TIP3    H2 9868   2.483   0.382   1.470
 3302TIP3   OH2 9869   3.316   2.744   2.396
 3302TIP3    H1 9870   3.341   2.835   2.380
 3302TIP3    H2 9871   3.391   2.693   2.366
 3303TIP3   OH2 9872   6.294   1.952   3.678
 3303TIP3    H1 9873   6.265   1.953   3.769
 3303TIP3    H2 9874   6.214   1.937   3.628
 3304TIP3   OH2 9875   6.212   1.037   0.406
 3304TIP3    H1 9876   6.222   1.132   0.414
 3304TIP3    H2 9877   6.299   1.006   0.382
 3305TIP3   OH2 9878   3.913   0.010   0.283
 3305TIP3    H1 9879   3.986   0.062   0.316
 3305TIP3    H2 9880   3.866   0.069   0.224
 3306TIP3   OH2 9881   1.622   6.064   4.243
 3306TIP3    H1 9882   1.658   6.149   4.215
 3306TIP3    H2 9883   1.662   6.001   4.184
 3307TIP3   OH2 9884   2.816   3.714   1.545
 3307TIP3    H1 9885   2.793   3.805   1.563
 3307TIP3    H2 9886   2.770   3.694   1.464
 3308TIP3   OH2 9887   3.912   6.194   4.651
 3308TIP3    H1 9888   4.000   6.170   4.623
 3308TIP3    H2 9889   3.895   6.140   4.728
 3309TIP3   OH2 9890   4.279   0.141   1.464
 3309TIP3    H1 9891   4.341   0.207   1.493
 3309TIP3    H2 9892   4.322   0.097   1.390
 3310TIP3   OH2 9893   2.386   4.727   3.143
 3310TIP3    H1 9894   2.461   4.678   3.176
 3310TIP3    H2 9895   2.403   4.818   3.167
 3311TIP3   OH2 9896   2.896   3.973   3.911
 3311TIP3    H1 9897   2.816   3.987   3.860
 3311TIP3    H2 9898   2.909   4.055   3.959
 3312TIP3   OH2 9899   4.208   0.705   1.117
 3312TIP3    H1 9900   4.198   0.735   1.026
 3312TIP3    H2 9901   4.150   0.762   1.167
 3313TIP3   OH2 9902   1.252   3.490   5.243
 3313TIP3    H1 9903   1.308   3.535   5.307
 3313TIP3    H2 9904   1.232   3.406   5.284
 3314TIP3   OH2 9905   2.743   1.712   5.097
 3314TIP3    H1 9906   2.767   1.787   5.042
 3314TIP3    H2 9907   2.827   1.674   5.123
 3315TIP3   OH2 9908   4.727   3.750   2.890
 3315TIP3    H1 9909   4.722   3.669   2.838
 3315TIP3    H2 9910   4.720   3.820   2.825
 3316TIP3   OH2 9911   2.078   4.188   4.012
 3316TIP3    H1 9912   2.073   4.225   4.100
 3316TIP3    H2 9913   2.052   4.096   4.022
 3317TIP3   OH2 9914   0.208   6.050   5.031
 3317TIP3    H1 9915   0.180   6.127   4.981
 3317TIP3    H2 9916   0.140   5.985   5.014
 3318TIP3   OH2 9917   2.842   4.289   1.569
 3318TIP3    H1 9918   2.858   4.376   1.606
 3318TIP3    H2 9919   2.927   4.261   1.536
 3319TIP3   OH2 9920   2.635   0.393   3.439
 3319TIP3    H1 9921   2.625   0.461   3.506
 3319TIP3    H2 9922   2.661   0.315   3.488
 3320TIP3   OH2 9923   5.805   4.049   4.276
 3320TIP3    H1 9924   5.858   4.129   4.274
 3320TIP3    H2 9925   5.861   3.984   4.318
 3321TIP3   OH2 9926   3.153   3.893   4.006
 3321TIP3    H1 9927   3.067   3.909   3.967
 3321TIP3    H2 9928   3.174   3.974   4.050
 3322TIP3   OH2 9929   1.233   6.560   3.218
 3322TIP3    H1 9930   1.242   6.592   3.307
 3322TIP3    H2 9931   1.165   6.615   3.179
 3323TIP3   OH2 9932   6.781   2.267   4.723
 3323TIP3    H1 9933   6.843   2.197   4.745
 3323TIP3    H2 9934   6.835   2.345   4.713
 3324TIP3   OH2 9935   5.883   1.395   4.200
 3324TIP3    H1 9936   5.823   1.434   4.262
 3324TIP3    H2 9937   5.949   1.462   4.185
 3325TIP3   OH2 9938   5.763   0.381   1.223
 3325TIP3    H1 9939   5.794   0.462   1.182
 3325TIP3    H2 9940   5.680   0.362   1.178
 3326TIP3   OH2 9941   5.533   5.393   1.889
 3326TIP3    H1 9942   5.492   5.438   1.963
 3326TIP3    H2 9943   5.620   5.369   1.921
 3327TIP3   OH2 9944   4.865   3.231   5.583
 3327TIP3    H1 9945   4.885   3.201   5.672
 3327TIP3    H2 9946   4.929   3.188   5.527
 3328TIP3   OH2 9947   1.153   5.284   1.856
 3328TIP3    H1 9948   1.149   5.369   1.899
 3328TIP3    H2 9949   1.247   5.266   1.846
 3329TIP3   OH2 9950   3.423   3.591   1.769
 3329TIP3    H1 9951   3.480   3.519   1.740
 3329TIP3    H2 9952   3.478   3.641   1.830
 3330TIP3   OH2 9953   2.640   3.031   2.178
 3330TIP3    H1 9954   2.685   3.057   2.098
 3330TIP3    H2 9955   2.675   3.089   2.245
 3331TIP3   OH2 9956   2.494   2.861   5.122
 3331TIP3    H1 9957   2.426   2.905   5.071
 3331TIP3    H2 9958   2.514   2.923   5.192
 3332TIP3   OH2 9959   0.023   0.815   2.017
 3332TIP3    H1 9960   0.117   0.803   2.028
 3332TIP3    H2 9961  -0.009   0.728   1.994
 3333TIP3   OH2 9962   5.211   1.811   3.740
 3333TIP3    H1 9963   5.164   1.864   3.676
 3333TIP3    H2 9964   5.212   1.865   3.820
 3334TIP3   OH2 9965   4.289   3.334   4.692
 3334TIP3    H1 9966   4.305   3.420   4.653
 3334TIP3    H2 9967   4.204   3.307   4.656
 3335TIP3   OH2 9968   3.233   6.616   2.510
 3335TIP3    H1 9969   3.205   6.527   2.530
 3335TIP3    H2 9970   3.178   6.643   2.437
 3336TIP3   OH2 9971   1.672   4.890   1.415
 3336TIP3    H1 9972   1.696   4.885   1.323
 3336TIP3    H2 9973   1.672   4.800   1.446
 3337TIP3   OH2 9974   1.875   3.144   4.861
 3337TIP3    H1 9975   1.933   3.068   4.850
 3337TIP3    H2 9976   1.789   3.107   4.881
 3338TIP3   OH2 9977   3.914   0.813   5.581
 3338TIP3    H1 9978   3.916   0.902   5.614
 3338TIP3    H2 9979   3.822   0.787   5.587
 3339TIP3   OH2 9980   6.309   4.746   4.278
 3339TIP3    H1 9981   6.371   4.796   4.331
 3339TIP3    H2 9982   6.232   4.803   4.271
 3340TIP3   OH2 9983   2.787   1.134   2.165
 3340TIP3    H1 9984   2.878   1.103   2.162
 3340TIP3    H2 9985   2.736   1.054   2.175
 3341TIP3   OH2 9986   0.910   3.432   5.350
 3341TIP3    H1 9987   0.905   3.501   5.283
 3341TIP3    H2 9988   0.837   3.374   5.330
 3342TIP3   OH2 9989   0.224   6.537   1.941
 3342TIP3    H1 9990   0.208   6.567   2.031
 3342TIP3    H2 9991   0.211   6.443   1.944
 3343TIP3   OH2 9992   1.535   0.131   5.398
 3343TIP3    H1 9993   1.614   0.185   5.408
 3343TIP3    H2 9994   1.529   0.115   5.304
 3344TIP3   OH2 9995   4.389   6.607   5.367
 3344TIP3    H1 9996   4.418   6.619   5.277
 3344TIP3    H2 9997   4.469   6.615   5.419
 3345TIP3   OH2 9998   0.357   1.427   3.167
 3345TIP3    H1 9999   0.390   1.417   3.078
 3345TIP3    H210000   0.263   1.440   3.157
 3346TIP3   OH210001   2.918   3.292   3.226
 3346TIP3    H110002   2.890   3.254   3.309
 3346TIP3    H210003   2.993   3.346   3.248
 3347TIP3   OH210004   1.324   4.820   3.813
 3347TIP3    H110005   1.294   4.793   3.726
 3347TIP3    H210006   1.345   4.738   3.857
 3348TIP3   OH210007   6.498   1.604   5.346
 3348TIP3    H110008   6.563   1.551   5.392
 3348TIP3    H210009   6.520   1.694   5.369
 3349TIP3   OH210010   5.464   0.744   3.815
 3349TIP3    H110011   5.412   0.671   3.782
 3349TIP3    H210012   5.538   0.703   3.859
 3350TIP3   OH210013   0.468   6.617   4.632
 3350TIP3    H110014   0.383   6.589   4.667
 3350TIP3    H210015   0.531   6.556   4.670
 3351TIP3   OH210016   5.821   5.934   5.244
 3351TIP3    H110017   5.884   5.921   5.314
 3351TIP3    H210018   5.838   5.863   5.182
 3352TIP3   OH210019   6.814   1.697   4.752
 3352TIP3    H110020   6.753   1.682   4.680
 3352TIP3    H210021   6.889   1.741   4.711
 3353TIP3   OH210022   4.811   4.992   2.776
 3353TIP3    H110023   4.763   5.011   2.696
 3353TIP3    H210024   4.833   5.078   2.812
 3354TIP3   OH210025   5.657   2.450   5.791
 3354TIP3    H110026   5.608   2.370   5.770
 3354TIP3    H210027   5.599   2.522   5.766
 3355TIP3   OH210028   1.480   3.008   2.678
 3355TIP3    H110029   1.525   2.925   2.666
 3355TIP3    H210030   1.397   2.985   2.719
 3356TIP3   OH210031   3.389   0.750   1.193
 3356TIP3    H110032   3.346   0.806   1.128
 3356TIP3    H210033   3.350   0.664   1.180
 3357TIP3   OH210034   0.602   1.674   4.003
 3357TIP3    H110035   0.615   1.679   3.909
 3357TIP3    H210036   0.547   1.597   4.016
 3358TIP3   OH210037   3.051   0.631   4.857
 3358TIP3    H110038   3.093   0.545   4.860
 3358TIP3    H210039   3.032   0.651   4.948
 3359TIP3   OH210040   6.902   6.123   0.319
 3359TIP3    H110041   6.962   6.078   0.378
 3359TIP3    H210042   6.818   6.123   0.366
 3360TIP3   OH210043   1.202   1.937   1.654
 3360TIP3    H110044   1.184   1.997   1.727
 3360TIP3    H210045   1.117   1.927   1.610
 3361TIP3   OH210046   4.310   4.155   2.534
 3361TIP3    H110047   4.328   4.147   2.627
 3361TIP3    H210048   4.388   4.120   2.491
 3362TIP3   OH210049   0.075   2.445   1.753
 3362TIP3    H110050   0.151   2.490   1.789
 3362TIP3    H210051   0.032   2.405   1.828
 3363TIP3   OH210052   0.388   2.221   0.573
 3363TIP3    H110053   0.428   2.308   0.584
 3363TIP3    H210054   0.393   2.205   0.479
 3364TIP3   OH210055   6.921   3.565   2.719
 3364TIP3    H110056   6.890   3.622   2.649
 3364TIP3    H210057   6.946   3.624   2.790
 3365TIP3   OH210058   3.813   1.142   0.290
 3365TIP3    H110059   3.888   1.159   0.233
 3365TIP3    H210060   3.788   1.052   0.271
 3366TIP3   OH210061   6.632   1.290   5.905
 3366TIP3    H110062   6.676   1.239   5.837
 3366TIP3    H210063   6.703   1.338   5.949
 3367TIP3   OH210064   4.868   0.670   4.175
 3367TIP3    H110065   4.803   0.725   4.130
 3367TIP3    H210066   4.821   0.636   4.252
 3368TIP3   OH210067   0.819   4.819   1.962
 3368TIP3    H110068   0.893   4.758   1.961
 3368TIP3    H210069   0.745   4.767   1.933
 3369TIP3   OH210070   0.916   1.155   1.326
 3369TIP3    H110071   0.861   1.232   1.314
 3369TIP3    H210072   0.918   1.113   1.240
 3370TIP3   OH210073   6.292   3.343   2.379
 3370TIP3    H110074   6.312   3.416   2.438
 3370TIP3    H210075   6.357   3.276   2.401
 3371TIP3   OH210076   6.201   4.988   1.175
 3371TIP3    H110077   6.156   4.904   1.180
 3371TIP3    H210078   6.150   5.046   1.231
 3372TIP3   OH210079   0.641   6.361   0.148
 3372TIP3    H110080   0.679   6.449   0.150
 3372TIP3    H210081   0.604   6.353   0.060
 3373TIP3   OH210082   0.384   2.532   4.007
 3373TIP3    H110083   0.343   2.447   4.022
 3373TIP3    H210084   0.316   2.596   4.028
 3374TIP3   OH210085   4.555   1.012   0.623
 3374TIP3    H110086   4.487   1.078   0.605
 3374TIP3    H210087   4.551   0.953   0.548
 3375TIP3   OH210088   3.501   0.913   1.862
 3375TIP3    H110089   3.582   0.933   1.910
 3375TIP3    H210090   3.521   0.835   1.812
 3376TIP3   OH210091   0.944   0.518   2.366
 3376TIP3    H110092   0.961   0.590   2.304
 3376TIP3    H210093   0.975   0.551   2.450
 3377TIP3   OH210094   2.627   6.155   2.719
 3377TIP3    H110095   2.623   6.083   2.782
 3377TIP3    H210096   2.546   6.204   2.734
 3378TIP3   OH210097   2.537   0.799   4.523
 3378TIP3    H110098   2.626   0.826   4.502
 3378TIP3    H210099   2.495   0.878   4.558
 3379TIP3   OH210100   3.923   2.983   5.610
 3379TIP3    H110101   3.897   3.047   5.543
 3379TIP3    H210102   4.014   3.005   5.629
 3380TIP3   OH210103   3.423   0.430   1.421
 3380TIP3    H110104   3.508   0.389   1.437
 3380TIP3    H210105   3.360   0.359   1.433
 3381TIP3   OH210106   4.866   5.948   3.354
 3381TIP3    H110107   4.801   5.877   3.344
 3381TIP3    H210108   4.831   6.002   3.425
 3382TIP3   OH210109   2.972   6.812   3.806
 3382TIP3    H110110   2.971   6.767   3.722
 3382TIP3    H210111   3.007   6.899   3.786
 3383TIP3   OH210112   1.827   3.666   0.259
 3383TIP3    H110113   1.884   3.730   0.301
 3383TIP3    H210114   1.784   3.713   0.188
 3384TIP3   OH210115   7.199   3.812   2.733
 3384TIP3    H110116   7.135   3.786   2.800
 3384TIP3    H210117   7.280   3.826   2.782
 3385TIP3   OH210118   6.958   1.330   1.729
 3385TIP3    H110119   6.933   1.397   1.666
 3385TIP3    H210120   7.009   1.378   1.795
 3386TIP3   OH210121   4.198   5.430   0.457
 3386TIP3    H110122   4.121   5.401   0.408
 3386TIP3    H210123   4.267   5.439   0.390
 3387TIP3   OH210124   3.276   4.794   3.717
 3387TIP3    H110125   3.359   4.810   3.673
 3387TIP3    H210126   3.215   4.855   3.676
 3388TIP3   OH210127   3.857   6.261   1.240
 3388TIP3    H110128   3.778   6.315   1.245
 3388TIP3    H210129   3.874   6.237   1.331
 3389TIP3   OH210130   4.611   5.669   4.889
 3389TIP3    H110131   4.638   5.645   4.801
 3389TIP3    H210132   4.668   5.617   4.946
 3390TIP3   OH210133   4.690   2.674   2.818
 3390TIP3    H110134   4.649   2.696   2.734
 3390TIP3    H210135   4.774   2.720   2.816
 3391TIP3   OH210136   6.427   3.357   4.244
 3391TIP3    H110137   6.352   3.299   4.243
 3391TIP3    H210138   6.501   3.303   4.216
 3392TIP3   OH210139   0.481   2.817   2.017
 3392TIP3    H110140   0.545   2.844   2.084
 3392TIP3    H210141   0.535   2.783   1.946
 3393TIP3   OH210142   1.185   3.418   2.328
 3393TIP3    H110143   1.270   3.436   2.367
 3393TIP3    H210144   1.129   3.490   2.358
 3394TIP3   OH210145   0.228   1.662   3.314
 3394TIP3    H110146   0.261   1.726   3.251
 3394TIP3    H210147   0.235   1.578   3.268
 3395TIP3   OH210148   5.838   0.054   1.198
 3395TIP3    H110149   5.795   0.136   1.223
 3395TIP3    H210150   5.921   0.081   1.159
 3396TIP3   OH210151   3.450   1.404   1.704
 3396TIP3    H110152   3.454   1.320   1.750
 3396TIP3    H210153   3.357   1.426   1.701
 3397TIP3   OH210154   0.438   1.662   2.338
 3397TIP3    H110155   0.345   1.637   2.343
 3397TIP3    H210156   0.437   1.753   2.309
 3398TIP3   OH210157   2.067   1.761   2.360
 3398TIP3    H110158   2.056   1.713   2.442
 3398TIP3    H210159   2.094   1.849   2.387
 3399TIP3   OH210160   0.438   4.555   0.088
 3399TIP3    H110161   0.500   4.628   0.083
 3399TIP3    H210162   0.375   4.582   0.155
 3400TIP3   OH210163   0.177   6.551   4.703
 3400TIP3    H110164   0.131   6.621   4.656
 3400TIP3    H210165   0.143   6.470   4.664
 3401TIP3   OH210166   2.440   3.490   1.428
 3401TIP3    H110167   2.461   3.554   1.496
 3401TIP3    H210168   2.351   3.462   1.448
 3402TIP3   OH210169   6.838   6.253   1.773
 3402TIP3    H110170   6.893   6.260   1.694
 3402TIP3    H210171   6.764   6.199   1.745
 3403TIP3   OH210172   1.182   2.021   0.736
 3403TIP3    H110173   1.112   2.046   0.677
 3403TIP3    H210174   1.139   2.010   0.821
 3404TIP3   OH210175   4.073   5.579   2.498
 3404TIP3    H110176   3.992   5.528   2.490
 3404TIP3    H210177   4.052   5.665   2.462
 3405TIP3   OH210178   3.215   3.821   0.176
 3405TIP3    H110179   3.128   3.839   0.210
 3405TIP3    H210180   3.200   3.790   0.086
 3406TIP3   OH210181   0.839   1.636   1.061
 3406TIP3    H110182   0.898   1.585   1.117
 3406TIP3    H210183   0.806   1.705   1.119
 3407TIP3   OH210184   0.744   4.237   1.498
 3407TIP3    H110185   0.653   4.219   1.474
 3407TIP3    H210186   0.754   4.197   1.585
 3408TIP3   OH210187   1.505   5.282   2.206
 3408TIP3    H110188   1.487   5.211   2.145
 3408TIP3    H210189   1.600   5.283   2.216
 3409TIP3   OH210190   4.144   3.382   0.345
 3409TIP3    H110191   4.212   3.386   0.278
 3409TIP3    H210192   4.088   3.458   0.327
 3410TIP3   OH210193   6.196   4.877   2.301
 3410TIP3    H110194   6.219   4.969   2.315
 3410TIP3    H210195   6.223   4.833   2.382
 3411TIP3   OH210196   5.724   3.395   1.352
 3411TIP3    H110197   5.754   3.315   1.310
 3411TIP3    H210198   5.680   3.366   1.432
 3412TIP3   OH210199   5.070   1.999   0.662
 3412TIP3    H110200   5.097   2.088   0.641
 3412TIP3    H210201   5.029   1.967   0.581
 3413TIP3   OH210202   6.991  -0.007   0.444
 3413TIP3    H110203   6.907   0.033   0.420
 3413TIP3    H210204   7.008   0.025   0.532
 3414TIP3   OH210205   2.863   6.416   5.829
 3414TIP3    H110206   2.770   6.395   5.841
 3414TIP3    H210207   2.897   6.344   5.776
 3415TIP3   OH210208   6.718   4.047   1.979
 3415TIP3    H110209   6.761   4.125   1.945
 3415TIP3    H210210   6.781   3.976   1.963
 3416TIP3   OH210211   4.555   1.685   4.842
 3416TIP3    H110212   4.464   1.712   4.830
 3416TIP3    H210213   4.589   1.678   4.753
 3417TIP3   OH210214   2.813   2.809   3.043
 3417TIP3    H110215   2.823   2.857   2.960
 3417TIP3    H210216   2.742   2.855   3.088
 3418TIP3   OH210217   7.035   2.071   3.190
 3418TIP3    H110218   7.008   2.130   3.120
 3418TIP3    H210219   7.043   1.985   3.148
 3419TIP3   OH210220   4.543   4.096   2.420
 3419TIP3    H110221   4.612   4.135   2.367
 3419TIP3    H210222   4.566   4.003   2.426
 3420TIP3   OH210223   5.981   3.315   5.726
 3420TIP3    H110224   6.001   3.405   5.753
 3420TIP3    H210225   6.031   3.260   5.785
 3421TIP3   OH210226   2.849   5.217   5.347
 3421TIP3    H110227   2.829   5.269   5.269
 3421TIP3    H210228   2.832   5.126   5.320
 3422TIP3   OH210229   6.572   6.301   3.000
 3422TIP3    H110230   6.649   6.251   3.027
 3422TIP3    H210231   6.534   6.332   3.082
 3423TIP3   OH210232   7.158   5.667   3.449
 3423TIP3    H110233   7.070   5.636   3.471
 3423TIP3    H210234   7.205   5.665   3.532
 3424TIP3   OH210235   6.784   5.113   2.306
 3424TIP3    H110236   6.730   5.109   2.228
 3424TIP3    H210237   6.730   5.157   2.372
 3425TIP3   OH210238   1.689   0.143   1.825
 3425TIP3    H110239   1.757   0.089   1.866
 3425TIP3    H210240   1.658   0.091   1.751
 3426TIP3   OH210241   6.824   4.848   5.831
 3426TIP3    H110242   6.759   4.891   5.774
 3426TIP3    H210243   6.889   4.814   5.770
 3427TIP3   OH210244   4.522   6.590   0.211
 3427TIP3    H110245   4.539   6.497   0.228
 3427TIP3    H210246   4.427   6.600   0.221
 3428TIP3   OH210247   5.169   2.236   3.679
 3428TIP3    H110248   5.139   2.145   3.683
 3428TIP3    H210249   5.263   2.229   3.659
 3429TIP3   OH210250   2.400   2.175   4.219
 3429TIP3    H110251   2.396   2.258   4.170
 3429TIP3    H210252   2.361   2.111   4.160
 3430TIP3   OH210253   0.247   0.431   0.149
 3430TIP3    H110254   0.230   0.478   0.067
 3430TIP3    H210255   0.295   0.353   0.122
 3431TIP3   OH210256   6.184   1.120   5.756
 3431TIP3    H110257   6.174   1.214   5.775
 3431TIP3    H210258   6.234   1.118   5.675
 3432TIP3   OH210259   4.655   2.286   4.777
 3432TIP3    H110260   4.670   2.200   4.738
 3432TIP3    H210261   4.738   2.333   4.766
 3433TIP3   OH210262   6.565   0.247   0.238
 3433TIP3    H110263   6.591   0.302   0.163
 3433TIP3    H210264   6.501   0.300   0.286
 3434TIP3   OH210265   5.758   2.930   2.480
 3434TIP3    H110266   5.803   2.847   2.469
 3434TIP3    H210267   5.829   2.994   2.492
 3435TIP3   OH210268   3.919   0.529   0.313
 3435TIP3    H110269   3.872   0.451   0.342
 3435TIP3    H210270   3.851   0.596   0.305
 3436TIP3   OH210271   5.841   3.537   1.007
 3436TIP3    H110272   5.919   3.506   1.053
 3436TIP3    H210273   5.848   3.498   0.920
 3437TIP3   OH210274   2.923   4.582   0.414
 3437TIP3    H110275   3.008   4.606   0.450
 3437TIP3    H210276   2.860   4.634   0.462
 3438TIP3   OH210277   6.898   6.661   3.384
 3438TIP3    H110278   6.809   6.697   3.374
 3438TIP3    H210279   6.896   6.580   3.332
 3439TIP3   OH210280   2.437   0.840   1.779
 3439TIP3    H110281   2.440   0.925   1.823
 3439TIP3    H210282   2.412   0.778   1.847
 3440TIP3   OH210283   1.011   6.775   5.265
 3440TIP3    H110284   1.061   6.834   5.208
 3440TIP3    H210285   1.071   6.756   5.338
 3441TIP3   OH210286   1.469   6.307   4.329
 3441TIP3    H110287   1.492   6.256   4.250
 3441TIP3    H210288   1.378   6.331   4.316
 3442TIP3   OH210289   5.691   4.051   2.409
 3442TIP3    H110290   5.632   4.057   2.334
 3442TIP3    H210291   5.638   4.076   2.484
 3443TIP3   OH210292   6.761   3.159   5.677
 3443TIP3    H110293   6.714   3.207   5.609
 3443TIP3    H210294   6.796   3.082   5.633
 3444TIP3   OH210295   5.848   1.556   1.571
 3444TIP3    H110296   5.843   1.624   1.639
 3444TIP3    H210297   5.821   1.601   1.491
 3445TIP3   OH210298   3.190   4.752   1.891
 3445TIP3    H110299   3.284   4.736   1.889
 3445TIP3    H210300   3.175   4.803   1.971
 3446TIP3   OH210301   4.287   5.209   5.351
 3446TIP3    H110302   4.222   5.220   5.282
 3446TIP3    H210303   4.352   5.277   5.333
 3447TIP3   OH210304   5.469   3.461   5.120
 3447TIP3    H110305   5.418   3.524   5.068
 3447TIP3    H210306   5.421   3.452   5.202
 3448TIP3   OH210307   2.172   6.063   4.961
 3448TIP3    H110308   2.154   5.970   4.949
 3448TIP3    H210309   2.189   6.096   4.873
 3449TIP3   OH210310   0.170   4.047   0.352
 3449TIP3    H110311   0.133   4.097   0.279
 3449TIP3    H210312   0.104   4.051   0.420
 3450TIP3   OH210313   4.448   0.884   1.354
 3450TIP3    H110314   4.377   0.842   1.403
 3450TIP3    H210315   4.482   0.815   1.297
 3451TIP3   OH210316   4.955   6.065   1.777
 3451TIP3    H110317   4.919   6.095   1.860
 3451TIP3    H210318   4.904   6.111   1.711
 3452TIP3   OH210319   6.636   6.085   4.974
 3452TIP3    H110320   6.718   6.070   4.926
 3452TIP3    H210321   6.617   6.001   5.016
 3453TIP3   OH210322   2.347   1.995   0.320
 3453TIP3    H110323   2.402   1.918   0.308
 3453TIP3    H210324   2.297   1.977   0.399
 3454TIP3   OH210325   1.001   0.293   1.291
 3454TIP3    H110326   1.021   0.200   1.298
 3454TIP3    H210327   0.910   0.301   1.320
 3455TIP3   OH210328   6.203   3.971   2.532
 3455TIP3    H110329   6.223   3.930   2.447
 3455TIP3    H210330   6.114   3.943   2.552
 3456TIP3   OH210331   1.117   5.431   4.888
 3456TIP3    H110332   1.137   5.486   4.812
 3456TIP3    H210333   1.202   5.402   4.919
 3457TIP3   OH210334   6.275   1.930   4.738
 3457TIP3    H110335   6.263   1.836   4.751
 3457TIP3    H210336   6.232   1.970   4.813
 3458TIP3   OH210337   1.619   1.884   4.695
 3458TIP3    H110338   1.606   1.907   4.603
 3458TIP3    H210339   1.690   1.942   4.724
 3459TIP3   OH210340   4.870   1.856   1.066
 3459TIP3    H110341   4.941   1.911   1.036
 3459TIP3    H210342   4.881   1.774   1.018
 3460TIP3   OH210343   5.888   0.969   0.770
 3460TIP3    H110344   5.795   0.947   0.777
 3460TIP3    H210345   5.932   0.884   0.762
 3461TIP3   OH210346   2.758   4.500   2.136
 3461TIP3    H110347   2.843   4.520   2.096
 3461TIP3    H210348   2.697   4.497   2.063
 3462TIP3   OH210349   4.087   3.173   5.286
 3462TIP3    H110350   4.162   3.162   5.344
 3462TIP3    H210351   4.123   3.159   5.198
 3463TIP3   OH210352   3.049   0.250   3.433
 3463TIP3    H110353   3.042   0.161   3.467
 3463TIP3    H210354   3.119   0.290   3.485
 3464TIP3   OH210355   5.098   3.604   2.752
 3464TIP3    H110356   5.080   3.697   2.738
 3464TIP3    H210357   5.189   3.593   2.722
 3465TIP3   OH210358   3.594   5.584   2.947
 3465TIP3    H110359   3.563   5.512   2.893
 3465TIP3    H210360   3.607   5.656   2.886
 3466TIP3   OH210361   5.537   2.367   1.518
 3466TIP3    H110362   5.555   2.382   1.610
 3466TIP3    H210363   5.471   2.433   1.495
 3467TIP3   OH210364   5.871   4.580   3.544
 3467TIP3    H110365   5.914   4.643   3.602
 3467TIP3    H210366   5.830   4.634   3.477
 3468TIP3   OH210367   1.377   0.488   5.687
 3468TIP3    H110368   1.304   0.479   5.749
 3468TIP3    H210369   1.416   0.401   5.685
 3469TIP3   OH210370   0.222   2.055   0.715
 3469TIP3    H110371   0.295   2.100   0.670
 3469TIP3    H210372   0.184   2.122   0.771
 3470TIP3   OH210373   6.549   4.979   5.823
 3470TIP3    H110374   6.549   4.992   5.918
 3470TIP3    H210375   6.542   5.068   5.787
 3471TIP3   OH210376   1.710   5.447   0.236
 3471TIP3    H110377   1.617   5.432   0.220
 3471TIP3    H210378   1.750   5.448   0.149
 3472TIP3   OH210379   2.380   1.629   5.277
 3472TIP3    H110380   2.285   1.632   5.264
 3472TIP3    H210381   2.413   1.706   5.231
 3473TIP3   OH210382   4.544   5.350   0.315
 3473TIP3    H110383   4.604   5.396   0.256
 3473TIP3    H210384   4.513   5.418   0.376
 3474TIP3   OH210385   0.553   6.650   4.951
 3474TIP3    H110386   0.517   6.575   4.998
 3474TIP3    H210387   0.620   6.685   5.009
 3475TIP3   OH210388   5.078   0.771   4.314
 3475TIP3    H110389   5.029   0.717   4.252
 3475TIP3    H210390   5.166   0.735   4.315
 3476TIP3   OH210391   4.666   1.660   2.058
 3476TIP3    H110392   4.602   1.712   2.009
 3476TIP3    H210393   4.746   1.663   2.004
 3477TIP3   OH210394   0.971   2.326   0.210
 3477TIP3    H110395   1.000   2.235   0.216
 3477TIP3    H210396   0.883   2.325   0.249
 3478TIP3   OH210397   3.643   0.993   0.608
 3478TIP3    H110398   3.578   0.925   0.589
 3478TIP3    H210399   3.595   1.075   0.600
 3479TIP3   OH210400   3.808   5.316   2.100
 3479TIP3    H110401   3.764   5.234   2.076
 3479TIP3    H210402   3.898   5.290   2.119
 3480TIP3   OH210403   3.575   3.624   0.129
 3480TIP3    H110404   3.505   3.633   0.065
 3480TIP3    H210405   3.619   3.542   0.105
 3481TIP3   OH210406   0.404   6.103   2.415
 3481TIP3    H110407   0.491   6.069   2.434
 3481TIP3    H210408   0.381   6.065   2.330
 3482TIP3   OH210409   4.971   2.845   3.881
 3482TIP3    H110410   4.877   2.855   3.900
 3482TIP3    H210411   5.010   2.927   3.912
 3483TIP3   OH210412   6.106   0.379   1.269
 3483TIP3    H110413   6.149   0.429   1.338
 3483TIP3    H210414   6.039   0.438   1.235
 3484TIP3   OH210415   3.320   6.332   3.297
 3484TIP3    H110416   3.349   6.404   3.353
 3484TIP3    H210417   3.232   6.311   3.330
 3485TIP3   OH210418   1.007   3.530   4.555
 3485TIP3    H110419   1.007   3.621   4.585
 3485TIP3    H210420   0.974   3.534   4.465
 3486TIP3   OH210421   1.402   6.409   5.776
 3486TIP3    H110422   1.379   6.322   5.746
 3486TIP3    H210423   1.497   6.413   5.767
 3487TIP3   OH210424   5.017   5.106   1.886
 3487TIP3    H110425   5.054   5.085   1.972
 3487TIP3    H210426   5.084   5.160   1.844
 3488TIP3   OH210427   2.610   0.275   1.665
 3488TIP3    H110428   2.621   0.197   1.718
 3488TIP3    H210429   2.552   0.248   1.593
 3489TIP3   OH210430   3.407   4.144   1.228
 3489TIP3    H110431   3.456   4.084   1.171
 3489TIP3    H210432   3.317   4.114   1.223
 3490TIP3   OH210433   6.368   4.023   2.171
 3490TIP3    H110434   6.283   4.067   2.179
 3490TIP3    H210435   6.374   4.000   2.079
 3491TIP3   OH210436   5.099   5.057   2.155
 3491TIP3    H110437   5.137   5.140   2.182
 3491TIP3    H210438   5.061   5.020   2.234
 3492TIP3   OH210439   0.028   4.619   0.483
 3492TIP3    H110440   0.044   4.538   0.435
 3492TIP3    H210441  -0.066   4.635   0.473
 3493TIP3   OH210442   6.808   2.007   4.314
 3493TIP3    H110443   6.899   2.005   4.284
 3493TIP3    H210444   6.796   2.094   4.352
 3494TIP3   OH210445   0.763   2.402   4.509
 3494TIP3    H110446   0.784   2.343   4.582
 3494TIP3    H210447   0.836   2.390   4.448
 3495TIP3   OH210448   3.428   3.421   3.812
 3495TIP3    H110449   3.362   3.416   3.881
 3495TIP3    H210450   3.450   3.515   3.806
 3496TIP3   OH210451   0.471   1.053   2.699
 3496TIP3    H110452   0.555   1.067   2.742
 3496TIP3    H210453   0.469   0.959   2.682
 3497TIP3   OH210454   6.374   0.416   5.423
 3497TIP3    H110455   6.459   0.448   5.393
 3497TIP3    H210456   6.344   0.358   5.353
 3498TIP3   OH210457   1.856   6.379   2.745
 3498TIP3    H110458   1.798   6.365   2.820
 3498TIP3    H210459   1.859   6.474   2.734
 3499TIP3   OH210460   5.229   0.320   5.626
 3499TIP3    H110461   5.144   0.329   5.670
 3499TIP3    H210462   5.207   0.312   5.533
 3500TIP3   OH210463   1.965   1.668   0.260
 3500TIP3    H110464   1.986   1.706   0.175
 3500TIP3    H210465   1.891   1.719   0.292
 3501TIP3   OH210466   4.117   4.593   2.895
 3501TIP3    H110467   4.188   4.563   2.952
 3501TIP3    H210468   4.133   4.548   2.812
 3502TIP3   OH210469   1.540   0.155   4.523
 3502TIP3    H110470   1.565   0.231   4.576
 3502TIP3    H210471   1.610   0.145   4.459
 3503TIP3   OH210472   1.788   4.089   2.103
 3503TIP3    H110473   1.770   4.117   2.013
 3503TIP3    H210474   1.820   3.999   2.094
 3504TIP3   OH210475   2.883   1.150   1.247
 3504TIP3    H110476   2.805   1.206   1.241
 3504TIP3    H210477   2.855   1.075   1.300
 3505TIP3   OH210478   0.095   4.227   5.858
 3505TIP3    H110479   0.024   4.181   5.814
 3505TIP3    H210480   0.065   4.236   5.949
 3506TIP3   OH210481   0.662   6.640   2.597
 3506TIP3    H110482   0.682   6.586   2.520
 3506TIP3    H210483   0.673   6.581   2.671
 3507TIP3   OH210484   4.632   3.622   1.640
 3507TIP3    H110485   4.623   3.670   1.722
 3507TIP3    H210486   4.678   3.542   1.664
 3508TIP3   OH210487   2.860   6.478   2.918
 3508TIP3    H110488   2.804   6.551   2.893
 3508TIP3    H210489   2.801   6.413   2.957
 3509TIP3   OH210490   0.724   0.809   4.839
 3509TIP3    H110491   0.697   0.718   4.848
 3509TIP3    H210492   0.818   0.808   4.857
 3510TIP3   OH210493   0.178   1.488   1.813
 3510TIP3    H110494   0.123   1.554   1.854
 3510TIP3    H210495   0.263   1.496   1.857
 3511TIP3   OH210496   4.439   2.025   2.757
 3511TIP3    H110497   4.479   2.015   2.671
 3511TIP3    H210498   4.513   2.046   2.815
 3512TIP3   OH210499   0.090   4.027   3.708
 3512TIP3    H110500   0.023   4.066   3.653
 3512TIP3    H210501   0.125   3.954   3.656
 3513TIP3   OH210502   1.852   3.887   1.757
 3513TIP3    H110503   1.860   3.858   1.666
 3513TIP3    H210504   1.942   3.899   1.787
 3514TIP3   OH210505   3.175   5.316   2.987
 3514TIP3    H110506   3.247   5.284   3.040
 3514TIP3    H210507   3.189   5.277   2.901
 3515TIP3   OH210508   3.945   6.575   3.063
 3515TIP3    H110509   3.884   6.609   3.128
 3515TIP3    H210510   3.968   6.488   3.094
 3516TIP3   OH210511   5.119   2.476   5.532
 3516TIP3    H110512   5.208   2.491   5.564
 3516TIP3    H210513   5.130   2.436   5.446
 3517TIP3   OH210514   5.107   0.631   0.769
 3517TIP3    H110515   5.119   0.723   0.793
 3517TIP3    H210516   5.138   0.582   0.845
 3518TIP3   OH210517   0.894   1.228   0.682
 3518TIP3    H110518   0.927   1.312   0.649
 3518TIP3    H210519   0.945   1.162   0.635
 3519TIP3   OH210520   3.850   1.695   0.638
 3519TIP3    H110521   3.849   1.777   0.589
 3519TIP3    H210522   3.844   1.722   0.730
 3520TIP3   OH210523   1.882   6.700   1.234
 3520TIP3    H110524   1.851   6.655   1.155
 3520TIP3    H210525   1.881   6.632   1.301
 3521TIP3   OH210526   1.193   0.848   5.589
 3521TIP3    H110527   1.159   0.894   5.665
 3521TIP3    H210528   1.282   0.823   5.614
 3522TIP3   OH210529   1.685   3.276   4.582
 3522TIP3    H110530   1.770   3.232   4.576
 3522TIP3    H210531   1.681   3.310   4.672
 3523TIP3   OH210532   5.930   2.386   1.204
 3523TIP3    H110533   5.983   2.307   1.191
 3523TIP3    H210534   5.867   2.362   1.272
 3524TIP3   OH210535   2.966   4.144   5.794
 3524TIP3    H110536   3.009   4.067   5.757
 3524TIP3    H210537   2.984   4.214   5.732
 3525TIP3   OH210538   4.922   2.938  -0.001
 3525TIP3    H110539   4.926   2.995   0.076
 3525TIP3    H210540   4.917   2.849   0.035
 3526TIP3   OH210541   1.389   1.788   3.938
 3526TIP3    H110542   1.418   1.880   3.936
 3526TIP3    H210543   1.396   1.763   4.030
 3527TIP3   OH210544   1.693   1.248   3.484
 3527TIP3    H110545   1.683   1.337   3.452
 3527TIP3    H210546   1.708   1.196   3.405
 3528TIP3   OH210547   2.771   3.012   2.474
 3528TIP3    H110548   2.806   2.947   2.414
 3528TIP3    H210549   2.689   2.974   2.505
 3529TIP3   OH210550   5.014   0.015   3.424
 3529TIP3    H110551   5.018   0.062   3.507
 3529TIP3    H210552   5.001   0.083   3.358
 3530TIP3   OH210553   1.564   3.157   0.810
 3530TIP3    H110554   1.550   3.062   0.810
 3530TIP3    H210555   1.527   3.186   0.727
 3531TIP3   OH210556   3.872   2.334   1.407
 3531TIP3    H110557   3.817   2.395   1.358
 3531TIP3    H210558   3.849   2.348   1.499
 3532TIP3   OH210559   0.980   2.835   3.759
 3532TIP3    H110560   1.031   2.793   3.690
 3532TIP3    H210561   0.939   2.762   3.807
 3533TIP3   OH210562   6.267   6.681   5.365
 3533TIP3    H110563   6.312   6.653   5.444
 3533TIP3    H210564   6.280   6.776   5.361
 3534TIP3   OH210565   3.371   1.866   1.348
 3534TIP3    H110566   3.409   1.784   1.315
 3534TIP3    H210567   3.364   1.853   1.442
 3535TIP3   OH210568   6.027   1.552   0.903
 3535TIP3    H110569   6.022   1.491   0.977
 3535TIP3    H210570   6.020   1.639   0.942
 3536TIP3   OH210571   4.739   5.160   1.835
 3536TIP3    H110572   4.831   5.136   1.844
 3536TIP3    H210573   4.721   5.154   1.741
 3537TIP3   OH210574   5.245   0.053   2.171
 3537TIP3    H110575   5.209  -0.008   2.106
 3537TIP3    H210576   5.339   0.034   2.172
 3538TIP3   OH210577   4.090   5.835   4.601
 3538TIP3    H110578   4.156   5.766   4.598
 3538TIP3    H210579   4.014   5.793   4.641
 3539TIP3   OH210580   0.666   5.756   2.241
 3539TIP3    H110581   0.655   5.850   2.223
 3539TIP3    H210582   0.760   5.746   2.258
 3540TIP3   OH210583   5.110   4.044   0.059
 3540TIP3    H110584   5.104   4.134   0.026
 3540TIP3    H210585   5.109   3.989  -0.019
 3541TIP3   OH210586   2.929   1.777   1.884
 3541TIP3    H110587   2.891   1.692   1.864
 3541TIP3    H210588   2.968   1.766   1.971
 3542TIP3   OH210589   6.697   2.535   5.154
 3542TIP3    H110590   6.759   2.605   5.135
 3542TIP3    H210591   6.626   2.547   5.091
 3543TIP3   OH210592   1.886   1.364   5.443
 3543TIP3    H110593   1.824   1.319   5.500
 3543TIP3    H210594   1.835   1.433   5.402
 3544TIP3   OH210595   6.513   3.249   3.632
 3544TIP3    H110596   6.525   3.298   3.551
 3544TIP3    H210597   6.545   3.161   3.612
 3545TIP3   OH210598   2.916   5.946   1.292
 3545TIP3    H110599   2.952   5.978   1.375
 3545TIP3    H210600   2.873   6.023   1.254
 3546TIP3   OH210601   3.716   1.857   0.883
 3546TIP3    H110602   3.667   1.934   0.856
 3546TIP3    H210603   3.719   1.863   0.979
 3547TIP3   OH210604   4.873   5.452   0.841
 3547TIP3    H110605   4.792   5.500   0.823
 3547TIP3    H210606   4.877   5.448   0.936
 3548TIP3   OH210607   0.623   0.451   5.837
 3548TIP3    H110608   0.653   0.398   5.764
 3548TIP3    H210609   0.670   0.534   5.828
 3549TIP3   OH210610   5.298   1.462   5.248
 3549TIP3    H110611   5.372   1.405   5.224
 3549TIP3    H210612   5.297   1.530   5.181
 3550TIP3   OH210613   4.018   0.064   5.648
 3550TIP3    H110614   4.078   0.138   5.642
 3550TIP3    H210615   4.005   0.036   5.557
 3551TIP3   OH210616   6.914   4.087   0.451
 3551TIP3    H110617   6.851   4.121   0.514
 3551TIP3    H210618   6.862   4.065   0.374
 3552TIP3   OH210619   3.221   0.867   1.561
 3552TIP3    H110620   3.215   0.804   1.633
 3552TIP3    H210621   3.292   0.834   1.506
 3553TIP3   OH210622   5.249   5.191   1.680
 3553TIP3    H110623   5.258   5.127   1.610
 3553TIP3    H210624   5.298   5.153   1.754
 3554TIP3   OH210625   1.251   5.121   3.308
 3554TIP3    H110626   1.250   5.102   3.402
 3554TIP3    H210627   1.220   5.212   3.302
 3555TIP3   OH210628   2.932   2.737   3.878
 3555TIP3    H110629   2.858   2.704   3.929
 3555TIP3    H210630   2.935   2.830   3.897
 3556TIP3   OH210631   2.421   2.720   4.406
 3556TIP3    H110632   2.445   2.737   4.497
 3556TIP3    H210633   2.397   2.805   4.371
 3557TIP3   OH210634   1.531   3.234   2.964
 3557TIP3    H110635   1.552   3.296   3.033
 3557TIP3    H210636   1.614   3.192   2.943
 3558TIP3   OH210637   2.503   6.141   5.637
 3558TIP3    H110638   2.521   6.106   5.724
 3558TIP3    H210639   2.549   6.083   5.578
 3559TIP3   OH210640   5.178   5.066   5.161
 3559TIP3    H110641   5.156   5.138   5.221
 3559TIP3    H210642   5.229   5.108   5.092
 3560TIP3   OH210643   6.525   0.511   3.328
 3560TIP3    H110644   6.517   0.424   3.367
 3560TIP3    H210645   6.618   0.520   3.308
 3561TIP3   OH210646   3.224   5.155   0.734
 3561TIP3    H110647   3.148   5.210   0.755
 3561TIP3    H210648   3.198   5.106   0.656
 3562TIP3   OH210649   5.129   2.585   3.815
 3562TIP3    H110650   5.068   2.513   3.796
 3562TIP3    H210651   5.076   2.650   3.860
 3563TIP3   OH210652   1.315   5.650   5.300
 3563TIP3    H110653   1.263   5.622   5.224
 3563TIP3    H210654   1.401   5.671   5.264
 3564TIP3   OH210655   3.174   1.358   2.879
 3564TIP3    H110656   3.105   1.292   2.880
 3564TIP3    H210657   3.184   1.383   2.971
 3565TIP3   OH210658   5.405   5.265   3.628
 3565TIP3    H110659   5.440   5.306   3.707
 3565TIP3    H210660   5.323   5.225   3.657
 3566TIP3   OH210661   3.872   5.753   2.100
 3566TIP3    H110662   3.835   5.832   2.139
 3566TIP3    H210663   3.924   5.786   2.026
 3567TIP3   OH210664   3.732   1.421   0.716
 3567TIP3    H110665   3.809   1.443   0.663
 3567TIP3    H210666   3.682   1.502   0.722
 3568TIP3   OH210667   1.197   4.937   5.604
 3568TIP3    H110668   1.261   4.867   5.589
 3568TIP3    H210669   1.245   5.003   5.654
 3569TIP3   OH210670   3.226   4.680   4.004
 3569TIP3    H110671   3.155   4.619   3.984
 3569TIP3    H210672   3.236   4.732   3.924
 3570TIP3   OH210673   5.226   0.997   1.762
 3570TIP3    H110674   5.275   1.022   1.683
 3570TIP3    H210675   5.291   0.997   1.832
 3571TIP3   OH210676   5.796   0.032   2.894
 3571TIP3    H110677   5.721   0.028   2.835
 3571TIP3    H210678   5.842   0.112   2.869
 3572TIP3   OH210679   4.738   6.247   0.844
 3572TIP3    H110680   4.735   6.227   0.938
 3572TIP3    H210681   4.813   6.305   0.835
 3573TIP3   OH210682   7.093   0.345   5.198
 3573TIP3    H110683   7.123   0.259   5.169
 3573TIP3    H210684   7.151   0.367   5.271
 3574TIP3   OH210685   7.189   2.568   4.052
 3574TIP3    H110686   7.164   2.503   3.986
 3574TIP3    H210687   7.191   2.520   4.134
 3575TIP3   OH210688   2.436   0.420   4.317
 3575TIP3    H110689   2.386   0.498   4.343
 3575TIP3    H210690   2.395   0.349   4.366
 3576TIP3   OH210691   5.121   0.571   5.089
 3576TIP3    H110692   5.057   0.511   5.126
 3576TIP3    H210693   5.203   0.522   5.086
 3577TIP3   OH210694   6.909   1.922   2.091
 3577TIP3    H110695   6.841   1.856   2.078
 3577TIP3    H210696   6.900   1.981   2.016
 3578TIP3   OH210697   5.682   4.169   1.598
 3578TIP3    H110698   5.753   4.114   1.632
 3578TIP3    H210699   5.709   4.258   1.617
 3579TIP3   OH210700   4.400   1.678   4.220
 3579TIP3    H110701   4.428   1.590   4.195
 3579TIP3    H210702   4.453   1.736   4.166
 3580TIP3   OH210703   2.440   1.483   1.727
 3580TIP3    H110704   2.447   1.565   1.679
 3580TIP3    H210705   2.401   1.507   1.811
 3581TIP3   OH210706   7.257   4.692   0.132
 3581TIP3    H110707   7.215   4.741   0.202
 3581TIP3    H210708   7.185   4.648   0.087
 3582TIP3   OH210709   0.708   1.216   4.754
 3582TIP3    H110710   0.757   1.280   4.805
 3582TIP3    H210711   0.635   1.265   4.717
 3583TIP3   OH210712   4.381   0.823   3.280
 3583TIP3    H110713   4.393   0.917   3.292
 3583TIP3    H210714   4.319   0.816   3.207
 3584TIP3   OH210715   5.467   1.872   0.457
 3584TIP3    H110716   5.422   1.838   0.534
 3584TIP3    H210717   5.408   1.854   0.384
 3585TIP3   OH210718   4.504   2.337   5.611
 3585TIP3    H110719   4.435   2.402   5.627
 3585TIP3    H210720   4.492   2.311   5.520
 3586TIP3   OH210721   2.935   1.100   0.843
 3586TIP3    H110722   2.951   1.185   0.884
 3586TIP3    H210723   3.018   1.052   0.854
 3587TIP3   OH210724   3.686   0.793   2.896
 3587TIP3    H110725   3.702   0.791   2.802
 3587TIP3    H210726   3.728   0.714   2.929
 3588TIP3   OH210727   1.940   6.177   0.895
 3588TIP3    H110728   1.870   6.118   0.922
 3588TIP3    H210729   2.019   6.122   0.898
 3589TIP3   OH210730   0.686   4.560   1.080
 3589TIP3    H110731   0.592   4.558   1.098
 3589TIP3    H210732   0.696   4.631   1.016
 3590TIP3   OH210733   6.955   6.220   0.025
 3590TIP3    H110734   6.982   6.227   0.116
 3590TIP3    H210735   6.860   6.223   0.027
 3591TIP3   OH210736   0.177   4.886   0.840
 3591TIP3    H110737   0.126   4.883   0.759
 3591TIP3    H210738   0.239   4.957   0.826
 3592TIP3   OH210739   0.680   2.758   3.332
 3592TIP3    H110740   0.585   2.747   3.338
 3592TIP3    H210741   0.691   2.847   3.299
 3593TIP3   OH210742   1.123   4.046   3.259
 3593TIP3    H110743   1.133   4.073   3.167
 3593TIP3    H210744   1.195   3.984   3.273
 3594TIP3   OH210745   3.842   2.013   1.178
 3594TIP3    H110746   3.856   2.085   1.116
 3594TIP3    H210747   3.884   1.938   1.139
 3595TIP3   OH210748   0.972   2.962   5.836
 3595TIP3    H110749   1.061   2.976   5.868
 3595TIP3    H210750   0.926   2.919   5.908
 3596TIP3   OH210751   3.232   1.600   4.748
 3596TIP3    H110752   3.253   1.582   4.656
 3596TIP3    H210753   3.316   1.611   4.790
 3597TIP3   OH210754   6.020   1.837   5.323
 3597TIP3    H110755   5.962   1.861   5.395
 3597TIP3    H210756   6.108   1.862   5.353
 3598TIP3   OH210757   5.421   2.022   0.731
 3598TIP3    H110758   5.447   2.080   0.803
 3598TIP3    H210759   5.392   2.081   0.662
 3599TIP3   OH210760   0.750   6.503   5.349
 3599TIP3    H110761   0.770   6.418   5.310
 3599TIP3    H210762   0.821   6.517   5.412
 3600TIP3   OH210763   0.289   6.741   3.598
 3600TIP3    H110764   0.236   6.762   3.521
 3600TIP3    H210765   0.300   6.646   3.595
 3601TIP3   OH210766   5.884   4.038   1.316
 3601TIP3    H110767   5.935   4.073   1.389
 3601TIP3    H210768   5.813   3.989   1.357
 3602TIP3   OH210769   2.201   0.388   1.692
 3602TIP3    H110770   2.220   0.392   1.785
 3602TIP3    H210771   2.112   0.354   1.686
 3603TIP3   OH210772   3.657   0.572   1.979
 3603TIP3    H110773   3.687   0.481   1.982
 3603TIP3    H210774   3.616   0.581   1.894
 3604TIP3   OH210775   1.549   4.908   1.086
 3604TIP3    H110776   1.533   4.814   1.083
 3604TIP3    H210777   1.636   4.917   1.124
 3605TIP3   OH210778   7.015   0.436   0.712
 3605TIP3    H110779   7.034   0.343   0.714
 3605TIP3    H210780   6.939   0.445   0.655
 3606TIP3   OH210781   3.776   6.695   3.881
 3606TIP3    H110782   3.765   6.673   3.788
 3606TIP3    H210783   3.795   6.789   3.881
 3607TIP3   OH210784   0.626   0.371   5.560
 3607TIP3    H110785   0.676   0.327   5.491
 3607TIP3    H210786   0.541   0.328   5.560
 3608TIP3   OH210787   4.720   6.721   5.729
 3608TIP3    H110788   4.735   6.815   5.720
 3608TIP3    H210789   4.681   6.711   5.816
 3609TIP3   OH210790   2.651   3.530   5.371
 3609TIP3    H110791   2.641   3.603   5.432
 3609TIP3    H210792   2.664   3.571   5.286
 3610TIP3   OH210793   4.058   1.609   4.011
 3610TIP3    H110794   4.041   1.691   3.964
 3610TIP3    H210795   3.972   1.581   4.041
 3611TIP3   OH210796   3.546   3.029   3.471
 3611TIP3    H110797   3.577   3.041   3.561
 3611TIP3    H210798   3.473   3.091   3.462
 3612TIP3   OH210799   0.009   3.100   4.588
 3612TIP3    H110800  -0.015   3.187   4.620
 3612TIP3    H210801  -0.044   3.040   4.639
 3613TIP3   OH210802   0.890   2.618   5.273
 3613TIP3    H110803   0.825   2.626   5.202
 3613TIP3    H210804   0.924   2.707   5.283
 3614TIP3   OH210805   4.076   3.746   2.872
 3614TIP3    H110806   3.996   3.754   2.821
 3614TIP3    H210807   4.117   3.832   2.867
 3615TIP3   OH210808   4.347   3.585   0.457
 3615TIP3    H110809   4.437   3.616   0.468
 3615TIP3    H210810   4.329   3.598   0.364
 3616TIP3   OH210811   1.301   4.749   2.515
 3616TIP3    H110812   1.259   4.665   2.529
 3616TIP3    H210813   1.343   4.741   2.429
 3617TIP3   OH210814   0.155   0.759   4.749
 3617TIP3    H110815   0.069   0.721   4.766
 3617TIP3    H210816   0.216   0.688   4.768
 3618TIP3   OH210817   4.844   1.968   3.377
 3618TIP3    H110818   4.774   1.942   3.317
 3618TIP3    H210819   4.910   1.899   3.369
 3619TIP3   OH210820   1.190   3.633   1.924
 3619TIP3    H110821   1.208   3.642   1.830
 3619TIP3    H210822   1.230   3.710   1.964
 3620TIP3   OH210823   4.854   4.031   0.209
 3620TIP3    H110824   4.938   4.018   0.163
 3620TIP3    H210825   4.790   3.985   0.154
 3621TIP3   OH210826   2.468   4.663   4.826
 3621TIP3    H110827   2.534   4.651   4.758
 3621TIP3    H210828   2.385   4.669   4.779
 3622TIP3   OH210829   5.563   5.653   0.325
 3622TIP3    H110830   5.569   5.558   0.326
 3622TIP3    H210831   5.559   5.678   0.418
 3623TIP3   OH210832   6.383   3.438   5.739
 3623TIP3    H110833   6.351   3.528   5.735
 3623TIP3    H210834   6.366   3.403   5.651
 3624TIP3   OH210835   4.998   1.896   5.540
 3624TIP3    H110836   5.007   1.801   5.536
 3624TIP3    H210837   5.041   1.928   5.460
 3625TIP3   OH210838   4.382   5.119   5.907
 3625TIP3    H110839   4.404   5.126   5.814
 3625TIP3    H210840   4.315   5.051   5.910
 3626TIP3   OH210841   5.329   6.190   4.596
 3626TIP3    H110842   5.386   6.121   4.629
 3626TIP3    H210843   5.265   6.205   4.666
 3627TIP3   OH210844   1.460   2.767   4.911
 3627TIP3    H110845   1.389   2.806   4.859
 3627TIP3    H210846   1.540   2.799   4.869
 3628TIP3   OH210847   0.325   4.429   1.931
 3628TIP3    H110848   0.276   4.388   2.002
 3628TIP3    H210849   0.302   4.522   1.936
 3629TIP3   OH210850   2.171   5.719   4.471
 3629TIP3    H110851   2.238   5.787   4.461
 3629TIP3    H210852   2.092   5.767   4.497
 3630TIP3   OH210853   4.896   4.391   3.124
 3630TIP3    H110854   4.948   4.346   3.191
 3630TIP3    H210855   4.955   4.457   3.088
 3631TIP3   OH210856   6.722   4.829   3.078
 3631TIP3    H110857   6.806   4.826   3.124
 3631TIP3    H210858   6.657   4.827   3.148
 3632TIP3   OH210859   7.023   1.107   3.545
 3632TIP3    H110860   7.019   1.088   3.639
 3632TIP3    H210861   7.093   1.171   3.536
 3633TIP3   OH210862   0.306   3.363   4.113
 3633TIP3    H110863   0.256   3.281   4.119
 3633TIP3    H210864   0.321   3.389   4.204
 3634TIP3   OH210865   0.225   3.500   1.251
 3634TIP3    H110866   0.266   3.527   1.169
 3634TIP3    H210867   0.274   3.422   1.277
 3635TIP3   OH210868   7.020   1.760   0.076
 3635TIP3    H110869   7.079   1.706   0.023
 3635TIP3    H210870   7.021   1.719   0.162
 3636TIP3   OH210871   3.814   1.724   1.877
 3636TIP3    H110872   3.720   1.726   1.860
 3636TIP3    H210873   3.832   1.808   1.919
 3637TIP3   OH210874   2.033   4.310   4.275
 3637TIP3    H110875   1.979   4.285   4.349
 3637TIP3    H210876   2.122   4.282   4.300
 3638TIP3   OH210877   3.591   6.024   2.941
 3638TIP3    H110878   3.616   5.998   3.030
 3638TIP3    H210879   3.659   5.985   2.886
 3639TIP3   OH210880   5.737   3.403   2.033
 3639TIP3    H110881   5.812   3.456   2.007
 3639TIP3    H210882   5.761   3.366   2.118
 3640TIP3   OH210883   3.103   2.662   2.251
 3640TIP3    H110884   3.138   2.648   2.163
 3640TIP3    H210885   3.179   2.661   2.308
 3641TIP3   OH210886   2.280   5.353   0.070
 3641TIP3    H110887   2.318   5.439   0.091
 3641TIP3    H210888   2.193   5.374   0.034
 3642TIP3   OH210889   2.145   5.560   0.994
 3642TIP3    H110890   2.133   5.499   0.921
 3642TIP3    H210891   2.065   5.613   0.993
 3643TIP3   OH210892   4.305   0.197   3.601
 3643TIP3    H110893   4.224   0.206   3.652
 3643TIP3    H210894   4.338   0.286   3.593
 3644TIP3   OH210895   1.637   4.214   5.550
 3644TIP3    H110896   1.571   4.270   5.508
 3644TIP3    H210897   1.593   4.130   5.562
 3645TIP3   OH210898   2.971   4.596   2.981
 3645TIP3    H110899   3.016   4.546   3.050
 3645TIP3    H210900   3.022   4.578   2.902
 3646TIP3   OH210901   2.606   1.295   0.820
 3646TIP3    H110902   2.526   1.346   0.826
 3646TIP3    H210903   2.588   1.216   0.871
 3647TIP3   OH210904   0.366   4.948   1.963
 3647TIP3    H110905   0.278   4.953   2.001
 3647TIP3    H210906   0.415   5.018   2.005
 3648TIP3   OH210907   6.475   3.259   4.808
 3648TIP3    H110908   6.459   3.313   4.731
 3648TIP3    H210909   6.416   3.184   4.797
 3649TIP3   OH210910   6.987   0.530   3.304
 3649TIP3    H110911   6.988   0.439   3.334
 3649TIP3    H210912   7.065   0.538   3.249
 3650TIP3   OH210913   4.183   0.704   3.072
 3650TIP3    H110914   4.137   0.654   3.005
 3650TIP3    H210915   4.144   0.674   3.154
 3651TIP3   OH210916   4.771   4.701   0.611
 3651TIP3    H110917   4.730   4.710   0.525
 3651TIP3    H210918   4.769   4.607   0.629
 3652TIP3   OH210919   5.753   4.317   5.421
 3652TIP3    H110920   5.689   4.344   5.486
 3652TIP3    H210921   5.718   4.348   5.338
 3653TIP3   OH210922   0.867   4.515   0.182
 3653TIP3    H110923   0.800   4.447   0.194
 3653TIP3    H210924   0.843   4.583   0.244
 3654TIP3   OH210925   5.678   2.349   4.058
 3654TIP3    H110926   5.643   2.427   4.101
 3654TIP3    H210927   5.711   2.295   4.130
 3655TIP3   OH210928   4.008   6.548   3.744
 3655TIP3    H110929   4.047   6.469   3.781
 3655TIP3    H210930   3.914   6.530   3.742
 3656TIP3   OH210931   5.249   5.450   3.484
 3656TIP3    H110932   5.226   5.434   3.575
 3656TIP3    H210933   5.331   5.402   3.471
 3657TIP3   OH210934   0.755   4.767   0.236
 3657TIP3    H110935   0.723   4.712   0.165
 3657TIP3    H210936   0.680   4.778   0.294
 3658TIP3   OH210937   0.762   4.298   0.997
 3658TIP3    H110938   0.733   4.235   1.063
 3658TIP3    H210939   0.756   4.383   1.040
 3659TIP3   OH210940   3.566   3.383   1.658
 3659TIP3    H110941   3.630   3.453   1.650
 3659TIP3    H210942   3.609   3.316   1.711
 3660TIP3   OH210943   6.723   6.324   0.685
 3660TIP3    H110944   6.734   6.259   0.755
 3660TIP3    H210945   6.806   6.372   0.683
 3661TIP3   OH210946   1.584   0.572   0.129
 3661TIP3    H110947   1.510   0.555   0.070
 3661TIP3    H210948   1.564   0.657   0.168
 3662TIP3   OH210949   1.406   1.933   5.770
 3662TIP3    H110950   1.407   2.016   5.819
 3662TIP3    H210951   1.416   1.866   5.837
 3663TIP3   OH210952   3.808   0.765   3.922
 3663TIP3    H110953   3.771   0.798   4.003
 3663TIP3    H210954   3.856   0.839   3.885
 3664TIP3   OH210955   6.340   2.814   0.067
 3664TIP3    H110956   6.402   2.746   0.039
 3664TIP3    H210957   6.319   2.791   0.158
 3665TIP3   OH210958   4.346   6.311   1.485
 3665TIP3    H110959   4.379   6.227   1.454
 3665TIP3    H210960   4.418   6.347   1.537
 3666TIP3   OH210961   6.563   5.038   1.845
 3666TIP3    H110962   6.592   4.952   1.815
 3666TIP3    H210963   6.584   5.098   1.773
 3667TIP3   OH210964   6.395   2.382   2.071
 3667TIP3    H110965   6.485   2.371   2.100
 3667TIP3    H210966   6.363   2.457   2.121
 3668TIP3   OH210967   4.718   6.030   0.183
 3668TIP3    H110968   4.783   6.043   0.252
 3668TIP3    H210969   4.763   6.058   0.103
 3669TIP3   OH210970   2.748   1.975   1.840
 3669TIP3    H110971   2.824   1.924   1.868
 3669TIP3    H210972   2.706   1.922   1.774
 3670TIP3   OH210973   4.343   2.750   3.350
 3670TIP3    H110974   4.430   2.781   3.378
 3670TIP3    H210975   4.350   2.654   3.352
 3671TIP3   OH210976   2.407   6.178   3.447
 3671TIP3    H110977   2.480   6.116   3.452
 3671TIP3    H210978   2.413   6.227   3.529
 3672TIP3   OH210979   2.077   4.055   0.374
 3672TIP3    H110980   2.169   4.065   0.397
 3672TIP3    H210981   2.030   4.061   0.458
 3673TIP3   OH210982   5.436   1.006   2.502
 3673TIP3    H110983   5.424   0.962   2.586
 3673TIP3    H210984   5.385   0.954   2.440
 3674TIP3   OH210985   0.932   5.635   0.244
 3674TIP3    H110986   0.911   5.545   0.270
 3674TIP3    H210987   1.015   5.627   0.197
 3675TIP3   OH210988   4.416   1.023   4.759
 3675TIP3    H110989   4.490   0.995   4.706
 3675TIP3    H210990   4.442   1.004   4.849
 3676TIP3   OH210991   3.712   6.845   5.040
 3676TIP3    H110992   3.622   6.844   5.008
 3676TIP3    H210993   3.721   6.761   5.086
 3677TIP3   OH210994   2.410   3.939   4.234
 3677TIP3    H110995   2.427   4.008   4.169
 3677TIP3    H210996   2.421   3.857   4.186
 3678TIP3   OH210997   0.404   4.945   0.570
 3678TIP3    H110998   0.419   4.855   0.599
 3678TIP3    H210999   0.431   4.945   0.478
 3679TIP3   OH211000   5.542   4.727   1.473
 3679TIP3    H111001   5.492   4.808   1.481
 3679TIP3    H211002   5.627   4.755   1.438
 3680TIP3   OH211003   3.592   0.171   3.446
 3680TIP3    H111004   3.504   0.138   3.426
 3680TIP3    H211005   3.588   0.195   3.539
 3681TIP3   OH211006   1.833   2.010   0.991
 3681TIP3    H111007   1.794   2.097   0.995
 3681TIP3    H211008   1.915   2.023   0.942
 3682TIP3   OH211009   1.732   5.240   3.485
 3682TIP3    H111010   1.654   5.185   3.495
 3682TIP3    H211011   1.751   5.238   3.391
 3683TIP3   OH211012   6.345   5.317   0.802
 3683TIP3    H111013   6.420   5.296   0.746
 3683TIP3    H211014   6.269   5.294   0.749
 3684TIP3   OH211015   5.811   5.062   5.275
 3684TIP3    H111016   5.718   5.072   5.298
 3684TIP3    H211017   5.835   4.977   5.313
 3685TIP3   OH211018   4.793   1.868   5.731
 3685TIP3    H111019   4.795   1.772   5.729
 3685TIP3    H211020   4.841   1.895   5.653
 3686TIP3   OH211021   7.105   6.092   0.557
 3686TIP3    H111022   7.066   6.132   0.634
 3686TIP3    H211023   7.173   6.034   0.592
 3687TIP3   OH211024   4.509   5.118   2.729
 3687TIP3    H111025   4.576   5.107   2.662
 3687TIP3    H211026   4.427   5.099   2.685
 3688TIP3   OH211027   3.483   1.285   0.649
 3688TIP3    H111028   3.572   1.321   0.652
 3688TIP3    H211029   3.449   1.300   0.737
 3689TIP3   OH211030   2.524   6.240   4.358
 3689TIP3    H111031   2.618   6.240   4.342
 3689TIP3    H211032   2.492   6.318   4.313
 3690TIP3   OH211033   2.356   4.345   5.656
 3690TIP3    H111034   2.441   4.301   5.664
 3690TIP3    H211035   2.343   4.386   5.742
 3691TIP3   OH211036   3.226   3.513   2.727
 3691TIP3    H111037   3.175   3.506   2.646
 3691TIP3    H211038   3.166   3.487   2.796
 3692TIP3   OH211039   6.849   2.632   1.097
 3692TIP3    H111040   6.934   2.616   1.055
 3692TIP3    H211041   6.785   2.623   1.026
 3693TIP3   OH211042   7.217   3.206   5.276
 3693TIP3    H111043   7.145   3.225   5.335
 3693TIP3    H211044   7.222   3.282   5.218
 3694TIP3   OH211045   7.081   4.173   0.894
 3694TIP3    H111046   7.176   4.180   0.882
 3694TIP3    H211047   7.053   4.109   0.828
 3695TIP3   OH211048   3.049   5.167   4.360
 3695TIP3    H111049   3.022   5.236   4.421
 3695TIP3    H211050   3.031   5.085   4.407
 3696TIP3   OH211051   3.872   1.853   5.045
 3696TIP3    H111052   3.946   1.860   4.986
 3696TIP3    H211053   3.797   1.833   4.988
 3697TIP3   OH211054   5.357   6.430   4.887
 3697TIP3    H111055   5.345   6.358   4.950
 3697TIP3    H211056   5.440   6.411   4.844
 3698TIP3   OH211057   6.424   1.156   5.259
 3698TIP3    H111058   6.405   1.075   5.211
 3698TIP3    H211059   6.425   1.224   5.192
 3699TIP3   OH211060   1.230   1.039   1.768
 3699TIP3    H111061   1.324   1.057   1.769
 3699TIP3    H211062   1.189   1.125   1.777
 3700TIP3   OH211063   4.579   1.396   5.138
 3700TIP3    H111064   4.542   1.339   5.206
 3700TIP3    H211065   4.656   1.350   5.107
 3701TIP3   OH211066   3.761   1.738   3.888
 3701TIP3    H111067   3.850   1.771   3.877
 3701TIP3    H211068   3.745   1.685   3.811
 3702TIP3   OH211069   0.790   5.922   3.877
 3702TIP3    H111070   0.764   5.963   3.794
 3702TIP3    H211071   0.758   5.832   3.870
 3703TIP3   OH211072   1.761   5.591   5.822
 3703TIP3    H111073   1.795   5.562   5.737
 3703TIP3    H211074   1.783   5.519   5.882
 3704TIP3   OH211075   0.504   3.478   3.597
 3704TIP3    H111076   0.443   3.464   3.670
 3704TIP3    H211077   0.588   3.495   3.640
 3705TIP3   OH211078   3.046   4.194   0.474
 3705TIP3    H111079   3.008   4.239   0.399
 3705TIP3    H211080   2.971   4.171   0.529
 3706TIP3   OH211081   2.139   6.285   2.900
 3706TIP3    H111082   2.080   6.243   2.962
 3706TIP3    H211083   2.082   6.317   2.830
 3707TIP3   OH211084   1.807   0.242   4.388
 3707TIP3    H111085   1.761   0.215   4.309
 3707TIP3    H211086   1.900   0.235   4.365
 3708TIP3   OH211087   3.723   5.030   0.357
 3708TIP3    H111088   3.771   4.967   0.302
 3708TIP3    H211089   3.715   5.108   0.302
 3709TIP3   OH211090   0.216   0.402   5.198
 3709TIP3    H111091   0.270   0.445   5.132
 3709TIP3    H211092   0.257   0.424   5.281
 3710TIP3   OH211093   5.268   3.043   0.212
 3710TIP3    H111094   5.196   3.073   0.267
 3710TIP3    H211095   5.225   2.995   0.141
 3711TIP3   OH211096   5.195   2.550   0.939
 3711TIP3    H111097   5.268   2.510   0.986
 3711TIP3    H211098   5.182   2.492   0.863
 3712TIP3   OH211099   0.110   5.178   3.736
 3712TIP3    H111100   0.065   5.173   3.652
 3712TIP3    H211101   0.203   5.170   3.714
 3713TIP3   OH211102   3.838   5.392   2.948
 3713TIP3    H111103   3.777   5.464   2.937
 3713TIP3    H211104   3.790   5.314   2.921
 3714TIP3   OH211105   3.270   5.944   0.012
 3714TIP3    H111106   3.183   5.950  -0.026
 3714TIP3    H211107   3.324   5.904  -0.056
 3715TIP3   OH211108   6.198   2.044   4.985
 3715TIP3    H111109   6.107   2.061   5.008
 3715TIP3    H211110   6.216   1.957   5.021
 3716TIP3   OH211111   2.258   5.053   4.137
 3716TIP3    H111112   2.353   5.060   4.146
 3716TIP3    H211113   2.228   5.144   4.136
 3717TIP3   OH211114   3.988   3.110   1.779
 3717TIP3    H111115   4.044   3.167   1.832
 3717TIP3    H211116   4.046   3.079   1.709
 3718TIP3   OH211117   0.473   0.891   3.519
 3718TIP3    H111118   0.530   0.967   3.509
 3718TIP3    H211119   0.513   0.840   3.590
 3719TIP3   OH211120   4.641   0.327   2.282
 3719TIP3    H111121   4.567   0.346   2.339
 3719TIP3    H211122   4.676   0.244   2.316
 3720TIP3   OH211123   3.528   3.543   5.289
 3720TIP3    H111124   3.478   3.476   5.336
 3720TIP3    H211125   3.540   3.613   5.353
 3721TIP3   OH211126   2.218   5.724   4.143
 3721TIP3    H111127   2.261   5.677   4.215
 3721TIP3    H211128   2.216   5.815   4.172
 3722TIP3   OH211129   4.194   3.319   1.166
 3722TIP3    H111130   4.246   3.327   1.246
 3722TIP3    H211131   4.150   3.235   1.174
 3723TIP3   OH211132   3.310   3.494   4.398
 3723TIP3    H111133   3.366   3.424   4.433
 3723TIP3    H211134   3.279   3.461   4.314
 3724TIP3   OH211135   6.148   0.899   0.184
 3724TIP3    H111136   6.152   0.977   0.238
 3724TIP3    H211137   6.174   0.929   0.097
 3725TIP3   OH211138   3.047   3.385   2.948
 3725TIP3    H111139   3.111   3.364   3.017
 3725TIP3    H211140   2.963   3.386   2.994
 3726TIP3   OH211141   3.390   3.224   4.481
 3726TIP3    H111142   3.340   3.172   4.418
 3726TIP3    H211143   3.472   3.176   4.492
 3727TIP3   OH211144   1.762   6.547   1.026
 3727TIP3    H111145   1.671   6.555   0.997
 3727TIP3    H211146   1.766   6.461   1.069
 3728TIP3   OH211147   6.720   2.196   2.016
 3728TIP3    H111148   6.656   2.158   2.077
 3728TIP3    H211149   6.692   2.165   1.930
 3729TIP3   OH211150   6.641   2.538   5.446
 3729TIP3    H111151   6.675   2.515   5.360
 3729TIP3    H211152   6.603   2.625   5.435
 3730TIP3   OH211153   3.253   4.028   2.261
 3730TIP3    H111154   3.285   4.034   2.351
 3730TIP3    H211155   3.316   3.973   2.216
 3731TIP3   OH211156   1.213   3.896   2.703
 3731TIP3    H111157   1.263   3.829   2.750
 3731TIP3    H211158   1.221   3.974   2.758
 3732TIP3   OH211159   1.150   6.117   3.098
 3732TIP3    H111160   1.205   6.085   3.170
 3732TIP3    H211161   1.097   6.186   3.137
 3733TIP3   OH211162   6.532   0.261   0.659
 3733TIP3    H111163   6.613   0.212   0.671
 3733TIP3    H211164   6.476   0.202   0.607
 3734TIP3   OH211165   2.598   4.698   0.800
 3734TIP3    H111166   2.634   4.786   0.809
 3734TIP3    H211167   2.605   4.678   0.707
 3735TIP3   OH211168   1.995   3.390   4.906
 3735TIP3    H111169   1.971   3.301   4.880
 3735TIP3    H211170   2.010   3.436   4.824
 3736TIP3   OH211171   4.397   3.529   1.887
 3736TIP3    H111172   4.302   3.518   1.895
 3736TIP3    H211173   4.409   3.624   1.888
 3737TIP3   OH211174   1.782   0.905   0.411
 3737TIP3    H111175   1.811   0.816   0.431
 3737TIP3    H211176   1.793   0.953   0.493
 3738TIP3   OH211177   6.673   4.901   1.107
 3738TIP3    H111178   6.754   4.910   1.157
 3738TIP3    H211179   6.668   4.807   1.087
 3739TIP3   OH211180   4.749   1.519   5.450
 3739TIP3    H111181   4.816   1.560   5.504
 3739TIP3    H211182   4.772   1.426   5.449
 3740TIP3   OH211183   4.967   1.377   3.393
 3740TIP3    H111184   5.007   1.296   3.424
 3740TIP3    H211185   4.873   1.359   3.395
 3741TIP3   OH211186   3.570   4.762   2.647
 3741TIP3    H111187   3.533   4.784   2.732
 3741TIP3    H211188   3.662   4.742   2.665
 3742TIP3   OH211189   2.788   4.749   1.818
 3742TIP3    H111190   2.697   4.727   1.835
 3742TIP3    H211191   2.815   4.803   1.893
 3743TIP3   OH211192   2.590   3.640   0.885
 3743TIP3    H111193   2.655   3.607   0.947
 3743TIP3    H211194   2.627   3.721   0.850
 3744TIP3   OH211195   3.546   6.573   3.987
 3744TIP3    H111196   3.590   6.578   4.072
 3744TIP3    H211197   3.607   6.614   3.926
 3745TIP3   OH211198   0.176   2.431   5.041
 3745TIP3    H111199   0.232   2.386   4.977
 3745TIP3    H211200   0.138   2.361   5.092
 3746TIP3   OH211201   0.391   1.497   4.766
 3746TIP3    H111202   0.393   1.546   4.848
 3746TIP3    H211203   0.351   1.413   4.790
 3747TIP3   OH211204   6.911   4.032   5.354
 3747TIP3    H111205   6.878   3.948   5.324
 3747TIP3    H211206   6.874   4.043   5.442
 3748TIP3   OH211207   0.051   1.249   0.517
 3748TIP3    H111208   0.007   1.320   0.469
 3748TIP3    H211209   0.044   1.173   0.460
 3749TIP3   OH211210   4.070   5.337   2.253
 3749TIP3    H111211   4.154   5.295   2.270
 3749TIP3    H211212   4.092   5.429   2.238
 3750TIP3   OH211213   4.625   5.471   1.463
 3750TIP3    H111214   4.709   5.467   1.509
 3750TIP3    H211215   4.633   5.547   1.406
 3751TIP3   OH211216   2.445   5.389   3.848
 3751TIP3    H111217   2.351   5.404   3.843
 3751TIP3    H211218   2.482   5.473   3.876
 3752TIP3   OH211219   6.485   2.062   0.285
 3752TIP3    H111220   6.414   2.117   0.250
 3752TIP3    H211221   6.522   2.020   0.208
 3753TIP3   OH211222   1.363   3.052   2.437
 3753TIP3    H111223   1.380   3.056   2.531
 3753TIP3    H211224   1.282   3.101   2.425
 3754TIP3   OH211225   0.505   2.096   3.515
 3754TIP3    H111226   0.438   2.057   3.457
 3754TIP3    H211227   0.575   2.031   3.517
 3755TIP3   OH211228   0.462   6.144   4.952
 3755TIP3    H111229   0.418   6.131   5.036
 3755TIP3    H211230   0.408   6.097   4.889
 3756TIP3   OH211231   1.967   4.316   1.529
 3756TIP3    H111232   2.035   4.281   1.471
 3756TIP3    H211233   1.886   4.276   1.498
 3757TIP3   OH211234   5.210   3.234   0.866
 3757TIP3    H111235   5.288   3.185   0.841
 3757TIP3    H211236   5.139   3.193   0.817
 3758TIP3   OH211237   3.196   6.461   2.020
 3758TIP3    H111238   3.190   6.434   2.111
 3758TIP3    H211239   3.244   6.391   1.977
 3759TIP3   OH211240   3.873   4.775   4.691
 3759TIP3    H111241   3.843   4.863   4.668
 3759TIP3    H211242   3.967   4.786   4.707
 3760TIP3   OH211243   6.896   4.204   2.560
 3760TIP3    H111244   6.984   4.200   2.598
 3760TIP3    H211245   6.895   4.285   2.510
 3761TIP3   OH211246   5.333   5.101   1.271
 3761TIP3    H111247   5.250   5.145   1.288
 3761TIP3    H211248   5.400   5.166   1.292
 3762TIP3   OH211249   0.719   0.253   2.784
 3762TIP3    H111250   0.658   0.232   2.713
 3762TIP3    H211251   0.776   0.321   2.747
 3763TIP3   OH211252   4.735  -0.015   5.015
 3763TIP3    H111253   4.780  -0.027   5.099
 3763TIP3    H211254   4.710   0.077   5.014
 3764TIP3   OH211255   0.343   2.904   5.073
 3764TIP3    H111256   0.330   2.810   5.084
 3764TIP3    H211257   0.435   2.912   5.046
 3765TIP3   OH211258   5.182   5.164   4.892
 3765TIP3    H111259   5.251   5.128   4.837
 3765TIP3    H211260   5.188   5.258   4.879
 3766TIP3   OH211261   0.829   4.883   1.089
 3766TIP3    H111262   0.771   4.914   1.020
 3766TIP3    H211263   0.916   4.913   1.063
 3767TIP3   OH211264   0.291   6.455   3.524
 3767TIP3    H111265   0.355   6.421   3.461
 3767TIP3    H211266   0.207   6.423   3.493
 3768TIP3   OH211267   6.118   2.507   2.847
 3768TIP3    H111268   6.050   2.439   2.850
 3768TIP3    H211269   6.069   2.589   2.849
 3769TIP3   OH211270   6.589   2.066   1.808
 3769TIP3    H111271   6.534   2.144   1.797
 3769TIP3    H211272   6.530   1.992   1.793
 3770TIP3   OH211273   5.913   2.370   2.040
 3770TIP3    H111274   5.906   2.399   1.949
 3770TIP3    H211275   5.834   2.318   2.055
 3771TIP3   OH211276   0.882   5.705   5.832
 3771TIP3    H111277   0.803   5.758   5.830
 3771TIP3    H211278   0.856   5.625   5.877
 3772TIP3   OH211279   6.625   0.851   3.466
 3772TIP3    H111280   6.664   0.780   3.516
 3772TIP3    H211281   6.558   0.809   3.412
 3773TIP3   OH211282   6.817   2.576   3.207
 3773TIP3    H111283   6.888   2.573   3.271
 3773TIP3    H211284   6.801   2.670   3.194
 3774TIP3   OH211285   0.424   1.483   3.934
 3774TIP3    H111286   0.345   1.487   3.988
 3774TIP3    H211287   0.421   1.397   3.892
 3775TIP3   OH211288   2.939   0.045   0.677
 3775TIP3    H111289   3.023   0.086   0.694
 3775TIP3    H211290   2.922   0.061   0.585
 3776TIP3   OH211291   3.270   0.922   1.013
 3776TIP3    H111292   3.177   0.931   1.033
 3776TIP3    H211293   3.276   0.927   0.918
 3777TIP3   OH211294   2.464   5.566   0.507
 3777TIP3    H111295   2.486   5.643   0.560
 3777TIP3    H211296   2.380   5.588   0.468
 3778TIP3   OH211297   2.493   4.647   1.600
 3778TIP3    H111298   2.403   4.677   1.593
 3778TIP3    H211299   2.518   4.665   1.690
 3779TIP3   OH211300   6.074   0.119   1.405
 3779TIP3    H111301   6.096   0.196   1.353
 3779TIP3    H211302   5.979   0.123   1.415
 3780TIP3   OH211303   5.811   0.902   2.446
 3780TIP3    H111304   5.744   0.834   2.446
 3780TIP3    H211305   5.790   0.956   2.369
 3781TIP3   OH211306   7.098   0.453   1.420
 3781TIP3    H111307   7.067   0.543   1.411
 3781TIP3    H211308   7.037   0.413   1.483
 3782TIP3   OH211309   6.233   1.973   0.967
 3782TIP3    H111310   6.266   1.918   1.039
 3782TIP3    H211311   6.304   2.035   0.950
 3783TIP3   OH211312   6.869   2.018   1.037
 3783TIP3    H111313   6.784   1.990   1.002
 3783TIP3    H211314   6.858   2.017   1.132
 3784TIP3   OH211315   1.083   5.929   5.734
 3784TIP3    H111316   0.989   5.909   5.733
 3784TIP3    H211317   1.122   5.857   5.784
 3785TIP3   OH211318   1.006   1.086   5.065
 3785TIP3    H111319   1.051   1.134   5.135
 3785TIP3    H211320   0.915   1.115   5.071
 3786TIP3   OH211321   3.839   5.618   2.705
 3786TIP3    H111322   3.817   5.657   2.620
 3786TIP3    H211323   3.860   5.527   2.685
 3787TIP3   OH211324   6.952   6.077   3.609
 3787TIP3    H111325   6.891   6.023   3.559
 3787TIP3    H211326   7.020   6.100   3.546
 3788TIP3   OH211327   2.441   1.627   0.127
 3788TIP3    H111328   2.530   1.591   0.126
 3788TIP3    H211329   2.454   1.722   0.120
 3789TIP3   OH211330   2.331   4.794   4.352
 3789TIP3    H111331   2.302   4.703   4.352
 3789TIP3    H211332   2.292   4.833   4.430
 3790TIP3   OH211333   2.356   0.399   2.562
 3790TIP3    H111334   2.433   0.390   2.618
 3790TIP3    H211335   2.376   0.476   2.508
 3791TIP3   OH211336   0.869   1.237   1.012
 3791TIP3    H111337   0.859   1.167   0.947
 3791TIP3    H211338   0.782   1.244   1.053
 3792TIP3   OH211339   5.621   3.466   4.171
 3792TIP3    H111340   5.646   3.471   4.263
 3792TIP3    H211341   5.650   3.379   4.143
 3793TIP3   OH211342   6.264   3.735   1.332
 3793TIP3    H111343   6.257   3.757   1.239
 3793TIP3    H211344   6.224   3.649   1.340
 3794TIP3   OH211345   2.202   6.743   3.875
 3794TIP3    H111346   2.160   6.780   3.797
 3794TIP3    H211347   2.211   6.650   3.856
 3795TIP3   OH211348   3.825   4.116   3.953
 3795TIP3    H111349   3.790   4.159   3.875
 3795TIP3    H211350   3.776   4.154   4.026
 3796TIP3   OH211351   3.828   1.944   4.462
 3796TIP3    H111352   3.818   1.849   4.463
 3796TIP3    H211353   3.794   1.971   4.376
 3797TIP3   OH211354   5.045   4.192   3.309
 3797TIP3    H111355   4.976   4.163   3.369
 3797TIP3    H211356   5.117   4.130   3.324
 3798TIP3   OH211357   3.926   1.062   1.722
 3798TIP3    H111358   3.838   1.088   1.747
 3798TIP3    H211359   3.960   1.137   1.673
 3799TIP3   OH211360   1.334   0.589   5.202
 3799TIP3    H111361   1.318   0.503   5.162
 3799TIP3    H211362   1.257   0.641   5.177
 3800TIP3   OH211363   2.911   3.955   5.151
 3800TIP3    H111364   3.001   3.933   5.127
 3800TIP3    H211365   2.913   3.963   5.246
 3801TIP3   OH211366   3.438   3.820   2.208
 3801TIP3    H111367   3.499   3.880   2.251
 3801TIP3    H211368   3.478   3.734   2.217
 3802TIP3   OH211369   6.783   5.748   0.298
 3802TIP3    H111370   6.763   5.685   0.230
 3802TIP3    H211371   6.698   5.789   0.318
 3803TIP3   OH211372   2.478   5.580   1.526
 3803TIP3    H111373   2.429   5.652   1.486
 3803TIP3    H211374   2.520   5.619   1.603
 3804TIP3   OH211375   2.084   4.895   1.709
 3804TIP3    H111376   2.117   4.926   1.624
 3804TIP3    H211377   2.052   4.974   1.752
 3805TIP3   OH211378   2.115   2.897   2.223
 3805TIP3    H111379   2.131   2.905   2.129
 3805TIP3    H211380   2.198   2.924   2.264
 3806TIP3   OH211381   1.029   3.193   2.906
 3806TIP3    H111382   0.999   3.192   2.815
 3806TIP3    H211383   1.106   3.137   2.907
 3807TIP3   OH211384   2.663   6.647   5.052
 3807TIP3    H111385   2.726   6.583   5.086
 3807TIP3    H211386   2.592   6.647   5.116
 3808TIP3   OH211387   0.691   3.646   3.089
 3808TIP3    H111388   0.640   3.716   3.132
 3808TIP3    H211389   0.749   3.613   3.157
 3809TIP3   OH211390   5.724   0.141   5.786
 3809TIP3    H111391   5.700   0.049   5.802
 3809TIP3    H211392   5.817   0.138   5.763
 3810TIP3   OH211393   1.989   1.115   1.343
 3810TIP3    H111394   2.066   1.103   1.287
 3810TIP3    H211395   1.942   1.031   1.337
 3811TIP3   OH211396   5.087   3.987   0.664
 3811TIP3    H111397   5.150   3.917   0.647
 3811TIP3    H211398   5.078   3.988   0.759
 3812TIP3   OH211399   0.834   0.492   5.096
 3812TIP3    H111400   0.883   0.568   5.064
 3812TIP3    H211401   0.782   0.527   5.168
 3813TIP3   OH211402   4.881   6.112   5.306
 3813TIP3    H111403   4.936   6.161   5.368
 3813TIP3    H211404   4.818   6.067   5.362
 3814TIP3   OH211405   4.399   4.449   5.814
 3814TIP3    H111406   4.423   4.535   5.849
 3814TIP3    H211407   4.339   4.413   5.879
 3815TIP3   OH211408   5.056   6.491   3.284
 3815TIP3    H111409   5.034   6.414   3.232
 3815TIP3    H211410   4.992   6.491   3.356
 3816TIP3   OH211411   6.829   1.129   0.863
 3816TIP3    H111412   6.921   1.133   0.839
 3816TIP3    H211413   6.792   1.062   0.806
 3817TIP3   OH211414   4.218   3.310   1.939
 3817TIP3    H111415   4.177   3.386   1.979
 3817TIP3    H211416   4.297   3.295   1.992
 3818TIP3   OH211417   5.497   2.655   3.402
 3818TIP3    H111418   5.439   2.581   3.386
 3818TIP3    H211419   5.576   2.636   3.351
 3819TIP3   OH211420   3.118   5.194   5.394
 3819TIP3    H111421   3.121   5.290   5.391
 3819TIP3    H211422   3.026   5.174   5.408
 3820TIP3   OH211423   5.213   4.278   1.734
 3820TIP3    H111424   5.227   4.213   1.802
 3820TIP3    H211425   5.277   4.257   1.666
 3821TIP3   OH211426   1.174   1.296   3.132
 3821TIP3    H111427   1.148   1.367   3.072
 3821TIP3    H211428   1.243   1.334   3.186
 3822TIP3   OH211429   0.254   6.525   1.388
 3822TIP3    H111430   0.265   6.498   1.297
 3822TIP3    H211431   0.231   6.618   1.382
 3823TIP3   OH211432   2.420   1.229   1.620
 3823TIP3    H111433   2.405   1.179   1.700
 3823TIP3    H211434   2.431   1.320   1.649
 3824TIP3   OH211435   4.840   1.505   1.917
 3824TIP3    H111436   4.762   1.462   1.953
 3824TIP3    H211437   4.842   1.478   1.826
 3825TIP3   OH211438   6.315   6.556   0.889
 3825TIP3    H111439   6.361   6.549   0.805
 3825TIP3    H211440   6.286   6.647   0.893
 3826TIP3   OH211441   5.127   0.982   3.968
 3826TIP3    H111442   5.195   0.994   3.902
 3826TIP3    H211443   5.174   0.980   4.051
 3827TIP3   OH211444   0.238   4.133   2.605
 3827TIP3    H111445   0.218   4.202   2.668
 3827TIP3    H211446   0.152   4.094   2.585
 3828TIP3   OH211447   2.457   2.311   4.694
 3828TIP3    H111448   2.457   2.260   4.612
 3828TIP3    H211449   2.365   2.323   4.714
 3829TIP3   OH211450   5.822   0.166   5.144
 3829TIP3    H111451   5.838   0.140   5.054
 3829TIP3    H211452   5.749   0.111   5.172
 3830TIP3   OH211453   1.895   2.294   3.180
 3830TIP3    H111454   1.963   2.282   3.114
 3830TIP3    H211455   1.829   2.229   3.159
 3831TIP3   OH211456   0.446   6.018   2.835
 3831TIP3    H111457   0.414   5.934   2.803
 3831TIP3    H211458   0.527   5.998   2.880
 3832TIP3   OH211459   5.957   1.621   3.639
 3832TIP3    H111460   5.996   1.539   3.607
 3832TIP3    H211461   5.944   1.673   3.559
 3833TIP3   OH211462   4.788   1.421   4.936
 3833TIP3    H111463   4.805   1.454   4.847
 3833TIP3    H211464   4.704   1.376   4.930
 3834TIP3   OH211465   1.518   0.053   5.126
 3834TIP3    H111466   1.500  -0.026   5.076
 3834TIP3    H211467   1.563   0.111   5.065
 3835TIP3   OH211468   6.671   4.052   0.324
 3835TIP3    H111469   6.645   3.992   0.254
 3835TIP3    H211470   6.610   4.125   0.318
 3836TIP3   OH211471   0.655   4.374   0.287
 3836TIP3    H111472   0.627   4.292   0.246
 3836TIP3    H211473   0.573   4.417   0.314
 3837TIP3   OH211474   4.667   3.618   2.383
 3837TIP3    H111475   4.572   3.609   2.372
 3837TIP3    H211476   4.681   3.713   2.393
 3838TIP3   OH211477   2.174   1.792   0.804
 3838TIP3    H111478   2.101   1.730   0.802
 3838TIP3    H211479   2.148   1.858   0.868
 3839TIP3   OH211480   4.458   2.704   0.050
 3839TIP3    H111481   4.404   2.737  -0.022
 3839TIP3    H211482   4.471   2.779   0.107
 3840TIP3   OH211483   3.973   6.730   4.221
 3840TIP3    H111484   4.048   6.681   4.254
 3840TIP3    H211485   3.910   6.731   4.293
 3841TIP3   OH211486   0.774   4.553   5.677
 3841TIP3    H111487   0.818   4.638   5.673
 3841TIP3    H211488   0.832   4.493   5.630
 3842TIP3   OH211489   3.388   1.221   3.639
 3842TIP3    H111490   3.381   1.141   3.692
 3842TIP3    H211491   3.348   1.197   3.555
 3843TIP3   OH211492   3.524   4.534   3.228
 3843TIP3    H111493   3.570   4.460   3.267
 3843TIP3    H211494   3.501   4.505   3.140
 3844TIP3   OH211495   0.597   1.657   3.731
 3844TIP3    H111496   0.689   1.631   3.728
 3844TIP3    H211497   0.550   1.582   3.694
 3845TIP3   OH211498   4.294   1.760   4.740
 3845TIP3    H111499   4.240   1.732   4.666
 3845TIP3    H211500   4.240   1.741   4.817
 3846TIP3   OH211501   1.570   1.493   1.929
 3846TIP3    H111502   1.642   1.473   1.987
 3846TIP3    H211503   1.496   1.443   1.963
 3847TIP3   OH211504   0.361   5.254   2.273
 3847TIP3    H111505   0.300   5.313   2.228
 3847TIP3    H211506   0.359   5.282   2.364
 3848TIP3   OH211507   1.387   3.273   0.610
 3848TIP3    H111508   1.304   3.231   0.632
 3848TIP3    H211509   1.374   3.307   0.522
 3849TIP3   OH211510   0.136   2.824   3.691
 3849TIP3    H111511   0.220   2.800   3.652
 3849TIP3    H211512   0.136   2.920   3.692
 3850TIP3   OH211513   0.362   0.832   5.612
 3850TIP3    H111514   0.421   0.762   5.584
 3850TIP3    H211515   0.274   0.793   5.605
 3851TIP3   OH211516   3.427   3.241   0.402
 3851TIP3    H111517   3.468   3.241   0.489
 3851TIP3    H211518   3.370   3.318   0.403
 3852TIP3   OH211519   2.254   4.622   0.148
 3852TIP3    H111520   2.175   4.596   0.101
 3852TIP3    H211521   2.221   4.675   0.221
 3853TIP3   OH211522   1.241   1.700   2.443
 3853TIP3    H111523   1.281   1.776   2.486
 3853TIP3    H211524   1.262   1.711   2.351
 3854TIP3   OH211525   1.565   6.066   1.598
 3854TIP3    H111526   1.630   5.996   1.610
 3854TIP3    H211527   1.486   6.020   1.568
 3855TIP3   OH211528   2.920   0.616   1.813
 3855TIP3    H111529   2.869   0.650   1.739
 3855TIP3    H211530   2.890   0.525   1.821
 3856TIP3   OH211531   0.829   5.044   2.178
 3856TIP3    H111532   0.822   4.989   2.100
 3856TIP3    H211533   0.906   5.011   2.224
 3857TIP3   OH211534   4.666   2.156   1.349
 3857TIP3    H111535   4.758   2.181   1.353
 3857TIP3    H211536   4.659   2.105   1.268
 3858TIP3   OH211537   0.641   4.150   1.949
 3858TIP3    H111538   0.592   4.165   1.869
 3858TIP3    H211539   0.577   4.115   2.011
 3859TIP3   OH211540   4.521   2.284   0.405
 3859TIP3    H111541   4.612   2.280   0.374
 3859TIP3    H211542   4.487   2.366   0.370
 3860TIP3   OH211543   2.958   3.932   0.317
 3860TIP3    H111544   2.870   3.895   0.326
 3860TIP3    H211545   2.943   4.020   0.281
 3861TIP3   OH211546   6.355   1.405   1.034
 3861TIP3    H111547   6.355   1.438   1.124
 3861TIP3    H211548   6.295   1.331   1.036
 3862TIP3   OH211549   3.080   1.278   5.129
 3862TIP3    H111550   2.993   1.312   5.152
 3862TIP3    H211551   3.079   1.271   5.034
 3863TIP3   OH211552   3.950   3.505   3.625
 3863TIP3    H111553   3.985   3.582   3.580
 3863TIP3    H211554   3.907   3.541   3.702
 3864TIP3   OH211555   2.988   0.407   1.358
 3864TIP3    H111556   3.035   0.452   1.288
 3864TIP3    H211557   2.913   0.464   1.377
 3865TIP3   OH211558   2.927   3.893   1.910
 3865TIP3    H111559   2.936   3.987   1.924
 3865TIP3    H211560   2.919   3.856   1.999
 3866TIP3   OH211561   0.967   0.988   4.554
 3866TIP3    H111562   0.874   0.974   4.573
 3866TIP3    H211563   1.009   0.907   4.582
 3867TIP3   OH211564   5.396   1.375   5.881
 3867TIP3    H111565   5.450   1.452   5.897
 3867TIP3    H211566   5.375   1.380   5.788
 3868TIP3   OH211567   1.957   4.369   0.333
 3868TIP3    H111568   1.993   4.281   0.318
 3868TIP3    H211569   1.865   4.361   0.308
 3869TIP3   OH211570   5.697   5.198   4.457
 3869TIP3    H111571   5.741   5.247   4.526
 3869TIP3    H211572   5.648   5.130   4.503
 3870TIP3   OH211573   3.481   4.332   4.710
 3870TIP3    H111574   3.533   4.405   4.744
 3870TIP3    H211575   3.391   4.356   4.731
 3871TIP3   OH211576   6.373   1.013   0.806
 3871TIP3    H111577   6.416   1.026   0.721
 3871TIP3    H211578   6.319   0.935   0.793
 3872TIP3   OH211579   3.751   4.826   5.616
 3872TIP3    H111580   3.779   4.899   5.561
 3872TIP3    H211581   3.661   4.848   5.641
 3873TIP3   OH211582   0.791   4.032   1.670
 3873TIP3    H111583   0.828   3.969   1.732
 3873TIP3    H211584   0.716   3.987   1.631
 3874TIP3   OH211585   6.896   4.982   1.257
 3874TIP3    H111586   6.938   4.982   1.171
 3874TIP3    H211587   6.966   4.956   1.317
 3875TIP3   OH211588   2.080   0.223   4.407
 3875TIP3    H111589   2.099   0.238   4.314
 3875TIP3    H211590   2.070   0.128   4.415
 3876TIP3   OH211591   0.742   6.646   3.358
 3876TIP3    H111592   0.652   6.675   3.347
 3876TIP3    H211593   0.746   6.611   3.447
 3877TIP3   OH211594   6.606   1.113   1.032
 3877TIP3    H111595   6.639   1.119   0.942
 3877TIP3    H211596   6.542   1.042   1.029
 3878TIP3   OH211597   1.098   1.641   1.942
 3878TIP3    H111598   1.046   1.689   2.006
 3878TIP3    H211599   1.035   1.582   1.900
 3879TIP3   OH211600   6.350   2.868   0.748
 3879TIP3    H111601   6.353   2.796   0.684
 3879TIP3    H211602   6.436   2.908   0.744
 3880TIP3   OH211603   7.228   5.534   5.715
 3880TIP3    H111604   7.189   5.485   5.787
 3880TIP3    H211605   7.158   5.545   5.651
 3881TIP3   OH211606   2.371   0.269   0.820
 3881TIP3    H111607   2.442   0.222   0.862
 3881TIP3    H211608   2.319   0.304   0.892
 3882TIP3   OH211609   2.540   4.593   3.567
 3882TIP3    H111610   2.486   4.672   3.559
 3882TIP3    H211611   2.487   4.533   3.619
 3883TIP3   OH211612   1.704   1.101   4.833
 3883TIP3    H111613   1.640   1.132   4.898
 3883TIP3    H211614   1.747   1.181   4.802
 3884TIP3   OH211615   1.123   2.200   1.054
 3884TIP3    H111616   1.056   2.146   1.013
 3884TIP3    H211617   1.087   2.289   1.053
 3885TIP3   OH211618  -0.019   2.134   0.086
 3885TIP3    H111619  -0.083   2.078   0.042
 3885TIP3    H211620   0.051   2.074   0.113
 3886TIP3   OH211621   1.401   5.933   2.901
 3886TIP3    H111622   1.438   5.937   2.813
 3886TIP3    H211623   1.371   6.022   2.919
 3887TIP3   OH211624   3.153   4.649   0.059
 3887TIP3    H111625   3.176   4.598  -0.019
 3887TIP3    H211626   3.190   4.599   0.132
 3888TIP3   OH211627   6.522   2.739   2.909
 3888TIP3    H111628   6.501   2.668   2.847
 3888TIP3    H211629   6.437   2.770   2.939
 3889TIP3   OH211630   4.606   5.214   0.924
 3889TIP3    H111631   4.603   5.165   0.842
 3889TIP3    H211632   4.516   5.241   0.940
 3890TIP3   OH211633   2.525   1.996   4.867
 3890TIP3    H111634   2.432   2.001   4.890
 3890TIP3    H211635   2.571   2.010   4.949
 3891TIP3   OH211636   2.654   5.905   1.757
 3891TIP3    H111637   2.656   5.996   1.726
 3891TIP3    H211638   2.562   5.879   1.749
 3892TIP3   OH211639   1.244   2.896   5.519
 3892TIP3    H111640   1.271   2.874   5.430
 3892TIP3    H211641   1.182   2.968   5.509
 3893TIP3   OH211642   3.697   1.558   2.915
 3893TIP3    H111643   3.606   1.562   2.885
 3893TIP3    H211644   3.726   1.470   2.893
 3894TIP3   OH211645   4.781   0.052   1.151
 3894TIP3    H111646   4.693   0.017   1.167
 3894TIP3    H211647   4.810   0.084   1.236
 3895TIP3   OH211648   3.165   6.380   5.342
 3895TIP3    H111649   3.153   6.470   5.371
 3895TIP3    H211650   3.084   6.336   5.368
 3896TIP3   OH211651   4.625   4.632   0.939
 3896TIP3    H111652   4.696   4.575   0.909
 3896TIP3    H211653   4.668   4.717   0.954
 3897TIP3   OH211654   3.811   4.216   3.126
 3897TIP3    H111655   3.795   4.122   3.118
 3897TIP3    H211656   3.772   4.241   3.210
 3898TIP3   OH211657   2.140   3.675   3.586
 3898TIP3    H111658   2.105   3.626   3.660
 3898TIP3    H211659   2.149   3.764   3.619
 3899TIP3   OH211660   6.180   6.151   0.280
 3899TIP3    H111661   6.148   6.217   0.219
 3899TIP3    H211662   6.115   6.150   0.351
 3900TIP3   OH211663   1.784   1.824   1.638
 3900TIP3    H111664   1.696   1.828   1.677
 3900TIP3    H211665   1.783   1.892   1.571
 3901TIP3   OH211666   4.857   6.453   0.059
 3901TIP3    H111667   4.818   6.539   0.071
 3901TIP3    H211668   4.786   6.399   0.026
 3902TIP3   OH211669   6.886   1.188   2.009
 3902TIP3    H111670   6.850   1.258   1.955
 3902TIP3    H211671   6.912   1.231   2.090
 3903TIP3   OH211672   3.878   5.704   3.070
 3903TIP3    H111673   3.839   5.620   3.048
 3903TIP3    H211674   3.878   5.707   3.165
 3904TIP3   OH211675   0.344   4.532   0.906
 3904TIP3    H111676   0.313   4.529   0.996
 3904TIP3    H211677   0.267   4.511   0.853
 3905TIP3   OH211678   1.154   1.309   4.510
 3905TIP3    H111679   1.127   1.270   4.593
 3905TIP3    H211680   1.075   1.309   4.456
 3906TIP3   OH211681   2.058   5.938   3.595
 3906TIP3    H111682   1.999   5.881   3.645
 3906TIP3    H211683   2.063   6.018   3.647
 3907TIP3   OH211684   5.045   4.125   1.000
 3907TIP3    H111685   5.131   4.155   1.031
 3907TIP3    H211686   5.053   4.030   0.994
 3908TIP3   OH211687   5.296   1.287   4.066
 3908TIP3    H111688   5.322   1.283   4.158
 3908TIP3    H211689   5.210   1.330   4.067
 3909TIP3   OH211690   0.754   1.395   2.670
 3909TIP3    H111691   0.832   1.362   2.626
 3909TIP3    H211692   0.719   1.462   2.610
 3910TIP3   OH211693   5.161   6.418   3.587
 3910TIP3    H111694   5.089   6.405   3.649
 3910TIP3    H211695   5.180   6.330   3.554
 3911TIP3   OH211696   4.746   5.083   5.347
 3911TIP3    H111697   4.746   5.177   5.366
 3911TIP3    H211698   4.807   5.073   5.274
 3912TIP3   OH211699   2.797   5.598   4.094
 3912TIP3    H111700   2.711   5.609   4.135
 3912TIP3    H211701   2.859   5.607   4.167
 3913TIP3   OH211702   1.707   6.702   0.749
 3913TIP3    H111703   1.645   6.724   0.818
 3913TIP3    H211704   1.654   6.659   0.682
 3914TIP3   OH211705   1.469   3.657   0.240
 3914TIP3    H111706   1.380   3.629   0.220
 3914TIP3    H211707   1.518   3.575   0.249
 3915TIP3   OH211708   5.802   6.010   4.020
 3915TIP3    H111709   5.773   5.971   3.937
 3915TIP3    H211710   5.745   6.086   4.031
 3916TIP3   OH211711   3.600   4.332   0.389
 3916TIP3    H111712   3.571   4.395   0.323
 3916TIP3    H211713   3.648   4.384   0.453
 3917TIP3   OH211714   3.616   0.592   3.206
 3917TIP3    H111715   3.618   0.526   3.138
 3917TIP3    H211716   3.539   0.646   3.186
 3918TIP3   OH211717   0.688   2.961   5.299
 3918TIP3    H111718   0.696   2.984   5.206
 3918TIP3    H211719   0.771   2.918   5.320
 3919TIP3   OH211720   4.319   6.635   1.966
 3919TIP3    H111721   4.255   6.683   2.018
 3919TIP3    H211722   4.383   6.602   2.030
 3920TIP3   OH211723   7.212   5.770   5.451
 3920TIP3    H111724   7.161   5.844   5.483
 3920TIP3    H211725   7.274   5.750   5.521
 3921TIP3   OH211726   1.856   5.627   2.207
 3921TIP3    H111727   1.937   5.678   2.205
 3921TIP3    H211728   1.790   5.687   2.241
 3922TIP3   OH211729   3.612   3.314   2.019
 3922TIP3    H111730   3.655   3.274   1.944
 3922TIP3    H211731   3.537   3.258   2.037
 3923TIP3   OH211732   5.449   0.985   1.923
 3923TIP3    H111733   5.474   0.896   1.949
 3923TIP3    H211734   5.493   0.998   1.839
 3924TIP3   OH211735   5.825   4.568   5.202
 3924TIP3    H111736   5.896   4.574   5.266
 3924TIP3    H211737   5.746   4.581   5.254
 3925TIP3   OH211738   2.180   4.814   0.356
 3925TIP3    H111739   2.242   4.884   0.374
 3925TIP3    H211740   2.186   4.756   0.433
 3926TIP3   OH211741   4.921   2.740   1.752
 3926TIP3    H111742   4.936   2.828   1.788
 3926TIP3    H211743   4.987   2.685   1.795
 3927TIP3   OH211744   3.400   0.482   4.093
 3927TIP3    H111745   3.399   0.397   4.138
 3927TIP3    H211746   3.456   0.537   4.148
 3928TIP3   OH211747   5.475   2.088   1.602
 3928TIP3    H111748   5.505   2.175   1.574
 3928TIP3    H211749   5.383   2.099   1.624
 3929TIP3   OH211750   3.889   1.403   2.626
 3929TIP3    H111751   3.948   1.437   2.694
 3929TIP3    H211752   3.926   1.434   2.544
 3930TIP3   OH211753   5.753   2.290   1.386
 3930TIP3    H111754   5.747   2.195   1.394
 3930TIP3    H211755   5.673   2.322   1.429
 3931TIP3   OH211756   6.234   5.259   2.533
 3931TIP3    H111757   6.233   5.246   2.438
 3931TIP3    H211758   6.156   5.311   2.551
 3932TIP3   OH211759   2.259   0.392   3.668
 3932TIP3    H111760   2.325   0.325   3.681
 3932TIP3    H211761   2.307   0.467   3.632
 3933TIP3   OH211762   6.141   1.943   3.048
 3933TIP3    H111763   6.168   2.020   2.998
 3933TIP3    H211764   6.223   1.899   3.071
 3934TIP3   OH211765   1.851   0.886   1.202
 3934TIP3    H111766   1.766   0.916   1.234
 3934TIP3    H211767   1.854   0.793   1.226
 3935TIP3   OH211768   2.824   6.364   3.974
 3935TIP3    H111769   2.732   6.355   3.999
 3935TIP3    H211770   2.837   6.297   3.906
 3936TIP3   OH211771   2.306   3.636   0.882
 3936TIP3    H111772   2.296   3.565   0.818
 3936TIP3    H211773   2.398   3.660   0.877
 3937TIP3   OH211774   5.272   5.578   1.026
 3937TIP3    H111775   5.276   5.501   0.969
 3937TIP3    H211776   5.215   5.551   1.098
 3938TIP3   OH211777   1.942   5.654   1.810
 3938TIP3    H111778   1.852   5.630   1.835
 3938TIP3    H211779   1.962   5.730   1.864
 3939TIP3   OH211780   0.889   6.214   5.508
 3939TIP3    H111781   0.982   6.196   5.497
 3939TIP3    H211782   0.881   6.308   5.494
 3940TIP3   OH211783   0.927   2.634   3.433
 3940TIP3    H111784   0.901   2.548   3.467
 3940TIP3    H211785   0.844   2.682   3.426
 3941TIP3   OH211786   6.296   4.134   1.059
 3941TIP3    H111787   6.336   4.096   0.981
 3941TIP3    H211788   6.211   4.091   1.066
 3942TIP3   OH211789   6.535   6.684   2.090
 3942TIP3    H111790   6.498   6.597   2.103
 3942TIP3    H211791   6.460   6.743   2.090
 3943TIP3   OH211792   5.169   2.721   1.347
 3943TIP3    H111793   5.162   2.627   1.362
 3943TIP3    H211794   5.246   2.748   1.397
 3944TIP3   OH211795   4.152   1.367   1.875
 3944TIP3    H111796   4.069   1.403   1.846
 3944TIP3    H211797   4.176   1.303   1.809
 3945TIP3   OH211798   2.477   5.912   3.183
 3945TIP3    H111799   2.501   5.918   3.275
 3945TIP3    H211800   2.511   5.827   3.155
 3946TIP3   OH211801   3.738   0.250   2.885
 3946TIP3    H111802   3.723   0.319   2.820
 3946TIP3    H211803   3.831   0.228   2.875
 3947TIP3   OH211804   1.993   0.578   3.421
 3947TIP3    H111805   1.926   0.509   3.423
 3947TIP3    H211806   2.005   0.601   3.513
 3948TIP3   OH211807   0.162   4.718   3.025
 3948TIP3    H111808   0.146   4.782   3.095
 3948TIP3    H211809   0.118   4.639   3.055
 3949TIP3   OH211810   4.786   5.796   1.835
 3949TIP3    H111811   4.779   5.851   1.914
 3949TIP3    H211812   4.844   5.725   1.861
 3950TIP3   OH211813   4.426   3.280   4.909
 3950TIP3    H111814   4.379   3.284   4.826
 3950TIP3    H211815   4.404   3.193   4.945
 3951TIP3   OH211816   7.027   5.572   4.369
 3951TIP3    H111817   6.978   5.511   4.314
 3951TIP3    H211818   6.964   5.598   4.437
 3952TIP3   OH211819   5.076   6.224   4.727
 3952TIP3    H111820   5.059   6.297   4.668
 3952TIP3    H211821   5.048   6.256   4.813
 3953TIP3   OH211822   3.566   3.193   3.723
 3953TIP3    H111823   3.624   3.149   3.784
 3953TIP3    H211824   3.525   3.263   3.774
 3954TIP3   OH211825   2.812   1.672   4.345
 3954TIP3    H111826   2.871   1.598   4.329
 3954TIP3    H211827   2.869   1.739   4.382
 3955TIP3   OH211828   3.382   1.746   1.601
 3955TIP3    H111829   3.465   1.703   1.623
 3955TIP3    H211830   3.354   1.787   1.683
 3956TIP3   OH211831   1.136   4.537   3.340
 3956TIP3    H111832   1.194   4.584   3.281
 3956TIP3    H211833   1.183   4.457   3.363
 3957TIP3   OH211834   3.750   0.792   3.552
 3957TIP3    H111835   3.662   0.813   3.585
 3957TIP3    H211836   3.737   0.716   3.496
 3958TIP3   OH211837   4.415   3.062   2.560
 3958TIP3    H111838   4.486   3.112   2.520
 3958TIP3    H211839   4.338   3.083   2.508
 3959TIP3   OH211840   0.013   4.780   1.098
 3959TIP3    H111841   0.021   4.783   1.002
 3959TIP3    H211842   0.101   4.796   1.130
 3960TIP3   OH211843   3.722   2.468   0.007
 3960TIP3    H111844   3.714   2.485   0.101
 3960TIP3    H211845   3.694   2.377  -0.004
 3961TIP3   OH211846   3.029   0.379   2.065
 3961TIP3    H111847   3.103   0.349   2.118
 3961TIP3    H211848   3.040   0.334   1.981
 3962TIP3   OH211849   3.932   0.760   5.124
 3962TIP3    H111850   3.875   0.834   5.143
 3962TIP3    H211851   3.873   0.687   5.108
 3963TIP3   OH211852   7.017   0.683   0.857
 3963TIP3    H111853   6.941   0.624   0.860
 3963TIP3    H211854   7.084   0.633   0.812
 3964TIP3   OH211855   6.809   6.667   4.673
 3964TIP3    H111856   6.795   6.704   4.586
 3964TIP3    H211857   6.815   6.743   4.731
 3965TIP3   OH211858   3.359   6.830   3.915
 3965TIP3    H111859   3.317   6.791   3.839
 3965TIP3    H211860   3.427   6.768   3.940
 3966TIP3   OH211861   2.230   2.768   4.665
 3966TIP3    H111862   2.283   2.846   4.651
 3966TIP3    H211863   2.293   2.698   4.682
 3967TIP3   OH211864   1.947   4.309   1.119
 3967TIP3    H111865   1.875   4.263   1.161
 3967TIP3    H211866   2.023   4.289   1.173
 3968TIP3   OH211867   4.430   3.240   3.334
 3968TIP3    H111868   4.402   3.324   3.371
 3968TIP3    H211869   4.525   3.247   3.326
 3969TIP3   OH211870   1.372   1.803   2.219
 3969TIP3    H111871   1.463   1.779   2.201
 3969TIP3    H211872   1.360   1.886   2.172
 3970TIP3   OH211873   0.731   6.041   3.632
 3970TIP3    H111874   0.701   6.130   3.612
 3970TIP3    H211875   0.808   6.029   3.577
 3971TIP3   OH211876   0.624   3.184   0.830
 3971TIP3    H111877   0.667   3.182   0.745
 3971TIP3    H211878   0.562   3.256   0.824
 3972TIP3   OH211879   2.683   3.928   4.992
 3972TIP3    H111880   2.765   3.945   5.038
 3972TIP3    H211881   2.710   3.895   4.906
 3973TIP3   OH211882   5.069   0.028   5.539
 3973TIP3    H111883   5.158   0.028   5.504
 3973TIP3    H211884   5.046  -0.064   5.545
 3974TIP3   OH211885   1.696   2.476   3.111
 3974TIP3    H111886   1.628   2.458   3.046
 3974TIP3    H211887   1.767   2.416   3.089
 3975TIP3   OH211888   4.884   1.838   0.213
 3975TIP3    H111889   4.805   1.835   0.159
 3975TIP3    H211890   4.942   1.900   0.168
 3976TIP3   OH211891   5.883   4.620   3.948
 3976TIP3    H111892   5.836   4.703   3.954
 3976TIP3    H211893   5.863   4.574   4.029
 3977TIP3   OH211894   5.043   1.477   0.142
 3977TIP3    H111895   5.004   1.532   0.075
 3977TIP3    H211896   5.137   1.492   0.134
 3978TIP3   OH211897   7.120   4.092   5.119
 3978TIP3    H111898   7.121   4.004   5.157
 3978TIP3    H211899   7.030   4.102   5.088
 3979TIP3   OH211900   5.218   2.732   3.001
 3979TIP3    H111901   5.295   2.748   2.947
 3979TIP3    H211902   5.214   2.806   3.061
 3980TIP3   OH211903   1.276   5.692   0.438
 3980TIP3    H111904   1.182   5.706   0.430
 3980TIP3    H211905   1.315   5.766   0.392
 3981TIP3   OH211906   1.406   2.907   5.751
 3981TIP3    H111907   1.348   2.843   5.791
 3981TIP3    H211908   1.360   2.935   5.671
 3982TIP3   OH211909   6.678   6.164   2.221
 3982TIP3    H111910   6.694   6.229   2.289
 3982TIP3    H211911   6.703   6.208   2.139
 3983TIP3   OH211912   3.837   5.579   5.776
 3983TIP3    H111913   3.826   5.515   5.847
 3983TIP3    H211914   3.927   5.567   5.747
 3984TIP3   OH211915   3.271   2.916   4.535
 3984TIP3    H111916   3.320   2.953   4.462
 3984TIP3    H211917   3.339   2.883   4.594
 3985TIP3   OH211918   3.188   6.541   3.985
 3985TIP3    H111919   3.196   6.569   3.894
 3985TIP3    H211920   3.271   6.497   4.004
 3986TIP3   OH211921   3.632   2.215   4.451
 3986TIP3    H111922   3.592   2.130   4.432
 3986TIP3    H211923   3.577   2.279   4.406
 3987TIP3   OH211924   6.003   2.516   2.242
 3987TIP3    H111925   5.979   2.446   2.180
 3987TIP3    H211926   5.964   2.595   2.204
 3988TIP3   OH211927   3.865   2.599   1.996
 3988TIP3    H111928   3.892   2.508   1.983
 3988TIP3    H211929   3.939   2.650   1.964
 3989TIP3   OH211930   3.190   2.741   1.602
 3989TIP3    H111931   3.219   2.788   1.524
 3989TIP3    H211932   3.269   2.696   1.634
 3990TIP3   OH211933   6.601   2.894   5.728
 3990TIP3    H111934   6.611   2.988   5.745
 3990TIP3    H211935   6.555   2.861   5.806
 3991TIP3   OH211936   4.705   5.563   2.129
 3991TIP3    H111937   4.749   5.608   2.202
 3991TIP3    H211938   4.668   5.634   2.077
 3992TIP3   OH211939   3.297   3.718   0.561
 3992TIP3    H111940   3.308   3.678   0.648
 3992TIP3    H211941   3.206   3.748   0.560
 3993TIP3   OH211942   6.102   5.692   5.237
 3993TIP3    H111943   6.058   5.743   5.304
 3993TIP3    H211944   6.046   5.615   5.225
 3994TIP3   OH211945   2.990   0.645   5.557
 3994TIP3    H111946   3.085   0.656   5.550
 3994TIP3    H211947   2.978   0.550   5.564
 3995TIP3   OH211948   1.169   5.555   5.513
 3995TIP3    H111949   1.210   5.615   5.451
 3995TIP3    H211950   1.075   5.560   5.493
 3996TIP3   OH211951   0.017   3.525   0.214
 3996TIP3    H111952   0.095   3.472   0.228
 3996TIP3    H211953   0.026   3.598   0.275
 3997TIP3   OH211954   0.994   5.669   3.893
 3997TIP3    H111955   1.022   5.588   3.936
 3997TIP3    H211956   0.937   5.640   3.822
 3998TIP3   OH211957   6.208   3.880   0.919
 3998TIP3    H111958   6.124   3.881   0.965
 3998TIP3    H211959   6.188   3.849   0.831
 3999TIP3   OH211960   4.375   5.573   0.242
 3999TIP3    H111961   4.434   5.601   0.312
 3999TIP3    H211962   4.301   5.634   0.247
 4000TIP3   OH211963   0.187   5.478   5.404
 4000TIP3    H111964   0.232   5.402   5.366
 4000TIP3    H211965   0.106   5.486   5.353
 4001TIP3   OH211966   2.994   2.372   1.202
 4001TIP3    H111967   3.024   2.305   1.141
 4001TIP3    H211968   3.072   2.392   1.255
 4002TIP3   OH211969   6.696   0.796   3.929
 4002TIP3    H111970   6.712   0.890   3.919
 4002TIP3    H211971   6.678   0.786   4.023
 4003TIP3   OH211972   2.015   5.852   3.954
 4003TIP3    H111973   2.074   5.862   4.029
 4003TIP3    H211974   2.047   5.774   3.909
 4004TIP3   OH211975   5.206   5.867   3.811
 4004TIP3    H111976   5.167   5.789   3.850
 4004TIP3    H211977   5.160   5.879   3.728
 4005TIP3   OH211978   5.798   1.224   0.209
 4005TIP3    H111979   5.755   1.153   0.161
 4005TIP3    H211980   5.744   1.301   0.191
 4006TIP3   OH211981   1.879   2.023   1.472
 4006TIP3    H111982   1.848   2.093   1.415
 4006TIP3    H211983   1.952   1.983   1.424
 4007TIP3   OH211984   1.744   0.295   5.442
 4007TIP3    H111985   1.763   0.251   5.525
 4007TIP3    H211986   1.760   0.388   5.459
 4008TIP3   OH211987   0.195   2.510   5.846
 4008TIP3    H111988   0.193   2.600   5.814
 4008TIP3    H211989   0.273   2.472   5.806
 4009TIP3   OH211990   2.628   6.362   5.339
 4009TIP3    H111991   2.599   6.449   5.311
 4009TIP3    H211992   2.549   6.308   5.337
 4010TIP3   OH211993   0.422   1.714   0.687
 4010TIP3    H111994   0.500   1.766   0.670
 4010TIP3    H211995   0.452   1.623   0.676
 4011TIP3   OH211996   3.582   0.629   0.969
 4011TIP3    H111997   3.506   0.586   0.930
 4011TIP3    H211998   3.623   0.561   1.023
 4012TIP3   OH211999   6.270   2.543   2.238
 4012TIP3    H112000   6.278   2.632   2.273
 4012TIP3    H212001   6.177   2.524   2.241
 4013TIP3   OH212002   2.586   2.570   0.806
 4013TIP3    H112003   2.558   2.646   0.755
 4013TIP3    H212004   2.551   2.585   0.893
 4014TIP3   OH212005   5.069   6.571   3.953
 4014TIP3    H112006   5.127   6.495   3.953
 4014TIP3    H212007   5.081   6.611   4.039
 4015TIP3   OH212008   7.070   2.029   5.413
 4015TIP3    H112009   7.030   1.951   5.374
 4015TIP3    H212010   7.099   1.999   5.500
 4016TIP3   OH212011   6.473   0.172   4.915
 4016TIP3    H112012   6.381   0.183   4.938
 4016TIP3    H212013   6.479   0.208   4.826
 4017TIP3   OH212014   1.414   1.514   1.663
 4017TIP3    H112015   1.426   1.427   1.625
 4017TIP3    H212016   1.497   1.531   1.709
 4018TIP3   OH212017   2.874   1.201   2.469
 4018TIP3    H112018   2.945   1.265   2.474
 4018TIP3    H212019   2.915   1.122   2.434
 4019TIP3   OH212020   4.623   4.247   5.436
 4019TIP3    H112021   4.649   4.248   5.528
 4019TIP3    H212022   4.700   4.279   5.389
 4020TIP3   OH212023   5.446   2.382   1.108
 4020TIP3    H112024   5.526   2.349   1.067
 4020TIP3    H212025   5.472   2.466   1.145
 4021TIP3   OH212026   0.759   1.931   2.305
 4021TIP3    H112027   0.745   1.969   2.219
 4021TIP3    H212028   0.671   1.924   2.343
 4022TIP3   OH212029   2.101   4.909   3.463
 4022TIP3    H112030   2.035   4.921   3.394
 4022TIP3    H212031   2.053   4.869   3.536
 4023TIP3   OH212032   0.761   1.002   2.065
 4023TIP3    H112033   0.725   1.089   2.050
 4023TIP3    H212034   0.769   0.995   2.160
 4024TIP3   OH212035   5.845   0.023   4.919
 4024TIP3    H112036   5.878   0.049   4.833
 4024TIP3    H212037   5.815  -0.067   4.906
 4025TIP3   OH212038   1.149   4.562   5.733
 4025TIP3    H112039   1.071   4.617   5.739
 4025TIP3    H212040   1.128   4.486   5.787
 4026TIP3   OH212041   0.690   1.632   5.887
 4026TIP3    H112042   0.656   1.595   5.968
 4026TIP3    H212043   0.645   1.584   5.818
 4027TIP3   OH212044   6.185   2.964   0.955
 4027TIP3    H112045   6.245   2.922   0.893
 4027TIP3    H212046   6.102   2.917   0.944
 4028TIP3   OH212047   0.202   3.470   1.895
 4028TIP3    H112048   0.280   3.522   1.877
 4028TIP3    H212049   0.231   3.401   1.955
 4029TIP3   OH212050   3.231   0.884   4.581
 4029TIP3    H112051   3.274   0.863   4.664
 4029TIP3    H212052   3.190   0.969   4.596
 4030TIP3   OH212053   3.740   6.168   1.808
 4030TIP3    H112054   3.766   6.258   1.830
 4030TIP3    H212055   3.668   6.149   1.867
 4031TIP3   OH212056   0.471   2.771   5.754
 4031TIP3    H112057   0.544   2.711   5.771
 4031TIP3    H212058   0.512   2.858   5.751
 4032TIP3   OH212059   5.317   3.678   3.662
 4032TIP3    H112060   5.303   3.632   3.745
 4032TIP3    H212061   5.408   3.707   3.667
 4033TIP3   OH212062   2.079   1.721   3.144
 4033TIP3    H112063   2.168   1.755   3.151
 4033TIP3    H212064   2.024   1.789   3.182
 4034TIP3   OH212065   2.674   2.470   2.509
 4034TIP3    H112066   2.730   2.393   2.496
 4034TIP3    H212067   2.682   2.519   2.427
 4035TIP3   OH212068   1.797   5.633   4.313
 4035TIP3    H112069   1.862   5.601   4.251
 4035TIP3    H212070   1.827   5.601   4.398
 4036TIP3   OH212071   6.297   1.305   0.447
 4036TIP3    H112072   6.367   1.343   0.393
 4036TIP3    H212073   6.235   1.377   0.458
 4037TIP3   OH212074   0.989   0.912   1.439
 4037TIP3    H112075   0.940   0.838   1.402
 4037TIP3    H212076   0.980   0.981   1.374
 4038TIP3   OH212077   5.982   6.225   5.886
 4038TIP3    H112078   5.997   6.313   5.850
 4038TIP3    H212079   5.900   6.197   5.845
 4039TIP3   OH212080   0.125   3.297   2.377
 4039TIP3    H112081   0.134   3.393   2.378
 4039TIP3    H212082   0.049   3.281   2.321
 4040TIP3   OH212083   2.100   3.201   1.537
 4040TIP3    H112084   2.155   3.213   1.614
 4040TIP3    H212085   2.122   3.275   1.480
 4041TIP3   OH212086   7.130   4.872   0.278
 4041TIP3    H112087   7.196   4.926   0.320
 4041TIP3    H212088   7.049   4.889   0.326
 4042TIP3   OH212089   1.756   0.593   1.688
 4042TIP3    H112090   1.760   0.523   1.754
 4042TIP3    H212091   1.728   0.548   1.608
 4043TIP3   OH212092   2.594   3.396   2.717
 4043TIP3    H112093   2.654   3.396   2.792
 4043TIP3    H212094   2.508   3.378   2.754
 4044TIP3   OH212095   1.224   3.615   2.809
 4044TIP3    H112096   1.131   3.599   2.793
 4044TIP3    H212097   1.261   3.528   2.827
 4045TIP3   OH212098   4.604   1.797   0.828
 4045TIP3    H112099   4.688   1.842   0.821
 4045TIP3    H212100   4.539   1.864   0.807
 4046TIP3   OH212101   3.230   2.778   3.842
 4046TIP3    H112102   3.214   2.872   3.833
 4046TIP3    H212103   3.257   2.750   3.754
 4047TIP3   OH212104   6.382   1.772   1.093
 4047TIP3    H112105   6.391   1.677   1.095
 4047TIP3    H212106   6.364   1.796   1.184
 4048TIP3   OH212107   0.606   5.170   4.345
 4048TIP3    H112108   0.598   5.225   4.423
 4048TIP3    H212109   0.612   5.081   4.379
 4049TIP3   OH212110   7.043   5.199   0.625
 4049TIP3    H112111   7.006   5.254   0.695
 4049TIP3    H212112   7.036   5.110   0.659
 4050TIP3   OH212113   6.818   3.695   2.501
 4050TIP3    H112114   6.840   3.787   2.516
 4050TIP3    H212115   6.728   3.697   2.468
 4051TIP3   OH212116   3.041   5.140   5.008
 4051TIP3    H112117   3.032   5.116   4.916
 4051TIP3    H212118   2.966   5.099   5.051
 4052TIP3   OH212119   1.297   3.276   2.758
 4052TIP3    H112120   1.204   3.270   2.737
 4052TIP3    H212121   1.330   3.188   2.740
 4053TIP3   OH212122   3.095   5.379   5.710
 4053TIP3    H112123   3.169   5.322   5.692
 4053TIP3    H212124   3.064   5.406   5.623
 4054TIP3   OH212125   5.820   0.167   1.515
 4054TIP3    H112126   5.727   0.178   1.496
 4054TIP3    H212127   5.844   0.248   1.561
 4055TIP3   OH212128   1.734   5.714   3.883
 4055TIP3    H112129   1.737   5.765   3.964
 4055TIP3    H212130   1.655   5.660   3.891
 4056TIP3   OH212131   2.734   1.945   0.581
 4056TIP3    H112132   2.681   1.871   0.550
 4056TIP3    H212133   2.695   1.968   0.666
 4057TIP3   OH212134   5.095   1.095   0.520
 4057TIP3    H112135   5.070   1.164   0.459
 4057TIP3    H212136   5.012   1.067   0.559
 4058TIP3   OH212137   6.099   0.277   2.094
 4058TIP3    H112138   6.036   0.211   2.066
 4058TIP3    H212139   6.045   0.351   2.122
 4059TIP3   OH212140   0.807   0.646   0.044
 4059TIP3    H112141   0.785   0.556   0.065
 4059TIP3    H212142   0.757   0.666  -0.035
 4060TIP3   OH212143   1.203   0.886   5.064
 4060TIP3    H112144   1.232   0.905   5.154
 4060TIP3    H212145   1.140   0.955   5.045
 4061TIP3   OH212146   0.652   1.455   4.171
 4061TIP3    H112147   0.722   1.467   4.235
 4061TIP3    H212148   0.697   1.422   4.093
 4062TIP3   OH212149   0.054   4.531   3.402
 4062TIP3    H112150   0.115   4.512   3.330
 4062TIP3    H212151  -0.002   4.454   3.407
 4063TIP3   OH212152   2.124   1.169   4.642
 4063TIP3    H112153   2.121   1.135   4.553
 4063TIP3    H212154   2.189   1.239   4.640
 4064TIP3   OH212155   5.728   6.211   1.859
 4064TIP3    H112156   5.679   6.219   1.777
 4064TIP3    H212157   5.662   6.225   1.927
 4065TIP3   OH212158   2.989   4.148   3.424
 4065TIP3    H112159   2.912   4.096   3.446
 4065TIP3    H212160   2.960   4.205   3.353
 4066TIP3   OH212161   4.211   4.957   2.525
 4066TIP3    H112162   4.240   4.934   2.613
 4066TIP3    H212163   4.131   5.008   2.539
 4067TIP3   OH212164   4.469   0.266   1.091
 4067TIP3    H112165   4.389   0.286   1.042
 4067TIP3    H212166   4.491   0.177   1.066
 4068TIP3   OH212167   4.142   1.184   3.968
 4068TIP3    H112168   4.217   1.197   4.026
 4068TIP3    H212169   4.106   1.099   3.995
 4069TIP3   OH212170   5.595   0.833   0.255
 4069TIP3    H112171   5.517   0.884   0.275
 4069TIP3    H212172   5.621   0.796   0.340
 4070TIP3   OH212173   4.252   0.855   3.588
 4070TIP3    H112174   4.222   0.764   3.587
 4070TIP3    H212175   4.291   0.866   3.675
 4071TIP3   OH212176   4.747   0.705   0.487
 4071TIP3    H112177   4.680   0.636   0.484
 4071TIP3    H212178   4.730   0.751   0.570
 4072TIP3   OH212179   5.699   6.690   0.701
 4072TIP3    H112180   5.698   6.772   0.749
 4072TIP3    H212181   5.670   6.624   0.764
 4073TIP3   OH212182   6.856   0.376   0.507
 4073TIP3    H112183   6.784   0.429   0.473
 4073TIP3    H212184   6.830   0.286   0.486
 4074TIP3   OH212185   1.748   1.598   5.333
 4074TIP3    H112186   1.735   1.573   5.241
 4074TIP3    H212187   1.666   1.574   5.376
 4075TIP3   OH212188   4.790   4.839   1.001
 4075TIP3    H112189   4.884   4.844   1.013
 4075TIP3    H212190   4.769   4.913   0.943
 4076TIP3   OH212191   4.508   5.048   3.181
 4076TIP3    H112192   4.532   4.963   3.144
 4076TIP3    H212193   4.471   5.027   3.267
 4077TIP3   OH212194   0.249   1.951   4.571
 4077TIP3    H112195   0.307   1.874   4.566
 4077TIP3    H212196   0.252   1.976   4.664
 4078TIP3   OH212197   4.135   3.637   0.942
 4078TIP3    H112198   4.213   3.692   0.942
 4078TIP3    H212199   4.106   3.637   0.850
 4079TIP3   OH212200   3.889   0.476   3.976
 4079TIP3    H112201   3.884   0.420   3.898
 4079TIP3    H212202   3.856   0.561   3.946
 4080TIP3   OH212203   4.998   4.722   0.269
 4080TIP3    H112204   4.947   4.658   0.219
 4080TIP3    H212205   4.938   4.794   0.285
 4081TIP3   OH212206   2.602   2.700   1.198
 4081TIP3    H112207   2.545   2.695   1.121
 4081TIP3    H212208   2.675   2.642   1.178
 4082TIP3   OH212209   3.515   1.079   4.009
 4082TIP3    H112210   3.479   0.991   4.019
 4082TIP3    H212211   3.442   1.137   4.031
 4083TIP3   OH212212   5.586   5.815   1.213
 4083TIP3    H112213   5.682   5.815   1.206
 4083TIP3    H212214   5.560   5.728   1.184
 4084TIP3   OH212215   2.476   0.302   4.944
 4084TIP3    H112216   2.568   0.329   4.948
 4084TIP3    H212217   2.427   0.384   4.944
 4085TIP3   OH212218   5.833   3.928   0.160
 4085TIP3    H112219   5.885   4.006   0.180
 4085TIP3    H212220   5.744   3.961   0.149
 4086TIP3   OH212221   3.912   1.128   2.084
 4086TIP3    H112222   3.843   1.104   2.023
 4086TIP3    H212223   3.918   1.223   2.079
 4087TIP3   OH212224   2.095   4.456   0.591
 4087TIP3    H112225   2.052   4.412   0.517
 4087TIP3    H212226   2.025   4.467   0.655
 4088TIP3   OH212227   6.866   3.596   3.650
 4088TIP3    H112228   6.841   3.681   3.686
 4088TIP3    H212229   6.880   3.540   3.727
 4089TIP3   OH212230   3.310   4.946   4.543
 4089TIP3    H112231   3.317   4.854   4.568
 4089TIP3    H212232   3.319   4.946   4.447
 4090TIP3   OH212233   6.689   4.156   1.274
 4090TIP3    H112234   6.694   4.245   1.310
 4090TIP3    H212235   6.631   4.109   1.333
 4091TIP3   OH212236   3.618   2.830   5.063
 4091TIP3    H112237   3.566   2.773   5.119
 4091TIP3    H212238   3.563   2.845   4.986
 4092TIP3   OH212239   4.749   6.157   3.518
 4092TIP3    H112240   4.781   6.236   3.561
 4092TIP3    H212241   4.656   6.153   3.539
 4093TIP3   OH212242   3.417   4.233   5.650
 4093TIP3    H112243   3.450   4.171   5.716
 4093TIP3    H212244   3.334   4.264   5.686
 4094TIP3   OH212245   4.744   0.384   5.607
 4094TIP3    H112246   4.775   0.355   5.694
 4094TIP3    H212247   4.816   0.360   5.548
 4095TIP3   OH212248   1.516   3.917   0.331
 4095TIP3    H112249   1.576   3.956   0.267
 4095TIP3    H212250   1.498   3.829   0.297
 4096TIP3   OH212251   0.934   1.611   5.155
 4096TIP3    H112252   0.839   1.619   5.145
 4096TIP3    H212253   0.945   1.565   5.238
 4097TIP3   OH212254   4.152   3.410   5.511
 4097TIP3    H112255   4.059   3.390   5.509
 4097TIP3    H212256   4.157   3.503   5.489
 4098TIP3   OH212257   2.124   5.151   1.508
 4098TIP3    H112258   2.216   5.149   1.483
 4098TIP3    H212259   2.124   5.171   1.602
 4099TIP3   OH212260   6.247   2.743   1.509
 4099TIP3    H112261   6.288   2.661   1.481
 4099TIP3    H212262   6.163   2.745   1.463
 4100TIP3   OH212263   3.525   3.549   2.187
 4100TIP3    H112264   3.485   3.486   2.247
 4100TIP3    H212265   3.542   3.498   2.108
 4101TIP3   OH212266   2.142   0.927   3.511
 4101TIP3    H112267   2.090   0.860   3.555
 4101TIP3    H212268   2.111   1.010   3.548
 4102TIP3   OH212269   5.849   5.277   4.690
 4102TIP3    H112270   5.783   5.307   4.752
 4102TIP3    H212271   5.922   5.338   4.702
 4103TIP3   OH212272   0.024   1.665   0.277
 4103TIP3    H112273   0.113   1.638   0.298
 4103TIP3    H212274   0.032   1.711   0.194
 4104TIP3   OH212275   1.880   5.473   2.914
 4104TIP3    H112276   1.799   5.480   2.966
 4104TIP3    H212277   1.949   5.503   2.973
 4105TIP3   OH212278   5.814   1.825   1.071
 4105TIP3    H112279   5.739   1.884   1.072
 4105TIP3    H212280   5.788   1.753   1.015
 4106TIP3   OH212281   6.546   5.508   5.532
 4106TIP3    H112282   6.620   5.568   5.517
 4106TIP3    H212283   6.540   5.501   5.627
 4107TIP3   OH212284   2.687   1.506   5.918
 4107TIP3    H112285   2.755   1.451   5.880
 4107TIP3    H212286   2.605   1.467   5.886
 4108TIP3   OH212287   2.508   5.693   5.388
 4108TIP3    H112288   2.571   5.701   5.317
 4108TIP3    H212289   2.431   5.653   5.347
 4109TIP3   OH212290   6.774   5.786   5.231
 4109TIP3    H112291   6.761   5.739   5.313
 4109TIP3    H212292   6.690   5.777   5.185
 4110TIP3   OH212293   1.736   4.801   3.866
 4110TIP3    H112294   1.691   4.718   3.852
 4110TIP3    H212295   1.667   4.864   3.884
 4111TIP3   OH212296   4.762   0.899   0.181
 4111TIP3    H112297   4.765   0.892   0.277
 4111TIP3    H212298   4.806   0.983   0.163
 4112TIP3   OH212299   5.660   1.233   1.504
 4112TIP3    H112300   5.653   1.153   1.452
 4112TIP3    H212301   5.639   1.303   1.443
 4113TIP3   OH212302   2.258   6.432   0.834
 4113TIP3    H112303   2.167   6.441   0.865
 4113TIP3    H212304   2.310   6.433   0.914
 4114TIP3   OH212305   6.209   4.546   1.746
 4114TIP3    H112306   6.262   4.590   1.812
 4114TIP3    H212307   6.208   4.606   1.672
 4115TIP3   OH212308   4.501   1.270   1.426
 4115TIP3    H112309   4.534   1.355   1.397
 4115TIP3    H212310   4.446   1.239   1.354
 4116TIP3   OH212311   1.725   6.009   1.251
 4116TIP3    H112312   1.682   5.932   1.289
 4116TIP3    H212313   1.673   6.083   1.283
 4117TIP3   OH212314   1.861   5.632   1.017
 4117TIP3    H112315   1.808   5.647   1.095
 4117TIP3    H212316   1.815   5.562   0.970
 4118TIP3   OH212317   6.585   4.362   5.816
 4118TIP3    H112318   6.515   4.305   5.784
 4118TIP3    H212319   6.666   4.315   5.797
 4119TIP3   OH212320   6.802   6.526   0.244
 4119TIP3    H112321   6.822   6.524   0.151
 4119TIP3    H212322   6.828   6.614   0.273
 4120TIP3   OH212323   3.522   1.458   0.049
 4120TIP3    H112324   3.532   1.410   0.131
 4120TIP3    H212325   3.463   1.530   0.071
 4121TIP3   OH212326   3.789   1.475   5.492
 4121TIP3    H112327   3.729   1.473   5.567
 4121TIP3    H212328   3.744   1.528   5.427
 4122TIP3   OH212329   2.256   6.291   3.660
 4122TIP3    H112330   2.195   6.304   3.587
 4122TIP3    H212331   2.255   6.197   3.676
 4123TIP3   OH212332   2.653   3.348   0.364
 4123TIP3    H112333   2.665   3.265   0.318
 4123TIP3    H212334   2.561   3.348   0.391
 4124TIP3   OH212335   0.759   4.618   0.755
 4124TIP3    H112336   0.708   4.539   0.738
 4124TIP3    H212337   0.849   4.593   0.732
 4125TIP3   OH212338   2.254   0.502   4.974
 4125TIP3    H112339   2.243   0.572   5.038
 4125TIP3    H212340   2.237   0.544   4.889
 4126TIP3   OH212341   0.896   4.041   2.216
 4126TIP3    H112342   0.939   3.956   2.213
 4126TIP3    H212343   0.863   4.055   2.128
 4127TIP3   OH212344   1.672   3.719   2.634
 4127TIP3    H112345   1.671   3.682   2.546
 4127TIP3    H212346   1.761   3.702   2.666
 4128TIP3   OH212347   1.104   4.227   0.667
 4128TIP3    H112348   1.030   4.231   0.607
 4128TIP3    H212349   1.181   4.238   0.612
 4129TIP3   OH212350   3.045   1.511   5.390
 4129TIP3    H112351   2.957   1.500   5.425
 4129TIP3    H212352   3.032   1.548   5.303
 4130TIP3   OH212353   4.855   3.716   2.125
 4130TIP3    H112354   4.832   3.655   2.055
 4130TIP3    H212355   4.896   3.661   2.192
 4131TIP3   OH212356   4.076   0.673   3.327
 4131TIP3    H112357   3.985   0.691   3.306
 4131TIP3    H212358   4.108   0.753   3.368
 4132TIP3   OH212359   6.706   1.043   1.281
 4132TIP3    H112360   6.664   1.067   1.198
 4132TIP3    H212361   6.633   1.031   1.342
 4133TIP3   OH212362   4.527   3.818   5.601
 4133TIP3    H112363   4.460   3.750   5.596
 4133TIP3    H212364   4.484   3.898   5.570
 4134TIP3   OH212365   6.654   6.425   4.773
 4134TIP3    H112366   6.576   6.462   4.814
 4134TIP3    H212367   6.713   6.500   4.762
 4135TIP3   OH212368   4.042   0.953   4.977
 4135TIP3    H112369   4.074   1.003   5.052
 4135TIP3    H212370   4.014   0.869   5.015
 4136TIP3   OH212371   2.804   4.623   5.846
 4136TIP3    H112372   2.715   4.616   5.813
 4136TIP3    H212373   2.815   4.548   5.903
 4137TIP3   OH212374   2.425   0.929   2.489
 4137TIP3    H112375   2.396   0.839   2.503
 4137TIP3    H212376   2.466   0.928   2.402
 4138TIP3   OH212377   4.301   1.145   1.791
 4138TIP3    H112378   4.250   1.081   1.742
 4138TIP3    H212379   4.386   1.149   1.748
 4139TIP3   OH212380   2.790   3.818   4.765
 4139TIP3    H112381   2.855   3.751   4.788
 4139TIP3    H212382   2.719   3.769   4.724
 4140TIP3   OH212383   2.574   2.012   2.482
 4140TIP3    H112384   2.490   2.057   2.478
 4140TIP3    H212385   2.634   2.075   2.522
 4141TIP3   OH212386   6.816   1.795   0.526
 4141TIP3    H112387   6.879   1.840   0.581
 4141TIP3    H212388   6.745   1.858   0.514
 4142TIP3   OH212389   2.358   2.497   2.332
 4142TIP3    H112390   2.366   2.401   2.337
 4142TIP3    H212391   2.433   2.524   2.278
 4143TIP3   OH212392   3.945   4.172   2.760
 4143TIP3    H112393   3.953   4.267   2.768
 4143TIP3    H212394   3.853   4.157   2.742
 4144TIP3   OH212395   6.811   6.712   5.530
 4144TIP3    H112396   6.904   6.728   5.517
 4144TIP3    H212397   6.800   6.619   5.510
 4145TIP3   OH212398   4.302   0.031   0.841
 4145TIP3    H112399   4.243   0.059   0.910
 4145TIP3    H212400   4.261  -0.048   0.804
 4146TIP3   OH212401   2.775   4.587   0.967
 4146TIP3    H112402   2.792   4.662   1.024
 4146TIP3    H212403   2.725   4.624   0.894
 4147TIP3   OH212404   4.174   1.027   1.995
 4147TIP3    H112405   4.227   1.095   1.952
 4147TIP3    H212406   4.088   1.068   2.007
 4148TIP3   OH212407   0.655   5.680   3.859
 4148TIP3    H112408   0.658   5.584   3.857
 4148TIP3    H212409   0.567   5.700   3.891
 4149TIP3   OH212410   4.189   2.402   3.687
 4149TIP3    H112411   4.129   2.365   3.752
 4149TIP3    H212412   4.191   2.496   3.706
 4150TIP3   OH212413   5.305   0.784   1.518
 4150TIP3    H112414   5.222   0.829   1.537
 4150TIP3    H212415   5.326   0.808   1.428
 4151TIP3   OH212416   7.143   2.469   2.490
 4151TIP3    H112417   7.232   2.462   2.455
 4151TIP3    H212418   7.149   2.532   2.561
 4152TIP3   OH212419   0.304   6.471   5.372
 4152TIP3    H112420   0.302   6.390   5.423
 4152TIP3    H212421   0.213   6.502   5.375
 4153TIP3   OH212422   2.156   2.839   4.177
 4153TIP3    H112423   2.090   2.906   4.160
 4153TIP3    H212424   2.147   2.777   4.104
 4154TIP3   OH212425   4.487   5.698   1.993
 4154TIP3    H112426   4.410   5.678   1.941
 4154TIP3    H212427   4.539   5.756   1.939
 4155TIP3   OH212428   0.575   5.156   5.786
 4155TIP3    H112429   0.609   5.116   5.706
 4155TIP3    H212430   0.492   5.195   5.759
 4156TIP3   OH212431   4.711   1.954   3.752
 4156TIP3    H112432   4.741   2.030   3.801
 4156TIP3    H212433   4.790   1.919   3.711
 4157TIP3   OH212434   3.019   0.823   1.360
 4157TIP3    H112435   2.929   0.853   1.374
 4157TIP3    H212436   3.058   0.822   1.447
 4158TIP3   OH212437   1.117   4.124   0.034
 4158TIP3    H112438   1.208   4.097   0.021
 4158TIP3    H212439   1.097   4.097   0.123
 4159TIP3   OH212440   6.793   2.123   0.723
 4159TIP3    H112441   6.833   2.044   0.758
 4159TIP3    H212442   6.762   2.098   0.636
 4160TIP3   OH212443   3.491   2.884   0.248
 4160TIP3    H112444   3.483   2.972   0.210
 4160TIP3    H212445   3.527   2.831   0.177
 4161TIP3   OH212446   5.014   4.299   1.434
 4161TIP3    H112447   4.947   4.313   1.500
 4161TIP3    H212448   5.095   4.286   1.483
 4162TIP3   OH212449   3.249   0.435   4.518
 4162TIP3    H112450   3.327   0.477   4.554
 4162TIP3    H212451   3.214   0.384   4.592
 4163TIP3   OH212452   6.301   6.618   1.156
 4163TIP3    H112453   6.299   6.581   1.068
 4163TIP3    H212454   6.360   6.560   1.205
 4164TIP3   OH212455   6.251   0.977   4.462
 4164TIP3    H112456   6.175   1.034   4.474
 4164TIP3    H212457   6.277   0.952   4.551
 4165TIP3   OH212458   5.784   2.495   0.999
 4165TIP3    H112459   5.838   2.456   0.931
 4165TIP3    H212460   5.801   2.442   1.077
 4166TIP3   OH212461   2.043   0.775   0.457
 4166TIP3    H112462   2.041   0.871   0.457
 4166TIP3    H212463   2.065   0.751   0.546
 4167TIP3   OH212464   0.454   0.897   1.658
 4167TIP3    H112465   0.543   0.860   1.660
 4167TIP3    H212466   0.397   0.824   1.682
 4168TIP3   OH212467   0.548   3.245   3.884
 4168TIP3    H112468   0.507   3.161   3.861
 4168TIP3    H212469   0.488   3.311   3.851
 4169TIP3   OH212470   6.225   0.383   2.890
 4169TIP3    H112471   6.220   0.450   2.957
 4169TIP3    H212472   6.296   0.411   2.833
 4170TIP3   OH212473   3.385   1.622   4.088
 4170TIP3    H112474   3.442   1.682   4.137
 4170TIP3    H212475   3.444   1.554   4.056
 4171TIP3   OH212476   2.057   2.102   1.676
 4171TIP3    H112477   2.044   2.196   1.666
 4171TIP3    H212478   1.989   2.063   1.621
 4172TIP3   OH212479   0.283   5.720   5.558
 4172TIP3    H112480   0.338   5.769   5.497
 4172TIP3    H212481   0.235   5.658   5.502
 4173TIP3   OH212482   0.650   1.730   4.783
 4173TIP3    H112483   0.707   1.711   4.708
 4173TIP3    H212484   0.565   1.749   4.744
 4174TIP3   OH212485   0.131   1.240   0.127
 4174TIP3    H112486   0.086   1.280   0.202
 4174TIP3    H212487   0.157   1.314   0.072
 4175TIP3   OH212488   2.719   4.817   4.754
 4175TIP3    H112489   2.660   4.865   4.696
 4175TIP3    H212490   2.793   4.793   4.699
 4176TIP3   OH212491   2.311   0.502   0.555
 4176TIP3    H112492   2.350   0.418   0.578
 4176TIP3    H212493   2.386   0.559   0.539
 4177TIP3   OH212494   0.859   1.069   4.295
 4177TIP3    H112495   0.863   1.008   4.222
 4177TIP3    H212496   0.918   1.031   4.361
 4178TIP3   OH212497   1.525   4.799   4.280
 4178TIP3    H112498   1.432   4.810   4.260
 4178TIP3    H212499   1.569   4.868   4.231
 4179TIP3   OH212500   3.216   4.910   3.300
 4179TIP3    H112501   3.197   4.816   3.293
 4179TIP3    H212502   3.309   4.913   3.325
 4180TIP3   OH212503   5.754   1.170   5.416
 4180TIP3    H112504   5.705   1.154   5.497
 4180TIP3    H212505   5.733   1.261   5.394
 4181TIP3   OH212506   3.139   3.379   4.610
 4181TIP3    H112507   3.136   3.459   4.663
 4181TIP3    H212508   3.178   3.407   4.527
 4182TIP3   OH212509   3.157   3.380   5.713
 4182TIP3    H112510   3.184   3.307   5.656
 4182TIP3    H212511   3.066   3.360   5.735
 4183TIP3   OH212512   4.208   4.907   2.260
 4183TIP3    H112513   4.120   4.938   2.241
 4183TIP3    H212514   4.231   4.949   2.343
 4184TIP3   OH212515   2.016   3.206   5.798
 4184TIP3    H112516   2.083   3.169   5.741
 4184TIP3    H212517   2.056   3.206   5.885
 4185TIP3   OH212518   6.619   5.000   2.697
 4185TIP3    H112519   6.637   4.914   2.658
 4185TIP3    H212520   6.694   5.054   2.670
 4186TIP3   OH212521   4.343   6.598   4.700
 4186TIP3    H112522   4.270   6.562   4.751
 4186TIP3    H212523   4.331   6.693   4.706
 4187TIP3   OH212524   2.915   2.581   1.841
 4187TIP3    H112525   2.889   2.578   1.933
 4187TIP3    H212526   2.915   2.675   1.820
 4188TIP3   OH212527   4.969   5.545   2.754
 4188TIP3    H112528   4.957   5.610   2.685
 4188TIP3    H212529   5.029   5.586   2.816
 4189TIP3   OH212530   5.708   1.417   5.329
 4189TIP3    H112531   5.697   1.450   5.418
 4189TIP3    H212532   5.776   1.472   5.291
 4190TIP3   OH212533   5.485   0.387   0.879
 4190TIP3    H112534   5.491   0.403   0.784
 4190TIP3    H212535   5.413   0.442   0.908
 4191TIP3   OH212536   0.069   0.950   5.057
 4191TIP3    H112537  -0.008   0.975   5.007
 4191TIP3    H212538   0.125   0.905   4.994
 4192TIP3   OH212539   4.450   4.266   0.998
 4192TIP3    H112540   4.530   4.237   1.042
 4192TIP3    H212541   4.431   4.351   1.038
 4193TIP3   OH212542   3.662   2.616   3.967
 4193TIP3    H112543   3.623   2.529   3.963
 4193TIP3    H212544   3.609   2.669   3.907
 4194TIP3   OH212545   6.483   0.189   3.430
 4194TIP3    H112546   6.499   0.204   3.523
 4194TIP3    H212547   6.412   0.125   3.428
 4195TIP3   OH212548   7.147   5.843   4.389
 4195TIP3    H112549   7.085   5.890   4.444
 4195TIP3    H212550   7.142   5.752   4.421
 4196TIP3   OH212551   5.928   2.460   3.515
 4196TIP3    H112552   5.983   2.424   3.584
 4196TIP3    H212553   5.933   2.396   3.444
 4197TIP3   OH212554   1.259   0.402   4.863
 4197TIP3    H112555   1.312   0.378   4.939
 4197TIP3    H212556   1.323   0.412   4.792
 4198TIP3   OH212557   4.486   6.227   3.556
 4198TIP3    H112558   4.441   6.271   3.628
 4198TIP3    H212559   4.418   6.210   3.492
 4199TIP3   OH212560   5.041   6.329   2.338
 4199TIP3    H112561   5.021   6.250   2.287
 4199TIP3    H212562   4.961   6.381   2.335
 4200TIP3   OH212563   7.026   2.371   2.208
 4200TIP3    H112564   7.034   2.278   2.232
 4200TIP3    H212565   7.044   2.418   2.290
 4201TIP3   OH212566   0.195   0.446   0.718
 4201TIP3    H112567   0.184   0.359   0.757
 4201TIP3    H212568   0.169   0.435   0.627
 4202TIP3   OH212569   3.725   6.078   5.251
 4202TIP3    H112570   3.673   6.010   5.293
 4202TIP3    H212571   3.815   6.061   5.280
 4203TIP3   OH212572   1.552   5.425   5.449
 4203TIP3    H112573   1.635   5.392   5.485
 4203TIP3    H212574   1.487   5.361   5.476
 4204TIP3   OH212575   5.236   0.227   1.545
 4204TIP3    H112576   5.277   0.306   1.511
 4204TIP3    H212577   5.151   0.222   1.500
 4205TIP3   OH212578   5.090   5.190   0.993
 4205TIP3    H112579   5.141   5.112   1.019
 4205TIP3    H212580   5.048   5.219   1.074
 4206TIP3   OH212581   0.670   1.224   2.360
 4206TIP3    H112582   0.596   1.224   2.299
 4206TIP3    H212583   0.631   1.243   2.445
 4207TIP3   OH212584   5.125   2.444   2.542
 4207TIP3    H112585   5.208   2.449   2.494
 4207TIP3    H212586   5.084   2.364   2.509
 4208TIP3   OH212587   4.847   2.193   3.540
 4208TIP3    H112588   4.766   2.204   3.588
 4208TIP3    H212589   4.829   2.123   3.477
 4209TIP3   OH212590   2.122   5.701   3.751
 4209TIP3    H112591   2.165   5.616   3.763
 4209TIP3    H212592   2.190   5.758   3.714
 4210TIP3   OH212593   6.023   0.644   4.868
 4210TIP3    H112594   5.968   0.687   4.934
 4210TIP3    H212595   6.054   0.716   4.813
 4211TIP3   OH212596   5.095   2.867   2.664
 4211TIP3    H112597   5.058   2.796   2.716
 4211TIP3    H212598   5.142   2.922   2.727
 4212TIP3   OH212599   6.681   5.660   0.013
 4212TIP3    H112600   6.635   5.724   0.068
 4212TIP3    H212601   6.657   5.685  -0.077
 4213TIP3   OH212602   4.536   2.168   5.835
 4213TIP3    H112603   4.527   2.216   5.753
 4213TIP3    H212604   4.458   2.190   5.885
 4214TIP3   OH212605   7.144   2.320   0.298
 4214TIP3    H112606   7.183   2.262   0.233
 4214TIP3    H212607   7.095   2.262   0.356
 4215TIP3   OH212608   3.255   2.065   3.829
 4215TIP3    H112609   3.177   2.011   3.829
 4215TIP3    H212610   3.306   2.033   3.754
 4216TIP3   OH212611   0.983   3.685   0.337
 4216TIP3    H112612   1.000   3.732   0.419
 4216TIP3    H212613   0.890   3.702   0.319
 4217TIP3   OH212614   1.802   3.398   0.214
 4217TIP3    H112615   1.894   3.382   0.233
 4217TIP3    H212616   1.788   3.489   0.239
 4218TIP3   OH212617   3.908   3.631   4.594
 4218TIP3    H112618   3.926   3.562   4.657
 4218TIP3    H212619   3.983   3.628   4.534
 4219TIP3   OH212620   4.244   2.102   4.272
 4219TIP3    H112621   4.309   2.090   4.342
 4219TIP3    H212622   4.160   2.109   4.317
 4220TIP3   OH212623   6.442   2.019   5.853
 4220TIP3    H112624   6.403   1.935   5.879
 4220TIP3    H212625   6.498   1.996   5.778
 4221TIP3   OH212626   4.439   5.773   4.342
 4221TIP3    H112627   4.490   5.821   4.408
 4221TIP3    H212628   4.505   5.731   4.287
 4222TIP3   OH212629   3.173   5.017   0.486
 4222TIP3    H112630   3.124   5.012   0.404
 4222TIP3    H212631   3.264   5.028   0.459
 4223TIP3   OH212632   6.114   2.005   4.485
 4223TIP3    H112633   6.148   2.006   4.575
 4223TIP3    H212634   6.154   2.081   4.443
 4224TIP3   OH212635   6.591   3.644   1.940
 4224TIP3    H112636   6.608   3.549   1.933
 4224TIP3    H212637   6.549   3.654   2.025
 4225TIP3   OH212638   3.491   0.713   5.757
 4225TIP3    H112639   3.575   0.739   5.797
 4225TIP3    H212640   3.428   0.775   5.792
 4226TIP3   OH212641   2.570   2.621   4.996
 4226TIP3    H112642   2.600   2.703   5.035
 4226TIP3    H212643   2.484   2.606   5.036
 4227TIP3   OH212644   5.047   4.463   5.714
 4227TIP3    H112645   5.140   4.449   5.731
 4227TIP3    H212646   5.043   4.486   5.621
 4228TIP3   OH212647   5.394   3.352   5.795
 4228TIP3    H112648   5.312   3.336   5.843
 4228TIP3    H212649   5.398   3.282   5.730
 4229TIP3   OH212650   1.612   0.967   5.404
 4229TIP3    H112651   1.669   0.901   5.365
 4229TIP3    H212652   1.614   0.950   5.498
 4230TIP3   OH212653   4.571   4.584   5.220
 4230TIP3    H112654   4.633   4.549   5.283
 4230TIP3    H212655   4.604   4.555   5.135
 4231TIP3   OH212656   4.021   5.420   5.439
 4231TIP3    H112657   3.955   5.354   5.416
 4231TIP3    H212658   4.074   5.429   5.360
 4232TIP3   OH212659   0.360   3.951   0.625
 4232TIP3    H112660   0.441   3.979   0.583
 4232TIP3    H212661   0.369   3.856   0.635
 4233TIP3   OH212662   0.378   4.519   3.638
 4233TIP3    H112663   0.359   4.440   3.588
 4233TIP3    H212664   0.461   4.550   3.604
 4234TIP3   OH212665   2.553   0.035   3.087
 4234TIP3    H112666   2.532   0.107   3.146
 4234TIP3    H212667   2.484   0.036   3.021
 4235TIP3   OH212668   0.400   1.378   1.403
 4235TIP3    H112669   0.451   1.438   1.457
 4235TIP3    H212670   0.410   1.293   1.447
 4236TIP3   OH212671   5.980   5.475   3.550
 4236TIP3    H112672   5.956   5.440   3.464
 4236TIP3    H212673   5.930   5.421   3.613
 4237TIP3   OH212674   4.094   6.570   0.125
 4237TIP3    H112675   4.096   6.530   0.212
 4237TIP3    H212676   4.151   6.646   0.132
 4238TIP3   OH212677   4.913   5.713   1.146
 4238TIP3    H112678   4.926   5.800   1.109
 4238TIP3    H212679   4.972   5.710   1.222
 4239TIP3   OH212680   5.033   0.102   4.634
 4239TIP3    H112681   5.074   0.034   4.687
 4239TIP3    H212682   4.951   0.063   4.604
 4240TIP3   OH212683   3.636   6.705   2.854
 4240TIP3    H112684   3.682   6.787   2.872
 4240TIP3    H212685   3.544   6.729   2.851
 4241TIP3   OH212686   4.809   4.660   5.449
 4241TIP3    H112687   4.850   4.601   5.386
 4241TIP3    H212688   4.860   4.740   5.444
 4242TIP3   OH212689   0.978   1.561   0.079
 4242TIP3    H112690   0.958   1.547   0.172
 4242TIP3    H212691   1.038   1.636   0.078
 4243TIP3   OH212692   2.702   1.095   0.662
 4243TIP3    H112693   2.669   1.179   0.695
 4243TIP3    H212694   2.792   1.090   0.695
 4244TIP3   OH212695   6.192   3.978   1.450
 4244TIP3    H112696   6.156   3.918   1.515
 4244TIP3    H212697   6.255   3.925   1.402
 4245TIP3   OH212698   0.860   2.510   2.105
 4245TIP3    H112699   0.924   2.449   2.141
 4245TIP3    H212700   0.912   2.580   2.066
 4246TIP3   OH212701   2.516   3.127   1.643
 4246TIP3    H112702   2.517   3.035   1.614
 4246TIP3    H212703   2.577   3.130   1.716
 4247TIP3   OH212704   2.578   4.590   3.291
 4247TIP3    H112705   2.566   4.611   3.384
 4247TIP3    H212706   2.613   4.501   3.290
 4248TIP3   OH212707   4.880   3.188   5.851
 4248TIP3    H112708   4.863   3.252   5.921
 4248TIP3    H212709   4.799   3.138   5.843
 4249TIP3   OH212710   2.049   6.435   0.344
 4249TIP3    H112711   1.990   6.500   0.382
 4249TIP3    H212712   2.102   6.406   0.418
 4250TIP3   OH212713   0.137   5.201   3.295
 4250TIP3    H112714   0.221   5.185   3.253
 4250TIP3    H212715   0.100   5.114   3.311
 4251TIP3   OH212716   1.220   0.717   0.629
 4251TIP3    H112717   1.147   0.777   0.644
 4251TIP3    H212718   1.216   0.656   0.703
 4252TIP3   OH212719   3.431   5.017   1.682
 4252TIP3    H112720   3.359   4.975   1.728
 4252TIP3    H212721   3.391   5.086   1.631
 4253TIP3   OH212722   0.087   1.022   4.647
 4253TIP3    H112723   0.108   0.945   4.699
 4253TIP3    H212724   0.068   0.988   4.560
 4254TIP3   OH212725   2.557   2.773   2.091
 4254TIP3    H112726   2.501   2.826   2.035
 4254TIP3    H212727   2.623   2.835   2.124
 4255TIP3   OH212728   4.978   3.450   5.152
 4255TIP3    H112729   4.882   3.449   5.154
 4255TIP3    H212730   5.003   3.516   5.217
 4256TIP3   OH212731   2.930   3.183   1.407
 4256TIP3    H112732   2.839   3.204   1.385
 4256TIP3    H212733   2.980   3.257   1.372
 4257TIP3   OH212734   0.703   0.192   4.377
 4257TIP3    H112735   0.695   0.279   4.415
 4257TIP3    H212736   0.739   0.207   4.290
 4258TIP3   OH212737   6.087   3.891   1.691
 4258TIP3    H112738   5.992   3.887   1.699
 4258TIP3    H212739   6.114   3.799   1.681
 4259TIP3   OH212740   2.529   5.284   2.236
 4259TIP3    H112741   2.611   5.296   2.284
 4259TIP3    H212742   2.534   5.346   2.164
 4260TIP3   OH212743   6.522   2.258   5.092
 4260TIP3    H112744   6.492   2.182   5.042
 4260TIP3    H212745   6.559   2.317   5.027
 4261TIP3   OH212746   4.450   4.926   3.425
 4261TIP3    H112747   4.517   4.864   3.395
 4261TIP3    H212748   4.370   4.898   3.380
 4262TIP3   OH212749   2.790   5.349   1.184
 4262TIP3    H112750   2.739   5.271   1.207
 4262TIP3    H212751   2.727   5.408   1.143
 4263TIP3   OH212752   2.642   0.522   4.510
 4263TIP3    H112753   2.593   0.604   4.520
 4263TIP3    H212754   2.592   0.472   4.445
 4264TIP3   OH212755   5.960   0.962   3.407
 4264TIP3    H112756   6.015   0.901   3.457
 4264TIP3    H212757   5.988   0.950   3.316
 4265TIP3   OH212758   3.262   3.465   5.333
 4265TIP3    H112759   3.196   3.425   5.276
 4265TIP3    H212760   3.279   3.398   5.400
 4266TIP3   OH212761   3.825   5.576   0.004
 4266TIP3    H112762   3.777   5.649  -0.034
 4266TIP3    H212763   3.769   5.545   0.076
 4267TIP3   OH212764   0.215   0.069   5.807
 4267TIP3    H112765   0.234   0.163   5.810
 4267TIP3    H212766   0.301   0.028   5.809
 4268TIP3   OH212767   1.603   2.648   1.927
 4268TIP3    H112768   1.667   2.642   1.857
 4268TIP3    H212769   1.542   2.717   1.898
 4269TIP3   OH212770   4.778   4.354   2.007
 4269TIP3    H112771   4.732   4.414   1.948
 4269TIP3    H212772   4.804   4.409   2.081
 4270TIP3   OH212773   4.226   3.687   5.379
 4270TIP3    H112774   4.187   3.665   5.295
 4270TIP3    H212775   4.309   3.730   5.357
 4271TIP3   OH212776   1.826   4.208   4.130
 4271TIP3    H112777   1.900   4.255   4.169
 4271TIP3    H212778   1.850   4.116   4.134
 4272TIP3   OH212779   5.548   1.230   2.062
 4272TIP3    H112780   5.531   1.136   2.074
 4272TIP3    H212781   5.642   1.236   2.049
 4273TIP3   OH212782   6.288   3.691   1.838
 4273TIP3    H112783   6.217   3.708   1.900
 4273TIP3    H212784   6.342   3.624   1.880
 4274TIP3   OH212785   4.900   0.229   4.866
 4274TIP3    H112786   4.913   0.275   4.783
 4274TIP3    H212787   4.928   0.139   4.849
 4275TIP3   OH212788   0.420   5.307   3.321
 4275TIP3    H112789   0.405   5.401   3.324
 4275TIP3    H212790   0.503   5.297   3.274
 4276TIP3   OH212791   2.497   3.695   5.771
 4276TIP3    H112792   2.577   3.671   5.817
 4276TIP3    H212793   2.510   3.787   5.747
 4277TIP3   OH212794   2.452   0.716   4.806
 4277TIP3    H112795   2.489   0.704   4.719
 4277TIP3    H212796   2.524   0.694   4.866
 4278TIP3   OH212797   2.783   6.491   0.681
 4278TIP3    H112798   2.690   6.483   0.704
 4278TIP3    H212799   2.824   6.525   0.761
 4279TIP3   OH212800   6.365   6.038   3.850
 4279TIP3    H112801   6.320   5.992   3.779
 4279TIP3    H212802   6.438   5.982   3.872
 4280TIP3   OH212803   5.322   2.187   3.039
 4280TIP3    H112804   5.284   2.128   3.104
 4280TIP3    H212805   5.265   2.177   2.962
 4281TIP3   OH212806   4.805   1.965   0.772
 4281TIP3    H112807   4.897   1.978   0.748
 4281TIP3    H212808   4.759   2.036   0.727
 4282TIP3   OH212809   0.239   5.646   4.353
 4282TIP3    H112810   0.293   5.594   4.413
 4282TIP3    H212811   0.159   5.594   4.342
 4283TIP3   OH212812   4.959   0.681   4.544
 4283TIP3    H112813   5.040   0.635   4.566
 4283TIP3    H212814   4.973   0.712   4.454
 4284TIP3   OH212815   5.656   4.339   2.326
 4284TIP3    H112816   5.722   4.280   2.290
 4284TIP3    H212817   5.629   4.393   2.251
 4285TIP3   OH212818   3.610   6.559   1.602
 4285TIP3    H112819   3.538   6.557   1.539
 4285TIP3    H212820   3.627   6.652   1.615
 4286TIP3   OH212821   1.003   0.681   2.139
 4286TIP3    H112822   0.992   0.654   2.048
 4286TIP3    H212823   1.078   0.740   2.138
 4287TIP3   OH212824   3.382   1.154   1.792
 4287TIP3    H112825   3.408   1.078   1.844
 4287TIP3    H212826   3.289   1.141   1.775
 4288TIP3   OH212827   0.625   6.312   2.475
 4288TIP3    H112828   0.681   6.260   2.533
 4288TIP3    H212829   0.546   6.259   2.466
 4289TIP3   OH212830   3.130   2.422   2.480
 4289TIP3    H112831   3.163   2.419   2.569
 4289TIP3    H212832   3.108   2.514   2.465
 4290TIP3   OH212833   4.679   0.733   2.734
 4290TIP3    H112834   4.620   0.744   2.809
 4290TIP3    H212835   4.620   0.732   2.658
 4291TIP3   OH212836   4.821   3.420   4.421
 4291TIP3    H112837   4.912   3.400   4.444
 4291TIP3    H212838   4.776   3.336   4.428
 4292TIP3   OH212839   0.650   5.434   1.295
 4292TIP3    H112840   0.728   5.400   1.338
 4292TIP3    H212841   0.672   5.526   1.275
 4293TIP3   OH212842   4.134   3.508   3.035
 4293TIP3    H112843   4.123   3.577   2.970
 4293TIP3    H212844   4.045   3.486   3.062
 4294TIP3   OH212845   4.082   0.822   1.349
 4294TIP3    H112846   4.121   0.909   1.356
 4294TIP3    H212847   3.994   0.837   1.316
 4295TIP3   OH212848   3.810   2.009   1.969
 4295TIP3    H112849   3.858   2.087   1.942
 4295TIP3    H212850   3.718   2.031   1.954
 4296TIP3   OH212851   4.574   1.138   0.338
 4296TIP3    H112852   4.501   1.093   0.295
 4296TIP3    H212853   4.636   1.156   0.268
 4297TIP3   OH212854   1.899   1.276   3.147
 4297TIP3    H112855   1.967   1.219   3.183
 4297TIP3    H212856   1.817   1.230   3.166
 4298TIP3   OH212857   0.233   3.036   2.396
 4298TIP3    H112858   0.204   3.125   2.375
 4298TIP3    H212859   0.152   2.988   2.411
 4299TIP3   OH212860   2.113   0.078   1.754
 4299TIP3    H112861   2.195   0.067   1.801
 4299TIP3    H212862   2.046   0.051   1.817
 4300TIP3   OH212863   1.969   2.173   4.185
 4300TIP3    H112864   1.938   2.084   4.168
 4300TIP3    H212865   2.055   2.178   4.144
 4301TIP3   OH212866   7.148   0.774   3.431
 4301TIP3    H112867   7.181   0.703   3.377
 4301TIP3    H212868   7.090   0.824   3.374
 4302TIP3   OH212869   6.245   2.236   4.794
 4302TIP3    H112870   6.210   2.164   4.846
 4302TIP3    H212871   6.339   2.236   4.812
 4303TIP3   OH212872   5.426   6.755   0.910
 4303TIP3    H112873   5.407   6.814   0.836
 4303TIP3    H212874   5.485   6.806   0.966
 4304TIP3   OH212875   3.457   4.887   5.285
 4304TIP3    H112876   3.432   4.803   5.324
 4304TIP3    H212877   3.374   4.931   5.267
 4305TIP3   OH212878   0.116   4.520   0.743
 4305TIP3    H112879   0.040   4.565   0.782
 4305TIP3    H212880   0.131   4.567   0.661
 4306TIP3   OH212881   1.797   1.532   2.096
 4306TIP3    H112882   1.853   1.477   2.150
 4306TIP3    H212883   1.859   1.584   2.043
 4307TIP3   OH212884   0.582   0.870   4.333
 4307TIP3    H112885   0.499   0.846   4.374
 4307TIP3    H212886   0.636   0.900   4.405
 4308TIP3   OH212887   0.816   2.645   3.868
 4308TIP3    H112888   0.750   2.650   3.938
 4308TIP3    H212889   0.766   2.625   3.789
 4309TIP3   OH212890   0.225   0.283   3.467
 4309TIP3    H112891   0.287   0.217   3.496
 4309TIP3    H212892   0.139   0.245   3.484
 4310TIP3   OH212893   4.178   5.126   4.660
 4310TIP3    H112894   4.158   5.079   4.741
 4310TIP3    H212895   4.170   5.060   4.591
 4311TIP3   OH212896   5.665   2.722   0.215
 4311TIP3    H112897   5.588   2.765   0.179
 4311TIP3    H212898   5.708   2.790   0.267
 4312TIP3   OH212899   4.207   4.010   5.721
 4312TIP3    H112900   4.216   4.105   5.712
 4312TIP3    H212901   4.139   3.986   5.659
 4313TIP3   OH212902   6.373   1.635   1.573
 4313TIP3    H112903   6.331   1.685   1.504
 4313TIP3    H212904   6.328   1.550   1.573
 4314TIP3   OH212905   5.578   1.528   4.728
 4314TIP3    H112906   5.608   1.493   4.811
 4314TIP3    H212907   5.512   1.593   4.751
 4315TIP3   OH212908   6.622   4.004   2.246
 4315TIP3    H112909   6.535   3.996   2.207
 4315TIP3    H212910   6.679   4.024   2.172
 4316TIP3   OH212911   5.552   4.605   3.203
 4316TIP3    H112912   5.463   4.618   3.238
 4316TIP3    H212913   5.572   4.513   3.223
 4317TIP3   OH212914   2.629   5.244   0.949
 4317TIP3    H112915   2.617   5.324   1.000
 4317TIP3    H212916   2.540   5.211   0.935
 4318TIP3   OH212917   0.261   6.054   5.374
 4318TIP3    H112918   0.197   5.984   5.381
 4318TIP3    H212919   0.254   6.102   5.456
 4319TIP3   OH212920   4.893   4.664   1.576
 4319TIP3    H112921   4.908   4.644   1.668
 4319TIP3    H212922   4.817   4.610   1.552
 4320TIP3   OH212923   2.363   1.505   2.986
 4320TIP3    H112924   2.407   1.491   3.070
 4320TIP3    H212925   2.378   1.423   2.937
 4321TIP3   OH212926   3.956   1.291   0.517
 4321TIP3    H112927   4.035   1.318   0.469
 4321TIP3    H212928   3.903   1.245   0.452
 4322TIP3   OH212929   7.195   1.513   2.752
 4322TIP3    H112930   7.111   1.557   2.739
 4322TIP3    H212931   7.194   1.483   2.843
 4323TIP3   OH212932   6.390   0.898   2.536
 4323TIP3    H112933   6.357   0.934   2.453
 4323TIP3    H212934   6.377   0.968   2.600
 4324TIP3   OH212935   7.048   5.056   5.696
 4324TIP3    H112936   7.020   5.105   5.773
 4324TIP3    H212937   6.968   5.017   5.662
 4325TIP3   OH212938   2.990   5.652   0.366
 4325TIP3    H112939   2.934   5.714   0.413
 4325TIP3    H212940   2.929   5.598   0.315
 4326TIP3   OH212941   5.014   3.057   4.475
 4326TIP3    H112942   5.032   3.098   4.390
 4326TIP3    H212943   5.089   3.082   4.529
 4327TIP3   OH212944   4.150   5.615   1.738
 4327TIP3    H112945   4.204   5.616   1.659
 4327TIP3    H212946   4.177   5.536   1.785
 4328TIP3   OH212947   0.273   1.097   5.150
 4328TIP3    H112948   0.192   1.051   5.129
 4328TIP3    H212949   0.288   1.079   5.243
 4329TIP3   OH212950   1.459   6.601   3.047
 4329TIP3    H112951   1.390   6.611   3.112
 4329TIP3    H212952   1.475   6.507   3.044
 4330TIP3   OH212953   4.754   0.510   1.676
 4330TIP3    H112954   4.819   0.539   1.740
 4330TIP3    H212955   4.689   0.580   1.673
 4331TIP3   OH212956   5.857   3.372   0.781
 4331TIP3    H112957   5.764   3.351   0.773
 4331TIP3    H212958   5.898   3.291   0.810
 4332TIP3   OH212959   1.616   6.652   4.988
 4332TIP3    H112960   1.668   6.636   5.067
 4332TIP3    H212961   1.527   6.626   5.012
 4333TIP3   OH212962   4.452   4.297   4.423
 4333TIP3    H112963   4.449   4.372   4.363
 4333TIP3    H212964   4.478   4.335   4.507
 4334TIP3   OH212965   0.467   0.094   5.484
 4334TIP3    H112966   0.545   0.114   5.431
 4334TIP3    H212967   0.425   0.022   5.438
 4335TIP3   OH212968   4.483   5.714   2.710
 4335TIP3    H112969   4.429   5.646   2.751
 4335TIP3    H212970   4.554   5.728   2.773
 4336TIP3   OH212971   5.433   2.576   0.609
 4336TIP3    H112972   5.433   2.561   0.514
 4336TIP3    H212973   5.353   2.626   0.624
 4337TIP3   OH212974   0.201   5.827   2.869
 4337TIP3    H112975   0.267   5.783   2.923
 4337TIP3    H212976   0.130   5.763   2.862
 4338TIP3   OH212977   7.226   4.600   2.797
 4338TIP3    H112978   7.189   4.688   2.798
 4338TIP3    H212979   7.220   4.570   2.887
 4339TIP3   OH212980   3.354   0.110   0.293
 4339TIP3    H112981   3.339   0.147   0.380
 4339TIP3    H212982   3.325   0.177   0.232
 4340TIP3   OH212983   4.814   4.448   0.980
 4340TIP3    H112984   4.800   4.354   0.971
 4340TIP3    H212985   4.876   4.456   1.052
 4341TIP3   OH212986   3.773   1.197   0.925
 4341TIP3    H112987   3.684   1.197   0.962
 4341TIP3    H212988   3.766   1.251   0.847
 4342TIP3   OH212989   2.828   2.864   2.785
 4342TIP3    H112990   2.858   2.774   2.777
 4342TIP3    H212991   2.859   2.907   2.705
 4343TIP3   OH212992   6.085   1.374   5.471
 4343TIP3    H112993   6.154   1.439   5.457
 4343TIP3    H212994   6.010   1.424   5.503
 4344TIP3   OH212995   5.795   6.048   3.522
 4344TIP3    H112996   5.713   6.044   3.473
 4344TIP3    H212997   5.815   6.142   3.527
 4345TIP3   OH212998   5.938   6.652   0.573
 4345TIP3    H112999   5.856   6.675   0.616
 4345TIP3    H213000   5.998   6.722   0.597
 4346TIP3   OH213001   3.541   2.790   3.749
 4346TIP3    H113002   3.478   2.807   3.679
 4346TIP3    H213003   3.565   2.877   3.781
 4347TIP3   OH213004   3.383   4.822   0.120
 4347TIP3    H113005   3.386   4.780   0.206
 4347TIP3    H213006   3.316   4.773   0.073
 4348TIP3   OH213007   2.943   0.251   4.934
 4348TIP3    H113008   3.017   0.311   4.930
 4348TIP3    H213009   2.931   0.220   4.844
 4349TIP3   OH213010   5.662   5.428   2.715
 4349TIP3    H113011   5.712   5.422   2.634
 4349TIP3    H213012   5.583   5.375   2.699
 4350TIP3   OH213013   3.043   2.239   4.760
 4350TIP3    H113014   2.950   2.250   4.741
 4350TIP3    H213015   3.064   2.150   4.732
 4351TIP3   OH213016   4.368   6.134   5.449
 4351TIP3    H113017   4.324   6.218   5.454
 4351TIP3    H213018   4.324   6.088   5.378
 4352TIP3   OH213019   2.868   2.744   0.855
 4352TIP3    H113020   2.876   2.766   0.947
 4352TIP3    H213021   2.809   2.668   0.854
 4353TIP3   OH213022   7.015   5.680   0.464
 4353TIP3    H113023   6.992   5.722   0.381
 4353TIP3    H213024   7.109   5.693   0.472
 4354TIP3   OH213025   3.805   6.545   3.360
 4354TIP3    H113026   3.760   6.579   3.282
 4354TIP3    H213027   3.765   6.459   3.375
 4355TIP3   OH213028   4.959   3.380   3.962
 4355TIP3    H113029   5.040   3.428   3.977
 4355TIP3    H213030   4.917   3.425   3.889
 4356TIP3   OH213031   3.149   0.488   2.470
 4356TIP3    H113032   3.205   0.420   2.433
 4356TIP3    H213033   3.208   0.562   2.486
 4357TIP3   OH213034   2.768   1.985   5.356
 4357TIP3    H113035   2.847   2.020   5.396
 4357TIP3    H213036   2.782   1.891   5.353
 4358TIP3   OH213037   2.500   6.535   2.500
 4358TIP3    H113038   2.517   6.500   2.588
 4358TIP3    H213039   2.405   6.549   2.498
 4359TIP3   OH213040   3.885   0.391   3.138
 4359TIP3    H113041   3.826   0.318   3.118
 4359TIP3    H213042   3.954   0.351   3.192
 4360TIP3   OH213043   1.566   1.724   3.615
 4360TIP3    H113044   1.649   1.688   3.646
 4360TIP3    H213045   1.582   1.818   3.607
 4361TIP3   OH213046   2.878   2.577   2.099
 4361TIP3    H113047   2.859   2.484   2.113
 4361TIP3    H213048   2.947   2.597   2.162
 4362TIP3   OH213049   2.770   3.364   1.734
 4362TIP3    H113050   2.721   3.375   1.652
 4362TIP3    H213051   2.804   3.275   1.729
 4363TIP3   OH213052   2.154   1.032   2.534
 4363TIP3    H113053   2.246   1.010   2.521
 4363TIP3    H213054   2.106   0.971   2.478
 4364TIP3   OH213055   6.148   6.792   3.117
 4364TIP3    H113056   6.109   6.732   3.053
 4364TIP3    H213057   6.156   6.740   3.197
 4365TIP3   OH213058   3.786   1.136   3.026
 4365TIP3    H113059   3.865   1.086   3.002
 4365TIP3    H213060   3.762   1.182   2.946
 4366TIP3   OH213061   4.901   2.280   1.303
 4366TIP3    H113062   4.857   2.361   1.277
 4366TIP3    H213063   4.983   2.280   1.255
 4367TIP3   OH213064   4.036   2.694   4.267
 4367TIP3    H113065   4.010   2.736   4.350
 4367TIP3    H213066   3.982   2.738   4.201
 4368TIP3   OH213067   2.179   3.845   3.154
 4368TIP3    H113068   2.108   3.826   3.216
 4368TIP3    H213069   2.236   3.768   3.159
 4369TIP3   OH213070   5.082   6.033   0.129
 4369TIP3    H113071   5.009   6.062   0.075
 4369TIP3    H213072   5.060   6.064   0.217
 4370TIP3   OH213073   3.442   5.870   2.474
 4370TIP3    H113074   3.437   5.775   2.479
 4370TIP3    H213075   3.534   5.888   2.455
 4371TIP3   OH213076   1.834   6.503   1.442
 4371TIP3    H113077   1.777   6.439   1.484
 4371TIP3    H213078   1.884   6.542   1.513
 4372TIP3   OH213079   6.002   4.396   4.398
 4372TIP3    H113080   6.010   4.344   4.318
 4372TIP3    H213081   5.927   4.359   4.444
 4373TIP3   OH213082   0.516   5.837   0.419
 4373TIP3    H113083   0.491   5.817   0.509
 4373TIP3    H213084   0.610   5.820   0.415
 4374TIP3   OH213085   0.016   3.346   0.480
 4374TIP3    H113086  -0.046   3.418   0.464
 4374TIP3    H213087   0.101   3.389   0.485
 4375TIP3   OH213088   2.467   0.480   3.920
 4375TIP3    H113089   2.550   0.479   3.969
 4375TIP3    H213090   2.488   0.526   3.839
 4376TIP3   OH213091   6.711   3.540   2.988
 4376TIP3    H113092   6.787   3.592   2.963
 4376TIP3    H213093   6.650   3.549   2.915
 4377TIP3   OH213094   6.635   4.322   0.616
 4377TIP3    H113095   6.570   4.356   0.677
 4377TIP3    H213096   6.650   4.393   0.554
 4378TIP3   OH213097   5.933   3.350   2.667
 4378TIP3    H113098   5.993   3.424   2.675
 4378TIP3    H213099   5.855   3.377   2.714
 4379TIP3   OH213100   6.753   3.752   4.507
 4379TIP3    H113101   6.822   3.696   4.543
 4379TIP3    H213102   6.708   3.696   4.444
 4380TIP3   OH213103   5.873   5.873   0.924
 4380TIP3    H113104   5.819   5.918   0.859
 4380TIP3    H213105   5.963   5.888   0.896
 4381TIP3   OH213106   2.262   5.123   0.264
 4381TIP3    H113107   2.312   5.132   0.345
 4381TIP3    H213108   2.296   5.192   0.207
 4382TIP3   OH213109   3.258   3.120   5.864
 4382TIP3    H113110   3.254   3.024   5.869
 4382TIP3    H213111   3.166   3.147   5.856
 4383TIP3   OH213112   1.708   1.177   5.290
 4383TIP3    H113113   1.788   1.126   5.274
 4383TIP3    H213114   1.651   1.117   5.337
 4384TIP3   OH213115   0.812   3.445   4.090
 4384TIP3    H113116   0.720   3.459   4.110
 4384TIP3    H213117   0.812   3.376   4.023
 4385TIP3   OH213118   6.452   3.966   0.870
 4385TIP3    H113119   6.465   3.932   0.781
 4385TIP3    H213120   6.359   3.951   0.887
 4386TIP3   OH213121   3.160   4.336   1.525
 4386TIP3    H113122   3.153   4.244   1.501
 4386TIP3    H213123   3.146   4.338   1.619
 4387TIP3   OH213124   6.317   6.324   5.641
 4387TIP3    H113125   6.362   6.395   5.595
 4387TIP3    H213126   6.378   6.251   5.637
 4388TIP3   OH213127   3.499   6.468   5.385
 4388TIP3    H113128   3.485   6.396   5.324
 4388TIP3    H213129   3.497   6.428   5.471
 4389TIP3   OH213130   0.354   4.920   5.218
 4389TIP3    H113131   0.281   4.981   5.229
 4389TIP3    H213132   0.372   4.886   5.306
 4390TIP3   OH213133   5.881   0.507   1.436
 4390TIP3    H113134   5.968   0.479   1.466
 4390TIP3    H213135   5.862   0.451   1.362
 4391TIP3   OH213136   1.548   4.814   3.575
 4391TIP3    H113137   1.482   4.753   3.607
 4391TIP3    H213138   1.630   4.783   3.613
 4392TIP3   OH213139   2.283   2.808   0.550
 4392TIP3    H113140   2.227   2.880   0.522
 4392TIP3    H213141   2.355   2.808   0.487
 4393TIP3   OH213142   4.799   5.235   0.361
 4393TIP3    H113143   4.760   5.321   0.345
 4393TIP3    H213144   4.745   5.196   0.430
 4394TIP3   OH213145   3.922   2.270   4.427
 4394TIP3    H113146   3.955   2.328   4.358
 4394TIP3    H213147   3.836   2.242   4.394
 4395TIP3   OH213148   6.548   0.356   1.331
 4395TIP3    H113149   6.536   0.273   1.284
 4395TIP3    H213150   6.639   0.380   1.313
 4396TIP3   OH213151   2.921   0.831   2.012
 4396TIP3    H113152   2.883   0.889   1.946
 4396TIP3    H213153   2.942   0.751   1.964
 4397TIP3   OH213154   3.221   1.024   2.949
 4397TIP3    H113155   3.313   1.016   2.924
 4397TIP3    H213156   3.190   0.933   2.956
 4398TIP3   OH213157   1.205   2.688   2.946
 4398TIP3    H113158   1.268   2.657   3.011
 4398TIP3    H213159   1.256   2.744   2.888
 4399TIP3   OH213160   1.146   3.675   3.734
 4399TIP3    H113161   1.122   3.767   3.748
 4399TIP3    H213162   1.232   3.666   3.774
 4400TIP3   OH213163   1.636   3.843   5.109
 4400TIP3    H113164   1.688   3.866   5.186
 4400TIP3    H213165   1.620   3.749   5.119
 4401TIP3   OH213166   0.650   3.392   1.481
 4401TIP3    H113167   0.588   3.330   1.520
 4401TIP3    H213168   0.726   3.388   1.538
 4402TIP3   OH213169   0.475   1.773   0.988
 4402TIP3    H113170   0.482   1.720   0.908
 4402TIP3    H213171   0.547   1.836   0.981
 4403TIP3   OH213172   1.304   0.757   1.819
 4403TIP3    H113173   1.392   0.779   1.789
 4403TIP3    H213174   1.260   0.720   1.743
 4404TIP3   OH213175   0.642   0.890   5.335
 4404TIP3    H113176   0.565   0.834   5.346
 4404TIP3    H213177   0.606   0.976   5.310
 4405TIP3   OH213178   1.390   3.496   4.156
 4405TIP3    H113179   1.415   3.440   4.082
 4405TIP3    H213180   1.442   3.464   4.229
 4406TIP3   OH213181   4.274   5.644   4.584
 4406TIP3    H113182   4.278   5.550   4.600
 4406TIP3    H213183   4.274   5.653   4.489
 4407TIP3   OH213184   6.120   2.754   1.773
 4407TIP3    H113185   6.157   2.751   1.685
 4407TIP3    H213186   6.178   2.813   1.821
 4408TIP3   OH213187   1.421   3.400   3.540
 4408TIP3    H113188   1.400   3.493   3.545
 4408TIP3    H213189   1.341   3.359   3.507
 4409TIP3   OH213190   6.833   1.303   4.452
 4409TIP3    H113191   6.858   1.211   4.454
 4409TIP3    H213192   6.880   1.339   4.376
 4410TIP3   OH213193   6.657   6.403   3.964
 4410TIP3    H113194   6.640   6.482   4.016
 4410TIP3    H213195   6.644   6.431   3.873
 4411TIP3   OH213196   4.483   5.762   3.482
 4411TIP3    H113197   4.429   5.806   3.416
 4411TIP3    H213198   4.573   5.779   3.453
 4412TIP3   OH213199   2.361   0.773   2.064
 4412TIP3    H113200   2.269   0.796   2.078
 4412TIP3    H213201   2.410   0.845   2.104
 4413TIP3   OH213202   5.567   0.388   2.024
 4413TIP3    H113203   5.514   0.431   2.092
 4413TIP3    H213204   5.516   0.400   1.944
 4414TIP3   OH213205   2.112   2.820   3.229
 4414TIP3    H113206   2.187   2.856   3.181
 4414TIP3    H213207   2.143   2.737   3.264
 4415TIP3   OH213208   2.355   4.374   1.380
 4415TIP3    H113209   2.351   4.455   1.431
 4415TIP3    H213210   2.336   4.401   1.290
 4416TIP3   OH213211   2.342   4.087   0.412
 4416TIP3    H113212   2.392   4.151   0.362
 4416TIP3    H213213   2.343   4.119   0.502
 4417TIP3   OH213214   1.415   3.516   0.741
 4417TIP3    H113215   1.483   3.568   0.698
 4417TIP3    H213216   1.430   3.427   0.709
 4418TIP3   OH213217   6.037   2.000   2.563
 4418TIP3    H113218   5.952   1.980   2.602
 4418TIP3    H213219   6.036   1.954   2.479
 4419TIP3   OH213220   2.104   6.706   3.598
 4419TIP3    H113221   2.044   6.633   3.608
 4419TIP3    H213222   2.152   6.687   3.518
 4420TIP3   OH213223   0.704   1.427   0.301
 4420TIP3    H113224   0.691   1.387   0.387
 4420TIP3    H213225   0.737   1.356   0.246
 4421TIP3   OH213226   7.003   5.768   1.447
 4421TIP3    H113227   7.091   5.730   1.447
 4421TIP3    H213228   6.945   5.692   1.448
 4422TIP3   OH213229   3.750   5.896   0.617
 4422TIP3    H113230   3.721   5.950   0.544
 4422TIP3    H213231   3.689   5.822   0.617
 4423TIP3   OH213232   5.124   1.597   3.379
 4423TIP3    H113233   5.069   1.664   3.420
 4423TIP3    H213234   5.075   1.516   3.390
 4424TIP3   OH213235   1.034   0.969   5.829
 4424TIP3    H113236   1.035   0.886   5.876
 4424TIP3    H213237   1.077   1.030   5.889
 4425TIP3   OH213238   1.246   6.445   2.404
 4425TIP3    H113239   1.187   6.369   2.399
 4425TIP3    H213240   1.212   6.505   2.337
 4426TIP3   OH213241   1.823   4.413   2.018
 4426TIP3    H113242   1.846   4.402   1.926
 4426TIP3    H213243   1.863   4.338   2.062
 4427TIP3   OH213244   2.845   6.005   4.901
 4427TIP3    H113245   2.810   5.973   4.984
 4427TIP3    H213246   2.912   6.068   4.926
 4428TIP3   OH213247   2.348   0.153   1.131
 4428TIP3    H113248   2.401   0.185   1.205
 4428TIP3    H213249   2.411   0.108   1.075
 4429TIP3   OH213250   6.836   3.808   0.288
 4429TIP3    H113251   6.799   3.744   0.227
 4429TIP3    H213252   6.863   3.881   0.233
 4430TIP3   OH213253   6.006   4.966   5.650
 4430TIP3    H113254   6.053   5.049   5.655
 4430TIP3    H213255   5.918   4.987   5.680
 4431TIP3   OH213256   0.167   3.002   1.116
 4431TIP3    H113257   0.130   3.067   1.175
 4431TIP3    H213258   0.220   3.052   1.054
 4432TIP3   OH213259   2.465   0.973   4.902
 4432TIP3    H113260   2.461   0.890   4.854
 4432TIP3    H213261   2.501   1.035   4.839
 4433TIP3   OH213262   1.629   5.692   0.412
 4433TIP3    H113263   1.555   5.715   0.356
 4433TIP3    H213264   1.695   5.657   0.353
 4434TIP3   OH213265   5.118   0.853   5.183
 4434TIP3    H113266   5.144   0.778   5.130
 4434TIP3    H213267   5.160   0.839   5.268
 4435TIP3   OH213268   6.639   5.121   5.337
 4435TIP3    H113269   6.567   5.184   5.328
 4435TIP3    H213270   6.615   5.049   5.279
 4436TIP3   OH213271   7.247   5.497   4.226
 4436TIP3    H113272   7.247   5.551   4.147
 4436TIP3    H213273   7.158   5.504   4.261
 4437TIP3   OH213274   1.971   2.208   4.951
 4437TIP3    H113275   1.941   2.158   5.027
 4437TIP3    H213276   2.028   2.148   4.904
 4438TIP3   OH213277   6.732   3.099   0.475
 4438TIP3    H113278   6.813   3.145   0.497
 4438TIP3    H213279   6.667   3.169   0.467
 4439TIP3   OH213280   4.656   4.522   2.972
 4439TIP3    H113281   4.643   4.595   3.032
 4439TIP3    H213282   4.723   4.468   3.014
 4440TIP3   OH213283   6.123   5.906   3.135
 4440TIP3    H113284   6.086   5.912   3.223
 4440TIP3    H213285   6.049   5.922   3.077
 4441TIP3   OH213286   6.066   5.996   4.581
 4441TIP3    H113287   5.985   6.010   4.532
 4441TIP3    H213288   6.117   6.076   4.565
 4442TIP3   OH213289   6.348   0.353   3.850
 4442TIP3    H113290   6.427   0.386   3.807
 4442TIP3    H213291   6.334   0.266   3.812
 4443TIP3   OH213292   6.417   6.510   2.254
 4443TIP3    H113293   6.435   6.455   2.330
 4443TIP3    H213294   6.343   6.467   2.210
 4444TIP3   OH213295   0.376   3.395   5.311
 4444TIP3    H113296   0.343   3.305   5.306
 4444TIP3    H213297   0.299   3.450   5.301
 4445TIP3   OH213298   1.330   2.873   4.310
 4445TIP3    H113299   1.279   2.885   4.390
 4445TIP3    H213300   1.292   2.935   4.248
 4446TIP3   OH213301   2.635   3.868   0.501
 4446TIP3    H113302   2.545   3.837   0.492
 4446TIP3    H213303   2.626   3.963   0.512
 4447TIP3   OH213304   1.903   3.886   3.616
 4447TIP3    H113305   1.837   3.941   3.658
 4447TIP3    H213306   1.906   3.806   3.668
 4448TIP3   OH213307   6.112   6.573   1.994
 4448TIP3    H113308   6.051   6.511   1.954
 4448TIP3    H213309   6.179   6.518   2.035
 4449TIP3   OH213310   0.529   2.316   4.248
 4449TIP3    H113311   0.550   2.272   4.330
 4449TIP3    H213312   0.441   2.285   4.226
 4450TIP3   OH213313   0.868   1.465   2.123
 4450TIP3    H113314   0.951   1.463   2.076
 4450TIP3    H213315   0.881   1.532   2.191
 4451TIP3   OH213316   0.087   4.257   5.206
 4451TIP3    H113317   0.093   4.334   5.150
 4451TIP3    H213318   0.023   4.200   5.161
 4452TIP3   OH213319   2.674   6.554   1.150
 4452TIP3    H113320   2.726   6.494   1.203
 4452TIP3    H213321   2.687   6.640   1.191
 4453TIP3   OH213322   3.440   3.721   5.886
 4453TIP3    H113323   3.358   3.693   5.845
 4453TIP3    H213324   3.502   3.650   5.868
 4454TIP3   OH213325   5.256   3.767   2.256
 4454TIP3    H113326   5.260   3.717   2.337
 4454TIP3    H213327   5.219   3.706   2.192
 4455TIP3   OH213328   5.361   1.926   3.365
 4455TIP3    H113329   5.414   1.859   3.410
 4455TIP3    H213330   5.425   1.991   3.336
 4456TIP3   OH213331   5.717   1.601   0.884
 4456TIP3    H113332   5.770   1.589   0.805
 4456TIP3    H213333   5.634   1.636   0.852
 4457TIP3   OH213334   5.371   5.375   4.743
 4457TIP3    H113335   5.405   5.359   4.655
 4457TIP3    H213336   5.374   5.470   4.752
 4458TIP3   OH213337   4.073   0.021   4.257
 4458TIP3    H113338   4.044   0.090   4.316
 4458TIP3    H213339   4.000  -0.041   4.256
 4459TIP3   OH213340   4.489   2.033   4.459
 4459TIP3    H113341   4.520   2.044   4.549
 4459TIP3    H213342   4.553   2.081   4.406
 4460TIP3   OH213343   3.738   2.716   3.071
 4460TIP3    H113344   3.807   2.771   3.032
 4460TIP3    H213345   3.722   2.755   3.157
 4461TIP3   OH213346   2.334   4.973   5.819
 4461TIP3    H113347   2.251   4.962   5.773
 4461TIP3    H213348   2.395   5.004   5.751
 4462TIP3   OH213349   0.928   1.882   1.823
 4462TIP3    H113350   0.859   1.937   1.859
 4462TIP3    H213351   1.003   1.896   1.881
 4463TIP3   OH213352   1.400   4.147   1.183
 4463TIP3    H113353   1.334   4.179   1.245
 4463TIP3    H213354   1.381   4.194   1.102
 4464TIP3   OH213355   0.223   3.361   0.161
 4464TIP3    H113356   0.271   3.312   0.227
 4464TIP3    H213357   0.268   3.343   0.079
 4465TIP3   OH213358   6.006   3.090   4.028
 4465TIP3    H113359   5.992   3.027   4.099
 4465TIP3    H213360   5.938   3.070   3.964
 4466TIP3   OH213361   5.364   5.300   4.455
 4466TIP3    H113362   5.380   5.389   4.423
 4466TIP3    H213363   5.347   5.249   4.376
 4467TIP3   OH213364   2.334   0.511   5.278
 4467TIP3    H113365   2.336   0.416   5.287
 4467TIP3    H213366   2.366   0.527   5.189
 4468TIP3   OH213367   7.088   0.177   5.808
 4468TIP3    H113368   6.994   0.197   5.810
 4468TIP3    H213369   7.117   0.206   5.721
 4469TIP3   OH213370   0.697   0.784   1.567
 4469TIP3    H113371   0.743   0.768   1.485
 4469TIP3    H213372   0.763   0.771   1.635
 4470TIP3   OH213373   5.403   3.608   4.529
 4470TIP3    H113374   5.318   3.577   4.497
 4470TIP3    H213375   5.454   3.624   4.450
 4471TIP3   OH213376   4.963   0.333   5.135
 4471TIP3    H113377   4.929   0.304   5.050
 4471TIP3    H213378   5.030   0.270   5.158
 4472TIP3   OH213379   0.485   1.753   2.757
 4472TIP3    H113380   0.529   1.752   2.842
 4472TIP3    H213381   0.523   1.680   2.709
 4473TIP3   OH213382   6.496   5.738   0.797
 4473TIP3    H113383   6.409   5.709   0.825
 4473TIP3    H213384   6.480   5.799   0.725
 4474TIP3   OH213385   1.756   0.578   4.487
 4474TIP3    H113386   1.797   0.607   4.405
 4474TIP3    H213387   1.706   0.500   4.462
 4475TIP3   OH213388   4.480   3.005   0.362
 4475TIP3    H113389   4.457   3.009   0.455
 4475TIP3    H213390   4.396   2.995   0.317
 4476TIP3   OH213391   5.342   2.780   2.501
 4476TIP3    H113392   5.405   2.844   2.468
 4476TIP3    H213393   5.277   2.832   2.549
 4477TIP3   OH213394   5.525   1.140   4.361
 4477TIP3    H113395   5.581   1.172   4.433
 4477TIP3    H213396   5.587   1.113   4.293
 4478TIP3   OH213397   6.727   4.521   0.451
 4478TIP3    H113398   6.730   4.616   0.465
 4478TIP3    H213399   6.814   4.499   0.418
 4479TIP3   OH213400   4.064   3.568   4.948
 4479TIP3    H113401   4.109   3.546   5.029
 4479TIP3    H213402   4.118   3.635   4.907
 4480TIP3   OH213403   4.398   1.286   2.104
 4480TIP3    H113404   4.487   1.303   2.073
 4480TIP3    H213405   4.409   1.266   2.197
 4481TIP3   OH213406   4.521   5.414   2.301
 4481TIP3    H113407   4.464   5.348   2.341
 4481TIP3    H213408   4.484   5.498   2.329
 4482TIP3   OH213409   3.612   1.168   1.611
 4482TIP3    H113410   3.657   1.185   1.693
 4482TIP3    H213411   3.529   1.128   1.636
 4483TIP3   OH213412   2.795   0.885   4.457
 4483TIP3    H113413   2.861   0.941   4.416
 4483TIP3    H213414   2.845   0.816   4.501
 4484TIP3   OH213415   6.522   4.807   5.614
 4484TIP3    H113416   6.523   4.887   5.668
 4484TIP3    H213417   6.544   4.737   5.676
 4485TIP3   OH213418   0.631   3.750   0.859
 4485TIP3    H113419   0.678   3.791   0.787
 4485TIP3    H213420   0.692   3.687   0.895
 4486TIP3   OH213421   2.601   4.889   1.528
 4486TIP3    H113422   2.565   4.804   1.555
 4486TIP3    H213423   2.641   4.872   1.443
 4487TIP3   OH213424   4.940   4.396   4.240
 4487TIP3    H113425   4.997   4.446   4.181
 4487TIP3    H213426   4.858   4.444   4.240
 4488TIP3   OH213427   7.166   5.100   0.067
 4488TIP3    H113428   7.103   5.170   0.076
 4488TIP3    H213429   7.126   5.025   0.112
 4489TIP3   OH213430   4.453   2.498   1.289
 4489TIP3    H113431   4.530   2.459   1.246
 4489TIP3    H213432   4.490   2.552   1.358
 4490TIP3   OH213433   6.109   3.468   2.936
 4490TIP3    H113434   6.128   3.508   2.851
 4490TIP3    H213435   6.085   3.378   2.915
 4491TIP3   OH213436   4.389   1.991   1.226
 4491TIP3    H113437   4.473   1.978   1.181
 4491TIP3    H213438   4.352   2.069   1.186
 4492TIP3   OH213439   6.033   1.333   1.472
 4492TIP3    H113440   6.114   1.323   1.521
 4492TIP3    H213441   5.984   1.400   1.519
 4493TIP3   OH213442   2.773   1.184   4.011
 4493TIP3    H113443   2.806   1.230   3.933
 4493TIP3    H213444   2.728   1.251   4.061
 4494TIP3   OH213445   5.265   5.581   5.889
 4494TIP3    H113446   5.241   5.668   5.920
 4494TIP3    H213447   5.307   5.597   5.804
 4495TIP3   OH213448   4.388   0.276   1.705
 4495TIP3    H113449   4.429   0.309   1.785
 4495TIP3    H213450   4.303   0.319   1.702
 4496TIP3   OH213451   6.590   2.979   0.671
 4496TIP3    H113452   6.644   3.027   0.608
 4496TIP3    H213453   6.644   2.976   0.750
 4497TIP3   OH213454   5.241   6.799   2.456
 4497TIP3    H113455   5.248   6.743   2.533
 4497TIP3    H213456   5.147   6.808   2.441
 4498TIP3   OH213457   3.869   5.377   1.281
 4498TIP3    H113458   3.906   5.458   1.317
 4498TIP3    H213459   3.801   5.407   1.220
 4499TIP3   OH213460   5.098   4.508   2.939
 4499TIP3    H113461   5.077   4.579   2.878
 4499TIP3    H213462   5.192   4.519   2.956
 4500TIP3   OH213463   1.155   0.722   3.004
 4500TIP3    H113464   1.215   0.649   2.990
 4500TIP3    H213465   1.072   0.680   3.027
 4501TIP3   OH213466   6.609   0.633   2.944
 4501TIP3    H113467   6.584   0.724   2.957
 4501TIP3    H213468   6.662   0.611   3.021
 4502TIP3   OH213469   6.010   3.614   0.735
 4502TIP3    H113470   6.086   3.612   0.792
 4502TIP3    H213471   5.982   3.522   0.728
 4503TIP3   OH213472   7.167   0.623   3.666
 4503TIP3    H113473   7.153   0.528   3.659
 4503TIP3    H213474   7.188   0.651   3.577
 4504TIP3   OH213475   3.428   2.670   4.245
 4504TIP3    H113476   3.401   2.587   4.283
 4504TIP3    H213477   3.353   2.699   4.193
 4505TIP3   OH213478   1.124   3.397   3.858
 4505TIP3    H113479   1.031   3.384   3.842
 4505TIP3    H213480   1.144   3.481   3.816
 4506TIP3   OH213481   6.484   5.385   2.006
 4506TIP3    H113482   6.519   5.454   2.063
 4506TIP3    H213483   6.408   5.425   1.964
 4507TIP3   OH213484   6.307   5.047   1.940
 4507TIP3    H113485   6.388   5.050   1.890
 4507TIP3    H213486   6.288   5.138   1.962
 4508TIP3   OH213487   2.674   0.901   5.849
 4508TIP3    H113488   2.632   0.917   5.765
 4508TIP3    H213489   2.681   0.987   5.890
 4509TIP3   OH213490   4.476   2.681   5.370
 4509TIP3    H113491   4.453   2.689   5.278
 4509TIP3    H213492   4.571   2.680   5.372
 4510TIP3   OH213493   0.520   5.965   4.360
 4510TIP3    H113494   0.478   5.981   4.276
 4510TIP3    H213495   0.522   6.050   4.403
 4511TIP3   OH213496   5.483   5.801   5.335
 4511TIP3    H113497   5.576   5.787   5.351
 4511TIP3    H213498   5.472   5.784   5.241
 4512TIP3   OH213499   1.203   3.988   2.460
 4512TIP3    H113500   1.248   3.924   2.404
 4512TIP3    H213501   1.194   3.944   2.544
 4513TIP3   OH213502   5.016   2.072   4.918
 4513TIP3    H113503   5.068   2.024   4.982
 4513TIP3    H213504   4.930   2.080   4.958
 4514TIP3   OH213505   3.382   2.321   1.792
 4514TIP3    H113506   3.348   2.239   1.755
 4514TIP3    H213507   3.323   2.340   1.865
 4515TIP3   OH213508   1.142   2.362   1.494
 4515TIP3    H113509   1.220   2.366   1.439
 4515TIP3    H213510   1.069   2.354   1.433
 4516TIP3   OH213511   3.751   3.214   0.324
 4516TIP3    H113512   3.749   3.291   0.381
 4516TIP3    H213513   3.684   3.156   0.358
 4517TIP3   OH213514   1.899   4.523   3.364
 4517TIP3    H113515   1.923   4.437   3.398
 4517TIP3    H213516   1.951   4.532   3.283
 4518TIP3   OH213517   2.579   3.023   4.320
 4518TIP3    H113518   2.615   3.106   4.354
 4518TIP3    H213519   2.487   3.025   4.347
 4519TIP3   OH213520   5.420   0.939   3.260
 4519TIP3    H113521   5.446   1.020   3.217
 4519TIP3    H213522   5.383   0.885   3.189
 4520TIP3   OH213523   4.846   2.828   4.476
 4520TIP3    H113524   4.817   2.851   4.565
 4520TIP3    H213525   4.906   2.898   4.452
 4521TIP3   OH213526   2.101   3.760   0.699
 4521TIP3    H113527   2.039   3.820   0.740
 4521TIP3    H213528   2.150   3.723   0.772
 4522TIP3   OH213529   0.956   3.701   3.230
 4522TIP3    H113530   0.905   3.781   3.240
 4522TIP3    H213531   1.020   3.721   3.161
 4523TIP3   OH213532   2.268   1.704   1.288
 4523TIP3    H113533   2.306   1.620   1.259
 4523TIP3    H213534   2.189   1.713   1.235
 4524TIP3   OH213535   1.991   6.695   4.800
 4524TIP3    H113536   2.049   6.763   4.835
 4524TIP3    H213537   1.969   6.642   4.876
 4525TIP3   OH213538   5.695   3.746   3.360
 4525TIP3    H113539   5.641   3.803   3.306
 4525TIP3    H213540   5.744   3.693   3.297
 4526TIP3   OH213541   3.509   5.589   2.462
 4526TIP3    H113542   3.574   5.599   2.392
 4526TIP3    H213543   3.481   5.497   2.455
 4527TIP3   OH213544   1.611   3.712   2.362
 4527TIP3    H113545   1.673   3.779   2.333
 4527TIP3    H213546   1.588   3.664   2.283
 4528TIP3   OH213547   7.170   2.457   4.298
 4528TIP3    H113548   7.137   2.367   4.304
 4528TIP3    H213549   7.148   2.497   4.382
 4529TIP3   OH213550   2.578   4.429   5.263
 4529TIP3    H113551   2.671   4.413   5.244
 4529TIP3    H213552   2.551   4.493   5.197
 4530TIP3   OH213553   1.557   1.770   1.764
 4530TIP3    H113554   1.471   1.778   1.806
 4530TIP3    H213555   1.618   1.808   1.827
 4531TIP3   OH213556   0.881   3.885   1.292
 4531TIP3    H113557   0.810   3.877   1.228
 4531TIP3    H213558   0.864   3.815   1.355
 4532TIP3   OH213559   6.709   3.146   1.642
 4532TIP3    H113560   6.695   3.169   1.551
 4532TIP3    H213561   6.682   3.223   1.691
 4533TIP3   OH213562   4.359   6.538   4.277
 4533TIP3    H113563   4.445   6.497   4.287
 4533TIP3    H213564   4.376   6.632   4.292
 4534TIP3   OH213565   3.274   5.391   0.456
 4534TIP3    H113566   3.202   5.446   0.486
 4534TIP3    H213567   3.295   5.335   0.532
 4535TIP3   OH213568   2.757   2.544   2.768
 4535TIP3    H113569   2.852   2.556   2.771
 4535TIP3    H213570   2.738   2.520   2.678
 4536TIP3   OH213571   2.117   4.563   1.558
 4536TIP3    H113572   2.068   4.488   1.525
 4536TIP3    H213573   2.173   4.527   1.626
 4537TIP3   OH213574   6.890   6.358   3.608
 4537TIP3    H113575   6.934   6.275   3.628
 4537TIP3    H213576   6.884   6.359   3.512
 4538TIP3   OH213577   0.910   1.684   2.613
 4538TIP3    H113578   0.834   1.716   2.662
 4538TIP3    H213579   0.981   1.680   2.677
 4539TIP3   OH213580   0.202   1.906   1.013
 4539TIP3    H113581   0.115   1.942   1.032
 4539TIP3    H213582   0.196   1.875   0.923
 4540TIP3   OH213583   3.789   4.606   2.712
 4540TIP3    H113584   3.879   4.629   2.737
 4540TIP3    H213585   3.759   4.550   2.783
 4541TIP3   OH213586   2.909   4.823   2.069
 4541TIP3    H113587   2.913   4.727   2.075
 4541TIP3    H213588   2.993   4.852   2.102
 4542TIP3   OH213589   2.449   2.938   4.706
 4542TIP3    H113590   2.520   2.874   4.703
 4542TIP3    H213591   2.482   3.009   4.761
 4543TIP3   OH213592   0.156   1.994   5.481
 4543TIP3    H113593   0.186   1.984   5.391
 4543TIP3    H213594   0.232   2.028   5.528
 4544TIP3   OH213595   3.816   4.849   4.357
 4544TIP3    H113596   3.734   4.873   4.402
 4544TIP3    H213597   3.837   4.762   4.390
 4545TIP3   OH213598   6.335   6.082   0.055
 4545TIP3    H113599   6.276   6.122   0.119
 4545TIP3    H213600   6.418   6.071   0.102
 4546TIP3   OH213601   0.265   3.104   5.255
 4546TIP3    H113602   0.175   3.123   5.232
 4546TIP3    H213603   0.289   3.028   5.201
 4547TIP3   OH213604   6.126   0.989   5.163
 4547TIP3    H113605   6.128   0.966   5.255
 4547TIP3    H213606   6.079   0.917   5.121
 4548TIP3   OH213607   6.976   3.633   4.624
 4548TIP3    H113608   6.954   3.540   4.612
 4548TIP3    H213609   7.070   3.637   4.611
 4549TIP3   OH213610   1.084   5.493   0.849
 4549TIP3    H113611   1.162   5.535   0.886
 4549TIP3    H213612   1.092   5.401   0.874
 4550TIP3   OH213613   2.722   2.383   5.690
 4550TIP3    H113614   2.656   2.416   5.628
 4550TIP3    H213615   2.689   2.297   5.716
 4551TIP3   OH213616   5.439   6.263   1.761
 4551TIP3    H113617   5.350   6.230   1.743
 4551TIP3    H213618   5.496   6.209   1.707
 4552TIP3   OH213619   6.949   3.412   3.469
 4552TIP3    H113620   6.918   3.488   3.518
 4552TIP3    H213621   6.884   3.400   3.399
 4553TIP3   OH213622   6.162   5.197   3.814
 4553TIP3    H113623   6.142   5.195   3.720
 4553TIP3    H213624   6.257   5.192   3.819
 4554TIP3   OH213625   5.013   3.916   3.018
 4554TIP3    H113626   4.943   3.876   3.070
 4554TIP3    H213627   5.010   4.009   3.042
 4555TIP3   OH213628   0.579   3.508   2.874
 4555TIP3    H113629   0.536   3.593   2.862
 4555TIP3    H213630   0.634   3.520   2.952
 4556TIP3   OH213631   4.176   6.782   1.036
 4556TIP3    H113632   4.209   6.693   1.050
 4556TIP3    H213633   4.157   6.785   0.942
 4557TIP3   OH213634   1.202   1.675   1.541
 4557TIP3    H113635   1.220   1.765   1.567
 4557TIP3    H213636   1.252   1.621   1.603
 4558TIP3   OH213637   1.236   5.094   3.575
 4558TIP3    H113638   1.159   5.038   3.588
 4558TIP3    H213639   1.211   5.178   3.613
 4559TIP3   OH213640   6.430   1.934   0.666
 4559TIP3    H113641   6.448   1.844   0.692
 4559TIP3    H213642   6.351   1.929   0.612
 4560TIP3   OH213643   1.259   1.632   5.257
 4560TIP3    H113644   1.176   1.626   5.209
 4560TIP3    H213645   1.289   1.721   5.241
 4561TIP3   OH213646   2.988   2.133   5.443
 4561TIP3    H113647   2.970   2.226   5.430
 4561TIP3    H213648   3.045   2.131   5.520
 4562TIP3   OH213649   5.359   2.269   4.966
 4562TIP3    H113650   5.418   2.262   4.891
 4562TIP3    H213651   5.402   2.220   5.035
 4563TIP3   OH213652   4.220   2.492   4.262
 4563TIP3    H113653   4.224   2.469   4.354
 4563TIP3    H213654   4.183   2.581   4.260
 4564TIP3   OH213655   3.193   1.723   4.433
 4564TIP3    H113656   3.127   1.780   4.472
 4564TIP3    H213657   3.160   1.704   4.346
 4565TIP3   OH213658   0.587   2.943   4.219
 4565TIP3    H113659   0.597   2.939   4.314
 4565TIP3    H213660   0.507   2.894   4.201
 4566TIP3   OH213661   2.445   5.846   2.205
 4566TIP3    H113662   2.379   5.776   2.198
 4566TIP3    H213663   2.450   5.882   2.117
 4567TIP3   OH213664   3.839   5.258   1.015
 4567TIP3    H113665   3.747   5.254   0.990
 4567TIP3    H213666   3.886   5.264   0.932
 4568TIP3   OH213667   6.882   2.773   2.819
 4568TIP3    H113668   6.876   2.854   2.869
 4568TIP3    H213669   6.884   2.801   2.728
 4569TIP3   OH213670   2.386   5.368   3.088
 4569TIP3    H113671   2.393   5.349   3.182
 4569TIP3    H213672   2.391   5.282   3.046
 4570TIP3   OH213673   1.907   0.013   0.882
 4570TIP3    H113674   1.826   0.058   0.859
 4570TIP3    H213675   1.935   0.055   0.963
 4571TIP3   OH213676   7.086   4.464   1.185
 4571TIP3    H113677   7.053   4.508   1.107
 4571TIP3    H213678   7.044   4.378   1.184
 4572TIP3   OH213679   5.579   4.932   1.784
 4572TIP3    H113680   5.606   4.840   1.784
 4572TIP3    H213681   5.484   4.930   1.786
 4573TIP3   OH213682   6.036   1.739   3.858
 4573TIP3    H113683   5.990   1.817   3.887
 4573TIP3    H213684   5.998   1.719   3.772
 4574TIP3   OH213685   3.904   2.890   0.338
 4574TIP3    H113686   3.944   2.963   0.290
 4574TIP3    H213687   3.853   2.844   0.272
 4575TIP3   OH213688   5.322   5.049   2.610
 4575TIP3    H113689   5.382   5.008   2.673
 4575TIP3    H213690   5.236   5.012   2.631
 4576TIP3   OH213691   6.493   4.855   2.329
 4576TIP3    H113692   6.464   4.915   2.398
 4576TIP3    H213693   6.425   4.788   2.325
 4577TIP3   OH213694   5.756   2.179   2.393
 4577TIP3    H113695   5.733   2.093   2.359
 4577TIP3    H213696   5.693   2.239   2.353
 4578TIP3   OH213697   2.376   3.803   3.759
 4578TIP3    H113698   2.381   3.827   3.666
 4578TIP3    H213699   2.335   3.880   3.800
 4579TIP3   OH213700   0.779   3.328   3.152
 4579TIP3    H113701   0.870   3.359   3.153
 4579TIP3    H213702   0.779   3.255   3.090
 4580TIP3   OH213703   2.474   4.516   2.072
 4580TIP3    H113704   2.381   4.530   2.091
 4580TIP3    H213705   2.497   4.437   2.120
 4581TIP3   OH213706   5.426   6.386   4.040
 4581TIP3    H113707   5.341   6.349   4.017
 4581TIP3    H213708   5.425   6.474   4.003
 4582TIP3   OH213709   6.557   1.743   5.693
 4582TIP3    H113710   6.622   1.693   5.642
 4582TIP3    H213711   6.602   1.763   5.775
 4583TIP3   OH213712   1.181   2.051   1.268
 4583TIP3    H113713   1.088   2.058   1.286
 4583TIP3    H213714   1.195   2.103   1.189
 4584TIP3   OH213715   3.541   0.187   1.660
 4584TIP3    H113716   3.514   0.122   1.595
 4584TIP3    H213717   3.574   0.135   1.733
 4585TIP3   OH213718   3.052   1.581   2.529
 4585TIP3    H113719   3.140   1.620   2.519
 4585TIP3    H213720   3.064   1.490   2.502
 4586TIP3   OH213721   4.545   0.056   1.598
 4586TIP3    H113722   4.537   0.078   1.505
 4586TIP3    H213723   4.514   0.135   1.644
 4587TIP3   OH213724   3.172   6.075   4.802
 4587TIP3    H113725   3.159   6.110   4.714
 4587TIP3    H213726   3.124   6.135   4.859
 4588TIP3   OH213727   3.443   0.855   0.279
 4588TIP3    H113728   3.374   0.858   0.211
 4588TIP3    H213729   3.498   0.931   0.260
 4589TIP3   OH213730   5.610   3.968   3.859
 4589TIP3    H113731   5.559   4.044   3.829
 4589TIP3    H213732   5.701   3.990   3.837
 4590TIP3   OH213733   6.240   5.525   2.982
 4590TIP3    H113734   6.277   5.569   2.906
 4590TIP3    H213735   6.154   5.564   2.994
 4591TIP3   OH213736   4.195   2.416   3.104
 4591TIP3    H113737   4.106   2.449   3.092
 4591TIP3    H213738   4.196   2.332   3.058
 4592TIP3   OH213739   6.565   0.513   3.618
 4592TIP3    H113740   6.639   0.573   3.614
 4592TIP3    H213741   6.603   0.428   3.640
 4593TIP3   OH213742   2.741   0.540   1.373
 4593TIP3    H113743   2.651   0.513   1.391
 4593TIP3    H213744   2.734   0.596   1.296
 4594TIP3   OH213745   0.579   1.960   1.449
 4594TIP3    H113746   0.671   1.945   1.467
 4594TIP3    H213747   0.547   2.012   1.523
 4595TIP3   OH213748   6.158   5.276   1.974
 4595TIP3    H113749   6.173   5.370   1.990
 4595TIP3    H213750   6.109   5.273   1.892
 4596TIP3   OH213751   3.653   2.848   2.581
 4596TIP3    H113752   3.654   2.944   2.591
 4596TIP3    H213753   3.568   2.821   2.616
 4597TIP3   OH213754   2.865   0.905   5.455
 4597TIP3    H113755   2.865   0.848   5.378
 4597TIP3    H213756   2.923   0.862   5.518
 4598TIP3   OH213757   5.346   6.431   5.594
 4598TIP3    H113758   5.321   6.396   5.509
 4598TIP3    H213759   5.396   6.510   5.575
 4599TIP3   OH213760   3.966   5.634   0.786
 4599TIP3    H113761   4.048   5.650   0.739
 4599TIP3    H213762   3.916   5.715   0.775
 4600TIP3   OH213763   1.250   5.735   4.368
 4600TIP3    H113764   1.324   5.721   4.427
 4600TIP3    H213765   1.288   5.780   4.293
 4601TIP3   OH213766   4.603   2.681   0.926
 4601TIP3    H113767   4.671   2.666   0.992
 4601TIP3    H213768   4.649   2.725   0.855
 4602TIP3   OH213769   2.133   5.321   2.383
 4602TIP3    H113770   2.211   5.371   2.409
 4602TIP3    H213771   2.060   5.366   2.426
 4603TIP3   OH213772   0.329   0.668   3.747
 4603TIP3    H113773   0.320   0.612   3.670
 4603TIP3    H213774   0.401   0.728   3.726
 4604TIP3   OH213775   2.495   1.516   4.419
 4604TIP3    H113776   2.483   1.611   4.415
 4604TIP3    H213777   2.535   1.501   4.505
 4605TIP3   OH213778   6.305   4.293   5.773
 4605TIP3    H113779   6.351   4.373   5.746
 4605TIP3    H213780   6.289   4.246   5.691
 4606TIP3   OH213781   5.915   2.943   5.125
 4606TIP3    H113782   5.837   2.931   5.071
 4606TIP3    H213783   5.946   3.031   5.103
 4607TIP3   OH213784   4.586   5.239   2.042
 4607TIP3    H113785   4.511   5.228   1.984
 4607TIP3    H213786   4.655   5.187   2.001
 4608TIP3   OH213787   2.776   2.156   3.735
 4608TIP3    H113788   2.685   2.157   3.705
 4608TIP3    H213789   2.771   2.179   3.828
 4609TIP3   OH213790   3.190   5.749   5.620
 4609TIP3    H113791   3.180   5.718   5.529
 4609TIP3    H213792   3.264   5.809   5.616
 4610TIP3   OH213793   5.406   5.215   5.086
 4610TIP3    H113794   5.388   5.309   5.088
 4610TIP3    H213795   5.438   5.199   4.998
 4611TIP3   OH213796   0.177   6.265   5.577
 4611TIP3    H113797   0.106   6.317   5.540
 4611TIP3    H213798   0.198   6.309   5.660
 4612TIP3   OH213799   0.276   4.123   4.827
 4612TIP3    H113800   0.341   4.117   4.757
 4612TIP3    H213801   0.316   4.180   4.892
 4613TIP3   OH213802   1.740   2.284   1.950
 4613TIP3    H113803   1.769   2.351   2.011
 4613TIP3    H213804   1.715   2.332   1.871
 4614TIP3   OH213805   4.440   4.049   2.099
 4614TIP3    H113806   4.447   4.013   2.188
 4614TIP3    H213807   4.425   3.973   2.043
 4615TIP3   OH213808   7.027   5.435   5.467
 4615TIP3    H113809   6.967   5.362   5.455
 4615TIP3    H213810   7.086   5.430   5.392
 4616TIP3   OH213811   2.794   3.158   4.998
 4616TIP3    H113812   2.867   3.211   4.966
 4616TIP3    H213813   2.763   3.205   5.075
 4617TIP3   OH213814   5.588   4.873   4.048
 4617TIP3    H113815   5.681   4.862   4.066
 4617TIP3    H213816   5.554   4.922   4.124
 4618TIP3   OH213817   4.252   2.667   5.492
 4618TIP3    H113818   4.259   2.607   5.566
 4618TIP3    H213819   4.333   2.655   5.443
 4619TIP3   OH213820   5.775   1.542   3.066
 4619TIP3    H113821   5.764   1.632   3.096
 4619TIP3    H213822   5.853   1.511   3.113
 4620TIP3   OH213823   0.826   0.563   1.052
 4620TIP3    H113824   0.756   0.628   1.055
 4620TIP3    H213825   0.896   0.601   1.105
 4621TIP3   OH213826   3.024   0.463   4.202
 4621TIP3    H113827   2.996   0.481   4.292
 4621TIP3    H213828   3.011   0.546   4.156
 4622TIP3   OH213829   3.224   6.185   2.816
 4622TIP3    H113830   3.224   6.096   2.850
 4622TIP3    H213831   3.189   6.238   2.887
 4623TIP3   OH213832   6.305   5.951   3.605
 4623TIP3    H113833   6.259   6.032   3.582
 4623TIP3    H213834   6.241   5.882   3.590
 4624TIP3   OH213835   0.123   3.120   1.361
 4624TIP3    H113836   0.202   3.172   1.379
 4624TIP3    H213837   0.051   3.174   1.392
 4625TIP3   OH213838   6.732   3.662   0.065
 4625TIP3    H113839   6.645   3.621   0.071
 4625TIP3    H213840   6.775   3.616  -0.007
 4626TIP3   OH213841   0.122   4.434   4.983
 4626TIP3    H113842   0.095   4.525   4.992
 4626TIP3    H213843   0.054   4.394   4.928
 4627TIP3   OH213844   0.007   6.545   2.987
 4627TIP3    H113845   0.079   6.509   3.039
 4627TIP3    H213846  -0.028   6.616   3.040
 4628TIP3   OH213847   6.269   3.966   3.405
 4628TIP3    H113848   6.275   4.040   3.466
 4628TIP3    H213849   6.247   4.007   3.321
 4629TIP3   OH213850   6.208   3.605   3.908
 4629TIP3    H113851   6.244   3.627   3.994
 4629TIP3    H213852   6.258   3.659   3.846
 4630TIP3   OH213853   0.550   4.996   3.336
 4630TIP3    H113854   0.595   4.968   3.416
 4630TIP3    H213855   0.552   5.092   3.341
 4631TIP3   OH213856   3.227   6.382   4.748
 4631TIP3    H113857   3.260   6.308   4.800
 4631TIP3    H213858   3.300   6.405   4.690
 4632TIP3   OH213859   3.140   0.765   2.968
 4632TIP3    H113860   3.164   0.679   3.003
 4632TIP3    H213861   3.148   0.756   2.873
 4633TIP3   OH213862   7.216   4.890   5.530
 4633TIP3    H113863   7.210   4.925   5.441
 4633TIP3    H213864   7.154   4.943   5.580
 4634TIP3   OH213865   5.510   5.293   1.420
 4634TIP3    H113866   5.464   5.342   1.489
 4634TIP3    H213867   5.580   5.248   1.466
 4635TIP3   OH213868   4.247   1.400   2.623
 4635TIP3    H113869   4.202   1.429   2.702
 4635TIP3    H213870   4.204   1.318   2.600
 4636TIP3   OH213871   1.696   4.878   3.352
 4636TIP3    H113872   1.661   4.887   3.440
 4636TIP3    H213873   1.625   4.904   3.294
 4637TIP3   OH213874   1.931   4.126   0.143
 4637TIP3    H113875   1.870   4.196   0.168
 4637TIP3    H213876   1.958   4.087   0.226
 4638TIP3   OH213877   4.336   4.005   3.501
 4638TIP3    H113878   4.315   4.067   3.570
 4638TIP3    H213879   4.317   3.919   3.538
 4639TIP3   OH213880   6.138   2.817   4.534
 4639TIP3    H113881   6.128   2.776   4.620
 4639TIP3    H213882   6.049   2.830   4.503
 4640TIP3   OH213883   2.270   1.058   5.098
 4640TIP3    H113884   2.195   1.109   5.067
 4640TIP3    H213885   2.339   1.077   5.036
 4641TIP3   OH213886   1.260   3.409   4.990
 4641TIP3    H113887   1.217   3.415   5.076
 4641TIP3    H213888   1.191   3.429   4.927
 4642TIP3   OH213889   2.513   5.604   4.928
 4642TIP3    H113890   2.452   5.628   4.858
 4642TIP3    H213891   2.600   5.624   4.893
 4643TIP3   OH213892   5.545   6.397   1.990
 4643TIP3    H113893   5.528   6.330   1.924
 4643TIP3    H213894   5.492   6.371   2.065
 4644TIP3   OH213895   5.960   0.196   0.949
 4644TIP3    H113896   6.040   0.215   0.999
 4644TIP3    H213897   5.989   0.191   0.858
 4645TIP3   OH213898   5.351   1.770   5.566
 4645TIP3    H113899   5.392   1.797   5.483
 4645TIP3    H213900   5.262   1.746   5.541
 4646TIP3   OH213901   4.146   3.080   5.032
 4646TIP3    H113902   4.183   3.048   4.950
 4646TIP3    H213903   4.072   3.021   5.050
 4647TIP3   OH213904   1.117   1.027   3.005
 4647TIP3    H113905   1.102   0.933   2.991
 4647TIP3    H213906   1.210   1.039   2.987
 4648TIP3   OH213907   0.482   5.559   0.292
 4648TIP3    H113908   0.400   5.538   0.337
 4648TIP3    H213909   0.518   5.633   0.340
 4649TIP3   OH213910   6.810   5.552   1.470
 4649TIP3    H113911   6.731   5.606   1.465
 4649TIP3    H213912   6.778   5.463   1.480
 4650TIP3   OH213913   3.559   5.680   4.303
 4650TIP3    H113914   3.569   5.590   4.335
 4650TIP3    H213915   3.577   5.673   4.209
 4651TIP3   OH213916   1.486   0.689   3.160
 4651TIP3    H113917   1.540   0.621   3.201
 4651TIP3    H213918   1.422   0.641   3.108
 4652TIP3   OH213919   4.604   2.588   4.770
 4652TIP3    H113920   4.697   2.567   4.765
 4652TIP3    H213921   4.560   2.503   4.761
 4653TIP3   OH213922   5.124   3.173   4.233
 4653TIP3    H113923   5.180   3.233   4.284
 4653TIP3    H213924   5.143   3.194   4.142
 4654TIP3   OH213925   1.893   3.220   2.630
 4654TIP3    H113926   1.880   3.153   2.562
 4654TIP3    H213927   1.870   3.302   2.587
 4655TIP3   OH213928   6.003   2.259   3.339
 4655TIP3    H113929   5.954   2.236   3.260
 4655TIP3    H213930   6.094   2.240   3.316
 4656TIP3   OH213931   2.552   1.634   0.895
 4656TIP3    H113932   2.523   1.557   0.846
 4656TIP3    H213933   2.646   1.624   0.903
 4657TIP3   OH213934   3.272   2.308   5.347
 4657TIP3    H113935   3.287   2.365   5.271
 4657TIP3    H213936   3.359   2.294   5.384
 4658TIP3   OH213937   3.073   3.429   2.100
 4658TIP3    H113938   3.127   3.498   2.138
 4658TIP3    H213939   3.101   3.424   2.008
 4659TIP3   OH213940   2.445   2.266   4.981
 4659TIP3    H113941   2.452   2.284   4.887
 4659TIP3    H213942   2.499   2.334   5.022
 4660TIP3   OH213943   5.891   5.998   2.386
 4660TIP3    H113944   5.843   5.996   2.468
 4660TIP3    H213945   5.849   6.067   2.335
 4661TIP3   OH213946   6.673   0.279   3.740
 4661TIP3    H113947   6.642   0.230   3.817
 4661TIP3    H213948   6.768   0.275   3.746
 4662TIP3   OH213949   2.434   3.657   3.385
 4662TIP3    H113950   2.426   3.658   3.289
 4662TIP3    H213951   2.374   3.588   3.413
 4663TIP3   OH213952   5.417   5.689   5.679
 4663TIP3    H113953   5.469   5.638   5.616
 4663TIP3    H213954   5.335   5.706   5.633
 4664TIP3   OH213955   4.242   4.824   3.932
 4664TIP3    H113956   4.281   4.909   3.911
 4664TIP3    H213957   4.153   4.845   3.960
 4665TIP3   OH213958   2.810   0.279   5.185
 4665TIP3    H113959   2.828   0.271   5.092
 4665TIP3    H213960   2.790   0.189   5.213
 4666TIP3   OH213961   4.378   5.244   1.866
 4666TIP3    H113962   4.394   5.242   1.772
 4666TIP3    H213963   4.297   5.295   1.876
 4667TIP3   OH213964   4.066   6.476   5.789
 4667TIP3    H113965   4.097   6.530   5.717
 4667TIP3    H213966   3.989   6.432   5.755
 4668TIP3   OH213967   6.411   5.570   2.298
 4668TIP3    H113968   6.434   5.618   2.378
 4668TIP3    H213969   6.493   5.566   2.248
 4669TIP3   OH213970   5.227   4.890   0.329
 4669TIP3    H113971   5.184   4.955   0.384
 4669TIP3    H213972   5.156   4.834   0.299
 4670TIP3   OH213973   0.572   3.459   5.486
 4670TIP3    H113974   0.616   3.392   5.539
 4670TIP3    H213975   0.485   3.424   5.469
 4671TIP3   OH213976   5.049   6.333   1.284
 4671TIP3    H113977   5.104   6.259   1.310
 4671TIP3    H213978   4.959   6.304   1.300
 4672TIP3   OH213979   4.150   5.909   3.174
 4672TIP3    H113980   4.240   5.879   3.162
 4672TIP3    H213981   4.134   5.969   3.100
 4673TIP3   OH213982   2.191   0.636   1.531
 4673TIP3    H113983   2.213   0.555   1.578
 4673TIP3    H213984   2.276   0.670   1.503
 4674TIP3   OH213985   5.462   6.045   1.125
 4674TIP3    H113986   5.482   6.090   1.208
 4674TIP3    H213987   5.471   5.952   1.146
 4675TIP3   OH213988   3.356   3.823   4.251
 4675TIP3    H113989   3.352   3.791   4.161
 4675TIP3    H213990   3.425   3.889   4.250
 4676TIP3   OH213991   2.123   6.697   0.181
 4676TIP3    H113992   2.102   6.667   0.270
 4676TIP3    H213993   2.079   6.782   0.173
 4677TIP3   OH213994   4.427   4.351   2.122
 4677TIP3    H113995   4.446   4.417   2.188
 4677TIP3    H213996   4.464   4.270   2.157
 4678TIP3   OH213997   2.329   0.067   4.904
 4678TIP3    H113998   2.365   0.156   4.909
 4678TIP3    H213999   2.392   0.014   4.954
 4679TIP3   OH214000   2.461   1.885   5.198
 4679TIP3    H114001   2.552   1.868   5.176
 4679TIP3    H214002   2.454   1.980   5.203
 4680TIP3   OH214003   2.255   4.096   0.696
 4680TIP3    H114004   2.323   4.058   0.753
 4680TIP3    H214005   2.210   4.020   0.659
 4681TIP3   OH214006   3.914   1.786   1.061
 4681TIP3    H114007   3.996   1.758   1.102
 4681TIP3    H214008   3.867   1.704   1.044
 4682TIP3   OH214009   5.213   0.032   1.068
 4682TIP3    H114010   5.170   0.097   1.013
 4682TIP3    H214011   5.289   0.003   1.017
 4683TIP3   OH214012   5.552   4.912   4.529
 4683TIP3    H114013   5.644   4.922   4.555
 4683TIP3    H214014   5.505   4.902   4.612
 4684TIP3   OH214015   0.536   5.394   5.548
 4684TIP3    H114016   0.628   5.404   5.523
 4684TIP3    H214017   0.527   5.449   5.625
 4685TIP3   OH214018   0.803   0.288   4.734
 4685TIP3    H114019   0.793   0.350   4.662
 4685TIP3    H214020   0.739   0.219   4.716
 4686TIP3   OH214021   4.294   0.540   3.615
 4686TIP3    H114022   4.356   0.560   3.545
 4686TIP3    H214023   4.328   0.586   3.692
 4687TIP3   OH214024   2.496   3.576   2.222
 4687TIP3    H114025   2.552   3.654   2.225
 4687TIP3    H214026   2.479   3.556   2.314
 4688TIP3   OH214027   3.433   0.837   0.577
 4688TIP3    H114028   3.414   0.847   0.484
 4688TIP3    H214029   3.437   0.742   0.591
 4689TIP3   OH214030   6.001   1.683   3.378
 4689TIP3    H114031   6.060   1.701   3.305
 4689TIP3    H214032   5.924   1.643   3.338
 4690TIP3   OH214033   2.161   6.553   5.616
 4690TIP3    H114034   2.113   6.481   5.659
 4690TIP3    H214035   2.141   6.543   5.523
 4691TIP3   OH214036   7.204   3.761   1.890
 4691TIP3    H114037   7.130   3.805   1.848
 4691TIP3    H214038   7.271   3.756   1.821
 4692TIP3   OH214039   5.271   5.356   0.891
 4692TIP3    H114040   5.351   5.309   0.866
 4692TIP3    H214041   5.215   5.288   0.928
 4693TIP3   OH214042   5.412   4.258   5.592
 4693TIP3    H114043   5.336   4.204   5.611
 4693TIP3    H214044   5.478   4.197   5.559
 4694TIP3   OH214045   1.901   4.394   2.411
 4694TIP3    H114046   1.941   4.356   2.333
 4694TIP3    H214047   1.880   4.484   2.386
 4695TIP3   OH214048   4.148   5.807   3.449
 4695TIP3    H114049   4.141   5.862   3.372
 4695TIP3    H214050   4.140   5.868   3.523
 4696TIP3   OH214051   2.928   5.818   2.305
 4696TIP3    H114052   3.002   5.777   2.259
 4696TIP3    H214053   2.949   5.807   2.398
 4697TIP3   OH214054   0.648   2.660   1.263
 4697TIP3    H114055   0.566   2.681   1.217
 4697TIP3    H214056   0.635   2.570   1.293
 4698TIP3   OH214057   2.339   1.863   3.094
 4698TIP3    H114058   2.329   1.925   3.022
 4698TIP3    H214059   2.399   1.907   3.155
 4699TIP3   OH214060   2.639   0.279   2.235
 4699TIP3    H114061   2.576   0.301   2.304
 4699TIP3    H214062   2.640   0.356   2.179
 4700TIP3   OH214063   4.643   3.667   3.336
 4700TIP3    H114064   4.702   3.741   3.322
 4700TIP3    H214065   4.589   3.664   3.257
 4701TIP3   OH214066   1.513   5.957   1.888
 4701TIP3    H114067   1.458   5.878   1.881
 4701TIP3    H214068   1.504   6.000   1.802
 4702TIP3   OH214069   1.408   5.074   0.791
 4702TIP3    H114070   1.371   5.007   0.848
 4702TIP3    H214071   1.494   5.092   0.828
 4703TIP3   OH214072   4.988   0.424   3.570
 4703TIP3    H114073   4.937   0.492   3.614
 4703TIP3    H214074   5.062   0.471   3.531
 4704TIP3   OH214075   1.844   3.293   3.167
 4704TIP3    H114076   1.892   3.212   3.184
 4704TIP3    H214077   1.875   3.321   3.081
 4705TIP3   OH214078   2.964   6.254   0.173
 4705TIP3    H114079   2.913   6.280   0.250
 4705TIP3    H214080   2.920   6.295   0.099
 4706TIP3   OH214081   2.564   0.934   0.052
 4706TIP3    H114082   2.496   0.993   0.085
 4706TIP3    H214083   2.582   0.965  -0.036
 4707TIP3   OH214084   3.781   3.061   1.478
 4707TIP3    H114085   3.792   3.058   1.383
 4707TIP3    H214086   3.798   3.153   1.501
 4708TIP3   OH214087   4.513   6.576   5.084
 4708TIP3    H114088   4.443   6.635   5.055
 4708TIP3    H214089   4.490   6.492   5.045
 4709TIP3   OH214090   3.920   6.006   3.315
 4709TIP3    H114091   3.898   5.960   3.395
 4709TIP3    H214092   3.989   5.954   3.275
 4710TIP3   OH214093   6.759   0.560   0.812
 4710TIP3    H114094   6.679   0.606   0.837
 4710TIP3    H214095   6.760   0.482   0.868
 4711TIP3   OH214096   4.392   0.898   1.047
 4711TIP3    H114097   4.333   0.901   0.971
 4711TIP3    H214098   4.349   0.838   1.108
 4712TIP3   OH214099   5.614   2.351   3.499
 4712TIP3    H114100   5.676   2.305   3.556
 4712TIP3    H214101   5.570   2.413   3.557
 4713TIP3   OH214102   6.273   1.975   5.349
 4713TIP3    H114103   6.264   2.066   5.321
 4713TIP3    H214104   6.259   1.977   5.443
 4714TIP3   OH214105   5.353   4.286   2.338
 4714TIP3    H114106   5.289   4.219   2.363
 4714TIP3    H214107   5.352   4.348   2.411
 4715TIP3   OH214108   4.082   0.651   5.382
 4715TIP3    H114109   4.030   0.691   5.452
 4715TIP3    H214110   4.025   0.652   5.305
 4716TIP3   OH214111   0.029   2.114   4.555
 4716TIP3    H114112   0.006   2.063   4.632
 4716TIP3    H214113   0.105   2.070   4.518
 4717TIP3   OH214114   6.947   0.168   2.235
 4717TIP3    H114115   6.867   0.219   2.227
 4717TIP3    H214116   6.987   0.198   2.317
 4718TIP3   OH214117   4.413   1.662   0.197
 4718TIP3    H114118   4.385   1.576   0.165
 4718TIP3    H214119   4.476   1.692   0.131
 4719TIP3   OH214120   3.250   6.260   0.147
 4719TIP3    H114121   3.158   6.258   0.174
 4719TIP3    H214122   3.299   6.269   0.228
 4720TIP3   OH214123   6.305   2.126   2.824
 4720TIP3    H114124   6.381   2.118   2.881
 4720TIP3    H214125   6.330   2.193   2.760
 4721TIP3   OH214126   2.372   0.909   5.349
 4721TIP3    H114127   2.294   0.866   5.385
 4721TIP3    H214128   2.337   0.978   5.292
 4722TIP3   OH214129   3.444   3.593   4.754
 4722TIP3    H114130   3.533   3.624   4.736
 4722TIP3    H214131   3.387   3.652   4.704
 4723TIP3   OH214132   1.760   5.301   4.028
 4723TIP3    H114133   1.782   5.229   3.969
 4723TIP3    H214134   1.796   5.379   3.986
 4724TIP3   OH214135   6.629   4.282   3.629
 4724TIP3    H114136   6.584   4.328   3.558
 4724TIP3    H214137   6.639   4.192   3.597
 4725TIP3   OH214138   1.257   3.340   4.476
 4725TIP3    H114139   1.197   3.415   4.475
 4725TIP3    H214140   1.200   3.264   4.470
 4726TIP3   OH214141   5.078   6.649   1.491
 4726TIP3    H114142   4.985   6.629   1.490
 4726TIP3    H214143   5.111   6.619   1.407
 4727TIP3   OH214144   5.903   4.714   1.958
 4727TIP3    H114145   5.928   4.806   1.968
 4727TIP3    H214146   5.971   4.666   2.005
 4728TIP3   OH214147   1.244   5.595   3.855
 4728TIP3    H114148   1.167   5.645   3.826
 4728TIP3    H214149   1.220   5.562   3.942
 4729TIP3   OH214150   2.989   0.979   3.862
 4729TIP3    H114151   3.012   1.065   3.897
 4729TIP3    H214152   2.896   0.968   3.884
 4730TIP3   OH214153   6.101   0.860   5.593
 4730TIP3    H114154   6.107   0.937   5.536
 4730TIP3    H214155   6.165   0.798   5.557
 4731TIP3   OH214156   1.734   1.800   4.972
 4731TIP3    H114157   1.720   1.852   4.893
 4731TIP3    H214158   1.815   1.835   5.010
 4732TIP3   OH214159   0.098   1.619   5.219
 4732TIP3    H114160   0.041   1.674   5.166
 4732TIP3    H214161   0.122   1.674   5.294
 4733TIP3   OH214162   0.568   5.207   1.077
 4733TIP3    H114163   0.474   5.217   1.063
 4733TIP3    H214164   0.581   5.233   1.168
 4734TIP3   OH214165   6.258   1.708   1.965
 4734TIP3    H114166   6.185   1.717   2.027
 4734TIP3    H214167   6.336   1.720   2.019
 4735TIP3   OH214168   6.633   4.122   5.154
 4735TIP3    H114169   6.646   4.095   5.063
 4735TIP3    H214170   6.653   4.044   5.205
 4736TIP3   OH214171   0.410   1.357   5.820
 4736TIP3    H114172   0.379   1.285   5.875
 4736TIP3    H214173   0.330   1.393   5.780
 4737TIP3   OH214174   1.889   0.944   0.166
 4737TIP3    H114175   1.851   0.924   0.252
 4737TIP3    H214176   1.982   0.958   0.183
 4738TIP3   OH214177   3.865   4.853   2.461
 4738TIP3    H114178   3.873   4.909   2.384
 4738TIP3    H214179   3.829   4.910   2.529
 4739TIP3   OH214180   3.583   1.633   5.633
 4739TIP3    H114181   3.623   1.680   5.706
 4739TIP3    H214182   3.565   1.546   5.669
 4740TIP3   OH214183   1.905   1.984   3.769
 4740TIP3    H114184   1.915   1.889   3.772
 4740TIP3    H214185   1.970   2.013   3.706
 4741TIP3   OH214186   6.719   3.040   3.701
 4741TIP3    H114187   6.687   2.953   3.724
 4741TIP3    H214188   6.796   3.024   3.647
 4742TIP3   OH214189   5.692   5.393   2.972
 4742TIP3    H114190   5.780   5.423   2.998
 4742TIP3    H214191   5.690   5.405   2.877
 4743TIP3   OH214192   3.983   4.409   3.219
 4743TIP3    H114193   3.926   4.377   3.150
 4743TIP3    H214194   4.012   4.330   3.265
 4744TIP3   OH214195   6.297   0.889   3.999
 4744TIP3    H114196   6.302   0.872   3.905
 4744TIP3    H214197   6.225   0.952   4.008
 4745TIP3   OH214198   0.363   3.066   0.871
 4745TIP3    H114199   0.425   3.089   0.940
 4745TIP3    H214200   0.417   3.036   0.798
 4746TIP3   OH214201   0.554   5.710   4.246
 4746TIP3    H114202   0.547   5.804   4.261
 4746TIP3    H214203   0.473   5.674   4.282
 4747TIP3   OH214204   2.014   3.485   4.336
 4747TIP3    H114205   1.962   3.517   4.410
 4747TIP3    H214206   2.097   3.458   4.375
 4748TIP3   OH214207   3.526   6.405   5.650
 4748TIP3    H114208   3.514   6.343   5.723
 4748TIP3    H214209   3.534   6.490   5.692
 4749TIP3   OH214210   7.208   4.204   2.228
 4749TIP3    H114211   7.134   4.231   2.173
 4749TIP3    H214212   7.228   4.115   2.200
 4750TIP3   OH214213   1.338   1.307   3.885
 4750TIP3    H114214   1.418   1.287   3.837
 4750TIP3    H214215   1.367   1.325   3.974
 4751TIP3   OH214216   0.763   2.044   3.881
 4751TIP3    H114217   0.832   2.073   3.941
 4751TIP3    H214218   0.798   1.965   3.842
 4752TIP3   OH214219   2.386   3.050   0.097
 4752TIP3    H114220   2.473   3.085   0.079
 4752TIP3    H214221   2.400   2.956   0.109
 4753TIP3   OH214222   6.932   3.904   4.813
 4753TIP3    H114223   6.914   3.937   4.725
 4753TIP3    H214224   7.021   3.869   4.807
 4754TIP3   OH214225   6.404   0.472   4.406
 4754TIP3    H114226   6.359   0.545   4.449
 4754TIP3    H214227   6.383   0.482   4.313
 4755TIP3   OH214228   6.896   2.726   5.065
 4755TIP3    H114229   6.853   2.785   5.003
 4755TIP3    H214230   6.985   2.716   5.032
 4756TIP3   OH214231   6.040   3.195   2.918
 4756TIP3    H114232   5.956   3.161   2.888
 4756TIP3    H214233   6.103   3.162   2.854
 4757TIP3   OH214234   5.779   2.458   2.515
 4757TIP3    H114235   5.719   2.419   2.452
 4757TIP3    H214236   5.855   2.400   2.515
 4758TIP3   OH214237   0.968   2.718   4.301
 4758TIP3    H114238   1.009   2.682   4.222
 4758TIP3    H214239   0.905   2.782   4.269
 4759TIP3   OH214240   5.645   4.380   5.699
 4759TIP3    H114241   5.641   4.368   5.794
 4759TIP3    H214242   5.554   4.372   5.670
 4760TIP3   OH214243   5.234   3.459   1.607
 4760TIP3    H114244   5.290   3.445   1.683
 4760TIP3    H214245   5.197   3.372   1.589
 4761TIP3   OH214246   3.682   4.159   2.744
 4761TIP3    H114247   3.605   4.214   2.738
 4761TIP3    H214248   3.652   4.073   2.713
 4762TIP3   OH214249   6.181   2.365   5.921
 4762TIP3    H114250   6.240   2.423   5.969
 4762TIP3    H214251   6.216   2.363   5.832
 4763TIP3   OH214252   3.321   5.172   1.442
 4763TIP3    H114253   3.249   5.151   1.382
 4763TIP3    H214254   3.291   5.250   1.489
 4764TIP3   OH214255   3.946   4.358   4.271
 4764TIP3    H114256   3.976   4.338   4.182
 4764TIP3    H214257   3.945   4.273   4.315
 4765TIP3   OH214258   5.523   5.911   2.253
 4765TIP3    H114259   5.558   5.976   2.191
 4765TIP3    H214260   5.510   5.960   2.334
 4766TIP3   OH214261   4.371   4.791   4.892
 4766TIP3    H114262   4.354   4.721   4.955
 4766TIP3    H214263   4.399   4.746   4.813
 4767TIP3   OH214264   0.570   2.213   1.116
 4767TIP3    H114265   0.554   2.255   1.200
 4767TIP3    H214266   0.590   2.286   1.057
 4768TIP3   OH214267   4.556   2.823   3.504
 4768TIP3    H114268   4.521   2.789   3.586
 4768TIP3    H214269   4.642   2.858   3.526
 4769TIP3   OH214270   5.990   3.006   1.665
 4769TIP3    H114271   6.058   3.069   1.690
 4769TIP3    H214272   6.037   2.938   1.616
 4770TIP3   OH214273   5.654   3.646   4.898
 4770TIP3    H114274   5.651   3.731   4.942
 4770TIP3    H214275   5.591   3.592   4.946
 4771TIP3   OH214276   3.957   0.543   5.805
 4771TIP3    H114277   3.900   0.491   5.749
 4771TIP3    H214278   4.040   0.547   5.757
 4772TIP3   OH214279   0.270   2.022   3.379
 4772TIP3    H114280   0.224   2.106   3.373
 4772TIP3    H214281   0.253   1.980   3.295
 4773TIP3   OH214282   2.375   3.142   2.510
 4773TIP3    H114283   2.433   3.209   2.546
 4773TIP3    H214284   2.317   3.118   2.582
 4774TIP3   OH214285   2.583   5.299   0.214
 4774TIP3    H114286   2.503   5.304   0.162
 4774TIP3    H214287   2.621   5.214   0.190
 4775TIP3   OH214288   7.089   4.946   2.975
 4775TIP3    H114289   7.068   5.025   3.024
 4775TIP3    H214290   7.046   4.876   3.024
 4776TIP3   OH214291   2.818   4.720   3.930
 4776TIP3    H114292   2.887   4.774   3.891
 4776TIP3    H214293   2.746   4.726   3.867
 4777TIP3   OH214294   2.808   3.495   0.209
 4777TIP3    H114295   2.752   3.432   0.255
 4777TIP3    H214296   2.767   3.580   0.226
 4778TIP3   OH214297   2.662   5.169   2.985
 4778TIP3    H114298   2.620   5.089   2.954
 4778TIP3    H214299   2.701   5.145   3.069
 4779TIP3   OH214300   4.417   5.616   2.447
 4779TIP3    H114301   4.368   5.550   2.497
 4779TIP3    H214302   4.467   5.663   2.513
 4780TIP3   OH214303   6.376   3.611   1.554
 4780TIP3    H114304   6.337   3.672   1.491
 4780TIP3    H214305   6.349   3.644   1.640
 4781TIP3   OH214306   4.994   2.863   0.570
 4781TIP3    H114307   5.046   2.833   0.496
 4781TIP3    H214308   4.922   2.912   0.530
 4782TIP3   OH214309   1.769   3.178   0.971
 4782TIP3    H114310   1.738   3.216   1.053
 4782TIP3    H214311   1.696   3.189   0.911
 4783TIP3   OH214312   0.596   5.472   4.066
 4783TIP3    H114313   0.673   5.426   4.098
 4783TIP3    H214314   0.584   5.544   4.127
 4784TIP3   OH214315   7.023   2.979   1.828
 4784TIP3    H114316   7.060   2.905   1.876
 4784TIP3    H214317   6.959   2.941   1.768
 4785TIP3   OH214318   2.513   5.361   5.072
 4785TIP3    H114319   2.602   5.327   5.079
 4785TIP3    H214320   2.519   5.432   5.008
 4786TIP3   OH214321   6.514   3.175   4.465
 4786TIP3    H114322   6.439   3.115   4.459
 4786TIP3    H214323   6.476   3.259   4.491
 4787TIP3   OH214324   5.901   4.172   2.274
 4787TIP3    H114325   5.870   4.115   2.203
 4787TIP3    H214326   5.876   4.126   2.354
 4788TIP3   OH214327   0.275   5.161   5.683
 4788TIP3    H114328   0.239   5.250   5.684
 4788TIP3    H214329   0.219   5.111   5.743
 4789TIP3   OH214330   7.113   5.699   5.190
 4789TIP3    H114331   7.156   5.737   5.267
 4789TIP3    H214332   7.023   5.730   5.196
 4790TIP3   OH214333   1.597   3.481   1.486
 4790TIP3    H114334   1.523   3.464   1.427
 4790TIP3    H214335   1.603   3.403   1.540
 4791TIP3   OH214336   2.056   1.332   5.199
 4791TIP3    H114337   2.000   1.312   5.124
 4791TIP3    H214338   2.003   1.308   5.276
 4792TIP3   OH214339   7.165   2.523   4.578
 4792TIP3    H114340   7.103   2.595   4.589
 4792TIP3    H214341   7.175   2.486   4.665
 4793TIP3   OH214342   4.708   0.219   4.393
 4793TIP3    H114343   4.775   0.278   4.427
 4793TIP3    H214344   4.742   0.191   4.308
 4794TIP3   OH214345   3.238   0.871   0.094
 4794TIP3    H114346   3.256   0.961   0.122
 4794TIP3    H214347   3.142   0.867   0.088
 4795TIP3   OH214348   6.056   4.590   4.596
 4795TIP3    H114349   6.078   4.539   4.518
 4795TIP3    H214350   5.970   4.557   4.622
 4796TIP3   OH214351   4.402   4.495   0.297
 4796TIP3    H114352   4.404   4.423   0.360
 4796TIP3    H214353   4.328   4.474   0.239
 4797TIP3   OH214354   5.852   6.474   0.345
 4797TIP3    H114355   5.881   6.542   0.406
 4797TIP3    H214356   5.778   6.513   0.299
 4798TIP3   OH214357   0.892   2.321   1.288
 4798TIP3    H114358   0.811   2.342   1.335
 4798TIP3    H214359   0.899   2.225   1.296
 4799TIP3   OH214360   0.394   3.577   1.035
 4799TIP3    H114361   0.388   3.657   0.983
 4799TIP3    H214362   0.457   3.599   1.104
 4800TIP3   OH214363   6.859   0.310   1.546
 4800TIP3    H114364   6.793   0.379   1.551
 4800TIP3    H214365   6.856   0.267   1.631
 4801TIP3   OH214366   5.257   3.321   1.849
 4801TIP3    H114367   5.328   3.274   1.891
 4801TIP3    H214368   5.180   3.267   1.864
 4802TIP3   OH214369   2.548   6.452   2.766
 4802TIP3    H114370   2.614   6.405   2.817
 4802TIP3    H214371   2.531   6.531   2.817
 4803TIP3   OH214372   3.871   5.106   3.221
 4803TIP3    H114373   3.865   5.079   3.313
 4803TIP3    H214374   3.780   5.118   3.193
 4804TIP3   OH214375   2.782   2.680   3.481
 4804TIP3    H114376   2.813   2.770   3.477
 4804TIP3    H214377   2.845   2.635   3.538
 4805TIP3   OH214378   3.584   4.270   1.697
 4805TIP3    H114379   3.680   4.277   1.701
 4805TIP3    H214380   3.568   4.187   1.652
 4806TIP3   OH214381   7.151   6.055   1.526
 4806TIP3    H114382   7.173   6.099   1.443
 4806TIP3    H214383   7.056   6.049   1.525
 4807TIP3   OH214384   1.118   1.948   3.629
 4807TIP3    H114385   1.141   1.869   3.677
 4807TIP3    H214386   1.100   2.013   3.697
 4808TIP3   OH214387   6.481   1.693   2.652
 4808TIP3    H114388   6.395   1.727   2.675
 4808TIP3    H214389   6.520   1.760   2.596
 4809TIP3   OH214390   2.570   0.189   0.024
 4809TIP3    H114391   2.505   0.146   0.080
 4809TIP3    H214392   2.653   0.179   0.070
 4810TIP3   OH214393   5.365   5.028   0.064
 4810TIP3    H114394   5.289   5.002   0.115
 4810TIP3    H214395   5.439   4.983   0.106
 4811TIP3   OH214396   6.761   1.300   1.414
 4811TIP3    H114397   6.847   1.319   1.453
 4811TIP3    H214398   6.766   1.208   1.388
 4812TIP3   OH214399   1.561   6.420   3.864
 4812TIP3    H114400   1.493   6.366   3.903
 4812TIP3    H214401   1.561   6.500   3.917
 4813TIP3   OH214402   5.768   2.227   3.118
 4813TIP3    H114403   5.792   2.313   3.083
 4813TIP3    H214404   5.700   2.195   3.058
 4814TIP3   OH214405   2.659   5.773   3.674
 4814TIP3    H114406   2.695   5.770   3.763
 4814TIP3    H214407   2.654   5.682   3.646
 4815TIP3   OH214408   5.577   1.629   0.368
 4815TIP3    H114409   5.484   1.628   0.388
 4815TIP3    H214410   5.591   1.710   0.318
 4816TIP3   OH214411   4.263   2.589   4.847
 4816TIP3    H114412   4.314   2.512   4.822
 4816TIP3    H214413   4.178   2.553   4.873
 4817TIP3   OH214414   4.622   6.016   5.355
 4817TIP3    H114415   4.628   5.921   5.357
 4817TIP3    H214416   4.552   6.037   5.417
 4818TIP3   OH214417   5.828   0.169   3.395
 4818TIP3    H114418   5.758   0.180   3.331
 4818TIP3    H214419   5.906   0.203   3.352
 4819TIP3   OH214420   3.628   4.423   1.020
 4819TIP3    H114421   3.683   4.346   1.032
 4819TIP3    H214422   3.589   4.438   1.106
 4820TIP3   OH214423   4.955   4.959   5.746
 4820TIP3    H114424   4.997   4.921   5.823
 4820TIP3    H214425   4.861   4.954   5.765
 4821TIP3   OH214426   2.711   3.289   5.252
 4821TIP3    H114427   2.680   3.315   5.339
 4821TIP3    H214428   2.768   3.361   5.224
 4822TIP3   OH214429   4.895   2.874   2.923
 4822TIP3    H114430   4.935   2.790   2.947
 4822TIP3    H214431   4.875   2.916   3.007
 4823TIP3   OH214432   5.182   3.593   2.048
 4823TIP3    H114433   5.175   3.499   2.063
 4823TIP3    H214434   5.139   3.607   1.963
 4824TIP3   OH214435   1.704   6.307   4.957
 4824TIP3    H114436   1.782   6.359   4.976
 4824TIP3    H214437   1.675   6.339   4.872
 4825TIP3   OH214438   6.973   2.177   2.931
 4825TIP3    H114439   6.971   2.105   2.868
 4825TIP3    H214440   7.013   2.249   2.884
 4826TIP3   OH214441   7.065   4.722   4.381
 4826TIP3    H114442   6.990   4.779   4.401
 4826TIP3    H214443   7.071   4.663   4.456
 4827TIP3   OH214444   0.258   0.173   0.959
 4827TIP3    H114445   0.164   0.169   0.977
 4827TIP3    H214446   0.297   0.204   1.040
 4828TIP3   OH214447   0.369   5.460   4.568
 4828TIP3    H114448   0.465   5.456   4.566
 4828TIP3    H214449   0.341   5.379   4.526
 4829TIP3   OH214450   3.651   5.137   4.284
 4829TIP3    H114451   3.708   5.077   4.238
 4829TIP3    H214452   3.600   5.082   4.344
 4830TIP3   OH214453   6.665   1.047   2.463
 4830TIP3    H114454   6.600   1.113   2.487
 4830TIP3    H214455   6.675   0.994   2.542
 4831TIP3   OH214456   3.017   4.591   4.406
 4831TIP3    H114457   2.959   4.608   4.331
 4831TIP3    H214458   3.103   4.581   4.366
 4832TIP3   OH214459   0.190   1.799   0.777
 4832TIP3    H114460   0.275   1.755   0.773
 4832TIP3    H214461   0.203   1.882   0.732
 4833TIP3   OH214462   4.853   1.053   3.913
 4833TIP3    H114463   4.844   1.118   3.844
 4833TIP3    H214464   4.947   1.034   3.916
 4834TIP3   OH214465   0.302   4.036   5.843
 4834TIP3    H114466   0.372   4.076   5.792
 4834TIP3    H214467   0.231   4.101   5.841
 4835TIP3   OH214468   4.711   4.742   2.463
 4835TIP3    H114469   4.785   4.697   2.504
 4835TIP3    H214470   4.635   4.714   2.514
 4836TIP3   OH214471   7.207   2.074   1.063
 4836TIP3    H114472   7.206   2.152   1.007
 4836TIP3    H214473   7.115   2.048   1.069
 4837TIP3   OH214474   3.408   3.072   1.579
 4837TIP3    H114475   3.319   3.100   1.601
 4837TIP3    H214476   3.436   3.132   1.511
 4838TIP3   OH214477   1.993   3.272   3.817
 4838TIP3    H114478   1.974   3.235   3.903
 4838TIP3    H214479   2.078   3.234   3.793
 4839TIP3   OH214480   3.171   0.628   4.018
 4839TIP3    H114481   3.242   0.692   4.013
 4839TIP3    H214482   3.204   0.560   4.077
 4840TIP3   OH214483   2.870   1.665   2.947
 4840TIP3    H114484   2.828   1.581   2.965
 4840TIP3    H214485   2.799   1.729   2.952
 4841TIP3   OH214486   3.562   5.483   0.446
 4841TIP3    H114487   3.583   5.461   0.537
 4841TIP3    H214488   3.469   5.463   0.437
 4842TIP3   OH214489   4.745   4.591   4.079
 4842TIP3    H114490   4.840   4.594   4.069
 4842TIP3    H214491   4.712   4.566   3.993
 4843TIP3   OH214492   3.448   4.488   1.729
 4843TIP3    H114493   3.366   4.475   1.682
 4843TIP3    H214494   3.504   4.416   1.701
 4844TIP3   OH214495   1.339   3.866   0.973
 4844TIP3    H114496   1.250   3.881   1.005
 4844TIP3    H214497   1.360   3.777   1.002
 4845TIP3   OH214498   0.322   4.901   1.697
 4845TIP3    H114499   0.355   4.887   1.786
 4845TIP3    H214500   0.231   4.925   1.708
 4846TIP3   OH214501   3.922   2.587   4.698
 4846TIP3    H114502   3.907   2.619   4.787
 4846TIP3    H214503   3.861   2.514   4.688
 4847TIP3   OH214504   3.789   1.861   5.323
 4847TIP3    H114505   3.832   1.854   5.238
 4847TIP3    H214506   3.788   1.954   5.343
 4848TIP3   OH214507   6.767   5.973   5.552
 4848TIP3    H114508   6.735   5.976   5.642
 4848TIP3    H214509   6.707   5.913   5.508
 4849TIP3   OH214510   4.766   0.726   0.986
 4849TIP3    H114511   4.801   0.774   1.061
 4849TIP3    H214512   4.706   0.788   0.944
 4850TIP3   OH214513   0.785   5.653   1.206
 4850TIP3    H114514   0.846   5.676   1.277
 4850TIP3    H214515   0.840   5.644   1.129
 4851TIP3   OH214516   1.856   5.153   1.444
 4851TIP3    H114517   1.946   5.153   1.478
 4851TIP3    H214518   1.843   5.064   1.413
 4852TIP3   OH214519   2.221   0.797   3.852
 4852TIP3    H114520   2.260   0.874   3.895
 4852TIP3    H214521   2.218   0.731   3.921
 4853TIP3   OH214522   2.804   6.032   4.091
 4853TIP3    H114523   2.894   6.023   4.061
 4853TIP3    H214524   2.753   6.047   4.011
 4854TIP3   OH214525   4.837   1.238   3.705
 4854TIP3    H114526   4.875   1.203   3.624
 4854TIP3    H214527   4.913   1.269   3.755
 4855TIP3   OH214528   0.428   0.960   1.227
 4855TIP3    H114529   0.482   1.010   1.166
 4855TIP3    H214530   0.441   0.869   1.201
 4856TIP3   OH214531   6.739   6.167   4.053
 4856TIP3    H114532   6.662   6.141   4.104
 4856TIP3    H214533   6.716   6.254   4.020
 4857TIP3   OH214534   3.197   2.288   2.019
 4857TIP3    H114535   3.251   2.308   2.095
 4857TIP3    H214536   3.132   2.225   2.051
 4858TIP3   OH214537   3.331   2.005   4.579
 4858TIP3    H114538   3.312   1.912   4.562
 4858TIP3    H214539   3.274   2.052   4.519
 4859TIP3   OH214540   6.344   3.853   2.754
 4859TIP3    H114541   6.270   3.812   2.800
 4859TIP3    H214542   6.303   3.906   2.685
 4860TIP3   OH214543   1.481   6.230   4.607
 4860TIP3    H114544   1.504   6.247   4.515
 4860TIP3    H214545   1.448   6.314   4.639
 4861TIP3   OH214546   1.777   4.948   4.437
 4861TIP3    H114547   1.831   4.980   4.365
 4861TIP3    H214548   1.687   4.960   4.407
 4862TIP3   OH214549   6.231   4.697   1.372
 4862TIP3    H114550   6.287   4.639   1.321
 4862TIP3    H214551   6.160   4.721   1.312
 4863TIP3   OH214552   5.192   2.449   1.430
 4863TIP3    H114553   5.215   2.367   1.385
 4863TIP3    H214554   5.190   2.425   1.523
 4864TIP3   OH214555   1.244   3.730   1.299
 4864TIP3    H114556   1.174   3.773   1.249
 4864TIP3    H214557   1.320   3.787   1.288
 4865TIP3   OH214558   6.818   3.559   2.139
 4865TIP3    H114559   6.833   3.593   2.051
 4865TIP3    H214560   6.897   3.584   2.188
 4866TIP3   OH214561   4.878   0.090   2.784
 4866TIP3    H114562   4.973   0.087   2.784
 4866TIP3    H214563   4.852   0.038   2.860
 4867TIP3   OH214564   0.432   3.934   1.419
 4867TIP3    H114565   0.381   3.931   1.338
 4867TIP3    H214566   0.367   3.934   1.489
 4868TIP3   OH214567   4.656   2.425   5.848
 4868TIP3    H114568   4.617   2.513   5.849
 4868TIP3    H214569   4.639   2.393   5.760
 4869TIP3   OH214570   0.703   5.688   3.462
 4869TIP3    H114571   0.761   5.751   3.419
 4869TIP3    H214572   0.662   5.640   3.389
 4870TIP3   OH214573   3.999   1.956   5.553
 4870TIP3    H114574   4.015   1.862   5.542
 4870TIP3    H214575   3.922   1.961   5.610
 4871TIP3   OH214576   1.367   4.078   1.649
 4871TIP3    H114577   1.375   4.165   1.610
 4871TIP3    H214578   1.349   4.095   1.741
 4872TIP3   OH214579   3.694   4.541   4.680
 4872TIP3    H114580   3.630   4.612   4.680
 4872TIP3    H214581   3.769   4.576   4.634
 4873TIP3   OH214582   4.589   6.819   4.973
 4873TIP3    H114583   4.599   6.727   4.997
 4873TIP3    H214584   4.557   6.861   5.053
 4874TIP3   OH214585   6.461   6.423   1.248
 4874TIP3    H114586   6.461   6.381   1.333
 4874TIP3    H214587   6.552   6.418   1.218
 4875TIP3   OH214588   3.221   6.644   4.465
 4875TIP3    H114589   3.152   6.584   4.436
 4875TIP3    H214590   3.175   6.724   4.490
 4876TIP3   OH214591   2.579   1.485   2.217
 4876TIP3    H114592   2.549   1.575   2.201
 4876TIP3    H214593   2.582   1.477   2.312
 4877TIP3   OH214594   2.689   4.861   3.711
 4877TIP3    H114595   2.619   4.927   3.703
 4877TIP3    H214596   2.697   4.824   3.623
 4878TIP3   OH214597   7.183   6.317   3.247
 4878TIP3    H114598   7.247   6.331   3.177
 4878TIP3    H214599   7.221   6.359   3.324
 4879TIP3   OH214600   0.886   4.268   0.505
 4879TIP3    H114601   0.837   4.333   0.454
 4879TIP3    H214602   0.818   4.215   0.547
 4880TIP3   OH214603   3.892   4.833   0.511
 4880TIP3    H114604   3.968   4.808   0.459
 4880TIP3    H214605   3.893   4.928   0.511
 4881TIP3   OH214606   5.728   5.149   3.871
 4881TIP3    H114607   5.668   5.223   3.880
 4881TIP3    H214608   5.706   5.112   3.785
 4882TIP3   OH214609   6.944   4.512   5.791
 4882TIP3    H114610   6.938   4.593   5.740
 4882TIP3    H214611   6.890   4.449   5.744
 4883TIP3   OH214612   3.852   0.063   2.363
 4883TIP3    H114613   3.809   0.032   2.443
 4883TIP3    H214614   3.802   0.140   2.337
 4884TIP3   OH214615   5.485   6.216   5.102
 4884TIP3    H114616   5.526   6.163   5.170
 4884TIP3    H214617   5.393   6.224   5.129
 4885TIP3   OH214618   2.894   5.118   4.737
 4885TIP3    H114619   2.953   5.043   4.726
 4885TIP3    H214620   2.877   5.147   4.647
 4886TIP3   OH214621   5.705   0.799   3.165
 4886TIP3    H114622   5.773   0.746   3.207
 4886TIP3    H214623   5.628   0.789   3.222
 4887TIP3   OH214624   1.412   0.072   4.756
 4887TIP3    H114625   1.334   0.035   4.717
 4887TIP3    H214626   1.478   0.070   4.685
 4888TIP3   OH214627   3.206   2.074   5.639
 4888TIP3    H114628   3.246   2.045   5.557
 4888TIP3    H214629   3.202   1.995   5.693
 4889TIP3   OH214630   5.631   5.769   2.869
 4889TIP3    H114631   5.705   5.728   2.823
 4889TIP3    H214632   5.579   5.809   2.799
 4890TIP3   OH214633   5.659   6.087   0.212
 4890TIP3    H114634   5.586   6.026   0.218
 4890TIP3    H214635   5.663   6.130   0.298
 4891TIP3   OH214636   1.567   2.362   0.632
 4891TIP3    H114637   1.510   2.361   0.709
 4891TIP3    H214638   1.552   2.447   0.592
 4892TIP3   OH214639   2.563   0.320   5.273
 4892TIP3    H114640   2.585   0.354   5.360
 4892TIP3    H214641   2.647   0.317   5.226
 4893TIP3   OH214642   3.049   1.882   3.826
 4893TIP3    H114643   3.101   1.840   3.894
 4893TIP3    H214644   2.960   1.850   3.840
 4894TIP3   OH214645   6.429   3.297   3.872
 4894TIP3    H114646   6.459   3.284   3.781
 4894TIP3    H214647   6.484   3.368   3.905
 4895TIP3   OH214648   6.072   5.573   0.572
 4895TIP3    H114649   5.997   5.631   0.561
 4895TIP3    H214650   6.059   5.534   0.659
 4896TIP3   OH214651   0.668   5.275   1.605
 4896TIP3    H114652   0.598   5.312   1.658
 4896TIP3    H214653   0.748   5.298   1.652
 4897TIP3   OH214654   2.844   2.529   0.596
 4897TIP3    H114655   2.872   2.620   0.602
 4897TIP3    H214656   2.800   2.522   0.510
 4898TIP3   OH214657   1.448   4.294   5.359
 4898TIP3    H114658   1.457   4.323   5.268
 4898TIP3    H214659   1.389   4.358   5.399
 4899TIP3   OH214660   2.755   3.721   4.026
 4899TIP3    H114661   2.780   3.807   3.990
 4899TIP3    H214662   2.837   3.673   4.033
 4900TIP3   OH214663   0.287   6.411   0.643
 4900TIP3    H114664   0.322   6.487   0.690
 4900TIP3    H214665   0.268   6.444   0.555
 4901TIP3   OH214666   1.996   6.590   3.235
 4901TIP3    H114667   2.032   6.541   3.308
 4901TIP3    H214668   1.947   6.662   3.276
 4902TIP3   OH214669   6.317   6.733   4.097
 4902TIP3    H114670   6.396   6.730   4.043
 4902TIP3    H214671   6.250   6.770   4.040
 4903TIP3   OH214672   6.531   5.812   3.375
 4903TIP3    H114673   6.590   5.739   3.355
 4903TIP3    H214674   6.456   5.799   3.317
 4904TIP3   OH214675   1.335   2.284   1.870
 4904TIP3    H114676   1.365   2.193   1.861
 4904TIP3    H214677   1.245   2.276   1.902
 4905TIP3   OH214678   0.486   3.343   2.366
 4905TIP3    H114679   0.471   3.415   2.305
 4905TIP3    H214680   0.557   3.373   2.422
 4906TIP3   OH214681   6.213   3.192   1.754
 4906TIP3    H114682   6.281   3.258   1.766
 4906TIP3    H214683   6.244   3.116   1.804
 4907TIP3   OH214684   7.099   4.913   1.897
 4907TIP3    H114685   7.128   4.895   1.986
 4907TIP3    H214686   7.003   4.911   1.902
 4908TIP3   OH214687   2.038   6.668   5.141
 4908TIP3    H114688   2.043   6.759   5.170
 4908TIP3    H214689   2.129   6.637   5.144
 4909TIP3   OH214690   1.435   3.497   2.471
 4909TIP3    H114691   1.511   3.544   2.437
 4909TIP3    H214692   1.462   3.468   2.558
 4910TIP3   OH214693   1.280   5.522   1.024
 4910TIP3    H114694   1.312   5.463   0.956
 4910TIP3    H214695   1.353   5.582   1.040
 4911TIP3   OH214696   0.049   4.240   3.981
 4911TIP3    H114697   0.012   4.283   3.904
 4911TIP3    H214698   0.123   4.294   4.006
 4912TIP3   OH214699   2.557   1.554   4.705
 4912TIP3    H114700   2.566   1.512   4.791
 4912TIP3    H214701   2.489   1.620   4.717
 4913TIP3   OH214702   6.437   1.788   2.139
 4913TIP3    H114703   6.475   1.735   2.208
 4913TIP3    H214704   6.429   1.876   2.176
 4914TIP3   OH214705   5.474   3.777   1.709
 4914TIP3    H114706   5.476   3.702   1.768
 4914TIP3    H214707   5.381   3.799   1.702
 4915TIP3   OH214708   0.951   5.833   2.023
 4915TIP3    H114709   0.921   5.764   1.964
 4915TIP3    H214710   1.026   5.872   1.978
 4916TIP3   OH214711   4.495   0.780   1.953
 4916TIP3    H114712   4.589   0.795   1.969
 4916TIP3    H214713   4.466   0.731   2.030
 4917TIP3   OH214714   4.399   1.664   0.907
 4917TIP3    H114715   4.393   1.625   0.820
 4917TIP3    H214716   4.480   1.715   0.905
 4918TIP3   OH214717   1.584   6.382   2.274
 4918TIP3    H114718   1.554   6.467   2.307
 4918TIP3    H214719   1.523   6.361   2.203
 4919TIP3   OH214720   1.641   3.046   2.316
 4919TIP3    H114721   1.717   3.040   2.374
 4919TIP3    H214722   1.569   3.010   2.368
 4920TIP3   OH214723   1.572   3.026   5.530
 4920TIP3    H114724   1.660   3.047   5.560
 4920TIP3    H214725   1.516   3.091   5.574
 4921TIP3   OH214726   6.166   2.220   1.755
 4921TIP3    H114727   6.131   2.292   1.703
 4921TIP3    H214728   6.157   2.249   1.845
 4922TIP3   OH214729   1.568   5.820   1.367
 4922TIP3    H114730   1.608   5.778   1.443
 4922TIP3    H214731   1.476   5.832   1.392
 4923TIP3   OH214732   3.279   6.000   5.900
 4923TIP3    H114733   3.189   5.969   5.900
 4923TIP3    H214734   3.325   5.940   5.841
 4924TIP3   OH214735   5.917   5.035   1.599
 4924TIP3    H114736   5.984   5.055   1.534
 4924TIP3    H214737   5.961   5.050   1.683
 4925TIP3   OH214738   0.161   2.952   3.416
 4925TIP3    H114739   0.201   2.903   3.344
 4925TIP3    H214740   0.078   2.983   3.381
 4926TIP3   OH214741   6.262   3.278   0.179
 4926TIP3    H114742   6.251   3.215   0.250
 4926TIP3    H214743   6.342   3.250   0.135
 4927TIP3   OH214744   3.841   6.430   1.899
 4927TIP3    H114745   3.897   6.495   1.855
 4927TIP3    H214746   3.883   6.416   1.984
 4928TIP3   OH214747   6.283   2.290   5.652
 4928TIP3    H114748   6.277   2.194   5.653
 4928TIP3    H214749   6.355   2.309   5.592
 4929TIP3   OH214750   1.115   3.339   1.776
 4929TIP3    H114751   1.100   3.377   1.862
 4929TIP3    H214752   1.156   3.254   1.794
 4930TIP3   OH214753   3.902   3.434   3.180
 4930TIP3    H114754   3.844   3.509   3.194
 4930TIP3    H214755   3.846   3.369   3.138
 4931TIP3   OH214756   6.552   1.860   3.638
 4931TIP3    H114757   6.543   1.770   3.666
 4931TIP3    H214758   6.468   1.900   3.658
 4932TIP3   OH214759   1.172   1.754   5.738
 4932TIP3    H114760   1.260   1.792   5.738
 4932TIP3    H214761   1.158   1.727   5.647
 4933TIP3   OH214762   6.978   0.557   4.997
 4933TIP3    H114763   7.004   0.469   5.025
 4933TIP3    H214764   6.973   0.608   5.078
 4934TIP3   OH214765   2.692   4.043   2.879
 4934TIP3    H114766   2.644   3.994   2.813
 4934TIP3    H214767   2.719   3.977   2.943
 4935TIP3   OH214768   5.555   3.130   3.033
 4935TIP3    H114769   5.632   3.158   2.982
 4935TIP3    H214770   5.555   3.034   3.024
 4936TIP3   OH214771   1.036   5.475   4.371
 4936TIP3    H114772   1.041   5.569   4.392
 4936TIP3    H214773   1.128   5.449   4.359
 4937TIP3   OH214774   4.177   4.607   1.811
 4937TIP3    H114775   4.164   4.577   1.721
 4937TIP3    H214776   4.243   4.547   1.847
 4938TIP3   OH214777   6.404   6.800   3.077
 4938TIP3    H114778   6.419   6.761   2.991
 4938TIP3    H214779   6.310   6.791   3.092
 4939TIP3   OH214780   2.280   2.552   5.070
 4939TIP3    H114781   2.281   2.483   5.003
 4939TIP3    H214782   2.217   2.521   5.136
 4940TIP3   OH214783   4.427   5.056   1.477
 4940TIP3    H114784   4.415   5.138   1.526
 4940TIP3    H214785   4.411   5.081   1.386
 4941TIP3   OH214786   2.642   4.318   5.686
 4941TIP3    H114787   2.643   4.411   5.665
 4941TIP3    H214788   2.626   4.315   5.781
 4942TIP3   OH214789   4.634   5.945   1.434
 4942TIP3    H114790   4.660   5.853   1.426
 4942TIP3    H214791   4.610   5.954   1.526
 4943TIP3   OH214792   5.778   5.690   2.572
 4943TIP3    H114793   5.767   5.599   2.601
 4943TIP3    H214794   5.703   5.706   2.514
 4944TIP3   OH214795   3.624   1.190   4.768
 4944TIP3    H114796   3.668   1.260   4.816
 4944TIP3    H214797   3.678   1.112   4.785
 4945TIP3   OH214798   2.718   3.347   3.060
 4945TIP3    H114799   2.689   3.261   3.029
 4945TIP3    H214800   2.774   3.329   3.134
 4946TIP3   OH214801   6.677   5.347   2.432
 4946TIP3    H114802   6.599   5.371   2.482
 4946TIP3    H214803   6.742   5.414   2.454
 4947TIP3   OH214804   2.864   1.426   4.634
 4947TIP3    H114805   2.913   1.445   4.714
 4947TIP3    H214806   2.790   1.487   4.636
 4948TIP3   OH214807   3.897   2.232   0.982
 4948TIP3    H114808   3.863   2.313   0.943
 4948TIP3    H214809   3.966   2.203   0.922
 4949TIP3   OH214810   2.574   4.594   5.061
 4949TIP3    H114811   2.513   4.612   4.989
 4949TIP3    H214812   2.659   4.626   5.029
 4950TIP3   OH214813   6.432   0.533   2.754
 4950TIP3    H114814   6.497   0.556   2.821
 4950TIP3    H214815   6.353   0.580   2.780
 4951TIP3   OH214816   1.503   0.589   2.760
 4951TIP3    H114817   1.590   0.550   2.747
 4951TIP3    H214818   1.460   0.579   2.675
 4952TIP3   OH214819   1.948   4.950   4.634
 4952TIP3    H114820   1.931   4.866   4.675
 4952TIP3    H214821   1.896   4.949   4.553
 4953TIP3   OH214822   0.546   0.196   2.571
 4953TIP3    H114823   0.549   0.271   2.512
 4953TIP3    H214824   0.484   0.136   2.530
 4954TIP3   OH214825   2.139   6.557   1.064
 4954TIP3    H114826   2.234   6.546   1.063
 4954TIP3    H214827   2.108   6.497   1.132
 4955TIP3   OH214828   4.494   1.500   2.740
 4955TIP3    H114829   4.480   1.579   2.687
 4955TIP3    H214830   4.416   1.446   2.724
 4956TIP3   OH214831   4.661   4.762   0.347
 4956TIP3    H114832   4.630   4.699   0.282
 4956TIP3    H214833   4.714   4.824   0.298
 4957TIP3   OH214834   3.504   1.409   1.364
 4957TIP3    H114835   3.482   1.417   1.456
 4957TIP3    H214836   3.558   1.329   1.358
 4958TIP3   OH214837   2.276   4.534   4.323
 4958TIP3    H114838   2.202   4.539   4.263
 4958TIP3    H214839   2.236   4.523   4.410
 4959TIP3   OH214840   4.148   6.146   1.635
 4959TIP3    H114841   4.202   6.192   1.571
 4959TIP3    H214842   4.202   6.073   1.664
 4960TIP3   OH214843   5.910   5.315   1.036
 4960TIP3    H114844   5.846   5.380   1.005
 4960TIP3    H214845   5.936   5.267   0.958
 4961TIP3   OH214846   5.128   4.225   2.898
 4961TIP3    H114847   5.127   4.317   2.923
 4961TIP3    H214848   5.039   4.194   2.914
 4962TIP3   OH214849   0.315   6.095   3.705
 4962TIP3    H114850   0.375   6.023   3.686
 4962TIP3    H214851   0.372   6.171   3.721
 4963TIP3   OH214852   3.934   3.940   2.269
 4963TIP3    H114853   3.995   4.013   2.274
 4963TIP3    H214854   3.934   3.915   2.177
 4964TIP3   OH214855   1.985   2.035   3.500
 4964TIP3    H114856   1.943   1.950   3.502
 4964TIP3    H214857   2.070   2.019   3.459
 4965TIP3   OH214858   2.779   6.687   5.800
 4965TIP3    H114859   2.717   6.659   5.733
 4965TIP3    H214860   2.830   6.609   5.820
 4966TIP3   OH214861   2.766   0.160   0.838
 4966TIP3    H114862   2.828   0.112   0.783
 4966TIP3    H214863   2.808   0.244   0.853
 4967TIP3   OH214864   5.176   3.587   4.333
 4967TIP3    H114865   5.142   3.669   4.297
 4967TIP3    H214866   5.222   3.546   4.260
 4968TIP3   OH214867   3.387   4.457   5.208
 4968TIP3    H114868   3.470   4.476   5.163
 4968TIP3    H214869   3.409   4.456   5.301
 4969TIP3   OH214870   5.380   4.011   0.294
 4969TIP3    H114871   5.368   4.037   0.202
 4969TIP3    H214872   5.457   3.955   0.294
 4970TIP3   OH214873   1.519   3.461   5.602
 4970TIP3    H114874   1.531   3.381   5.653
 4970TIP3    H214875   1.429   3.456   5.570
 4971TIP3   OH214876   0.658   0.810   0.288
 4971TIP3    H114877   0.566   0.801   0.266
 4971TIP3    H214878   0.704   0.806   0.204
 4972TIP3   OH214879   1.681   2.140   5.913
 4972TIP3    H114880   1.585   2.134   5.909
 4972TIP3    H214881   1.711   2.080   5.845
 4973TIP3   OH214882   1.098   6.274   3.538
 4973TIP3    H114883   1.171   6.270   3.600
 4973TIP3    H214884   1.020   6.279   3.593
 4974TIP3   OH214885   1.071   1.160   4.757
 4974TIP3    H114886   1.013   1.141   4.831
 4974TIP3    H214887   1.024   1.127   4.680
 4975TIP3   OH214888   1.297   0.092   0.653
 4975TIP3    H114889   1.313   0.058   0.741
 4975TIP3    H214890   1.294   0.187   0.664
 4976TIP3   OH214891   6.309   1.217   5.511
 4976TIP3    H114892   6.355   1.193   5.430
 4976TIP3    H214893   6.259   1.295   5.488
 4977TIP3   OH214894   7.209   4.773   3.485
 4977TIP3    H114895   7.243   4.688   3.458
 4977TIP3    H214896   7.204   4.767   3.581
 4978TIP3   OH214897   4.227   6.444   2.713
 4978TIP3    H114898   4.284   6.473   2.643
 4978TIP3    H214899   4.252   6.353   2.729
 4979TIP3   OH214900   5.677   6.544   3.240
 4979TIP3    H114901   5.742   6.615   3.244
 4979TIP3    H214902   5.643   6.538   3.329
 4980TIP3   OH214903   0.207   2.017   0.167
 4980TIP3    H114904   0.295   1.981   0.166
 4980TIP3    H214905   0.196   2.053   0.256
 4981TIP3   OH214906  -0.027   5.407   3.119
 4981TIP3    H114907   0.002   5.368   3.202
 4981TIP3    H214908   0.008   5.496   3.120
 4982TIP3   OH214909   3.083   0.713   0.416
 4982TIP3    H114910   3.061   0.729   0.508
 4982TIP3    H214911   3.089   0.800   0.377
 4983TIP3   OH214912   0.312   4.119   3.849
 4983TIP3    H114913   0.232   4.094   3.804
 4983TIP3    H214914   0.291   4.115   3.942
 4984TIP3   OH214915   6.146   5.333   4.943
 4984TIP3    H114916   6.090   5.311   5.018
 4984TIP3    H214917   6.085   5.354   4.872
 4985TIP3   OH214918   0.820   3.990   0.257
 4985TIP3    H114919   0.915   3.993   0.250
 4985TIP3    H214920   0.790   4.060   0.199
 4986TIP3   OH214921   7.019   5.953   5.491
 4986TIP3    H114922   6.935   5.922   5.525
 4986TIP3    H214923   6.999   5.982   5.402
 4987TIP3   OH214924   2.865   1.532   1.805
 4987TIP3    H114925   2.828   1.455   1.849
 4987TIP3    H214926   2.855   1.512   1.712
 4988TIP3   OH214927   5.058   3.035   5.004
 4988TIP3    H114928   4.967   3.065   5.009
 4988TIP3    H214929   5.055   2.944   5.033
 4989TIP3   OH214930   2.895   1.788   2.719
 4989TIP3    H114931   2.956   1.750   2.655
 4989TIP3    H214932   2.914   1.740   2.800
 4990TIP3   OH214933   2.603   1.425   3.522
 4990TIP3    H114934   2.674   1.473   3.564
 4990TIP3    H214935   2.646   1.354   3.474
 4991TIP3   OH214936   3.092   3.769   2.399
 4991TIP3    H114937   3.018   3.785   2.457
 4991TIP3    H214938   3.138   3.853   2.394
 4992TIP3   OH214939   2.688   5.098   0.388
 4992TIP3    H114940   2.595   5.110   0.408
 4992TIP3    H214941   2.733   5.125   0.468
 4993TIP3   OH214942   2.600   3.189   0.031
 4993TIP3    H114943   2.647   3.186  -0.052
 4993TIP3    H214944   2.550   3.271   0.028
 4994TIP3   OH214945   0.409   1.273   0.259
 4994TIP3    H114946   0.477   1.323   0.214
 4994TIP3    H214947   0.354   1.239   0.189
 4995TIP3   OH214948   2.874   3.239   5.701
 4995TIP3    H114949   2.802   3.261   5.641
 4995TIP3    H214950   2.910   3.158   5.667
 4996TIP3   OH214951   0.355   0.296   1.428
 4996TIP3    H114952   0.297   0.235   1.381
 4996TIP3    H214953   0.303   0.376   1.437
 4997TIP3   OH214954   0.276   3.880   1.190
 4997TIP3    H114955   0.307   3.844   1.106
 4997TIP3    H214956   0.199   3.932   1.166
 4998TIP3   OH214957   7.055   0.417   5.626
 4998TIP3    H114958   7.031   0.482   5.561
 4998TIP3    H214959   7.151   0.416   5.625
 4999TIP3   OH214960   1.593   4.103   2.919
 4999TIP3    H114961   1.579   4.092   2.825
 4999TIP3    H214962   1.548   4.185   2.941
 5000TIP3   OH214963   4.244   4.242   0.396
 5000TIP3    H114964   4.258   4.307   0.465
 5000TIP3    H214965   4.156   4.260   0.364
 5001TIP3   OH214966   3.451   5.893   5.581
 5001TIP3    H114967   3.453   5.907   5.487
 5001TIP3    H214968   3.535   5.853   5.602
 5002TIP3   OH214969   5.156   3.257   2.179
 5002TIP3    H114970   5.220   3.204   2.132
 5002TIP3    H214971   5.183   3.253   2.270
 5003TIP3   OH214972   1.678   3.643   4.292
 5003TIP3    H114973   1.623   3.582   4.340
 5003TIP3    H214974   1.737   3.680   4.358
 5004TIP3   OH214975   0.740   5.056   0.011
 5004TIP3    H114976   0.753   5.139  -0.036
 5004TIP3    H214977   0.787   5.068   0.094
 5005TIP3   OH214978   5.334   0.249   3.012
 5005TIP3    H114979   5.251   0.209   3.037
 5005TIP3    H214980   5.399   0.181   3.027
 5006TIP3   OH214981   1.618   0.052   1.294
 5006TIP3    H114982   1.527   0.024   1.286
 5006TIP3    H214983   1.621   0.138   1.252
 5007TIP3   OH214984   5.836   3.945   1.741
 5007TIP3    H114985   5.807   3.963   1.830
 5007TIP3    H214986   5.765   3.893   1.703
 5008TIP3   OH214987   0.138   2.071   0.465
 5008TIP3    H114988   0.163   2.162   0.447
 5008TIP3    H214989   0.164   2.057   0.556
 5009TIP3   OH214990   1.245   4.193   4.325
 5009TIP3    H114991   1.262   4.148   4.409
 5009TIP3    H214992   1.191   4.131   4.276
 5010TIP3   OH214993   4.175   6.092   4.610
 5010TIP3    H114994   4.237   6.095   4.537
 5010TIP3    H214995   4.139   6.003   4.606
 5011TIP3   OH214996   2.417   6.481   1.054
 5011TIP3    H114997   2.495   6.533   1.071
 5011TIP3    H214998   2.450   6.392   1.039
 5012TIP3   OH214999   1.101   4.503   1.955
 5012TIP3    H115000   1.110   4.570   2.023
 5012TIP3    H215001   1.129   4.422   1.998
 5013TIP3   OH215002   1.902   2.716   3.998
 5013TIP3    H115003   1.857   2.791   4.038
 5013TIP3    H215004   1.882   2.642   4.054
 5014TIP3   OH215005   1.723   0.149   4.927
 5014TIP3    H115006   1.775   0.194   4.861
 5014TIP3    H215007   1.701   0.216   4.991
 5015TIP3   OH215008   5.682   4.685   0.476
 5015TIP3    H115009   5.740   4.752   0.440
 5015TIP3    H215010   5.596   4.708   0.442
 5016TIP3   OH215011   1.186   3.062   3.410
 5016TIP3    H115012   1.239   3.083   3.334
 5016TIP3    H215013   1.140   3.144   3.430
 5017TIP3   OH215014   6.866   6.023   1.124
 5017TIP3    H115015   6.922   5.953   1.090
 5017TIP3    H215016   6.815   5.982   1.193
 5018TIP3   OH215017   6.964   2.991   2.206
 5018TIP3    H115018   7.058   3.007   2.217
 5018TIP3    H215019   6.959   2.927   2.134
 5019TIP3   OH215020   0.373   0.072   3.529
 5019TIP3    H115021   0.367  -0.007   3.583
 5019TIP3    H215022   0.466   0.095   3.533
 5020TIP3   OH215023   0.722   6.007   5.450
 5020TIP3    H115024   0.761   6.094   5.461
 5020TIP3    H215025   0.788   5.956   5.404
 5021TIP3   OH215026   0.428   3.958   5.482
 5021TIP3    H115027   0.492   3.891   5.456
 5021TIP3    H215028   0.384   3.981   5.400
 5022TIP3   OH215029   5.480   5.027   3.429
 5022TIP3    H115030   5.481   4.937   3.461
 5022TIP3    H215031   5.392   5.040   3.394
 5023TIP3   OH215032   6.993   3.511   0.570
 5023TIP3    H115033   6.912   3.544   0.609
 5023TIP3    H215034   7.006   3.426   0.611
 5024TIP3   OH215035   5.164   6.094   1.332
 5024TIP3    H115036   5.196   6.020   1.383
 5024TIP3    H215037   5.202   6.080   1.245
 5025TIP3   OH215038   6.364   3.483   5.223
 5025TIP3    H115039   6.406   3.561   5.187
 5025TIP3    H215040   6.271   3.504   5.223
 5026TIP3   OH215041   0.236   4.489   4.686
 5026TIP3    H115042   0.168   4.425   4.709
 5026TIP3    H215043   0.269   4.459   4.601
 5027TIP3   OH215044   6.893   5.242   4.018
 5027TIP3    H115045   6.805   5.278   4.030
 5027TIP3    H215046   6.940   5.309   3.969
 5028TIP3   OH215047   4.252   1.744   2.809
 5028TIP3    H115048   4.316   1.684   2.848
 5028TIP3    H215049   4.291   1.771   2.726
 5029TIP3   OH215050   0.098   4.171   4.403
 5029TIP3    H115051   0.023   4.112   4.393
 5029TIP3    H215052   0.059   4.253   4.433
 5030TIP3   OH215053   6.949   1.877   4.546
 5030TIP3    H115054   7.024   1.872   4.486
 5030TIP3    H215055   6.878   1.911   4.492
 5031TIP3   OH215056   0.724   1.867   1.195
 5031TIP3    H115057   0.642   1.861   1.243
 5031TIP3    H215058   0.705   1.925   1.121
 5032TIP3   OH215059   4.931   0.447   4.026
 5032TIP3    H115060   4.931   0.483   3.937
 5032TIP3    H215061   4.960   0.520   4.081
 5033TIP3   OH215062   0.828   0.098   0.879
 5033TIP3    H115063   0.899   0.136   0.931
 5033TIP3    H215064   0.785   0.173   0.838
 5034TIP3   OH215065   6.911   5.805   1.994
 5034TIP3    H115066   6.828   5.846   2.021
 5034TIP3    H215067   6.969   5.879   1.979
 5035TIP3   OH215068   6.027   6.139   3.890
 5035TIP3    H115069   6.068   6.219   3.923
 5035TIP3    H215070   5.947   6.131   3.942
 5036TIP3   OH215071   1.623   2.152   1.574
 5036TIP3    H115072   1.540   2.159   1.527
 5036TIP3    H215073   1.690   2.155   1.506
 5037TIP3   OH215074   6.204   3.252   1.467
 5037TIP3    H115075   6.155   3.282   1.544
 5037TIP3    H215076   6.281   3.209   1.504
 5038TIP3   OH215077   1.431   1.824   4.970
 5038TIP3    H115078   1.355   1.785   4.926
 5038TIP3    H215079   1.506   1.795   4.919
 5039TIP3   OH215080   6.854   4.422   4.430
 5039TIP3    H115081   6.791   4.434   4.359
 5039TIP3    H215082   6.811   4.461   4.507
 5040TIP3   OH215083   4.899   1.720   4.353
 5040TIP3    H115084   4.844   1.796   4.368
 5040TIP3    H215085   4.839   1.645   4.355
 5041TIP3   OH215086   7.188   4.866   5.068
 5041TIP3    H115087   7.148   4.947   5.100
 5041TIP3    H215088   7.235   4.892   4.989
 5042TIP3   OH215089   5.604   1.227   0.602
 5042TIP3    H115090   5.508   1.219   0.603
 5042TIP3    H215091   5.627   1.236   0.510
 5043TIP3   OH215092   0.921   5.247   3.087
 5043TIP3    H115093   0.970   5.166   3.073
 5043TIP3    H215094   0.980   5.304   3.137
 5044TIP3   OH215095   6.155   0.483   3.316
 5044TIP3    H115096   6.083   0.545   3.308
 5044TIP3    H215097   6.140   0.439   3.400
 5045TIP3   OH215098   6.087   5.197   5.758
 5045TIP3    H115099   6.161   5.206   5.818
 5045TIP3    H215100   6.024   5.262   5.789
 5046TIP3   OH215101   1.315   5.439   4.352
 5046TIP3    H115102   1.343   5.373   4.415
 5046TIP3    H215103   1.392   5.456   4.299
 5047TIP3   OH215104   3.672   6.611   5.201
 5047TIP3    H115105   3.731   6.536   5.217
 5047TIP3    H215106   3.600   6.598   5.263
 5048TIP3   OH215107   0.938   1.876   1.543
 5048TIP3    H115108   0.898   1.791   1.526
 5048TIP3    H215109   0.921   1.893   1.636
 5049TIP3   OH215110   5.358   1.661   3.266
 5049TIP3    H115111   5.347   1.755   3.284
 5049TIP3    H215112   5.285   1.620   3.313
 5050TIP3   OH215113   1.589   4.631   0.965
 5050TIP3    H115114   1.634   4.671   0.890
 5050TIP3    H215115   1.582   4.539   0.943
 5051TIP3   OH215116   2.110   2.263   5.258
 5051TIP3    H115117   2.024   2.221   5.252
 5051TIP3    H215118   2.092   2.356   5.253
 5052TIP3   OH215119   5.546   4.291   4.404
 5052TIP3    H115120   5.503   4.258   4.326
 5052TIP3    H215121   5.516   4.233   4.474
 5053TIP3   OH215122   5.573   0.447   4.829
 5053TIP3    H115123   5.570   0.352   4.845
 5053TIP3    H215124   5.495   0.465   4.778
 5054TIP3   OH215125   4.485   6.200   5.801
 5054TIP3    H115126   4.462   6.109   5.818
 5054TIP3    H215127   4.407   6.237   5.759
 5055TIP3   OH215128   6.097   4.422   5.090
 5055TIP3    H115129   6.074   4.334   5.119
 5055TIP3    H215130   6.148   4.459   5.162
 5056TIP3   OH215131   5.866   1.257   1.036
 5056TIP3    H115132   5.902   1.188   1.092
 5056TIP3    H215133   5.801   1.214   0.982
 5057TIP3   OH215134   7.023   2.418   2.811
 5057TIP3    H115135   6.953   2.465   2.857
 5057TIP3    H215136   7.077   2.487   2.773
 5058TIP3   OH215137   0.454   0.198   0.467
 5058TIP3    H115138   0.512   0.274   0.466
 5058TIP3    H215139   0.465   0.159   0.380
 5059TIP3   OH215140   2.381   4.534   3.807
 5059TIP3    H115141   2.314   4.524   3.740
 5059TIP3    H215142   2.396   4.629   3.813
 5060TIP3   OH215143   2.753   0.926   4.805
 5060TIP3    H115144   2.819   0.928   4.736
 5060TIP3    H215145   2.751   0.834   4.833
 5061TIP3   OH215146   1.644   1.361   0.641
 5061TIP3    H115147   1.611   1.352   0.552
 5061TIP3    H215148   1.705   1.434   0.638
 5062TIP3   OH215149   5.014   6.336   0.996
 5062TIP3    H115150   5.058   6.278   1.058
 5062TIP3    H215151   5.061   6.323   0.913
 5063TIP3   OH215152   1.169   6.437   5.352
 5063TIP3    H115153   1.238   6.372   5.361
 5063TIP3    H215154   1.121   6.410   5.274
 5064TIP3   OH215155   3.359   3.732   4.524
 5064TIP3    H115156   3.381   3.788   4.449
 5064TIP3    H215157   3.321   3.653   4.484
 5065TIP3   OH215158   0.560   5.934   5.912
 5065TIP3    H115159   0.543   5.991   5.836
 5065TIP3    H215160   0.639   5.970   5.952
 5066TIP3   OH215161   1.116   5.146   4.806
 5066TIP3    H115162   1.090   5.220   4.861
 5066TIP3    H215163   1.209   5.134   4.825
 5067TIP3   OH215164   0.725   1.902   3.564
 5067TIP3    H115165   0.646   1.853   3.544
 5067TIP3    H215166   0.766   1.852   3.635
 5068TIP3   OH215167   7.011   2.795   4.551
 5068TIP3    H115168   6.921   2.763   4.543
 5068TIP3    H215169   7.016   2.868   4.489
 5069TIP3   OH215170   3.576   3.316   4.135
 5069TIP3    H115171   3.497   3.359   4.103
 5069TIP3    H215172   3.593   3.357   4.219
 5070TIP3   OH215173   0.774   5.887   3.305
 5070TIP3    H115174   0.680   5.904   3.305
 5070TIP3    H215175   0.814   5.972   3.288
 5071TIP3   OH215176   3.315   4.665   5.734
 5071TIP3    H115177   3.229   4.704   5.719
 5071TIP3    H215178   3.297   4.580   5.775
 5072TIP3   OH215179   4.216   0.454   1.440
 5072TIP3    H115180   4.189   0.419   1.524
 5072TIP3    H215181   4.181   0.394   1.375
 5073TIP3   OH215182   2.596   2.540   2.221
 5073TIP3    H115183   2.656   2.468   2.199
 5073TIP3    H215184   2.600   2.599   2.145
 5074TIP3   OH215185   3.809   6.263   2.762
 5074TIP3    H115186   3.772   6.311   2.836
 5074TIP3    H215187   3.735   6.245   2.705
 5075TIP3   OH215188   3.036   4.704   3.563
 5075TIP3    H115189   2.966   4.638   3.564
 5075TIP3    H215190   3.115   4.654   3.543
 5076TIP3   OH215191   3.113   3.378   3.389
 5076TIP3    H115192   3.114   3.465   3.428
 5076TIP3    H215193   3.168   3.325   3.446
 5077TIP3   OH215194   3.528   3.774   5.415
 5077TIP3    H115195   3.493   3.863   5.421
 5077TIP3    H215196   3.582   3.764   5.494
 5078TIP3   OH215197   4.546   0.259   0.187
 5078TIP3    H115198   4.475   0.266   0.122
 5078TIP3    H215199   4.514   0.195   0.250
 5079TIP3   OH215200   4.657   6.382   3.114
 5079TIP3    H115201   4.588   6.404   3.177
 5079TIP3    H215202   4.730   6.350   3.168
 5080TIP3   OH215203   6.862   2.951   3.301
 5080TIP3    H115204   6.836   2.939   3.210
 5080TIP3    H215205   6.844   3.043   3.319
 5081TIP3   OH215206   2.842   0.355   1.783
 5081TIP3    H115207   2.779   0.334   1.714
 5081TIP3    H215208   2.922   0.310   1.757
 5082TIP3   OH215209   5.420   5.324   2.643
 5082TIP3    H115210   5.408   5.235   2.610
 5082TIP3    H215211   5.357   5.331   2.714
 5083TIP3   OH215212   0.911   6.330   3.747
 5083TIP3    H115213   0.920   6.359   3.837
 5083TIP3    H215214   0.822   6.297   3.740
 5084TIP3   OH215215   0.380   2.856   4.653
 5084TIP3    H115216   0.319   2.836   4.581
 5084TIP3    H215217   0.367   2.786   4.716
 5085TIP3   OH215218   1.971   4.128   3.175
 5085TIP3    H115219   2.004   4.097   3.091
 5085TIP3    H215220   1.927   4.052   3.213
 5086TIP3   OH215221   4.143   2.921   4.082
 5086TIP3    H115222   4.204   2.903   4.011
 5086TIP3    H215223   4.174   2.866   4.154
 5087TIP3   OH215224   6.237   4.744   2.565
 5087TIP3    H115225   6.297   4.800   2.614
 5087TIP3    H215226   6.150   4.782   2.579
 5088TIP3   OH215227   1.613   6.209   0.031
 5088TIP3    H115228   1.525   6.235   0.057
 5088TIP3    H215229   1.658   6.189   0.114
 5089TIP3   OH215230   4.905   5.348   5.619
 5089TIP3    H115231   4.858   5.383   5.543
 5089TIP3    H215232   4.995   5.381   5.608
 5090TIP3   OH215233   4.016   6.544   2.352
 5090TIP3    H115234   4.022   6.464   2.404
 5090TIP3    H215235   4.058   6.611   2.405
 5091TIP3   OH215236   6.261   5.560   4.310
 5091TIP3    H115237   6.213   5.633   4.350
 5091TIP3    H215238   6.324   5.602   4.251
 5092TIP3   OH215239   1.549   4.828   2.903
 5092TIP3    H115240   1.493   4.770   2.852
 5092TIP3    H215241   1.608   4.770   2.951
 5093TIP3   OH215242   6.439   5.968   2.928
 5093TIP3    H115243   6.528   5.947   2.899
 5093TIP3    H215244   6.438   5.947   3.021
 5094TIP3   OH215245   1.904   2.270   0.063
 5094TIP3    H115246   1.988   2.268   0.017
 5094TIP3    H215247   1.858   2.192   0.033
 5095TIP3   OH215248   5.323   2.927   5.800
 5095TIP3    H115249   5.273   2.859   5.755
 5095TIP3    H215250   5.342   2.991   5.732
 5096TIP3   OH215251   2.140   0.991   2.090
 5096TIP3    H115252   2.204   1.040   2.142
 5096TIP3    H215253   2.059   1.041   2.099
 5097TIP3   OH215254   2.186   5.725   2.219
 5097TIP3    H115255   2.140   5.682   2.291
 5097TIP3    H215256   2.195   5.816   2.248
 5098TIP3   OH215257   2.250   4.454   1.771
 5098TIP3    H115258   2.249   4.363   1.798
 5098TIP3    H215259   2.262   4.503   1.852
 5099TIP3   OH215260   0.282   4.387   4.121
 5099TIP3    H115261   0.327   4.439   4.055
 5099TIP3    H215262   0.310   4.425   4.204
 5100TIP3   OH215263   0.298   6.276   1.700
 5100TIP3    H115264   0.344   6.197   1.729
 5100TIP3    H215265   0.209   6.264   1.732
 5101TIP3   OH215266   6.425   5.686   2.552
 5101TIP3    H115267   6.437   5.764   2.498
 5101TIP3    H215268   6.512   5.667   2.586
 5102TIP3   OH215269   6.071   1.894   3.547
 5102TIP3    H115270   6.042   1.811   3.508
 5102TIP3    H215271   6.117   1.939   3.477
 5103TIP3   OH215272   5.443   2.780   2.050
 5103TIP3    H115273   5.503   2.712   2.017
 5103TIP3    H215274   5.356   2.745   2.032
 5104TIP3   OH215275   2.233   4.805   1.477
 5104TIP3    H115276   2.191   4.728   1.515
 5104TIP3    H215277   2.211   4.800   1.383
 5105TIP3   OH215278   3.225   1.819   3.061
 5105TIP3    H115279   3.229   1.756   2.989
 5105TIP3    H215280   3.149   1.792   3.113
 5106TIP3   OH215281   2.235   6.622   3.364
 5106TIP3    H115282   2.232   6.615   3.269
 5106TIP3    H215283   2.322   6.589   3.388
 5107TIP3   OH215284   4.394   4.118   1.305
 5107TIP3    H115285   4.445   4.142   1.382
 5107TIP3    H215286   4.337   4.193   1.289
 5108TIP3   OH215287   6.317   5.556   1.878
 5108TIP3    H115288   6.260   5.577   1.804
 5108TIP3    H215289   6.315   5.635   1.933
 5109TIP3   OH215290   2.147   1.936   5.163
 5109TIP3    H115291   2.086   1.999   5.202
 5109TIP3    H215292   2.229   1.949   5.211
 5110TIP3   OH215293   4.963   5.479   2.464
 5110TIP3    H115294   5.034   5.426   2.428
 5110TIP3    H215295   4.973   5.472   2.559
 5111TIP3   OH215296   0.812   0.251   2.277
 5111TIP3    H115297   0.749   0.179   2.288
 5111TIP3    H215298   0.779   0.300   2.202
 5112TIP3   OH215299   2.534   5.508   2.043
 5112TIP3    H115300   2.590   5.554   2.106
 5112TIP3    H215301   2.583   5.512   1.961
 5113TIP3   OH215302   3.573   1.778   4.222
 5113TIP3    H115303   3.652   1.813   4.181
 5113TIP3    H215304   3.530   1.855   4.261
 5114TIP3   OH215305   3.020   1.740   2.135
 5114TIP3    H115306   3.083   1.799   2.176
 5114TIP3    H215307   2.938   1.756   2.181
 5115TIP3   OH215308   3.913   1.486   1.827
 5115TIP3    H115309   3.925   1.579   1.845
 5115TIP3    H215310   3.897   1.482   1.733
 5116TIP3   OH215311   5.618   1.542   3.617
 5116TIP3    H115312   5.666   1.526   3.698
 5116TIP3    H215313   5.538   1.491   3.625
 5117TIP3   OH215314   2.322   2.309   5.506
 5117TIP3    H115315   2.323   2.247   5.433
 5117TIP3    H215316   2.316   2.395   5.464
 5118TIP3   OH215317   2.446   2.942   1.910
 5118TIP3    H115318   2.448   2.908   1.821
 5118TIP3    H215319   2.492   3.025   1.905
 5119TIP3   OH215320   1.094   6.688   4.974
 5119TIP3    H115321   1.024   6.623   4.982
 5119TIP3    H215322   1.048   6.773   4.976
 5120TIP3   OH215323   1.157   1.670   0.796
 5120TIP3    H115324   1.214   1.673   0.872
 5120TIP3    H215325   1.186   1.594   0.747
 5121TIP3   OH215326   6.201   6.683   5.693
 5121TIP3    H115327   6.125   6.699   5.636
 5121TIP3    H215328   6.177   6.724   5.777
 5122TIP3   OH215329   0.044   0.871   5.329
 5122TIP3    H115330   0.015   0.957   5.358
 5122TIP3    H215331   0.046   0.876   5.233
 5123TIP3   OH215332   4.522   5.170   4.846
 5123TIP3    H115333   4.538   5.091   4.898
 5123TIP3    H215334   4.436   5.201   4.875
 5124TIP3   OH215335   0.009   1.964   2.345
 5124TIP3    H115336   0.020   2.040   2.402
 5124TIP3    H215337   0.024   1.889   2.401
 5125TIP3   OH215338   4.534   6.692   1.172
 5125TIP3    H115339   4.560   6.755   1.239
 5125TIP3    H215340   4.465   6.640   1.213
 5126TIP3   OH215341   1.478   3.799   2.811
 5126TIP3    H115342   1.527   3.881   2.798
 5126TIP3    H215343   1.532   3.732   2.768
 5127TIP3   OH215344   6.746   5.640   4.913
 5127TIP3    H115345   6.713   5.640   5.003
 5127TIP3    H215346   6.839   5.620   4.922
 5128TIP3   OH215347   1.518   1.638   5.465
 5128TIP3    H115348   1.559   1.648   5.551
 5128TIP3    H215349   1.441   1.695   5.469
 5129TIP3   OH215350   0.814   2.248   4.727
 5129TIP3    H115351   0.844   2.175   4.672
 5129TIP3    H215352   0.742   2.211   4.778
 5130TIP3   OH215353   0.034   4.995   2.468
 5130TIP3    H115354   0.061   4.909   2.498
 5130TIP3    H215355   0.096   5.018   2.398
 5131TIP3   OH215356   4.713   3.200   1.439
 5131TIP3    H115357   4.624   3.231   1.421
 5131TIP3    H215358   4.707   3.159   1.525
 5132TIP3   OH215359   0.259   4.310   5.429
 5132TIP3    H115360   0.326   4.246   5.402
 5132TIP3    H215361   0.197   4.311   5.356
 5133TIP3   OH215362   4.829   2.956   4.725
 5133TIP3    H115363   4.858   2.896   4.794
 5133TIP3    H215364   4.864   3.041   4.751
 5134TIP3   OH215365   3.077   5.949   3.393
 5134TIP3    H115366   2.991   5.983   3.367
 5134TIP3    H215367   3.105   5.895   3.319
 5135TIP3   OH215368   5.238   6.152   3.529
 5135TIP3    H115369   5.299   6.125   3.460
 5135TIP3    H215370   5.173   6.082   3.533
 5136TIP3   OH215371   0.376   3.847   3.940
 5136TIP3    H115372   0.384   3.926   3.887
 5136TIP3    H215373   0.302   3.865   3.998
 5137TIP3   OH215374   3.897   2.879   2.422
 5137TIP3    H115375   3.858   2.830   2.494
 5137TIP3    H215376   3.920   2.813   2.357
 5138TIP3   OH215377   1.677   3.784   0.064
 5138TIP3    H115378   1.667   3.875   0.094
 5138TIP3    H215379   1.588   3.749   0.065
 5139TIP3   OH215380   3.256   5.954   3.607
 5139TIP3    H115381   3.192   5.981   3.542
 5139TIP3    H215382   3.316   6.028   3.614
 5140TIP3   OH215383   3.641   3.600   2.610
 5140TIP3    H115384   3.558   3.647   2.619
 5140TIP3    H215385   3.637   3.561   2.522
 5141TIP3   OH215386   1.618   1.303   4.140
 5141TIP3    H115387   1.641   1.350   4.060
 5141TIP3    H215388   1.681   1.334   4.205
 5142TIP3   OH215389   6.562   3.855   4.684
 5142TIP3    H115390   6.623   3.837   4.613
 5142TIP3    H215391   6.532   3.769   4.713
 5143TIP3   OH215392   3.918   0.254   1.816
 5143TIP3    H115393   3.923   0.193   1.742
 5143TIP3    H215394   3.857   0.322   1.788
 5144TIP3   OH215395   6.662   2.869   1.175
 5144TIP3    H115396   6.705   2.795   1.217
 5144TIP3    H215397   6.573   2.871   1.212
 5145TIP3   OH215398   2.182   1.318   0.394
 5145TIP3    H115399   2.229   1.395   0.363
 5145TIP3    H215400   2.244   1.273   0.451
 5146TIP3   OH215401   3.565   6.318   2.470
 5146TIP3    H115402   3.505   6.373   2.420
 5146TIP3    H215403   3.595   6.373   2.542
 5147TIP3   OH215404   4.642   1.940   3.183
 5147TIP3    H115405   4.719   1.980   3.144
 5147TIP3    H215406   4.573   1.950   3.117
 5148TIP3   OH215407   5.575   3.853   5.764
 5148TIP3    H115408   5.656   3.884   5.803
 5148TIP3    H215409   5.518   3.834   5.839
 5149TIP3   OH215410   7.110   1.779   5.156
 5149TIP3    H115411   7.077   1.784   5.246
 5149TIP3    H215412   7.051   1.718   5.112
 5150TIP3   OH215413   3.974   2.258   0.025
 5150TIP3    H115414   3.965   2.292   0.114
 5150TIP3    H215415   3.906   2.192   0.017
 5151TIP3   OH215416   1.601   1.285   4.542
 5151TIP3    H115417   1.660   1.345   4.496
 5151TIP3    H215418   1.657   1.213   4.570
 5152TIP3   OH215419   6.467   4.102   4.617
 5152TIP3    H115420   6.490   4.013   4.645
 5152TIP3    H215421   6.547   4.153   4.631
 5153TIP3   OH215422   5.029   1.228   0.272
 5153TIP3    H115423   5.036   1.315   0.233
 5153TIP3    H215424   5.106   1.181   0.238
 5154TIP3   OH215425   4.765   3.885   5.466
 5154TIP3    H115426   4.689   3.850   5.513
 5154TIP3    H215427   4.836   3.881   5.529
 5155TIP3   OH215428   3.361   0.414   2.689
 5155TIP3    H115429   3.273   0.413   2.726
 5155TIP3    H215430   3.365   0.335   2.635
 5156TIP3   OH215431   2.381   5.857   1.722
 5156TIP3    H115432   2.364   5.897   1.637
 5156TIP3    H215433   2.308   5.797   1.736
 5157TIP3   OH215434   0.079   1.997   1.675
 5157TIP3    H115435   0.091   1.910   1.636
 5157TIP3    H215436   0.134   1.996   1.754
 5158TIP3   OH215437   3.526   5.752   4.759
 5158TIP3    H115438   3.572   5.746   4.675
 5158TIP3    H215439   3.505   5.845   4.767
 5159TIP3   OH215440   1.398   4.489   4.161
 5159TIP3    H115441   1.360   4.577   4.167
 5159TIP3    H215442   1.460   4.485   4.234
 5160TIP3   OH215443   0.909   1.660   2.980
 5160TIP3    H115444   0.857   1.711   2.919
 5160TIP3    H215445   0.846   1.605   3.026
 5161TIP3   OH215446   1.305   4.500   2.887
 5161TIP3    H115447   1.317   4.591   2.861
 5161TIP3    H215448   1.304   4.451   2.805
 5162TIP3   OH215449   7.018   6.406   1.524
 5162TIP3    H115450   6.988   6.316   1.515
 5162TIP3    H215451   6.945   6.459   1.491
 5163TIP3   OH215452   5.742   1.494   3.879
 5163TIP3    H115453   5.676   1.426   3.888
 5163TIP3    H215454   5.825   1.447   3.883
 5164TIP3   OH215455   5.859   4.861   2.305
 5164TIP3    H115456   5.938   4.837   2.353
 5164TIP3    H215457   5.891   4.898   2.223
 5165TIP3   OH215458   5.577   3.972   1.198
 5165TIP3    H115459   5.524   3.955   1.119
 5165TIP3    H215460   5.665   3.989   1.164
 5166TIP3   OH215461   1.762   6.192   2.135
 5166TIP3    H115462   1.726   6.269   2.179
 5166TIP3    H215463   1.750   6.210   2.042
 5167TIP3   OH215464   5.086   4.440   4.466
 5167TIP3    H115465   5.147   4.366   4.456
 5167TIP3    H215466   5.032   4.438   4.387
 5168TIP3   OH215467   5.970   5.170   1.254
 5168TIP3    H115468   5.915   5.214   1.320
 5168TIP3    H215469   5.966   5.228   1.178
 5169TIP3   OH215470   6.155   6.781   0.927
 5169TIP3    H115471   6.090   6.741   0.986
 5169TIP3    H215472   6.164   6.870   0.959
 5170TIP3   OH215473   5.460   4.640   2.152
 5170TIP3    H115474   5.424   4.554   2.135
 5170TIP3    H215475   5.553   4.632   2.129
 5171TIP3   OH215476   3.397   0.818   4.045
 5171TIP3    H115477   3.326   0.873   4.079
 5171TIP3    H215478   3.418   0.760   4.118
 5172TIP3   OH215479   6.537   2.223   3.900
 5172TIP3    H115480   6.519   2.222   3.806
 5172TIP3    H215481   6.450   2.219   3.942
 5173TIP3   OH215482   5.457   0.067   0.823
 5173TIP3    H115483   5.504   0.145   0.852
 5173TIP3    H215484   5.523  -0.002   0.823
 5174TIP3   OH215485   0.776   6.022   5.739
 5174TIP3    H115486   0.828   6.061   5.670
 5174TIP3    H215487   0.718   5.960   5.694
 5175TIP3   OH215488   4.474   3.024   4.982
 5175TIP3    H115489   4.518   2.963   4.922
 5175TIP3    H215490   4.442   2.969   5.053
 5176TIP3   OH215491   3.191   4.235   5.125
 5176TIP3    H115492   3.241   4.160   5.092
 5176TIP3    H215493   3.257   4.301   5.144
 5177TIP3   OH215494   4.745   3.841   0.031
 5177TIP3    H115495   4.838   3.826   0.015
 5177TIP3    H215496   4.717   3.765   0.083
 5178TIP3   OH215497   3.901   2.401   2.470
 5178TIP3    H115498   3.854   2.436   2.394
 5178TIP3    H215499   3.940   2.320   2.439
 5179TIP3   OH215500   4.634   4.462   3.880
 5179TIP3    H115501   4.539   4.447   3.880
 5179TIP3    H215502   4.671   4.374   3.882
 5180TIP3   OH215503   5.620   5.283   1.181
 5180TIP3    H115504   5.688   5.240   1.233
 5180TIP3    H215505   5.566   5.328   1.246
 5181TIP3   OH215506   2.088   3.970   1.869
 5181TIP3    H115507   2.167   4.015   1.838
 5181TIP3    H215508   2.115   3.928   1.951
 5182TIP3   OH215509   4.027   3.062   3.497
 5182TIP3    H115510   3.981   3.060   3.581
 5182TIP3    H215511   4.036   3.155   3.477
 5183TIP3   OH215512   0.986   4.766   5.714
 5183TIP3    H115513   1.056   4.808   5.664
 5183TIP3    H215514   0.946   4.838   5.763
 5184TIP3   OH215515   3.562   3.304   0.624
 5184TIP3    H115516   3.521   3.318   0.709
 5184TIP3    H215517   3.567   3.391   0.585
 5185TIP3   OH215518   3.494   5.343   4.120
 5185TIP3    H115519   3.556   5.270   4.126
 5185TIP3    H215520   3.409   5.303   4.137
 5186TIP3   OH215521   2.513   2.008   3.247
 5186TIP3    H115522   2.568   2.082   3.223
 5186TIP3    H215523   2.566   1.957   3.308
 5187TIP3   OH215524   6.074   1.566   4.054
 5187TIP3    H115525   6.069   1.625   4.129
 5187TIP3    H215526   6.044   1.618   3.980
 5188TIP3   OH215527   4.369   1.077   3.195
 5188TIP3    H115528   4.326   1.121   3.268
 5188TIP3    H215529   4.401   1.147   3.139
 5189TIP3   OH215530   5.793   3.003   3.862
 5189TIP3    H115531   5.760   2.915   3.876
 5189TIP3    H215532   5.826   3.003   3.773
 5190TIP3   OH215533   5.988   0.180   4.725
 5190TIP3    H115534   5.974   0.243   4.796
 5190TIP3    H215535   6.071   0.207   4.685
 5191TIP3   OH215536   1.416   0.973   3.172
 5191TIP3    H115537   1.442   0.882   3.180
 5191TIP3    H215538   1.447   1.000   3.086
 5192TIP3   OH215539   2.032   1.385   5.926
 5192TIP3    H115540   2.103   1.345   5.977
 5192TIP3    H215541   2.063   1.380   5.835
 5193TIP3   OH215542   4.575   4.991   0.472
 5193TIP3    H115543   4.555   5.036   0.390
 5193TIP3    H215544   4.600   4.903   0.445
 5194TIP3   OH215545   1.822   4.831   3.049
 5194TIP3    H115546   1.825   4.897   2.979
 5194TIP3    H215547   1.845   4.879   3.128
 5195TIP3   OH215548   0.485   4.074   4.627
 5195TIP3    H115549   0.581   4.076   4.623
 5195TIP3    H215550   0.462   3.992   4.584
 5196TIP3   OH215551   2.939   4.082   5.411
 5196TIP3    H115552   2.976   4.167   5.387
 5196TIP3    H215553   2.867   4.103   5.471
 5197TIP3   OH215554   5.492   2.924   0.370
 5197TIP3    H115555   5.417   2.943   0.314
 5197TIP3    H215556   5.460   2.938   0.459
 5198TIP3   OH215557   5.553   3.280   3.331
 5198TIP3    H115558   5.587   3.359   3.288
 5198TIP3    H215559   5.549   3.215   3.261
 5199TIP3   OH215560   6.146   1.559   5.762
 5199TIP3    H115561   6.192   1.500   5.822
 5199TIP3    H215562   6.054   1.550   5.786
 5200TIP3   OH215563   4.712   2.902   3.964
 5200TIP3    H115564   4.782   2.938   4.018
 5200TIP3    H215565   4.632   2.926   4.010
 5201TIP3   OH215566   5.002   1.722   4.637
 5201TIP3    H115567   5.019   1.738   4.544
 5201TIP3    H215568   5.007   1.809   4.677
 5202TIP3   OH215569   3.187   2.333   4.131
 5202TIP3    H115570   3.122   2.390   4.171
 5202TIP3    H215571   3.239   2.390   4.075
 5203TIP3   OH215572   6.322   3.138   0.720
 5203TIP3    H115573   6.353   3.048   0.714
 5203TIP3    H215574   6.323   3.169   0.630
 5204TIP3   OH215575   5.445   2.139   3.657
 5204TIP3    H115576   5.466   2.057   3.700
 5204TIP3    H215577   5.459   2.123   3.564
 5205TIP3   OH215578   3.630   2.633   0.628
 5205TIP3    H115579   3.574   2.615   0.553
 5205TIP3    H215580   3.714   2.659   0.590
 5206TIP3   OH215581   3.618   0.322   0.761
 5206TIP3    H115582   3.559   0.246   0.762
 5206TIP3    H215583   3.561   0.396   0.740
 5207TIP3   OH215584   3.435   4.138   0.078
 5207TIP3    H115585   3.397   4.148   0.165
 5207TIP3    H215586   3.437   4.044   0.062
 5208TIP3   OH215587   2.806   5.005   5.111
 5208TIP3    H115588   2.731   5.022   5.169
 5208TIP3    H215589   2.786   5.052   5.031
 5209TIP3   OH215590   6.277   4.163   0.720
 5209TIP3    H115591   6.195   4.180   0.674
 5209TIP3    H215592   6.334   4.124   0.654
 5210TIP3   OH215593   1.877   4.529   2.818
 5210TIP3    H115594   1.918   4.593   2.760
 5210TIP3    H215595   1.915   4.547   2.905
 5211TIP3   OH215596   5.730   4.988   5.707
 5211TIP3    H115597   5.635   4.984   5.700
 5211TIP3    H215598   5.748   4.987   5.801
 5212TIP3   OH215599   5.375   4.608   3.440
 5212TIP3    H115600   5.445   4.551   3.473
 5212TIP3    H215601   5.307   4.548   3.409
 5213TIP3   OH215602   0.770   0.987   2.344
 5213TIP3    H115603   0.763   0.955   2.434
 5213TIP3    H215604   0.735   1.076   2.347
 5214TIP3   OH215605   3.921   4.850   0.932
 5214TIP3    H115606   3.900   4.772   0.984
 5214TIP3    H215607   3.985   4.898   0.985
 5215TIP3   OH215608   2.237   0.931   0.945
 5215TIP3    H115609   2.219   1.012   0.897
 5215TIP3    H215610   2.151   0.900   0.973
 5216TIP3   OH215611   3.524   5.495   5.563
 5216TIP3    H115612   3.480   5.517   5.645
 5216TIP3    H215613   3.455   5.495   5.497
 5217TIP3   OH215614   7.032   1.830   3.557
 5217TIP3    H115615   7.038   1.734   3.563
 5217TIP3    H215616   7.120   1.861   3.576
 5218TIP3   OH215617   2.454   3.443   4.206
 5218TIP3    H115618   2.468   3.537   4.196
 5218TIP3    H215619   2.414   3.434   4.293
 5219TIP3   OH215620   3.316   3.068   2.771
 5219TIP3    H115621   3.360   3.153   2.773
 5219TIP3    H215622   3.230   3.085   2.811
 5220TIP3   OH215623   6.755   4.750   5.466
 5220TIP3    H115624   6.723   4.770   5.378
 5220TIP3    H215625   6.677   4.755   5.521
 5221TIP3   OH215626   4.726   1.290   4.115
 5221TIP3    H115627   4.794   1.277   4.049
 5221TIP3    H215628   4.770   1.335   4.187
 5222TIP3   OH215629   4.804   2.776   4.942
 5222TIP3    H115630   4.772   2.848   4.997
 5222TIP3    H215631   4.728   2.719   4.931
 5223TIP3   OH215632   1.240   4.445   2.270
 5223TIP3    H115633   1.259   4.467   2.361
 5223TIP3    H215634   1.156   4.399   2.274
 5224TIP3   OH215635   0.727   3.999   5.219
 5224TIP3    H115636   0.669   3.978   5.145
 5224TIP3    H215637   0.776   3.919   5.234
 5225TIP3   OH215638   4.130   1.845   4.148
 5225TIP3    H115639   4.203   1.784   4.142
 5225TIP3    H215640   4.170   1.928   4.176
 5226TIP3   OH215641   1.586   4.177   4.326
 5226TIP3    H115642   1.569   4.195   4.233
 5226TIP3    H215643   1.580   4.082   4.333
 5227TIP3   OH215644   3.447   6.003   0.221
 5227TIP3    H115645   3.368   6.002   0.168
 5227TIP3    H215646   3.471   5.910   0.228
 5228TIP3   OH215647   1.204   0.842   2.065
 5228TIP3    H115648   1.231   0.797   1.985
 5228TIP3    H215649   1.282   0.889   2.094
 5229TIP3   OH215650   6.796   6.593   1.748
 5229TIP3    H115651   6.812   6.633   1.662
 5229TIP3    H215652   6.721   6.535   1.733
 5230TIP3   OH215653   6.124   5.956   0.584
 5230TIP3    H115654   6.182   6.032   0.589
 5230TIP3    H215655   6.117   5.937   0.491
 5231TIP3   OH215656   6.227   0.051   3.398
 5231TIP3    H115657   6.165  -0.012   3.359
 5231TIP3    H215658   6.230   0.123   3.335
 5232TIP3   OH215659   0.465   6.340   3.333
 5232TIP3    H115660   0.449   6.247   3.319
 5232TIP3    H215661   0.511   6.369   3.254
 5233TIP3   OH215662   0.672   6.400   1.577
 5233TIP3    H115663   0.702   6.346   1.650
 5233TIP3    H215664   0.583   6.424   1.599
 5234TIP3   OH215665   3.039   1.616   5.125
 5234TIP3    H115666   3.107   1.554   5.152
 5234TIP3    H215667   3.089   1.693   5.096
 5235TIP3   OH215668   2.653   1.338   1.228
 5235TIP3    H115669   2.735   1.385   1.217
 5235TIP3    H215670   2.588   1.405   1.248
 5236TIP3   OH215671   1.715   1.207   5.638
 5236TIP3    H115672   1.659   1.261   5.694
 5236TIP3    H215673   1.691   1.117   5.660
 5237TIP3   OH215674   1.125   3.514   0.622
 5237TIP3    H115675   1.080   3.598   0.628
 5237TIP3    H215676   1.213   3.531   0.655
 5238TIP3   OH215677   5.790   5.497   2.007
 5238TIP3    H115678   5.818   5.453   2.088
 5238TIP3    H215679   5.870   5.535   1.971
 5239TIP3   OH215680   0.018   0.653   0.350
 5239TIP3    H115681  -0.022   0.567   0.361
 5239TIP3    H215682   0.057   0.650   0.263
 5240TIP3   OH215683   4.101   2.191   5.637
 5240TIP3    H115684   4.047   2.183   5.716
 5240TIP3    H215685   4.083   2.112   5.587
 5241TIP3   OH215686   0.837   5.640   4.306
 5241TIP3    H115687   0.874   5.552   4.302
 5241TIP3    H215688   0.743   5.627   4.295
 5242TIP3   OH215689   2.971   3.777   1.046
 5242TIP3    H115690   2.936   3.837   1.113
 5242TIP3    H215691   2.895   3.753   0.994
 5243TIP3   OH215692   6.387   2.678   1.101
 5243TIP3    H115693   6.312   2.640   1.145
 5243TIP3    H215694   6.363   2.770   1.086
 5244TIP3   OH215695   0.908   6.628   1.907
 5244TIP3    H115696   0.954   6.655   1.986
 5244TIP3    H215697   0.852   6.702   1.884
 5245TIP3   OH215698   3.266   5.461   3.639
 5245TIP3    H115699   3.295   5.535   3.586
 5245TIP3    H215700   3.298   5.384   3.593
 5246TIP3   OH215701   5.937   4.504   0.461
 5246TIP3    H115702   5.933   4.565   0.388
 5246TIP3    H215703   5.903   4.553   0.536
 5247TIP3   OH215704   4.671   1.898   5.370
 5247TIP3    H115705   4.764   1.920   5.374
 5247TIP3    H215706   4.664   1.835   5.299
 5248TIP3   OH215707   0.421   5.186   3.615
 5248TIP3    H115708   0.441   5.262   3.559
 5248TIP3    H215709   0.390   5.119   3.554
 5249TIP3   OH215710   1.037   6.656   0.205
 5249TIP3    H115711   1.003   6.743   0.226
 5249TIP3    H215712   1.003   6.600   0.274
 5250TIP3   OH215713   7.202   5.440   5.237
 5250TIP3    H115714   7.171   5.529   5.225
 5250TIP3    H215715   7.182   5.396   5.154
 5251TIP3   OH215716   2.506   4.191   3.276
 5251TIP3    H115717   2.438   4.165   3.214
 5251TIP3    H215718   2.458   4.228   3.350
 5252TIP3   OH215719   0.196   3.796   3.591
 5252TIP3    H115720   0.247   3.804   3.510
 5252TIP3    H215721   0.117   3.750   3.564
 5253TIP3   OH215722   1.485   3.180   5.734
 5253TIP3    H115723   1.472   3.085   5.739
 5253TIP3    H215724   1.517   3.204   5.821
 5254TIP3   OH215725   4.431   0.204   3.859
 5254TIP3    H115726   4.417   0.122   3.811
 5254TIP3    H215727   4.347   0.222   3.900
 5255TIP3   OH215728   3.443   2.844   2.747
 5255TIP3    H115729   3.387   2.918   2.770
 5255TIP3    H215730   3.429   2.781   2.818
 5256TIP3   OH215731   2.579   6.682   3.940
 5256TIP3    H115732   2.517   6.751   3.963
 5256TIP3    H215733   2.641   6.680   4.013
 5257TIP3   OH215734   1.879   6.744   5.846
 5257TIP3    H115735   1.931   6.760   5.767
 5257TIP3    H215736   1.943   6.721   5.913
 5258TIP3   OH215737   3.754   6.568   2.639
 5258TIP3    H115738   3.834   6.556   2.689
 5258TIP3    H215739   3.699   6.625   2.693
 5259TIP3   OH215740   2.007   2.841   4.449
 5259TIP3    H115741   2.078   2.855   4.513
 5259TIP3    H215742   2.052   2.833   4.365
 5260TIP3   OH215743   7.184   6.413   5.454
 5260TIP3    H115744   7.179   6.442   5.363
 5260TIP3    H215745   7.123   6.340   5.459
 5261TIP3   OH215746   6.988   2.335   1.168
 5261TIP3    H115747   7.074   2.364   1.198
 5261TIP3    H215748   6.931   2.346   1.244
 5262TIP3   OH215749   2.422   4.407   0.743
 5262TIP3    H115750   2.432   4.408   0.648
 5262TIP3    H215751   2.511   4.410   0.777
 5263TIP3   OH215752   7.208   6.020   5.687
 5263TIP3    H115753   7.140   5.974   5.639
 5263TIP3    H215754   7.194   6.112   5.665
 5264TIP3   OH215755   6.585   2.619   4.258
 5264TIP3    H115756   6.539   2.583   4.334
 5264TIP3    H215757   6.604   2.544   4.203
 5265TIP3   OH215758   3.764   4.329   4.848
 5265TIP3    H115759   3.735   4.405   4.798
 5265TIP3    H215760   3.751   4.355   4.940
 5266TIP3   OH215761   1.011   3.646   5.164
 5266TIP3    H115762   1.090   3.592   5.156
 5266TIP3    H215763   0.988   3.669   5.074
 5267TIP3   OH215764   1.280   6.287   1.492
 5267TIP3    H115765   1.276   6.341   1.413
 5267TIP3    H215766   1.320   6.344   1.557
 5268TIP3   OH215767   4.445   2.029   0.782
 5268TIP3    H115768   4.416   2.047   0.692
 5268TIP3    H215769   4.364   2.007   0.829
 5269TIP3   OH215770   2.407   2.286   3.499
 5269TIP3    H115771   2.334   2.281   3.438
 5269TIP3    H215772   2.429   2.380   3.503
 5270TIP3   OH215773   3.756   2.431   5.513
 5270TIP3    H115774   3.851   2.436   5.527
 5270TIP3    H215775   3.743   2.351   5.463
 5271TIP3   OH215776   2.532   4.712   1.885
 5271TIP3    H115777   2.459   4.772   1.896
 5271TIP3    H215778   2.508   4.635   1.936
 5272TIP3   OH215779   5.080   0.038   3.737
 5272TIP3    H115780   5.045  -0.026   3.799
 5272TIP3    H215781   5.026   0.116   3.750
 5273TIP3   OH215782   5.632   1.188   0.875
 5273TIP3    H115783   5.556   1.131   0.867
 5273TIP3    H215784   5.656   1.209   0.785
 5274TIP3   OH215785   4.039   4.669   5.845
 5274TIP3    H115786   4.067   4.611   5.916
 5274TIP3    H215787   3.945   4.679   5.859
 5275TIP3   OH215788   1.596   5.750   0.809
 5275TIP3    H115789   1.577   5.660   0.782
 5275TIP3    H215790   1.644   5.788   0.736
 5276TIP3   OH215791   1.462   6.493   1.058
 5276TIP3    H115792   1.421   6.505   0.972
 5276TIP3    H215793   1.473   6.582   1.092
 5277TIP3   OH215794   3.744   5.860   5.860
 5277TIP3    H115795   3.749   5.770   5.828
 5277TIP3    H215796   3.717   5.852   5.951
 5278TIP3   OH215797   4.681   4.276   2.246
 5278TIP3    H115798   4.669   4.305   2.155
 5278TIP3    H215799   4.760   4.222   2.244
 5279TIP3   OH215800   1.557   0.484   3.540
 5279TIP3    H115801   1.507   0.439   3.473
 5279TIP3    H215802   1.520   0.452   3.623
 5280TIP3   OH215803   0.677   3.010   3.264
 5280TIP3    H115804   0.723   3.083   3.304
 5280TIP3    H215805   0.675   3.032   3.170
 5281TIP3   OH215806   6.798   0.383   5.158
 5281TIP3    H115807   6.757   0.318   5.215
 5281TIP3    H215808   6.882   0.401   5.198
 5282TIP3   OH215809   1.492   4.488   1.986
 5282TIP3    H115810   1.586   4.475   1.974
 5282TIP3    H215811   1.461   4.404   2.023
 5283TIP3   OH215812   4.804   0.296   1.508
 5283TIP3    H115813   4.781   0.371   1.564
 5283TIP3    H215814   4.721   0.255   1.487
 5284TIP3   OH215815   1.553   6.241   1.053
 5284TIP3    H115816   1.527   6.333   1.050
 5284TIP3    H215817   1.624   6.238   1.117
 5285TIP3   OH215818   2.775   1.842   3.915
 5285TIP3    H115819   2.755   1.884   3.999
 5285TIP3    H215820   2.731   1.897   3.850
 5286TIP3   OH215821   1.826   4.674   2.381
 5286TIP3    H115822   1.832   4.768   2.397
 5286TIP3    H215823   1.758   4.644   2.441
 5287TIP3   OH215824   2.354   1.357   5.890
 5287TIP3    H115825   2.325   1.279   5.937
 5287TIP3    H215826   2.343   1.334   5.797
 5288TIP3   OH215827   1.851   6.748   3.842
 5288TIP3    H115828   1.838   6.709   3.755
 5288TIP3    H215829   1.803   6.832   3.838
 5289TIP3   OH215830   3.653   3.322   3.468
 5289TIP3    H115831   3.685   3.272   3.543
 5289TIP3    H215832   3.678   3.412   3.486
 5290TIP3   OH215833   1.991   3.505   1.139
 5290TIP3    H115834   1.956   3.453   1.212
 5290TIP3    H215835   2.051   3.446   1.094
 5291TIP3   OH215836   7.124   5.658   0.156
 5291TIP3    H115837   7.194   5.697   0.209
 5291TIP3    H215838   7.097   5.729   0.097
 5292TIP3   OH215839   0.385   5.363   5.257
 5292TIP3    H115840   0.440   5.396   5.186
 5292TIP3    H215841   0.408   5.418   5.332
 5293TIP3   OH215842   1.921   4.198   2.763
 5293TIP3    H115843   1.848   4.258   2.779
 5293TIP3    H215844   1.886   4.136   2.698
 5294TIP3   OH215845   6.057   5.175   2.890
 5294TIP3    H115846   6.027   5.226   2.965
 5294TIP3    H215847   6.131   5.124   2.924
 5295TIP3   OH215848   1.787   4.156   1.343
 5295TIP3    H115849   1.792   4.077   1.397
 5295TIP3    H215850   1.799   4.124   1.253
 5296TIP3   OH215851   1.302   3.390   3.047
 5296TIP3    H115852   1.328   3.335   2.974
 5296TIP3    H215853   1.352   3.471   3.035
 5297TIP3   OH215854   1.816   3.937   3.306
 5297TIP3    H115855   1.764   3.963   3.382
 5297TIP3    H215856   1.872   3.867   3.338
 5298TIP3   OH215857   0.835   2.676   5.014
 5298TIP3    H115858   0.888   2.749   4.984
 5298TIP3    H215859   0.876   2.599   4.975
 5299TIP3   OH215860   6.848   4.863   0.745
 5299TIP3    H115861   6.870   4.776   0.779
 5299TIP3    H215862   6.808   4.846   0.660
 5300TIP3   OH215863   3.125   6.778   2.296
 5300TIP3    H115864   3.142   6.858   2.346
 5300TIP3    H215865   3.132   6.805   2.205
 5301TIP3   OH215866   0.535   4.441   5.577
 5301TIP3    H115867   0.529   4.461   5.484
 5301TIP3    H215868   0.609   4.495   5.608
 5302TIP3   OH215869   5.283   4.345   4.712
 5302TIP3    H115870   5.374   4.315   4.720
 5302TIP3    H215871   5.246   4.292   4.642
 5303TIP3   OH215872   4.157   2.928   4.616
 5303TIP3    H115873   4.086   2.889   4.564
 5303TIP3    H215874   4.134   2.908   4.706
 5304TIP3   OH215875   2.073   4.543   4.507
 5304TIP3    H115876   2.049   4.453   4.527
 5304TIP3    H215877   1.990   4.589   4.498
 5305TIP3   OH215878   6.141   3.543   0.251
 5305TIP3    H115879   6.141   3.504   0.338
 5305TIP3    H215880   6.091   3.624   0.261
 5306TIP3   OH215881   2.930   2.410   5.451
 5306TIP3    H115882   2.876   2.391   5.527
 5306TIP3    H215883   2.901   2.496   5.421
 5307TIP3   OH215884   4.726   3.939   2.199
 5307TIP3    H115885   4.763   3.853   2.180
 5307TIP3    H215886   4.713   3.979   2.113
 5308TIP3   OH215887   5.688   3.450   2.479
 5308TIP3    H115888   5.689   3.485   2.568
 5308TIP3    H215889   5.733   3.366   2.485
 5309TIP3   OH215890   3.263   3.829   3.000
 5309TIP3    H115891   3.284   3.755   3.057
 5309TIP3    H215892   3.203   3.883   3.052
 5310TIP3   OH215893   0.957   2.514   1.786
 5310TIP3    H115894   0.895   2.527   1.714
 5310TIP3    H215895   1.009   2.594   1.787
 5311TIP3   OH215896   6.690   0.816   0.410
 5311TIP3    H115897   6.741   0.813   0.330
 5311TIP3    H215898   6.754   0.831   0.479
 5312TIP3   OH215899   1.130   2.061   3.327
 5312TIP3    H115900   1.120   2.148   3.364
 5312TIP3    H215901   1.154   2.075   3.235
 5313TIP3   OH215902   1.025   5.215   4.127
 5313TIP3    H115903   1.015   5.165   4.208
 5313TIP3    H215904   1.041   5.150   4.060
 5314TIP3   OH215905   6.928   4.263   2.949
 5314TIP3    H115906   6.912   4.289   2.858
 5314TIP3    H215907   6.876   4.324   3.001
 5315TIP3   OH215908   0.225   6.322   2.350
 5315TIP3    H115909   0.221   6.377   2.428
 5315TIP3    H215910   0.292   6.257   2.370
 5316TIP3   OH215911   5.734   2.200   3.701
 5316TIP3    H115912   5.649   2.163   3.676
 5316TIP3    H215913   5.798   2.137   3.669
 5317TIP3   OH215914   6.338   0.621   3.671
 5317TIP3    H115915   6.375   0.708   3.685
 5317TIP3    H215916   6.406   0.573   3.624
 5318TIP3   OH215917   5.537   5.687   1.972
 5318TIP3    H115918   5.501   5.663   2.057
 5318TIP3    H215919   5.582   5.607   1.942
 5319TIP3   OH215920   2.794   3.296   2.215
 5319TIP3    H115921   2.866   3.351   2.182
 5319TIP3    H215922   2.716   3.332   2.174
 5320TIP3   OH215923   0.566   4.582   4.171
 5320TIP3    H115924   0.596   4.573   4.262
 5320TIP3    H215925   0.630   4.534   4.120
 5321TIP3   OH215926   3.372   5.240   3.174
 5321TIP3    H115927   3.436   5.175   3.147
 5321TIP3    H215928   3.422   5.303   3.225
 5322TIP3   OH215929   1.793   2.399   2.455
 5322TIP3    H115930   1.789   2.347   2.535
 5322TIP3    H215931   1.874   2.450   2.464
 5323TIP3   OH215932   3.665   4.743   4.911
 5323TIP3    H115933   3.699   4.712   4.995
 5323TIP3    H215934   3.742   4.761   4.858
 5324TIP3   OH215935   7.101   4.321   0.426
 5324TIP3    H115936   7.023   4.304   0.374
 5324TIP3    H215937   7.105   4.247   0.487
 5325TIP3   OH215938   6.826   6.374   3.281
 5325TIP3    H115939   6.859   6.385   3.192
 5325TIP3    H215940   6.731   6.365   3.271
 5326TIP3   OH215941   6.429   3.381   1.709
 5326TIP3    H115942   6.524   3.391   1.709
 5326TIP3    H215943   6.399   3.448   1.648
 5327TIP3   OH215944   5.919   5.139   0.279
 5327TIP3    H115945   5.986   5.142   0.210
 5327TIP3    H215946   5.928   5.223   0.324
 5328TIP3   OH215947   2.144   2.367   1.894
 5328TIP3    H115948   2.080   2.384   1.825
 5328TIP3    H215949   2.207   2.439   1.888
 5329TIP3   OH215950   5.959   5.573   1.352
 5329TIP3    H115951   5.898   5.639   1.318
 5329TIP3    H215952   6.026   5.623   1.398
 5330TIP3   OH215953   3.471   1.782   3.246
 5330TIP3    H115954   3.499   1.794   3.155
 5330TIP3    H215955   3.378   1.759   3.239
 5331TIP3   OH215956   0.077   0.580   2.451
 5331TIP3    H115957   0.046   0.495   2.482
 5331TIP3    H215958   0.059   0.640   2.523
 5332TIP3   OH215959   4.723   2.672   2.121
 5332TIP3    H115960   4.775   2.752   2.115
 5332TIP3    H215961   4.779   2.610   2.167
 5333TIP3   OH215962   0.564   4.427   0.680
 5333TIP3    H115963   0.528   4.458   0.597
 5333TIP3    H215964   0.493   4.436   0.743
 5334TIP3   OH215965   1.631   1.242   2.961
 5334TIP3    H115966   1.662   1.330   2.939
 5334TIP3    H215967   1.650   1.190   2.883
 5335TIP3   OH215968   6.611   0.584   2.074
 5335TIP3    H115969   6.635   0.598   2.166
 5335TIP3    H215970   6.517   0.567   2.076
 5336TIP3   OH215971   2.889   4.846   1.573
 5336TIP3    H115972   2.881   4.820   1.665
 5336TIP3    H215973   2.834   4.923   1.564
 5337TIP3   OH215974   6.823   1.495   5.210
 5337TIP3    H115975   6.847   1.562   5.146
 5337TIP3    H215976   6.827   1.539   5.294
 5338TIP3   OH215977   5.638   2.587   1.993
 5338TIP3    H115978   5.648   2.511   2.050
 5338TIP3    H215979   5.727   2.618   1.979
 5339TIP3   OH215980   4.101   5.528   5.659
 5339TIP3    H115981   4.184   5.558   5.621
 5339TIP3    H215982   4.051   5.495   5.584
 5340TIP3   OH215983   7.202   3.596   2.550
 5340TIP3    H115984   7.293   3.609   2.523
 5340TIP3    H215985   7.187   3.663   2.617
 5341TIP3   OH215986   1.972   0.939   0.969
 5341TIP3    H115987   1.950   1.031   0.955
 5341TIP3    H215988   1.919   0.913   1.044
 5342TIP3   OH215989   4.068   6.444   0.482
 5342TIP3    H115990   4.062   6.353   0.455
 5342TIP3    H215991   3.998   6.454   0.548
 5343TIP3   OH215992   5.432   5.901   0.153
 5343TIP3    H115993   5.370   5.914   0.225
 5343TIP3    H215994   5.377   5.897   0.075
 5344TIP3   OH215995   4.961   4.428   2.317
 5344TIP3    H115996   4.947   4.413   2.410
 5344TIP3    H215997   4.936   4.345   2.276
 5345TIP3   OH215998   1.485   2.622   2.603
 5345TIP3    H115999   1.566   2.646   2.558
 5345TIP3    H216000   1.415   2.642   2.541
 5346TIP3   OH216001   5.170   0.297   4.293
 5346TIP3    H116002   5.233   0.301   4.222
 5346TIP3    H216003   5.092   0.257   4.255
 5347TIP3   OH216004   0.457   4.196   5.665
 5347TIP3    H116005   0.478   4.139   5.591
 5347TIP3    H216006   0.493   4.281   5.640
 5348TIP3   OH216007   6.784   6.280   5.189
 5348TIP3    H116008   6.690   6.272   5.178
 5348TIP3    H216009   6.811   6.194   5.223
 5349TIP3   OH216010   6.089   3.577   2.645
 5349TIP3    H116011   6.097   3.665   2.683
 5349TIP3    H216012   6.170   3.564   2.596
 5350TIP3   OH216013   0.638   6.663   1.360
 5350TIP3    H116014   0.614   6.752   1.335
 5350TIP3    H216015   0.575   6.639   1.429
 5351TIP3   OH216016   5.104   4.520   0.692
 5351TIP3    H116017   5.082   4.451   0.629
 5351TIP3    H216018   5.086   4.480   0.778
 5352TIP3   OH216019   3.646   5.395   0.719
 5352TIP3    H116020   3.592   5.375   0.796
 5352TIP3    H216021   3.700   5.317   0.706
 5353TIP3   OH216022   3.971   1.670   5.459
 5353TIP3    H116023   3.916   1.710   5.392
 5353TIP3    H216024   3.924   1.592   5.486
 5354TIP3   OH216025   0.162   0.915   0.919
 5354TIP3    H116026   0.118   0.833   0.896
 5354TIP3    H216027   0.109   0.983   0.877
 5355TIP3   OH216028   4.869   3.675   1.264
 5355TIP3    H116029   4.817   3.606   1.222
 5355TIP3    H216030   4.924   3.628   1.327
 5356TIP3   OH216031   1.266   6.016   4.493
 5356TIP3    H116032   1.322   6.019   4.571
 5356TIP3    H216033   1.270   5.924   4.464
 5357TIP3   OH216034   2.761   4.406   3.069
 5357TIP3    H116035   2.799   4.488   3.037
 5357TIP3    H216036   2.685   4.392   3.013
 5358TIP3   OH216037   5.567   2.976   4.775
 5358TIP3    H116038   5.520   3.018   4.703
 5358TIP3    H216039   5.659   2.990   4.754
 5359TIP3   OH216040   1.290   5.061   2.286
 5359TIP3    H116041   1.336   5.125   2.339
 5359TIP3    H216042   1.347   4.984   2.285
 5360TIP3   OH216043   1.452   3.608   3.003
 5360TIP3    H116044   1.442   3.663   2.925
 5360TIP3    H216045   1.546   3.595   3.012
 5361TIP3   OH216046   4.709   5.794   2.521
 5361TIP3    H116047   4.718   5.767   2.612
 5361TIP3    H216048   4.636   5.856   2.521
 5362TIP3   OH216049   2.705   2.385   5.030
 5362TIP3    H116050   2.670   2.469   5.001
 5362TIP3    H216051   2.752   2.405   5.111
 5363TIP3   OH216052   7.017   3.660   2.329
 5363TIP3    H116053   6.944   3.675   2.390
 5363TIP3    H216054   7.086   3.623   2.384
 5364TIP3   OH216055   6.316   2.273   5.280
 5364TIP3    H116056   6.370   2.257   5.202
 5364TIP3    H216057   6.379   2.291   5.350
 5365TIP3   OH216058   1.532   3.176   5.275
 5365TIP3    H116059   1.613   3.216   5.244
 5365TIP3    H216060   1.557   3.135   5.359
 5366TIP3   OH216061   5.424   0.325   3.355
 5366TIP3    H116062   5.340   0.309   3.312
 5366TIP3    H216063   5.458   0.404   3.314
 5367TIP3   OH216064   1.695   3.522   3.012
 5367TIP3    H116065   1.764   3.588   3.002
 5367TIP3    H216066   1.728   3.446   2.965
 5368TIP3   OH216067   4.154   2.036   3.855
 5368TIP3    H116068   4.124   2.127   3.861
 5368TIP3    H216069   4.248   2.041   3.868
 5369TIP3   OH216070   2.848   6.569   4.656
 5369TIP3    H116071   2.859   6.496   4.595
 5369TIP3    H216072   2.882   6.536   4.739
 5370TIP3   OH216073   3.128   3.519   0.401
 5370TIP3    H116074   3.214   3.553   0.423
 5370TIP3    H216075   3.068   3.567   0.458
 5371TIP3   OH216076   5.445   5.561   4.347
 5371TIP3    H116077   5.399   5.626   4.293
 5371TIP3    H216078   5.536   5.564   4.315
 5372TIP3   OH216079   3.152   1.212   4.024
 5372TIP3    H116080   3.124   1.282   3.966
 5372TIP3    H216081   3.225   1.250   4.074
 5373TIP3   OH216082   2.707   5.026   2.039
 5373TIP3    H116083   2.711   5.086   1.964
 5373TIP3    H216084   2.795   4.988   2.043
 5374TIP3   OH216085   3.160   1.099   1.396
 5374TIP3    H116086   3.137   1.026   1.454
 5374TIP3    H216087   3.080   1.114   1.345
 5375TIP3   OH216088   6.966   3.040   5.276
 5375TIP3    H116089   6.937   2.952   5.300
 5375TIP3    H216090   7.053   3.027   5.238
 5376TIP3   OH216091   6.303   0.194   1.936
 5376TIP3    H116092   6.271   0.185   1.846
 5376TIP3    H216093   6.229   0.229   1.985
 5377TIP3   OH216094   7.251   3.495   4.396
 5377TIP3    H116095   7.176   3.548   4.369
 5377TIP3    H216096   7.263   3.432   4.325
 5378TIP3   OH216097   5.833   1.526   0.326
 5378TIP3    H116098   5.825   1.480   0.242
 5378TIP3    H216099   5.753   1.578   0.332
 5379TIP3   OH216100   7.079   4.402   3.827
 5379TIP3    H116101   6.987   4.375   3.823
 5379TIP3    H216102   7.076   4.497   3.818
 5380TIP3   OH216103   0.226   5.917   1.392
 5380TIP3    H116104   0.226   5.885   1.482
 5380TIP3    H216105   0.318   5.917   1.366
 5381TIP3   OH216106   6.808   4.116   1.572
 5381TIP3    H116107   6.881   4.176   1.559
 5381TIP3    H216108   6.743   4.167   1.619
 5382TIP3   OH216109   2.673   6.406   4.922
 5382TIP3    H116110   2.698   6.337   4.861
 5382TIP3    H216111   2.601   6.453   4.878
 5383TIP3   OH216112   2.296   4.099   3.814
 5383TIP3    H116113   2.224   4.150   3.849
 5383TIP3    H216114   2.285   4.105   3.719
 5384TIP3   OH216115   6.674   5.539   0.793
 5384TIP3    H116116   6.634   5.618   0.756
 5384TIP3    H216117   6.633   5.467   0.747
 5385TIP3   OH216118   5.950   3.724   0.284
 5385TIP3    H116119   5.900   3.797   0.246
 5385TIP3    H216120   5.895   3.647   0.267
 5386TIP3   OH216121   0.957   6.634   3.157
 5386TIP3    H116122   0.926   6.544   3.164
 5386TIP3    H216123   0.917   6.679   3.232
 5387TIP3   OH216124   6.533   6.325   0.915
 5387TIP3    H116125   6.564   6.387   0.981
 5387TIP3    H216126   6.479   6.378   0.856
 5388TIP3   OH216127   6.055   0.088   1.866
 5388TIP3    H116128   6.085   0.000   1.888
 5388TIP3    H216129   5.959   0.081   1.864
 5389TIP3   OH216130   6.051   2.975   5.451
 5389TIP3    H116131   6.076   3.027   5.375
 5389TIP3    H216132   6.111   3.004   5.520
 5390TIP3   OH216133   1.425   4.741   0.681
 5390TIP3    H116134   1.496   4.677   0.679
 5390TIP3    H216135   1.367   4.714   0.610
 5391TIP3   OH216136   6.053   5.756   3.866
 5391TIP3    H116137   6.062   5.774   3.959
 5391TIP3    H216138   5.980   5.811   3.838
 5392TIP3   OH216139   3.358   5.138   5.054
 5392TIP3    H116140   3.306   5.216   5.031
 5392TIP3    H216141   3.309   5.097   5.125
 5393TIP3   OH216142   2.379   1.384   2.072
 5393TIP3    H116143   2.469   1.378   2.105
 5393TIP3    H216144   2.350   1.471   2.099
 5394TIP3   OH216145   5.529   0.080   2.054
 5394TIP3    H116146   5.515   0.173   2.074
 5394TIP3    H216147   5.561   0.079   1.964
 5395TIP3   OH216148   0.569   2.428   5.057
 5395TIP3    H116149   0.510   2.353   5.055
 5395TIP3    H216150   0.656   2.391   5.072
 5396TIP3   OH216151   1.977   6.309   0.126
 5396TIP3    H116152   2.025   6.340   0.203
 5396TIP3    H216153   1.887   6.300   0.157
 5397TIP3   OH216154   5.352   3.605   0.667
 5397TIP3    H116155   5.318   3.693   0.648
 5397TIP3    H216156   5.352   3.600   0.762
 5398TIP3   OH216157   2.901   5.931   1.592
 5398TIP3    H116158   2.905   6.014   1.641
 5398TIP3    H216159   2.817   5.893   1.616
 5399TIP3   OH216160   1.176   3.150   0.026
 5399TIP3    H116161   1.131   3.134   0.109
 5399TIP3    H216162   1.250   3.090   0.027
 5400TIP3   OH216163   0.439   4.752   0.766
 5400TIP3    H116164   0.425   4.670   0.812
 5400TIP3    H216165   0.377   4.813   0.806
 5401TIP3   OH216166   3.564   0.142   4.501
 5401TIP3    H116167   3.512   0.073   4.460
 5401TIP3    H216168   3.591   0.198   4.427
 5402TIP3   OH216169   0.237   0.902   2.501
 5402TIP3    H116170   0.186   0.846   2.559
 5402TIP3    H216171   0.210   0.876   2.413
 5403TIP3   OH216172   6.278   2.237   0.179
 5403TIP3    H116173   6.259   2.291   0.256
 5403TIP3    H216174   6.267   2.297   0.105
 5404TIP3   OH216175   5.623   6.042   5.770
 5404TIP3    H116176   5.693   6.004   5.824
 5404TIP3    H216177   5.623   6.135   5.793
 5405TIP3   OH216178   0.370   6.199   0.920
 5405TIP3    H116179   0.311   6.131   0.886
 5405TIP3    H216180   0.352   6.201   1.014
 5406TIP3   OH216181   0.566   5.601   0.663
 5406TIP3    H116182   0.495   5.554   0.708
 5406TIP3    H216183   0.636   5.536   0.656
 5407TIP3   OH216184   4.507   3.436   0.268
 5407TIP3    H116185   4.465   3.415   0.184
 5407TIP3    H216186   4.456   3.388   0.333
 5408TIP3   OH216187   0.543   0.710   1.320
 5408TIP3    H116188   0.477   0.769   1.354
 5408TIP3    H216189   0.588   0.677   1.397
 5409TIP3   OH216190   0.088   5.736   0.329
 5409TIP3    H116191   0.102   5.828   0.351
 5409TIP3    H216192   0.128   5.687   0.401
 5410TIP3   OH216193   1.965   5.912   2.858
 5410TIP3    H116194   1.993   5.841   2.800
 5410TIP3    H216195   2.047   5.954   2.885
 5411TIP3   OH216196   0.707   6.265   3.907
 5411TIP3    H116197   0.725   6.191   3.966
 5411TIP3    H216198   0.612   6.264   3.897
 5412TIP3   OH216199   2.974   3.149   2.827
 5412TIP3    H116200   3.006   3.235   2.853
 5412TIP3    H216201   3.035   3.087   2.868
 5413TIP3   OH216202   2.567   5.901   4.104
 5413TIP3    H116203   2.658   5.930   4.103
 5413TIP3    H216204   2.562   5.839   4.177
 5414TIP3   OH216205   3.449   2.685   1.485
 5414TIP3    H116206   3.489   2.644   1.562
 5414TIP3    H216207   3.517   2.741   1.449
 5415TIP3   OH216208   5.520   0.539   3.175
 5415TIP3    H116209   5.428   0.560   3.160
 5415TIP3    H216210   5.568   0.612   3.137
 5416TIP3   OH216211   4.315   6.134   4.366
 5416TIP3    H116212   4.331   6.048   4.327
 5416TIP3    H216213   4.401   6.176   4.368
 5417TIP3   OH216214   5.915   5.773   4.646
 5417TIP3    H116215   5.835   5.812   4.611
 5417TIP3    H216216   5.966   5.847   4.679
 5418TIP3   OH216217   0.495   3.094   1.131
 5418TIP3    H116218   0.587   3.093   1.106
 5418TIP3    H216219   0.496   3.123   1.223
 5419TIP3   OH216220   3.565   6.100   3.384
 5419TIP3    H116221   3.627   6.150   3.436
 5419TIP3    H216222   3.486   6.096   3.438
 5420TIP3   OH216223   4.672   4.391   2.676
 5420TIP3    H116224   4.632   4.382   2.763
 5420TIP3    H216225   4.600   4.377   2.615
 5421TIP3   OH216226   0.686   2.930   3.568
 5421TIP3    H116227   0.664   2.872   3.495
 5421TIP3    H216228   0.739   2.999   3.529
 5422TIP3   OH216229   5.606   6.630   2.981
 5422TIP3    H116230   5.679   6.692   2.989
 5422TIP3    H216231   5.602   6.587   3.067
 5423TIP3   OH216232   6.798   2.304   0.252
 5423TIP3    H116233   6.854   2.381   0.242
 5423TIP3    H216234   6.854   2.240   0.297
 5424TIP3   OH216235   2.755   0.804   3.106
 5424TIP3    H116236   2.741   0.730   3.165
 5424TIP3    H216237   2.803   0.868   3.158
 5425TIP3   OH216238   3.164   6.826   2.724
 5425TIP3    H116239   3.173   6.796   2.633
 5425TIP3    H216240   3.145   6.747   2.774
 5426TIP3   OH216241   2.216   5.894   5.419
 5426TIP3    H116242   2.128   5.930   5.411
 5426TIP3    H216243   2.243   5.914   5.509
 5427TIP3   OH216244   3.128   1.957   2.307
 5427TIP3    H116245   3.194   2.020   2.275
 5427TIP3    H216246   3.180   1.884   2.340
 5428TIP3   OH216247   3.752   4.155   0.120
 5428TIP3    H116248   3.680   4.205   0.158
 5428TIP3    H216249   3.725   4.064   0.127
 5429TIP3   OH216250   3.374   5.053   2.784
 5429TIP3    H116251   3.311   4.981   2.784
 5429TIP3    H216252   3.324   5.128   2.754
 5430TIP3   OH216253   6.446   1.279   4.037
 5430TIP3    H116254   6.370   1.309   3.988
 5430TIP3    H216255   6.437   1.322   4.123
 5431TIP3   OH216256   5.142   6.300   1.681
 5431TIP3    H116257   5.200   6.360   1.635
 5431TIP3    H216258   5.140   6.221   1.627
 5432TIP3   OH216259   3.013   3.128   4.312
 5432TIP3    H116260   3.091   3.102   4.264
 5432TIP3    H216261   3.006   3.223   4.297
 5433TIP3   OH216262   6.855   5.439   0.441
 5433TIP3    H116263   6.883   5.527   0.419
 5433TIP3    H216264   6.763   5.436   0.415
 5434TIP3   OH216265   2.282   5.647   0.109
 5434TIP3    H116266   2.187   5.659   0.111
 5434TIP3    H216267   2.309   5.686   0.025
 5435TIP3   OH216268   0.320   1.327   5.013
 5435TIP3    H116269   0.282   1.253   5.061
 5435TIP3    H216270   0.264   1.336   4.936
 5436TIP3   OH216271   1.529   0.079   1.567
 5436TIP3    H116272   1.436   0.087   1.545
 5436TIP3    H216273   1.560   0.170   1.573
 5437TIP3   OH216274   4.754   5.490   0.198
 5437TIP3    H116275   4.800   5.525   0.274
 5437TIP3    H216276   4.733   5.566   0.145
 5438TIP3   OH216277   0.725   1.082   0.277
 5438TIP3    H116278   0.724   0.992   0.309
 5438TIP3    H216279   0.632   1.106   0.270
 5439TIP3   OH216280   2.262   2.548   0.174
 5439TIP3    H116281   2.242   2.517   0.262
 5439TIP3    H216282   2.308   2.475   0.133
 5440TIP3   OH216283   6.378   3.061   3.071
 5440TIP3    H116284   6.345   2.986   3.022
 5440TIP3    H216285   6.384   3.030   3.161
 5441TIP3   OH216286   3.170   5.551   2.684
 5441TIP3    H116287   3.148   5.595   2.766
 5441TIP3    H216288   3.171   5.621   2.619
 5442TIP3   OH216289   3.692   5.935   3.175
 5442TIP3    H116290   3.639   5.983   3.239
 5442TIP3    H216291   3.780   5.970   3.186
 5443TIP3   OH216292   3.687   1.755   5.852
 5443TIP3    H116293   3.677   1.663   5.875
 5443TIP3    H216294   3.776   1.778   5.880
 5444TIP3   OH216295   2.005   4.604   3.063
 5444TIP3    H116296   1.988   4.685   3.112
 5444TIP3    H216297   2.092   4.617   3.026
 5445TIP3   OH216298   4.117   5.958   0.049
 5445TIP3    H116299   4.206   5.923   0.046
 5445TIP3    H216300   4.120   6.036  -0.007
 5446TIP3   OH216301   2.130   1.606   5.191
 5446TIP3    H116302   2.103   1.596   5.100
 5446TIP3    H216303   2.117   1.519   5.230
 5447TIP3   OH216304   3.332   5.995   4.507
 5447TIP3    H116305   3.301   5.992   4.416
 5447TIP3    H216306   3.271   6.055   4.551
 5448TIP3   OH216307   1.219   6.086   1.155
 5448TIP3    H116308   1.226   6.129   1.069
 5448TIP3    H216309   1.228   5.992   1.135
 5449TIP3   OH216310   2.951   4.863   2.648
 5449TIP3    H116311   2.885   4.911   2.598
 5449TIP3    H216312   2.905   4.833   2.726
 5450TIP3   OH216313   0.758   2.057   0.160
 5450TIP3    H116314   0.769   1.988   0.095
 5450TIP3    H216315   0.830   2.118   0.143
 5451TIP3   OH216316   4.176   6.072   2.944
 5451TIP3    H116317   4.153   5.995   2.891
 5451TIP3    H216318   4.210   6.135   2.880
 5452TIP3   OH216319   7.079   5.942   3.818
 5452TIP3    H116320   7.023   5.964   3.743
 5452TIP3    H216321   7.026   5.882   3.871
 5453TIP3   OH216322   4.052   0.769   1.955
 5453TIP3    H116323   4.125   0.830   1.965
 5453TIP3    H216324   4.049   0.751   1.861
 5454TIP3   OH216325   4.189   5.412   3.875
 5454TIP3    H116326   4.182   5.342   3.940
 5454TIP3    H216327   4.198   5.367   3.791
 5455TIP3   OH216328   3.561   1.040   3.168
 5455TIP3    H116329   3.617   1.099   3.118
 5455TIP3    H216330   3.569   1.069   3.258
 5456TIP3   OH216331   6.763   1.751   2.498
 5456TIP3    H116332   6.846   1.754   2.546
 5456TIP3    H216333   6.724   1.838   2.512
 5457TIP3   OH216334   4.015   4.917   3.649
 5457TIP3    H116335   3.960   4.949   3.720
 5457TIP3    H216336   4.025   4.992   3.590
 5458TIP3   OH216337   4.105   2.807   1.362
 5458TIP3    H116338   4.041   2.788   1.430
 5458TIP3    H216339   4.142   2.721   1.340
 5459TIP3   OH216340   4.215   2.160   2.749
 5459TIP3    H116341   4.235   2.191   2.838
 5459TIP3    H216342   4.285   2.097   2.730
 5460TIP3   OH216343   3.003   2.970   4.541
 5460TIP3    H116344   2.994   3.026   4.464
 5460TIP3    H216345   3.097   2.955   4.550
 5461TIP3   OH216346   2.397   5.673   5.634
 5461TIP3    H116347   2.421   5.688   5.543
 5461TIP3    H216348   2.427   5.583   5.652
 5462TIP3   OH216349   1.661   4.335   5.850
 5462TIP3    H116350   1.594   4.397   5.877
 5462TIP3    H216351   1.724   4.387   5.800
 5463TIP3   OH216352   1.552   3.391   2.714
 5463TIP3    H116353   1.542   3.297   2.704
 5463TIP3    H216354   1.543   3.407   2.808
 5464TIP3   OH216355   2.859   3.524   5.169
 5464TIP3    H116356   2.802   3.595   5.141
 5464TIP3    H216357   2.948   3.555   5.152
 5465TIP3   OH216358   0.392   6.629   0.898
 5465TIP3    H116359   0.311   6.679   0.913
 5465TIP3    H216360   0.437   6.632   0.982
 5466TIP3   OH216361   1.751   5.864   0.594
 5466TIP3    H116362   1.687   5.929   0.566
 5466TIP3    H216363   1.763   5.808   0.518
 5467TIP3   OH216364   5.614   6.137   1.589
 5467TIP3    H116365   5.707   6.115   1.579
 5467TIP3    H216366   5.569   6.079   1.527
 5468TIP3   OH216367   6.629   0.882   5.821
 5468TIP3    H116368   6.636   0.797   5.777
 5468TIP3    H216369   6.534   0.896   5.830
 5469TIP3   OH216370   1.905   1.042   5.527
 5469TIP3    H116371   1.939   1.073   5.443
 5469TIP3    H216372   1.847   1.112   5.557
 5470TIP3   OH216373   0.083   5.467   2.558
 5470TIP3    H116374   0.109   5.378   2.583
 5470TIP3    H216375   0.099   5.472   2.464
 5471TIP3   OH216376   5.520   3.241   1.954
 5471TIP3    H116377   5.558   3.156   1.929
 5471TIP3    H216378   5.596   3.295   1.976
 5472TIP3   OH216379   5.488   0.955   5.023
 5472TIP3    H116380   5.544   0.902   5.080
 5472TIP3    H216381   5.452   1.023   5.080
 5473TIP3   OH216382   1.488   2.065   0.187
 5473TIP3    H116383   1.466   2.011   0.263
 5473TIP3    H216384   1.583   2.076   0.191
 5474TIP3   OH216385   0.686   0.720   2.072
 5474TIP3    H116386   0.776   0.691   2.087
 5474TIP3    H216387   0.694   0.813   2.053
 5475TIP3   OH216388   1.764   3.050   2.050
 5475TIP3    H116389   1.731   2.968   2.014
 5475TIP3    H216390   1.695   3.080   2.109
 5476TIP3   OH216391   7.151   0.988   1.827
 5476TIP3    H116392   7.193   0.935   1.894
 5476TIP3    H216393   7.057   0.971   1.838
 5477TIP3   OH216394   6.399   2.542   4.499
 5477TIP3    H116395   6.456   2.469   4.522
 5477TIP3    H216396   6.345   2.509   4.427
 5478TIP3   OH216397   7.025   5.738   3.223
 5478TIP3    H116398   7.083   5.778   3.159
 5478TIP3    H216399   7.075   5.736   3.305
 5479TIP3   OH216400   1.835   0.514   2.539
 5479TIP3    H116401   1.815   0.457   2.465
 5479TIP3    H216402   1.884   0.460   2.600
 5480TIP3   OH216403   5.424   4.509   1.117
 5480TIP3    H116404   5.442   4.564   1.041
 5480TIP3    H216405   5.502   4.455   1.126
 5481TIP3   OH216406   0.984   1.805   4.980
 5481TIP3    H116407   0.989   1.737   4.913
 5481TIP3    H216408   0.981   1.758   5.063
 5482TIP3   OH216409   6.584   4.690   4.909
 5482TIP3    H116410   6.497   4.652   4.921
 5482TIP3    H216411   6.645   4.620   4.930
 5483TIP3   OH216412   4.863   0.253   3.023
 5483TIP3    H116413   4.856   0.241   2.928
 5483TIP3    H216414   4.774   0.241   3.056
 5484TIP3   OH216415   6.955   1.322   0.252
 5484TIP3    H116416   6.886   1.381   0.280
 5484TIP3    H216417   6.915   1.235   0.253
 5485TIP3   OH216418   2.501   2.638   2.815
 5485TIP3    H116419   2.584   2.595   2.795
 5485TIP3    H216420   2.456   2.644   2.731
 5486TIP3   OH216421   0.322   5.845   2.520
 5486TIP3    H116422   0.277   5.790   2.457
 5486TIP3    H216423   0.310   5.934   2.486
 5487TIP3   OH216424   1.798   6.191   1.852
 5487TIP3    H116425   1.882   6.186   1.897
 5487TIP3    H216426   1.816   6.157   1.764
 5488TIP3   OH216427   5.529   3.887   2.909
 5488TIP3    H116428   5.483   3.831   2.847
 5488TIP3    H216429   5.584   3.943   2.854
 5489TIP3   OH216430   0.886   1.770   3.767
 5489TIP3    H116431   0.902   1.691   3.715
 5489TIP3    H216432   0.972   1.810   3.778
 5490TIP3   OH216433   6.176   3.940   0.408
 5490TIP3    H116434   6.159   3.889   0.328
 5490TIP3    H216435   6.221   4.019   0.377
 5491TIP3   OH216436   0.406   5.207   2.834
 5491TIP3    H116437   0.399   5.295   2.797
 5491TIP3    H216438   0.499   5.196   2.854
 5492TIP3   OH216439   6.693   1.235   5.212
 5492TIP3    H116440   6.729   1.303   5.155
 5492TIP3    H216441   6.639   1.282   5.275
 5493TIP3   OH216442   4.633   4.588   1.934
 5493TIP3    H116443   4.544   4.613   1.957
 5493TIP3    H216444   4.685   4.610   2.011
 5494TIP3   OH216445   0.125   2.179   2.985
 5494TIP3    H116446   0.219   2.179   2.970
 5494TIP3    H216447   0.115   2.147   3.075
 5495TIP3   OH216448   5.945   2.034   5.119
 5495TIP3    H116449   5.863   2.003   5.080
 5495TIP3    H216450   5.971   1.964   5.178
 5496TIP3   OH216451   3.564   1.117   2.090
 5496TIP3    H116452   3.600   1.064   2.161
 5496TIP3    H216453   3.562   1.206   2.125
 5497TIP3   OH216454   6.491   5.058   1.501
 5497TIP3    H116455   6.455   5.082   1.416
 5497TIP3    H216456   6.518   5.141   1.541
 5498TIP3   OH216457   2.336   6.330   5.024
 5498TIP3    H116458   2.288   6.248   5.013
 5498TIP3    H216459   2.375   6.323   5.111
 5499TIP3   OH216460   3.420   6.462   4.551
 5499TIP3    H116461   3.505   6.440   4.512
 5499TIP3    H216462   3.379   6.520   4.487
 5500TIP3   OH216463   5.634   4.480   0.284
 5500TIP3    H116464   5.646   4.542   0.356
 5500TIP3    H216465   5.676   4.522   0.209
 5501TIP3   OH216466   5.849   2.678   3.389
 5501TIP3    H116467   5.816   2.657   3.302
 5501TIP3    H216468   5.857   2.594   3.433
 5502TIP3   OH216469   4.892   1.816   5.246
 5502TIP3    H116470   4.902   1.830   5.151
 5502TIP3    H216471   4.879   1.722   5.255
 5503TIP3   OH216472   1.885   2.742   3.068
 5503TIP3    H116473   1.911   2.696   3.148
 5503TIP3    H216474   1.926   2.829   3.077
 5504TIP3   OH216475   5.885   4.329   4.934
 5504TIP3    H116476   5.934   4.368   5.008
 5504TIP3    H216477   5.889   4.395   4.865
 5505TIP3   OH216478   0.473   4.675   5.090
 5505TIP3    H116479   0.419   4.641   5.162
 5505TIP3    H216480   0.497   4.763   5.118
 5506TIP3   OH216481   0.416   2.311   5.409
 5506TIP3    H116482   0.492   2.359   5.378
 5506TIP3    H216483   0.358   2.378   5.445
 5507TIP3   OH216484   1.808   5.324   2.234
 5507TIP3    H116485   1.815   5.418   2.216
 5507TIP3    H216486   1.799   5.319   2.329
 5508TIP3   OH216487   0.110   0.457   1.113
 5508TIP3    H116488   0.185   0.477   1.169
 5508TIP3    H216489   0.042   0.428   1.174
 5509TIP3   OH216490   3.961   4.640   0.679
 5509TIP3    H116491   3.933   4.706   0.615
 5509TIP3    H216492   3.973   4.689   0.760
 5510TIP3   OH216493   6.691   1.140   4.871
 5510TIP3    H116494   6.774   1.171   4.908
 5510TIP3    H216495   6.696   1.045   4.878
 5511TIP3   OH216496   5.543   2.123   3.330
 5511TIP3    H116497   5.546   2.205   3.379
 5511TIP3    H216498   5.620   2.125   3.273
 5512TIP3   OH216499   5.897   0.868   1.576
 5512TIP3    H116500   5.868   0.780   1.601
 5512TIP3    H216501   5.820   0.909   1.538
 5513TIP3   OH216502   2.842   6.222   0.632
 5513TIP3    H116503   2.778   6.175   0.579
 5513TIP3    H216504   2.807   6.311   0.640
 5514TIP3   OH216505   1.171   1.314   1.723
 5514TIP3    H116506   1.163   1.296   1.630
 5514TIP3    H216507   1.239   1.380   1.729
 5515TIP3   OH216508   1.942   1.053   5.241
 5515TIP3    H116509   1.970   1.073   5.152
 5515TIP3    H216510   1.920   0.960   5.240
 5516TIP3   OH216511   2.918   3.155   0.446
 5516TIP3    H116512   2.833   3.136   0.406
 5516TIP3    H216513   2.979   3.159   0.372
 5517TIP3   OH216514   5.548   5.295   4.182
 5517TIP3    H116515   5.598   5.375   4.168
 5517TIP3    H216516   5.552   5.281   4.277
 5518TIP3   OH216517   1.646   2.734   2.181
 5518TIP3    H116518   1.588   2.782   2.121
 5518TIP3    H216519   1.691   2.671   2.125
 5519TIP3   OH216520   5.556   3.217   2.267
 5519TIP3    H116521   5.573   3.266   2.186
 5519TIP3    H216522   5.619   3.252   2.330
 5520TIP3   OH216523   3.149   2.070   2.607
 5520TIP3    H116524   3.186   1.989   2.642
 5520TIP3    H216525   3.066   2.043   2.567
 5521TIP3   OH216526   3.921   5.445   1.650
 5521TIP3    H116527   3.942   5.352   1.651
 5521TIP3    H216528   4.005   5.489   1.659
 5522TIP3   OH216529   3.963   6.041   5.409
 5522TIP3    H116530   4.056   6.061   5.397
 5522TIP3    H216531   3.953   6.031   5.504
 5523TIP3   OH216532   3.348   4.214   0.339
 5523TIP3    H116533   3.421   4.268   0.370
 5523TIP3    H216534   3.333   4.151   0.410
 5524TIP3   OH216535   0.577   2.799   4.981
 5524TIP3    H116536   0.660   2.753   4.979
 5524TIP3    H216537   0.511   2.732   4.962
 5525TIP3   OH216538   7.247   5.890   4.936
 5525TIP3    H116539   7.160   5.884   4.976
 5525TIP3    H216540   7.231   5.921   4.847
 5526TIP3   OH216541   0.621   4.801   5.425
 5526TIP3    H116542   0.659   4.889   5.418
 5526TIP3    H216543   0.688   4.743   5.387
 5527TIP3   OH216544   0.713   6.675   5.676
 5527TIP3    H116545   0.766   6.607   5.717
 5527TIP3    H216546   0.662   6.628   5.609
 5528TIP3   OH216547   0.970   0.857   2.755
 5528TIP3    H116548   0.971   0.872   2.849
 5528TIP3    H216549   1.019   0.930   2.718
 5529TIP3   OH216550   3.477   4.895   3.363
 5529TIP3    H116551   3.512   4.957   3.428
 5529TIP3    H216552   3.507   4.809   3.393
 5530TIP3   OH216553   1.717   4.067   3.760
 5530TIP3    H116554   1.650   4.098   3.699
 5530TIP3    H216555   1.668   4.036   3.836
 5531TIP3   OH216556   2.690   1.452   0.100
 5531TIP3    H116557   2.671   1.373   0.151
 5531TIP3    H216558   2.775   1.434   0.059
 5532TIP3   OH216559   2.882   4.185   1.964
 5532TIP3    H116560   2.796   4.226   1.960
 5532TIP3    H216561   2.915   4.209   2.051
 5533TIP3   OH216562   6.253   0.431   5.658
 5533TIP3    H116563   6.271   0.339   5.675
 5533TIP3    H216564   6.281   0.446   5.568
 5534TIP3   OH216565   3.339   4.518   2.151
 5534TIP3    H116566   3.267   4.535   2.212
 5534TIP3    H216567   3.347   4.598   2.100
 5535TIP3   OH216568   3.457   3.411   0.882
 5535TIP3    H116569   3.394   3.392   0.813
 5535TIP3    H216570   3.471   3.326   0.925
 5536TIP3   OH216571   6.279   6.830   2.005
 5536TIP3    H116572   6.213   6.889   1.967
 5536TIP3    H216573   6.241   6.743   1.997
 5537TIP3   OH216574   5.510   6.111   2.038
 5537TIP3    H116575   5.432   6.159   2.064
 5537TIP3    H216576   5.478   6.035   1.990
 5538TIP3   OH216577   0.687   2.177   0.714
 5538TIP3    H116578   0.710   2.263   0.677
 5538TIP3    H216579   0.690   2.117   0.640
 5539TIP3   OH216580   3.260   5.831   0.960
 5539TIP3    H116581   3.243   5.855   1.051
 5539TIP3    H216582   3.355   5.815   0.957
 5540TIP3   OH216583   2.322   4.805   3.773
 5540TIP3    H116584   2.231   4.835   3.763
 5540TIP3    H216585   2.358   4.810   3.684
 5541TIP3   OH216586   6.800   2.148   3.934
 5541TIP3    H116587   6.709   2.175   3.946
 5541TIP3    H216588   6.795   2.067   3.884
 5542TIP3   OH216589   2.660   0.873   2.272
 5542TIP3    H116590   2.652   0.835   2.359
 5542TIP3    H216591   2.664   0.798   2.213
 5543TIP3   OH216592   0.457   2.256   1.913
 5543TIP3    H116593   0.517   2.326   1.940
 5543TIP3    H216594   0.372   2.284   1.945
 5544TIP3   OH216595   0.060   1.936   3.626
 5544TIP3    H116596   0.144   1.974   3.598
 5544TIP3    H216597   0.012   2.010   3.664
 5545TIP3   OH216598   3.194   1.856   5.097
 5545TIP3    H116599   3.248   1.913   5.043
 5545TIP3    H216600   3.212   1.884   5.187
 5546TIP3   OH216601   3.598   3.521   4.349
 5546TIP3    H116602   3.513   3.557   4.372
 5546TIP3    H216603   3.643   3.593   4.304
 5547TIP3   OH216604   6.121   4.953   3.913
 5547TIP3    H116605   6.156   5.032   3.871
 5547TIP3    H216606   6.197   4.897   3.926
 5548TIP3   OH216607   4.851   5.504   0.446
 5548TIP3    H116608   4.817   5.428   0.494
 5548TIP3    H216609   4.944   5.507   0.469
 5549TIP3   OH216610   5.336   3.511   4.112
 5549TIP3    H116611   5.352   3.516   4.018
 5549TIP3    H216612   5.414   3.550   4.152
 5550TIP3   OH216613   6.055   2.793   3.121
 5550TIP3    H116614   6.020   2.881   3.112
 5550TIP3    H216615   5.984   2.736   3.093
 5551TIP3   OH216616   2.943   4.946   3.804
 5551TIP3    H116617   3.002   4.990   3.743
 5551TIP3    H216618   2.863   4.931   3.754
 5552TIP3   OH216619   2.377   6.368   3.237
 5552TIP3    H116620   2.407   6.300   3.176
 5552TIP3    H216621   2.353   6.319   3.317
 5553TIP3   OH216622   7.097   0.034   4.223
 5553TIP3    H116623   7.103   0.129   4.215
 5553TIP3    H216624   7.004   0.016   4.232
 5554TIP3   OH216625   6.930   2.309   5.632
 5554TIP3    H116626   7.006   2.338   5.683
 5554TIP3    H216627   6.909   2.223   5.668
 5555TIP3   OH216628   1.004   3.101   3.677
 5555TIP3    H116629   1.089   3.121   3.716
 5555TIP3    H216630   0.975   3.022   3.723
 5556TIP3   OH216631   3.520   1.868   2.759
 5556TIP3    H116632   3.613   1.853   2.741
 5556TIP3    H216633   3.519   1.921   2.838
 5557TIP3   OH216634   6.558   0.503   0.123
 5557TIP3    H116635   6.477   0.478   0.078
 5557TIP3    H216636   6.626   0.491   0.057
 5558TIP3   OH216637   3.913   5.724   3.930
 5558TIP3    H116638   3.865   5.794   3.975
 5558TIP3    H216639   3.894   5.738   3.837
 5559TIP3   OH216640   2.995   5.340   3.407
 5559TIP3    H116641   2.948   5.349   3.490
 5559TIP3    H216642   3.065   5.278   3.426
 5560TIP3   OH216643   0.373   2.612   5.113
 5560TIP3    H116644   0.292   2.565   5.092
 5560TIP3    H216645   0.442   2.547   5.100
 5561TIP3   OH216646   7.052   1.335   5.216
 5561TIP3    H116647   6.983   1.401   5.205
 5561TIP3    H216648   7.105   1.367   5.289
 5562TIP3   OH216649   2.430   3.891   0.780
 5562TIP3    H116650   2.525   3.904   0.789
 5562TIP3    H216651   2.419   3.847   0.696
 5563TIP3   OH216652   5.052   4.343   3.621
 5563TIP3    H116653   4.976   4.302   3.663
 5563TIP3    H216654   5.127   4.298   3.658
 5564TIP3   OH216655   6.134   4.855   1.799
 5564TIP3    H116656   6.166   4.924   1.857
 5564TIP3    H216657   6.095   4.790   1.857
 5565TIP3   OH216658   2.576   0.349   5.835
 5565TIP3    H116659   2.668   0.374   5.823
 5565TIP3    H216660   2.559   0.286   5.766
 5566TIP3   OH216661   6.669   4.251   4.726
 5566TIP3    H116662   6.627   4.189   4.786
 5566TIP3    H216663   6.762   4.230   4.732
 5567TIP3   OH216664   5.427   1.050   4.016
 5567TIP3    H116665   5.368   1.124   4.030
 5567TIP3    H216666   5.406   0.989   4.086
 5568TIP3   OH216667   0.622   3.323   3.374
 5568TIP3    H116668   0.672   3.349   3.296
 5568TIP3    H216669   0.646   3.387   3.440
 5569TIP3   OH216670   5.728   0.476   0.758
 5569TIP3    H116671   5.761   0.459   0.670
 5569TIP3    H216672   5.708   0.389   0.793
 5570TIP3   OH216673   4.828   5.289   2.197
 5570TIP3    H116674   4.853   5.203   2.164
 5570TIP3    H216675   4.907   5.342   2.186
 5571TIP3   OH216676   2.803   1.685   2.440
 5571TIP3    H116677   2.893   1.658   2.459
 5571TIP3    H216678   2.758   1.603   2.418
 5572TIP3   OH216679   1.516   4.366   3.008
 5572TIP3    H116680   1.566   4.448   3.007
 5572TIP3    H216681   1.429   4.391   2.976
 5573TIP3   OH216682   2.806   3.525   0.518
 5573TIP3    H116683   2.736   3.542   0.581
 5573TIP3    H216684   2.775   3.449   0.468
 5574TIP3   OH216685   1.067   1.341   1.993
 5574TIP3    H116686   1.076   1.327   1.899
 5574TIP3    H216687   1.049   1.254   2.029
 5575TIP3   OH216688   4.693   1.592   3.545
 5575TIP3    H116689   4.659   1.675   3.511
 5575TIP3    H216690   4.627   1.564   3.608
 5576TIP3   OH216691   1.338   5.080   4.189
 5576TIP3    H116692   1.291   5.083   4.272
 5576TIP3    H216693   1.381   5.165   4.184
 5577TIP3   OH216694   1.086   3.874   1.115
 5577TIP3    H116695   1.006   3.864   1.166
 5577TIP3    H216696   1.058   3.917   1.034
 5578TIP3   OH216697   5.284   5.631   4.650
 5578TIP3    H116698   5.296   5.666   4.561
 5578TIP3    H216699   5.190   5.626   4.661
 5579TIP3   OH216700   1.927   5.339   2.638
 5579TIP3    H116701   1.979   5.264   2.666
 5579TIP3    H216702   1.929   5.399   2.712
 5580TIP3   OH216703   4.884   2.747   5.674
 5580TIP3    H116704   4.793   2.723   5.655
 5580TIP3    H216705   4.877   2.803   5.751
 5581TIP3   OH216706   5.657   3.659   5.572
 5581TIP3    H116707   5.625   3.742   5.605
 5581TIP3    H216708   5.645   3.598   5.644
 5582TIP3   OH216709   5.950   4.122   3.534
 5582TIP3    H116710   5.920   4.169   3.456
 5582TIP3    H216711   6.035   4.160   3.554
 5583TIP3   OH216712   4.723   0.778   3.595
 5583TIP3    H116713   4.806   0.823   3.612
 5583TIP3    H216714   4.662   0.849   3.574
 5584TIP3   OH216715   0.871  -0.005   2.524
 5584TIP3    H116716   0.794  -0.005   2.467
 5584TIP3    H216717   0.945   0.000   2.464
 5585TIP3   OH216718   1.217   5.743   2.136
 5585TIP3    H116719   1.268   5.675   2.179
 5585TIP3    H216720   1.250   5.825   2.172
 5586TIP3   OH216721   2.537   3.767   4.578
 5586TIP3    H116722   2.555   3.855   4.609
 5586TIP3    H216723   2.576   3.764   4.490
 5587TIP3   OH216724   0.941   1.820   3.415
 5587TIP3    H116725   0.857   1.844   3.456
 5587TIP3    H216726   0.954   1.729   3.440
 5588TIP3   OH216727   5.629   0.989   1.697
 5588TIP3    H116728   5.692   1.058   1.718
 5588TIP3    H216729   5.633   0.981   1.602
 5589TIP3   OH216730   5.312   0.778   4.890
 5589TIP3    H116731   5.388   0.831   4.915
 5589TIP3    H216732   5.291   0.729   4.970
 5590TIP3   OH216733   2.223   0.564   0.308
 5590TIP3    H116734   2.170   0.643   0.319
 5590TIP3    H216735   2.244   0.536   0.398
 5591TIP3   OH216736   2.096   4.079   3.542
 5591TIP3    H116737   2.037   4.010   3.573
 5591TIP3    H216738   2.152   4.036   3.478
 5592TIP3   OH216739   1.669   6.650   1.884
 5592TIP3    H116740   1.748   6.610   1.922
 5592TIP3    H216741   1.703   6.704   1.812
 5593TIP3   OH216742   4.094   4.288   2.387
 5593TIP3    H116743   4.022   4.319   2.442
 5593TIP3    H216744   4.154   4.246   2.448
 5594TIP3   OH216745   0.707   6.201   5.018
 5594TIP3    H116746   0.673   6.154   5.094
 5594TIP3    H216747   0.634   6.203   4.956
 5595TIP3   OH216748   4.440   3.578   4.633
 5595TIP3    H116749   4.438   3.590   4.538
 5595TIP3    H216750   4.528   3.544   4.651
 5596TIP3   OH216751   0.490   2.470   2.598
 5596TIP3    H116752   0.554   2.541   2.611
 5596TIP3    H216753   0.542   2.397   2.566
 5597TIP3   OH216754   7.001   4.128   3.671
 5597TIP3    H116755   7.018   4.163   3.759
 5597TIP3    H216756   6.926   4.069   3.683
 5598TIP3   OH216757   6.997   3.734   2.914
 5598TIP3    H116758   6.973   3.826   2.925
 5598TIP3    H216759   7.016   3.704   3.002
 5599TIP3   OH216760   2.187   0.606   4.730
 5599TIP3    H116761   2.166   0.559   4.649
 5599TIP3    H216762   2.242   0.679   4.702
 5600TIP3   OH216763   4.215   6.316   3.396
 5600TIP3    H116764   4.183   6.395   3.439
 5600TIP3    H216765   4.144   6.291   3.337
 5601TIP3   OH216766   1.765   6.037   2.724
 5601TIP3    H116767   1.708   6.075   2.791
 5601TIP3    H216768   1.821   5.975   2.771
 5602TIP3   OH216769   3.804   3.785   5.280
 5602TIP3    H116770   3.868   3.813   5.346
 5602TIP3    H216771   3.719   3.803   5.320
 5603TIP3   OH216772   4.411   6.381   4.070
 5603TIP3    H116773   4.356   6.445   4.113
 5603TIP3    H216774   4.496   6.388   4.113
 5604TIP3   OH216775   1.091   5.524   2.010
 5604TIP3    H116776   1.022   5.564   1.958
 5604TIP3    H216777   1.147   5.597   2.037
 5605TIP3   OH216778   0.551   3.936   4.289
 5605TIP3    H116779   0.545   3.840   4.295
 5605TIP3    H216780   0.460   3.966   4.295
 5606TIP3   OH216781   6.029   2.612   3.771
 5606TIP3    H116782   6.110   2.562   3.783
 5606TIP3    H216783   5.960   2.547   3.780
 5607TIP3   OH216784   0.771   3.114   5.076
 5607TIP3    H116785   0.752   3.141   4.986
 5607TIP3    H216786   0.742   3.188   5.130
 5608TIP3   OH216787   3.178   2.132   1.272
 5608TIP3    H116788   3.228   2.056   1.301
 5608TIP3    H216789   3.168   2.186   1.350
 5609TIP3   OH216790   0.086   2.193   3.262
 5609TIP3    H116791   0.072   2.280   3.299
 5609TIP3    H216792  -0.001   2.152   3.264
 5610TIP3   OH216793   3.151   2.910   5.389
 5610TIP3    H116794   3.130   2.895   5.481
 5610TIP3    H216795   3.131   2.826   5.347
 5611TIP3   OH216796   7.163   2.601   3.650
 5611TIP3    H116797   7.230   2.662   3.682
 5611TIP3    H216798   7.087   2.618   3.706
 5612TIP3   OH216799   2.532   3.091   0.471
 5612TIP3    H116800   2.581   3.029   0.526
 5612TIP3    H216801   2.562   3.072   0.382
 5613TIP3   OH216802   6.382   4.196   2.742
 5613TIP3    H116803   6.295   4.155   2.746
 5613TIP3    H216804   6.418   4.167   2.658
 5614TIP3   OH216805   0.059   0.323   4.342
 5614TIP3    H116806  -0.020   0.353   4.387
 5614TIP3    H216807   0.070   0.384   4.269
 5615TIP3   OH216808   6.675   6.741   1.171
 5615TIP3    H116809   6.694   6.647   1.164
 5615TIP3    H216810   6.583   6.745   1.196
 5616TIP3   OH216811   0.752   3.432   5.758
 5616TIP3    H116812   0.676   3.380   5.732
 5616TIP3    H216813   0.719   3.521   5.769
 5617TIP3   OH216814   1.556   1.154   5.050
 5617TIP3    H116815   1.612   1.178   5.124
 5617TIP3    H216816   1.500   1.231   5.036
 5618TIP3   OH216817   6.876   5.635   1.126
 5618TIP3    H116818   6.807   5.689   1.087
 5618TIP3    H216819   6.870   5.551   1.080
 5619TIP3   OH216820   6.664   6.158   0.454
 5619TIP3    H116821   6.694   6.182   0.542
 5619TIP3    H216822   6.642   6.241   0.413
 5620TIP3   OH216823   0.156   3.850   5.691
 5620TIP3    H116824   0.095   3.846   5.765
 5620TIP3    H216825   0.215   3.921   5.713
 5621TIP3   OH216826   0.118   1.415   5.794
 5621TIP3    H116827   0.125   1.427   5.889
 5621TIP3    H216828   0.030   1.444   5.773
 5622TIP3   OH216829   1.656   1.326   2.651
 5622TIP3    H116830   1.685   1.236   2.639
 5622TIP3    H216831   1.723   1.366   2.707
 5623TIP3   OH216832   2.630   0.709   5.622
 5623TIP3    H116833   2.721   0.726   5.599
 5623TIP3    H216834   2.588   0.795   5.620
 5624TIP3   OH216835   1.258   4.288   3.320
 5624TIP3    H116836   1.224   4.206   3.284
 5624TIP3    H216837   1.347   4.295   3.285
 5625TIP3   OH216838   4.265   1.906   5.667
 5625TIP3    H116839   4.190   1.942   5.620
 5625TIP3    H216840   4.266   1.954   5.750
 5626TIP3   OH216841   0.876   2.956   4.555
 5626TIP3    H116842   0.879   2.937   4.461
 5626TIP3    H216843   0.789   2.994   4.568
 5627TIP3   OH216844   1.695   5.593   5.300
 5627TIP3    H116845   1.766   5.608   5.363
 5627TIP3    H216846   1.633   5.538   5.347
 5628TIP3   OH216847   1.484   5.931   5.425
 5628TIP3    H116848   1.489   5.847   5.470
 5628TIP3    H216849   1.525   5.915   5.340
 5629TIP3   OH216850   1.012   3.476   4.837
 5629TIP3    H116851   0.992   3.505   4.748
 5629TIP3    H216852   0.951   3.403   4.852
 5630TIP3   OH216853   6.512   2.921   1.660
 5630TIP3    H116854   6.588   2.920   1.719
 5630TIP3    H216855   6.437   2.935   1.717
 5631TIP3   OH216856   2.703   4.219   2.661
 5631TIP3    H116857   2.733   4.146   2.607
 5631TIP3    H216858   2.713   4.188   2.751
 5632TIP3   OH216859   5.251   6.574   2.050
 5632TIP3    H116860   5.192   6.608   2.117
 5632TIP3    H216861   5.198   6.513   1.999
 5633TIP3   OH216862   1.373   1.838   4.245
 5633TIP3    H116863   1.327   1.764   4.284
 5633TIP3    H216864   1.418   1.879   4.319
 5634TIP3   OH216865   3.364   2.431   4.415
 5634TIP3    H116866   3.271   2.410   4.427
 5634TIP3    H216867   3.395   2.368   4.351
 5635TIP3   OH216868   6.844   4.808   5.038
 5635TIP3    H116869   6.827   4.793   4.945
 5635TIP3    H216870   6.921   4.866   5.040
 5636TIP3   OH216871   2.069   4.383   5.449
 5636TIP3    H116872   2.153   4.426   5.466
 5636TIP3    H216873   2.004   4.452   5.460
 5637TIP3   OH216874   4.105   6.023   3.637
 5637TIP3    H116875   4.179   6.053   3.690
 5637TIP3    H216876   4.038   6.091   3.648
 5638TIP3   OH216877   3.421   5.336   2.388
 5638TIP3    H116878   3.421   5.272   2.316
 5638TIP3    H216879   3.330   5.366   2.393
 5639TIP3   OH216880   4.388   1.747   1.335
 5639TIP3    H116881   4.443   1.731   1.412
 5639TIP3    H216882   4.380   1.842   1.331
 5640TIP3   OH216883   6.007   1.583   4.697
 5640TIP3    H116884   6.088   1.571   4.649
 5640TIP3    H216885   6.004   1.510   4.759
 5641TIP3   OH216886   2.018   0.122   1.307
 5641TIP3    H116887   2.042   0.125   1.400
 5641TIP3    H216888   1.957   0.048   1.300
 5642TIP3   OH216889   2.933   4.757   2.403
 5642TIP3    H116890   2.909   4.833   2.350
 5642TIP3    H216891   2.962   4.794   2.487
 5643TIP3   OH216892   7.165   2.253   5.016
 5643TIP3    H116893   7.094   2.217   5.070
 5643TIP3    H216894   7.125   2.326   4.969
 5644TIP3   OH216895   6.475   1.719   0.356
 5644TIP3    H116896   6.551   1.774   0.376
 5644TIP3    H216897   6.423   1.721   0.437
 5645TIP3   OH216898   2.314   4.508   0.442
 5645TIP3    H116899   2.236   4.498   0.498
 5645TIP3    H216900   2.368   4.572   0.488
 5646TIP3   OH216901   3.644   4.533   4.003
 5646TIP3    H116902   3.619   4.613   4.048
 5646TIP3    H216903   3.703   4.562   3.933
 5647TIP3   OH216904   2.926   3.951   4.534
 5647TIP3    H116905   2.853   3.900   4.499
 5647TIP3    H216906   3.001   3.926   4.479
 5648TIP3   OH216907   1.329   0.362   4.453
 5648TIP3    H116908   1.401   0.300   4.444
 5648TIP3    H216909   1.345   0.406   4.536
 5649TIP3   OH216910   1.628   3.371   4.162
 5649TIP3    H116911   1.667   3.434   4.101
 5649TIP3    H216912   1.635   3.413   4.248
 5650TIP3   OH216913   5.785   0.745   3.751
 5650TIP3    H116914   5.786   0.700   3.835
 5650TIP3    H216915   5.695   0.775   3.740
 5651TIP3   OH216916   4.297   3.527   3.776
 5651TIP3    H116917   4.313   3.616   3.744
 5651TIP3    H216918   4.279   3.476   3.697
 5652TIP3   OH216919   5.343   5.616   1.411
 5652TIP3    H116920   5.373   5.560   1.482
 5652TIP3    H216921   5.290   5.560   1.355
 5653TIP3   OH216922   0.788   3.930   3.259
 5653TIP3    H116923   0.829   3.949   3.343
 5653TIP3    H216924   0.696   3.916   3.279
 5654TIP3   OH216925   0.065   2.745   1.147
 5654TIP3    H116926   0.080   2.838   1.160
 5654TIP3    H216927   0.152   2.710   1.125
 5655TIP3   OH216928   4.829   4.894   3.441
 5655TIP3    H116929   4.753   4.846   3.407
 5655TIP3    H216930   4.796   4.983   3.453
 5656TIP3   OH216931   4.208   0.161   4.019
 5656TIP3    H116932   4.166   0.230   4.071
 5656TIP3    H216933   4.177   0.080   4.059
 5657TIP3   OH216934   2.429   2.052   1.683
 5657TIP3    H116935   2.413   2.135   1.638
 5657TIP3    H216936   2.381   2.061   1.765
 5658TIP3   OH216937   7.044   1.688   2.443
 5658TIP3    H116938   7.042   1.742   2.522
 5658TIP3    H216939   7.104   1.734   2.384
 5659TIP3   OH216940   4.512   1.942   1.511
 5659TIP3    H116941   4.584   1.986   1.465
 5659TIP3    H216942   4.438   2.003   1.503
 5660TIP3   OH216943   3.944   0.103   5.923
 5660TIP3    H116944   4.004   0.170   5.957
 5660TIP3    H216945   3.964   0.098   5.829
 5661TIP3   OH216946   3.006   3.736   0.530
 5661TIP3    H116947   3.006   3.798   0.456
 5661TIP3    H216948   2.927   3.684   0.518
 5662TIP3   OH216949   5.682   5.104   2.427
 5662TIP3    H116950   5.717   5.101   2.338
 5662TIP3    H216951   5.736   5.042   2.476
 5663TIP3   OH216952   0.780   5.895   1.558
 5663TIP3    H116953   0.749   5.946   1.483
 5663TIP3    H216954   0.826   5.821   1.519
 5664TIP3   OH216955   0.252   3.344   5.604
 5664TIP3    H116956   0.314   3.335   5.675
 5664TIP3    H216957   0.269   3.431   5.567
 5665TIP3   OH216958   3.743   6.695   1.325
 5665TIP3    H116959   3.772   6.700   1.234
 5665TIP3    H216960   3.686   6.771   1.336
 5666TIP3   OH216961   5.345   4.964   1.507
 5666TIP3    H116962   5.380   4.981   1.420
 5666TIP3    H216963   5.277   4.898   1.493
 5667TIP3   OH216964   1.180   1.436   3.712
 5667TIP3    H116965   1.220   1.384   3.782
 5667TIP3    H216966   1.228   1.518   3.712
 5668TIP3   OH216967   2.374   0.917   0.326
 5668TIP3    H116968   2.432   0.852   0.286
 5668TIP3    H216969   2.407   0.928   0.414
 5669TIP3   OH216970   3.426   2.297   3.366
 5669TIP3    H116971   3.486   2.224   3.377
 5669TIP3    H216972   3.358   2.283   3.431
 5670TIP3   OH216973   0.787   5.304   2.066
 5670TIP3    H116974   0.818   5.284   1.977
 5670TIP3    H216975   0.839   5.246   2.122
 5671TIP3   OH216976   3.067   2.300   2.788
 5671TIP3    H116977   3.122   2.378   2.781
 5671TIP3    H216978   3.109   2.236   2.730
 5672TIP3   OH216979   5.304   3.648   5.015
 5672TIP3    H116980   5.230   3.665   4.956
 5672TIP3    H216981   5.349   3.732   5.024
 5673TIP3   OH216982   2.044   0.303   5.850
 5673TIP3    H116983   2.115   0.243   5.872
 5673TIP3    H216984   2.017   0.340   5.934
 5674TIP3   OH216985   3.840   3.699   0.247
 5674TIP3    H116986   3.887   3.706   0.164
 5674TIP3    H216987   3.761   3.650   0.226
 5675TIP3   OH216988   0.680   1.283   2.046
 5675TIP3    H116989   0.611   1.298   2.111
 5675TIP3    H216990   0.759   1.317   2.086
 5676TIP3   OH216991   5.096   6.709   4.172
 5676TIP3    H116992   5.144   6.654   4.235
 5676TIP3    H216993   5.156   6.781   4.154
 5677TIP3   OH216994   1.345   1.297   4.151
 5677TIP3    H116995   1.433   1.318   4.184
 5677TIP3    H216996   1.345   1.202   4.142
 5678TIP3   OH216997   2.394   4.739   2.370
 5678TIP3    H116998   2.486   4.736   2.395
 5678TIP3    H216999   2.387   4.816   2.313
 5679TIP3   OH217000   5.559   0.693   2.721
 5679TIP3    H117001   5.565   0.613   2.773
 5679TIP3    H217002   5.590   0.762   2.780
 5680TIP3   OH217003   1.168   2.359   2.630
 5680TIP3    H117004   1.129   2.275   2.655
 5680TIP3    H217005   1.236   2.375   2.695
 5681TIP3   OH217006   0.608   2.975   4.798
 5681TIP3    H117007   0.550   2.947   4.727
 5681TIP3    H217008   0.604   2.903   4.862
 5682TIP3   OH217009   4.592   6.214   2.904
 5682TIP3    H117010   4.632   6.244   2.822
 5682TIP3    H217011   4.617   6.280   2.969
 5683TIP3   OH217012   1.729   3.431   4.813
 5683TIP3    H117013   1.811   3.408   4.857
 5683TIP3    H217014   1.660   3.404   4.873
 5684TIP3   OH217015   5.705   4.511   2.561
 5684TIP3    H117016   5.789   4.478   2.593
 5684TIP3    H217017   5.694   4.469   2.476
 5685TIP3   OH217018   6.472   1.263   1.506
 5685TIP3    H117019   6.566   1.275   1.491
 5685TIP3    H217020   6.438   1.234   1.421
 5686TIP3   OH217021   0.103   5.893   1.672
 5686TIP3    H117022   0.159   5.932   1.738
 5686TIP3    H217023   0.043   5.963   1.646
 5687TIP3   OH217024   5.270   1.717   4.214
 5687TIP3    H117025   5.179   1.727   4.186
 5687TIP3    H217026   5.265   1.672   4.299
 5688TIP3   OH217027   3.031   2.746   4.927
 5688TIP3    H117028   2.969   2.815   4.951
 5688TIP3    H217029   2.980   2.665   4.931
 5689TIP3   OH217030   6.224   0.266   2.613
 5689TIP3    H117031   6.258   0.185   2.650
 5689TIP3    H217032   6.200   0.243   2.523
 5690TIP3   OH217033   0.520   5.396   0.061
 5690TIP3    H117034   0.612   5.395   0.036
 5690TIP3    H217035   0.517   5.443   0.144
 5691TIP3   OH217036   1.504   5.207   0.069
 5691TIP3    H117037   1.574   5.154   0.107
 5691TIP3    H217038   1.430   5.195   0.128
 5692TIP3   OH217039   3.963   5.501   4.626
 5692TIP3    H117040   3.882   5.532   4.668
 5692TIP3    H217041   4.027   5.498   4.697
 5693TIP3   OH217042   1.691   5.192   5.789
 5693TIP3    H117043   1.779   5.179   5.825
 5693TIP3    H217044   1.634   5.194   5.866
 5694TIP3   OH217045   0.756   2.874   2.769
 5694TIP3    H117046   0.843   2.836   2.764
 5694TIP3    H217047   0.760   2.951   2.712
 5695TIP3   OH217048   1.455   5.673   5.539
 5695TIP3    H117049   1.360   5.662   5.534
 5695TIP3    H217050   1.490   5.598   5.491
 5696TIP3   OH217051   0.076   2.957   0.812
 5696TIP3    H117052   0.127   2.977   0.890
 5696TIP3    H217053   0.108   2.871   0.783
 5697TIP3   OH217054   4.802   3.513   1.905
 5697TIP3    H117055   4.732   3.574   1.882
 5697TIP3    H217056   4.877   3.541   1.853
 5698TIP3   OH217057   1.592   0.066   2.615
 5698TIP3    H117058   1.672   0.105   2.580
 5698TIP3    H217059   1.542   0.041   2.537
 5699TIP3   OH217060   0.189   3.698   1.700
 5699TIP3    H117061   0.184   3.738   1.614
 5699TIP3    H217062   0.228   3.612   1.685
 5700TIP3   OH217063   6.222   2.895   3.874
 5700TIP3    H117064   6.205   2.873   3.782
 5700TIP3    H217065   6.158   2.964   3.894
 5701TIP3   OH217066   4.718   0.623   4.689
 5701TIP3    H117067   4.745   0.693   4.749
 5701TIP3    H217068   4.795   0.607   4.635
 5702TIP3   OH217069   1.462  -0.009   2.396
 5702TIP3    H117070   1.452  -0.094   2.354
 5702TIP3    H217071   1.487   0.050   2.326
 5703TIP3   OH217072   2.363   1.336   0.059
 5703TIP3    H117073   2.412   1.272   0.110
 5703TIP3    H217074   2.375   1.418   0.106
 5704TIP3   OH217075   3.148   6.298   0.877
 5704TIP3    H117076   3.142   6.241   0.954
 5704TIP3    H217077   3.238   6.288   0.847
 5705TIP3   OH217078   4.834   0.973   1.129
 5705TIP3    H117079   4.749   1.017   1.132
 5705TIP3    H217080   4.879   1.011   1.054
 5706TIP3   OH217081   4.375   0.021   4.331
 5706TIP3    H117082   4.435   0.009   4.257
 5706TIP3    H217083   4.289   0.035   4.290
 5707TIP3   OH217084   5.150   2.833   2.212
 5707TIP3    H117085   5.149   2.770   2.139
 5707TIP3    H217086   5.199   2.908   2.178
 5708TIP3   OH217087   4.868   2.304   2.853
 5708TIP3    H117088   4.878   2.352   2.935
 5708TIP3    H217089   4.869   2.371   2.785
 5709TIP3   OH217090   5.282   3.097   3.774
 5709TIP3    H117091   5.299   3.172   3.717
 5709TIP3    H217092   5.369   3.069   3.804
 5710TIP3   OH217093   6.755   5.229   3.668
 5710TIP3    H117094   6.670   5.259   3.702
 5710TIP3    H217095   6.738   5.210   3.576
 5711TIP3   OH217096   2.966   2.875   3.630
 5711TIP3    H117097   3.031   2.943   3.650
 5711TIP3    H217098   2.967   2.817   3.706
 5712TIP3   OH217099   1.579   4.219   2.218
 5712TIP3    H117100   1.634   4.168   2.159
 5712TIP3    H217101   1.542   4.155   2.279
 5713TIP3   OH217102   2.592   1.996   2.834
 5713TIP3    H117103   2.645   2.075   2.819
 5713TIP3    H217104   2.509   2.029   2.868
 5714TIP3   OH217105   6.289   4.418   0.360
 5714TIP3    H117106   6.342   4.492   0.390
 5714TIP3    H217107   6.274   4.436   0.267
 5715TIP3   OH217108   3.124   4.928   1.438
 5715TIP3    H117109   3.040   4.897   1.473
 5715TIP3    H217110   3.189   4.894   1.499
 5716TIP3   OH217111   6.310   5.612   4.676
 5716TIP3    H117112   6.295   5.603   4.582
 5716TIP3    H217113   6.396   5.573   4.691
 5717TIP3   OH217114   1.151   5.418   2.407
 5717TIP3    H117115   1.068   5.410   2.362
 5717TIP3    H217116   1.133   5.474   2.483
 5718TIP3   OH217117   1.333   3.788   2.306
 5718TIP3    H117118   1.327   3.726   2.378
 5718TIP3    H217119   1.347   3.734   2.228
 5719TIP3   OH217120   0.772   4.833   2.632
 5719TIP3    H117121   0.717   4.862   2.705
 5719TIP3    H217122   0.764   4.737   2.632
 5720TIP3   OH217123   4.630   0.470   0.348
 5720TIP3    H117124   4.601   0.407   0.282
 5720TIP3    H217125   4.635   0.553   0.301
 5721TIP3   OH217126   5.799   3.624   4.442
 5721TIP3    H117127   5.863   3.690   4.466
 5721TIP3    H217128   5.798   3.564   4.516
 5722TIP3   OH217129   4.682   1.044   1.396
 5722TIP3    H117130   4.630   1.123   1.392
 5722TIP3    H217131   4.630   0.978   1.351
 5723TIP3   OH217132   3.162   6.329   3.034
 5723TIP3    H117133   3.076   6.325   3.076
 5723TIP3    H217134   3.224   6.340   3.106
 5724TIP3   OH217135   6.187   5.512   5.583
 5724TIP3    H117136   6.116   5.450   5.569
 5724TIP3    H217137   6.261   5.459   5.611
 5725TIP3   OH217138   6.937   5.992   5.205
 5725TIP3    H117139   6.868   5.929   5.224
 5725TIP3    H217140   6.958   5.977   5.112
 5726TIP3   OH217141   2.843   1.619   1.079
 5726TIP3    H117142   2.860   1.618   0.984
 5726TIP3    H217143   2.927   1.593   1.118
 5727TIP3   OH217144   4.234   0.986   5.535
 5727TIP3    H117145   4.149   0.966   5.574
 5727TIP3    H217146   4.238   1.082   5.533
 5728TIP3   OH217147   0.709   3.738   0.320
 5728TIP3    H117148   0.732   3.830   0.311
 5728TIP3    H217149   0.684   3.711   0.231
 5729TIP3   OH217150   2.095   2.120   5.779
 5729TIP3    H117151   2.130   2.048   5.727
 5729TIP3    H217152   2.058   2.078   5.857
 5730TIP3   OH217153   7.181   5.115   5.344
 5730TIP3    H117154   7.213   5.176   5.278
 5730TIP3    H217155   7.086   5.128   5.345
 5731TIP3   OH217156   6.381   5.915   1.254
 5731TIP3    H117157   6.415   5.937   1.167
 5731TIP3    H217158   6.315   5.983   1.271
 5732TIP3   OH217159   1.244   3.432   5.533
 5732TIP3    H117160   1.172   3.495   5.525
 5732TIP3    H217161   1.210   3.352   5.491
 5733TIP3   OH217162   6.098   2.763   0.606
 5733TIP3    H117163   6.151   2.839   0.632
 5733TIP3    H217164   6.075   2.780   0.515
 5734TIP3   OH217165   7.184   4.523   3.068
 5734TIP3    H117166   7.222   4.436   3.057
 5734TIP3    H217167   7.094   4.507   3.097
 5735TIP3   OH217168   3.343   5.688   3.479
 5735TIP3    H117169   3.303   5.686   3.392
 5735TIP3    H217170   3.315   5.771   3.516
 5736TIP3   OH217171   5.153   0.906   0.811
 5736TIP3    H117172   5.169   0.996   0.841
 5736TIP3    H217173   5.204   0.897   0.731
 5737TIP3   OH217174   3.192   3.068   0.276
 5737TIP3    H117175   3.279   3.066   0.237
 5737TIP3    H217176   3.154   3.150   0.244
 5738TIP3   OH217177   4.769   4.980   0.693
 5738TIP3    H117178   4.755   4.886   0.684
 5738TIP3    H217179   4.720   5.019   0.621
 5739TIP3   OH217180   2.487   3.309   3.834
 5739TIP3    H117181   2.531   3.253   3.771
 5739TIP3    H217182   2.548   3.316   3.908
 5740TIP3   OH217183   3.203   2.160   4.356
 5740TIP3    H117184   3.203   2.213   4.276
 5740TIP3    H217185   3.161   2.215   4.422
 5741TIP3   OH217186   2.118   6.381   4.755
 5741TIP3    H117187   2.033   6.397   4.714
 5741TIP3    H217188   2.147   6.466   4.787
 5742TIP3   OH217189   5.777   4.942   1.145
 5742TIP3    H117190   5.797   5.035   1.151
 5742TIP3    H217191   5.782   4.911   1.236
 5743TIP3   OH217192   5.956   6.651   1.080
 5743TIP3    H117193   5.970   6.576   1.022
 5743TIP3    H217194   5.869   6.636   1.118
 5744TIP3   OH217195   1.393   3.181   4.912
 5744TIP3    H117196   1.359   3.265   4.944
 5744TIP3    H217197   1.317   3.140   4.870
 5745TIP3   OH217198   0.422   6.512   1.599
 5745TIP3    H117199   0.375   6.520   1.516
 5745TIP3    H217200   0.370   6.450   1.650
 5746TIP3   OH217201   5.229   1.928   2.721
 5746TIP3    H117202   5.227   2.022   2.706
 5746TIP3    H217203   5.304   1.915   2.779
 5747TIP3   OH217204   4.756   0.339   1.074
 5747TIP3    H117205   4.670   0.351   1.114
 5747TIP3    H217206   4.751   0.255   1.029
 5748TIP3   OH217207   1.340   0.971   5.329
 5748TIP3    H117208   1.296   0.953   5.412
 5748TIP3    H217209   1.432   0.953   5.347
 5749TIP3   OH217210   6.481   1.622   3.745
 5749TIP3    H117211   6.412   1.572   3.702
 5749TIP3    H217212   6.539   1.556   3.782
 5750TIP3   OH217213   3.169   5.279   2.684
 5750TIP3    H117214   3.091   5.240   2.645
 5750TIP3    H217215   3.163   5.372   2.663
 5751TIP3   OH217216   5.624   1.312   5.627
 5751TIP3    H117217   5.704   1.305   5.678
 5751TIP3    H217218   5.599   1.404   5.634
 5752TIP3   OH217219   3.345   2.642   1.084
 5752TIP3    H117220   3.336   2.570   1.146
 5752TIP3    H217221   3.380   2.715   1.135
 5753TIP3   OH217222   3.588   3.013   0.477
 5753TIP3    H117223   3.507   2.968   0.502
 5753TIP3    H217224   3.589   3.007   0.381
 5754TIP3   OH217225   4.368   4.589   0.779
 5754TIP3    H117226   4.440   4.616   0.836
 5754TIP3    H217227   4.296   4.568   0.840
 5755TIP3   OH217228   7.084   0.119   0.721
 5755TIP3    H117229   7.060   0.043   0.775
 5755TIP3    H217230   7.145   0.169   0.774
 5756TIP3   OH217231   0.937   5.218   5.355
 5756TIP3    H117232   0.925   5.199   5.262
 5756TIP3    H217233   1.025   5.254   5.361
 5757TIP3   OH217234   5.882   6.675   5.767
 5757TIP3    H117235   5.851   6.608   5.828
 5757TIP3    H217236   5.856   6.643   5.680
 5758TIP3   OH217237   2.491   1.131   3.659
 5758TIP3    H117238   2.576   1.173   3.649
 5758TIP3    H217239   2.428   1.203   3.653
 5759TIP3   OH217240   7.144   2.688   4.954
 5759TIP3    H117241   7.144   2.592   4.962
 5759TIP3    H217242   7.200   2.717   5.026
 5760TIP3   OH217243   2.172   5.412   3.767
 5760TIP3    H117244   2.177   5.377   3.679
 5760TIP3    H217245   2.092   5.375   3.804
 5761TIP3   OH217246   3.909   1.968   0.568
 5761TIP3    H117247   3.870   2.054   0.582
 5761TIP3    H217248   3.999   1.977   0.600
 5762TIP3   OH217249   0.857   0.815   3.001
 5762TIP3    H117250   0.763   0.801   3.011
 5762TIP3    H217251   0.883   0.860   3.081
 5763TIP3   OH217252   1.608   4.721   5.060
 5763TIP3    H117253   1.699   4.710   5.088
 5763TIP3    H217254   1.594   4.816   5.061
 5764TIP3   OH217255   3.915   6.318   5.020
 5764TIP3    H117256   3.905   6.407   4.985
 5764TIP3    H217257   3.868   6.263   4.957
 5765TIP3   OH217258   3.269   6.050   0.502
 5765TIP3    H117259   3.263   6.001   0.420
 5765TIP3    H217260   3.187   6.029   0.548
 5766TIP3   OH217261   3.860   4.571   4.409
 5766TIP3    H117262   3.912   4.555   4.488
 5766TIP3    H217263   3.889   4.504   4.347
 5767TIP3   OH217264   0.778   4.087   4.280
 5767TIP3    H117265   0.690   4.050   4.285
 5767TIP3    H217266   0.765   4.181   4.290
 5768TIP3   OH217267   5.925   0.512   4.297
 5768TIP3    H117268   5.994   0.521   4.362
 5768TIP3    H217269   5.868   0.588   4.311
 5769TIP3   OH217270   1.780   1.892   0.255
 5769TIP3    H117271   1.787   1.931   0.168
 5769TIP3    H217272   1.707   1.831   0.248
 5770TIP3   OH217273   5.967   4.638   5.824
 5770TIP3    H117274   5.941   4.725   5.855
 5770TIP3    H217275   6.054   4.651   5.787
 5771TIP3   OH217276   0.322   5.161   4.430
 5771TIP3    H117277   0.319   5.216   4.351
 5771TIP3    H217278   0.390   5.097   4.411
 5772TIP3   OH217279   2.383   6.638   5.769
 5772TIP3    H117280   2.413   6.621   5.858
 5772TIP3    H217281   2.295   6.601   5.766
 5773TIP3   OH217282   4.746   3.051   3.570
 5773TIP3    H117283   4.803   3.009   3.634
 5773TIP3    H217284   4.733   3.140   3.604
 5774TIP3   OH217285   6.063   3.782   2.854
 5774TIP3    H117286   5.973   3.753   2.870
 5774TIP3    H217287   6.096   3.806   2.941
 5775TIP3   OH217288   1.753   6.622   2.444
 5775TIP3    H117289   1.662   6.601   2.423
 5775TIP3    H217290   1.769   6.706   2.400
 5776TIP3   OH217291   5.624   2.085   0.491
 5776TIP3    H117292   5.556   2.152   0.488
 5776TIP3    H217293   5.578   2.003   0.475
 5777TIP3   OH217294   3.210   1.299   5.484
 5777TIP3    H117295   3.291   1.341   5.455
 5777TIP3    H217296   3.140   1.347   5.439
 5778TIP3   OH217297   3.097   3.179   0.644
 5778TIP3    H117298   3.061   3.118   0.709
 5778TIP3    H217299   3.037   3.172   0.570
 5779TIP3   OH217300   5.410   0.401   1.782
 5779TIP3    H117301   5.440   0.486   1.750
 5779TIP3    H217302   5.324   0.388   1.742
 5780TIP3   OH217303   1.692   4.913   0.546
 5780TIP3    H117304   1.689   4.834   0.601
 5780TIP3    H217305   1.648   4.887   0.465
 5781TIP3   OH217306   2.262   4.468   1.126
 5781TIP3    H117307   2.196   4.400   1.110
 5781TIP3    H217308   2.305   4.481   1.042
 5782TIP3   OH217309   6.469   6.466   5.469
 5782TIP3    H117310   6.564   6.454   5.468
 5782TIP3    H217311   6.441   6.447   5.380
 5783TIP3   OH217312   5.724   2.339   5.079
 5783TIP3    H117313   5.794   2.335   5.144
 5783TIP3    H217314   5.675   2.418   5.101
 5784TIP3   OH217315   1.127   4.264   2.093
 5784TIP3    H117316   1.051   4.229   2.047
 5784TIP3    H217317   1.172   4.187   2.128
 5785TIP3   OH217318   4.347   3.844   0.743
 5785TIP3    H117319   4.385   3.850   0.655
 5785TIP3    H217320   4.271   3.786   0.733
 5786TIP3   OH217321   3.983   3.735   2.543
 5786TIP3    H117322   3.934   3.794   2.600
 5786TIP3    H217323   3.916   3.685   2.497
 5787TIP3   OH217324   1.308   2.572   0.997
 5787TIP3    H117325   1.305   2.665   1.018
 5787TIP3    H217326   1.225   2.537   1.028
 5788TIP3   OH217327   0.273   4.685   4.878
 5788TIP3    H117328   0.354   4.701   4.926
 5788TIP3    H217329   0.291   4.607   4.826
 5789TIP3   OH217330   2.018   2.015   4.422
 5789TIP3    H117331   2.054   1.933   4.388
 5789TIP3    H217332   2.010   2.072   4.346
 5790TIP3   OH217333   1.518   6.722   1.193
 5790TIP3    H117334   1.569   6.737   1.273
 5790TIP3    H217335   1.459   6.797   1.188
 5791TIP3   OH217336   5.379   2.795   5.030
 5791TIP3    H117337   5.350   2.708   5.059
 5791TIP3    H217338   5.390   2.786   4.935
 5792TIP3   OH217339   5.177   6.265   5.109
 5792TIP3    H117340   5.116   6.325   5.067
 5792TIP3    H217341   5.129   6.183   5.116
 5793TIP3   OH217342   6.835   4.751   3.864
 5793TIP3    H117343   6.894   4.740   3.939
 5793TIP3    H217344   6.776   4.676   3.869
 5794TIP3   OH217345   1.220   4.184   3.851
 5794TIP3    H117346   1.168   4.258   3.882
 5794TIP3    H217347   1.295   4.181   3.910
 5795TIP3   OH217348   5.320   5.684   2.698
 5795TIP3    H117349   5.292   5.637   2.620
 5795TIP3    H217350   5.396   5.636   2.730
 5796TIP3   OH217351   3.345   1.321   5.089
 5796TIP3    H117352   3.329   1.313   4.995
 5796TIP3    H217353   3.261   1.301   5.129
 5797TIP3   OH217354   4.777   5.516   5.040
 5797TIP3    H117355   4.749   5.484   5.126
 5797TIP3    H217356   4.787   5.437   4.987
 5798TIP3   OH217357   0.949   0.425   5.589
 5798TIP3    H117358   0.925   0.476   5.512
 5798TIP3    H217359   1.044   0.416   5.583
 5799TIP3   OH217360   0.711   0.091   5.752
 5799TIP3    H117361   0.794   0.136   5.768
 5799TIP3    H217362   0.648   0.138   5.807
 5800TIP3   OH217363   0.563   5.048   3.820
 5800TIP3    H117364   0.512   5.105   3.762
 5800TIP3    H217365   0.565   5.095   3.903
 5801TIP3   OH217366   6.643   1.036   3.748
 5801TIP3    H117367   6.736   1.031   3.727
 5801TIP3    H217368   6.626   1.130   3.760
 5802TIP3   OH217369   0.652   2.581   5.714
 5802TIP3    H117370   0.727   2.565   5.657
 5802TIP3    H217371   0.630   2.495   5.750
 5803TIP3   OH217372   6.546   0.468   2.510
 5803TIP3    H117373   6.610   0.422   2.564
 5803TIP3    H217374   6.473   0.486   2.569
 5804TIP3   OH217375   3.708   0.696   4.809
 5804TIP3    H117376   3.788   0.645   4.792
 5804TIP3    H217377   3.738   0.787   4.809
 5805TIP3   OH217378   5.714   0.397   3.049
 5805TIP3    H117379   5.648   0.432   3.108
 5805TIP3    H217380   5.669   0.390   2.964
 5806TIP3   OH217381   2.445   4.190   5.253
 5806TIP3    H117382   2.486   4.276   5.262
 5806TIP3    H217383   2.450   4.170   5.160
 5807TIP3   OH217384   1.028   5.245   5.848
 5807TIP3    H117385   0.956   5.250   5.786
 5807TIP3    H217386   1.100   5.291   5.805
 5808TIP3   OH217387   0.054   4.282   2.999
 5808TIP3    H117388   0.045   4.190   3.022
 5808TIP3    H217389   0.125   4.284   2.935
 5809TIP3   OH217390   2.962   0.155   0.119
 5809TIP3    H117391   2.970   0.232   0.063
 5809TIP3    H217392   3.045   0.108   0.109
 5810TIP3   OH217393   5.943   0.646   0.424
 5810TIP3    H117394   5.858   0.679   0.451
 5810TIP3    H217395   5.930   0.617   0.333
 5811TIP3   OH217396   6.376   3.345   5.466
 5811TIP3    H117397   6.371   3.252   5.443
 5811TIP3    H217398   6.350   3.391   5.386
 5812TIP3   OH217399   1.839   5.928   0.273
 5812TIP3    H117400   1.887   5.952   0.352
 5812TIP3    H217401   1.890   5.964   0.201
 5813TIP3   OH217402   1.560   4.100   3.502
 5813TIP3    H117403   1.535   4.127   3.414
 5813TIP3    H217404   1.482   4.119   3.555
 5814TIP3   OH217405   6.013   4.430   2.366
 5814TIP3    H117406   6.022   4.498   2.299
 5814TIP3    H217407   5.988   4.352   2.317
 5815TIP3   OH217408   4.024   6.305   0.977
 5815TIP3    H117409   4.051   6.266   0.894
 5815TIP3    H217410   3.944   6.258   1.000
 5816TIP3   OH217411   5.128   1.089   2.088
 5816TIP3    H117412   5.223   1.080   2.081
 5816TIP3    H217413   5.109   1.175   2.050
 5817TIP3   OH217414   0.727   1.659   1.522
 5817TIP3    H117415   0.760   1.570   1.509
 5817TIP3    H217416   0.632   1.651   1.515
 5818TIP3   OH217417   5.008   1.810   1.320
 5818TIP3    H117418   5.037   1.883   1.376
 5818TIP3    H217419   4.945   1.850   1.260
 5819TIP3   OH217420   3.130   0.792   2.194
 5819TIP3    H117421   3.197   0.749   2.140
 5819TIP3    H217422   3.061   0.815   2.132
 5820TIP3   OH217423   5.167   1.024   5.766
 5820TIP3    H117424   5.240   1.055   5.820
 5820TIP3    H217425   5.204   1.017   5.678
 5821TIP3   OH217426   4.986   2.273   3.203
 5821TIP3    H117427   4.972   2.324   3.283
 5821TIP3    H217428   5.064   2.221   3.221
 5822TIP3   OH217429   0.246   0.703   1.410
 5822TIP3    H117430   0.206   0.763   1.348
 5822TIP3    H217431   0.189   0.627   1.410
 5823TIP3   OH217432   1.954   5.071   4.278
 5823TIP3    H117433   2.020   5.069   4.347
 5823TIP3    H217434   1.980   5.003   4.217
 5824TIP3   OH217435   6.378   3.499   3.527
 5824TIP3    H117436   6.323   3.430   3.563
 5824TIP3    H217437   6.322   3.543   3.463
 5825TIP3   OH217438   2.146   6.819   2.538
 5825TIP3    H117439   2.181   6.735   2.506
 5825TIP3    H217440   2.120   6.801   2.629
 5826TIP3   OH217441   2.261   1.908   4.116
 5826TIP3    H117442   2.208   1.870   4.046
 5826TIP3    H217443   2.232   1.863   4.195
 5827TIP3   OH217444   3.351   0.446   1.686
 5827TIP3    H117445   3.355   0.357   1.720
 5827TIP3    H217446   3.364   0.435   1.591
 5828TIP3   OH217447   4.899   4.268   2.689
 5828TIP3    H117448   4.898   4.266   2.785
 5828TIP3    H217449   4.824   4.321   2.665
 5829TIP3   OH217450   5.066   4.656   4.199
 5829TIP3    H117451   5.122   4.725   4.235
 5829TIP3    H217452   5.078   4.663   4.104
 5830TIP3   OH217453   1.704   2.565   3.723
 5830TIP3    H117454   1.673   2.647   3.761
 5830TIP3    H217455   1.714   2.584   3.630
 5831TIP3   OH217456   0.800   3.577   1.027
 5831TIP3    H117457   0.883   3.605   1.065
 5831TIP3    H217458   0.754   3.534   1.100
 5832TIP3   OH217459   7.198   5.369   2.289
 5832TIP3    H117460   7.258   5.357   2.216
 5832TIP3    H217461   7.141   5.291   2.286
 5833TIP3   OH217462   4.916   5.354   0.027
 5833TIP3    H117463   4.845   5.394   0.078
 5833TIP3    H217464   4.956   5.291   0.087
 5834TIP3   OH217465   4.278   0.648   5.207
 5834TIP3    H117466   4.212   0.659   5.275
 5834TIP3    H217467   4.360   0.633   5.254
 5835TIP3   OH217468   6.655   3.199   4.226
 5835TIP3    H117469   6.629   3.178   4.316
 5835TIP3    H217470   6.670   3.113   4.185
 5836TIP3   OH217471   0.290   2.575   1.044
 5836TIP3    H117472   0.346   2.652   1.055
 5836TIP3    H217473   0.344   2.513   0.996
 5837TIP3   OH217474   7.006   2.116   3.447
 5837TIP3    H117475   7.003   2.023   3.470
 5837TIP3    H217476   7.002   2.118   3.352
 5838TIP3   OH217477   3.564   4.664   3.470
 5838TIP3    H117478   3.519   4.595   3.518
 5838TIP3    H217479   3.571   4.630   3.381
 5839TIP3   OH217480   1.524   4.384   4.672
 5839TIP3    H117481   1.520   4.425   4.585
 5839TIP3    H217482   1.606   4.416   4.709
 5840TIP3   OH217483   0.194   6.554   5.681
 5840TIP3    H117484   0.174   6.494   5.754
 5840TIP3    H217485   0.110   6.595   5.660
 5841TIP3   OH217486   2.877   1.556   3.493
 5841TIP3    H117487   2.948   1.495   3.510
 5841TIP3    H217488   2.920   1.631   3.450
 5842TIP3   OH217489   1.785   3.051   5.678
 5842TIP3    H117490   1.846   3.012   5.741
 5842TIP3    H217491   1.758   3.133   5.720
 5843TIP3   OH217492   5.884   3.058   1.374
 5843TIP3    H117493   5.954   3.088   1.316
 5843TIP3    H217494   5.923   3.060   1.462
 5844TIP3   OH217495   3.156   4.291   5.647
 5844TIP3    H117496   3.153   4.313   5.554
 5844TIP3    H217497   3.136   4.373   5.692
 5845TIP3   OH217498   6.033   6.154   5.332
 5845TIP3    H117499   5.981   6.131   5.254
 5845TIP3    H217500   6.124   6.139   5.305
 5846TIP3   OH217501   5.254   4.017   3.310
 5846TIP3    H117502   5.282   3.985   3.224
 5846TIP3    H217503   5.232   3.937   3.359
 5847TIP3   OH217504   6.535   1.884   5.354
 5847TIP3    H117505   6.595   1.936   5.300
 5847TIP3    H217506   6.448   1.912   5.325
 5848TIP3   OH217507   5.842   1.293   2.893
 5848TIP3    H117508   5.932   1.321   2.874
 5848TIP3    H217509   5.811   1.357   2.957
 5849TIP3   OH217510   5.746   0.637   5.443
 5849TIP3    H117511   5.725   0.720   5.401
 5849TIP3    H217512   5.763   0.660   5.535
 5850TIP3   OH217513   6.274   3.879   5.371
 5850TIP3    H117514   6.223   3.805   5.337
 5850TIP3    H217515   6.365   3.857   5.350
 5851TIP3   OH217516   3.799   4.376   0.580
 5851TIP3    H117517   3.789   4.349   0.671
 5851TIP3    H217518   3.781   4.470   0.582
 5852TIP3   OH217519   4.078   0.105   3.165
 5852TIP3    H117520   4.078   0.194   3.201
 5852TIP3    H217521   4.000   0.064   3.203
 5853TIP3   OH217522   2.736   3.947   5.781
 5853TIP3    H117523   2.803   4.014   5.795
 5853TIP3    H217524   2.680   3.982   5.712
 5854TIP3   OH217525   3.408   1.422   5.334
 5854TIP3    H117526   3.478   1.486   5.343
 5854TIP3    H217527   3.421   1.384   5.247
 5855TIP3   OH217528   1.724   6.246   1.461
 5855TIP3    H117529   1.653   6.187   1.487
 5855TIP3    H217530   1.802   6.209   1.503
 5856TIP3   OH217531   3.533   0.691   4.247
 5856TIP3    H117532   3.591   0.748   4.198
 5856TIP3    H217533   3.549   0.714   4.339
 5857TIP3   OH217534   3.751   1.601   3.201
 5857TIP3    H117535   3.715   1.690   3.196
 5857TIP3    H217536   3.776   1.580   3.111
 5858TIP3   OH217537   6.519   3.537   0.354
 5858TIP3    H117538   6.527   3.580   0.439
 5858TIP3    H217539   6.521   3.609   0.290
 5859TIP3   OH217540   6.746   6.531   3.724
 5859TIP3    H117541   6.674   6.522   3.662
 5859TIP3    H217542   6.813   6.471   3.693
 5860TIP3   OH217543   3.784   1.653   4.420
 5860TIP3    H117544   3.796   1.574   4.473
 5860TIP3    H217545   3.697   1.643   4.382
 5861TIP3   OH217546   4.591   4.165   3.344
 5861TIP3    H117547   4.516   4.122   3.384
 5861TIP3    H217548   4.625   4.223   3.412
 5862TIP3   OH217549   5.034   0.836   2.504
 5862TIP3    H117550   5.021   0.928   2.524
 5862TIP3    H217551   5.103   0.835   2.438
 5863TIP3   OH217552   0.667   3.854   1.129
 5863TIP3    H117553   0.612   3.907   1.071
 5863TIP3    H217554   0.631   3.766   1.123
 5864TIP3   OH217555   5.467   3.255   4.858
 5864TIP3    H117556   5.417   3.179   4.888
 5864TIP3    H217557   5.494   3.300   4.938
 5865TIP3   OH217558   6.705   0.834   0.125
 5865TIP3    H117559   6.740   0.764   0.070
 5865TIP3    H217560   6.629   0.867   0.077
 5866TIP3   OH217561   6.590   2.851   5.227
 5866TIP3    H117562   6.585   2.944   5.204
 5866TIP3    H217563   6.545   2.844   5.311
 5867TIP3   OH217564   2.653   5.924   2.842
 5867TIP3    H117565   2.651   5.835   2.878
 5867TIP3    H217566   2.690   5.914   2.754
 5868TIP3   OH217567   6.269   4.293   1.622
 5868TIP3    H117568   6.337   4.338   1.671
 5868TIP3    H217569   6.193   4.352   1.626
 5869TIP3   OH217570   6.958   4.666   4.822
 5869TIP3    H117571   7.016   4.624   4.758
 5869TIP3    H217572   6.944   4.754   4.788
 5870TIP3   OH217573   1.004   6.304   2.915
 5870TIP3    H117574   1.052   6.223   2.898
 5870TIP3    H217575   1.072   6.372   2.915
 5871TIP3   OH217576   4.430   4.506   1.092
 5871TIP3    H117577   4.439   4.561   1.170
 5871TIP3    H217578   4.504   4.531   1.036
 5872TIP3   OH217579   6.498   2.358   1.829
 5872TIP3    H117580   6.491   2.452   1.810
 5872TIP3    H217581   6.464   2.350   1.918
 5873TIP3   OH217582   2.516   4.319   4.843
 5873TIP3    H117583   2.491   4.241   4.893
 5873TIP3    H217584   2.592   4.354   4.890
 5874TIP3   OH217585   3.763   4.723   5.871
 5874TIP3    H117586   3.675   4.702   5.904
 5874TIP3    H217587   3.749   4.745   5.779
 5875TIP3   OH217588   2.403   2.603   1.006
 5875TIP3    H117589   2.320   2.641   0.979
 5875TIP3    H217590   2.381   2.516   1.037
 5876TIP3   OH217591   5.869   0.960   2.701
 5876TIP3    H117592   5.802   1.028   2.707
 5876TIP3    H217593   5.861   0.926   2.611
 5877TIP3   OH217594   1.169   6.059   0.138
 5877TIP3    H117595   1.168   6.144   0.094
 5877TIP3    H217596   1.084   6.020   0.116
 5878TIP3   OH217597   5.862   3.645   1.407
 5878TIP3    H117598   5.799   3.717   1.408
 5878TIP3    H217599   5.818   3.576   1.356
 5879TIP3   OH217600   0.080   1.583   3.830
 5879TIP3    H117601   0.036   1.521   3.773
 5879TIP3    H217602   0.010   1.624   3.881
 5880TIP3   OH217603   1.215   6.262   4.303
 5880TIP3    H117604   1.234   6.209   4.380
 5880TIP3    H217605   1.151   6.211   4.253
 5881TIP3   OH217606   0.765   0.722   5.878
 5881TIP3    H117607   0.858   0.737   5.899
 5881TIP3    H217608   0.749   0.781   5.803
 5882TIP3   OH217609   4.159   6.186   2.252
 5882TIP3    H117610   4.081   6.175   2.306
 5882TIP3    H217611   4.162   6.107   2.197
 5883TIP3   OH217612   1.871   4.942   2.329
 5883TIP3    H117613   1.788   4.980   2.358
 5883TIP3    H217614   1.937   4.992   2.376
 5884TIP3   OH217615   4.398   4.108   1.760
 5884TIP3    H117616   4.385   4.050   1.685
 5884TIP3    H217617   4.469   4.067   1.810
 5885TIP3   OH217618   1.642   4.608   3.104
 5885TIP3    H117619   1.718   4.555   3.131
 5885TIP3    H217620   1.666   4.698   3.127
 5886TIP3   OH217621   1.204   5.824   1.039
 5886TIP3    H117622   1.131   5.769   1.068
 5886TIP3    H217623   1.245   5.774   0.968
 5887TIP3   OH217624   2.251   3.282   4.899
 5887TIP3    H117625   2.339   3.295   4.935
 5887TIP3    H217626   2.193   3.326   4.961
 5888TIP3   OH217627   1.594   2.979   3.182
 5888TIP3    H117628   1.615   3.064   3.220
 5888TIP3    H217629   1.589   2.920   3.258
 5889TIP3   OH217630   6.694   1.429   2.893
 5889TIP3    H117631   6.610   1.419   2.939
 5889TIP3    H217632   6.760   1.423   2.962
 5890TIP3   OH217633   2.224   5.454   4.595
 5890TIP3    H117634   2.209   5.515   4.667
 5890TIP3    H217635   2.242   5.510   4.520
 5891TIP3   OH217636   4.459   1.007   2.078
 5891TIP3    H117637   4.428   1.086   2.033
 5891TIP3    H217638   4.439   0.936   2.017
 5892TIP3   OH217639   0.150   1.130   0.741
 5892TIP3    H117640   0.216   1.061   0.733
 5892TIP3    H217641   0.135   1.160   0.652
 5893TIP3   OH217642   0.306   4.785   3.940
 5893TIP3    H117643   0.373   4.729   3.979
 5893TIP3    H217644   0.297   4.857   4.002
 5894TIP3   OH217645   0.880   2.977   4.258
 5894TIP3    H117646   0.920   2.961   4.172
 5894TIP3    H217647   0.792   3.008   4.238
 5895TIP3   OH217648   0.370   4.273   1.158
 5895TIP3    H117649   0.403   4.196   1.110
 5895TIP3    H217650   0.275   4.269   1.146
 5896TIP3   OH217651   4.500   5.272   3.905
 5896TIP3    H117652   4.582   5.266   3.954
 5896TIP3    H217653   4.489   5.366   3.889
 5897TIP3   OH217654   2.655   0.063   2.088
 5897TIP3    H117655   2.728   0.014   2.126
 5897TIP3    H217656   2.649   0.143   2.142
 5898TIP3   OH217657   0.382   5.877   0.680
 5898TIP3    H117658   0.416   5.867   0.768
 5898TIP3    H217659   0.301   5.927   0.691
 5899TIP3   OH217660   3.649   2.996   0.967
 5899TIP3    H117661   3.690   2.926   0.916
 5899TIP3    H217662   3.682   3.077   0.929
 5900TIP3   OH217663   1.026   4.069   1.420
 5900TIP3    H117664   0.954   4.077   1.482
 5900TIP3    H217665   0.991   4.013   1.350
 5901TIP3   OH217666   2.851   6.387   2.655
 5901TIP3    H117667   2.762   6.353   2.661
 5901TIP3    H217668   2.886   6.378   2.744
 5902TIP3   OH217669   2.733   0.575   0.664
 5902TIP3    H117670   2.813   0.600   0.711
 5902TIP3    H217671   2.765   0.524   0.590
 5903TIP3   OH217672   6.303   2.488   1.441
 5903TIP3    H117673   6.245   2.446   1.378
 5903TIP3    H217674   6.327   2.419   1.503
 5904TIP3   OH217675   5.371   3.975   2.499
 5904TIP3    H117676   5.368   4.006   2.409
 5904TIP3    H217677   5.326   4.043   2.550
 5905TIP3   OH217678   4.680   4.004   4.778
 5905TIP3    H117679   4.593   4.036   4.757
 5905TIP3    H217680   4.676   3.984   4.871
 5906TIP3   OH217681   5.150   2.236   2.801
 5906TIP3    H117682   5.055   2.248   2.796
 5906TIP3    H217683   5.186   2.323   2.786
 5907TIP3   OH217684   2.024   0.195   0.109
 5907TIP3    H117685   1.953   0.230   0.054
 5907TIP3    H217686   2.090   0.165   0.046
 5908TIP3   OH217687   3.184   3.236   1.656
 5908TIP3    H117688   3.184   3.310   1.716
 5908TIP3    H217689   3.176   3.275   1.569
 5909TIP3   OH217690   4.965   2.885   1.004
 5909TIP3    H117691   4.999   2.882   1.094
 5909TIP3    H217692   5.029   2.836   0.952
 5910TIP3   OH217693   4.107   5.360   1.907
 5910TIP3    H117694   4.065   5.417   1.972
 5910TIP3    H217695   4.075   5.272   1.928
 5911TIP3   OH217696   2.914   5.266   1.871
 5911TIP3    H117697   2.834   5.230   1.835
 5911TIP3    H217698   2.962   5.299   1.795
 5912TIP3   OH217699   6.505   5.189   4.662
 5912TIP3    H117700   6.480   5.262   4.606
 5912TIP3    H217701   6.499   5.224   4.751
 5913TIP3   OH217702   5.392   3.559   2.685
 5913TIP3    H117703   5.443   3.638   2.667
 5913TIP3    H217704   5.445   3.510   2.748
 5914TIP3   OH217705   5.835   0.431   4.019
 5914TIP3    H117706   5.784   0.350   4.029
 5914TIP3    H217707   5.873   0.446   4.105
 5915TIP3   OH217708   1.365   5.237   5.518
 5915TIP3    H117709   1.406   5.173   5.461
 5915TIP3    H217710   1.350   5.190   5.600
 5916TIP3   OH217711   2.989   5.971   5.223
 5916TIP3    H117712   3.019   6.023   5.148
 5916TIP3    H217713   2.897   5.950   5.202
 5917TIP3   OH217714   1.540   5.201   4.437
 5917TIP3    H117715   1.450   5.199   4.470
 5917TIP3    H217716   1.590   5.148   4.500
 5918TIP3   OH217717   4.507   6.440   2.280
 5918TIP3    H117718   4.461   6.401   2.354
 5918TIP3    H217719   4.475   6.530   2.276
 5919TIP3   OH217720   1.507   4.011   2.381
 5919TIP3    H117721   1.422   4.014   2.426
 5919TIP3    H217722   1.503   3.931   2.329
 5920TIP3   OH217723   6.627   0.952   1.953
 5920TIP3    H117724   6.561   0.916   1.894
 5920TIP3    H217725   6.595   0.932   2.041
 5921TIP3   OH217726   0.418   2.396   0.876
 5921TIP3    H117727   0.399   2.452   0.800
 5921TIP3    H217728   0.493   2.344   0.848
 5922TIP3   OH217729   4.303   4.906   2.768
 5922TIP3    H117730   4.339   4.826   2.806
 5922TIP3    H217731   4.290   4.964   2.843
 5923TIP3   OH217732   0.199  -0.007   4.882
 5923TIP3    H117733   0.275  -0.066   4.887
 5923TIP3    H217734   0.236   0.080   4.897
 5924TIP3   OH217735   3.421   0.301   4.706
 5924TIP3    H117736   3.503   0.304   4.755
 5924TIP3    H217737   3.445   0.268   4.620
 5925TIP3   OH217738   2.755   2.235   2.842
 5925TIP3    H117739   2.672   2.279   2.823
 5925TIP3    H217740   2.816   2.306   2.862
 5926TIP3   OH217741   6.089   3.160   5.249
 5926TIP3    H117742   6.178   3.163   5.215
 5926TIP3    H217743   6.052   3.246   5.227
 5927TIP3   OH217744   4.616   4.600   3.644
 5927TIP3    H117745   4.552   4.669   3.661
 5927TIP3    H217746   4.624   4.554   3.727
 5928TIP3   OH217747   4.827   1.189   2.563
 5928TIP3    H117748   4.889   1.194   2.637
 5928TIP3    H217749   4.882   1.163   2.488
 5929TIP3   OH217750   3.088   6.626   5.403
 5929TIP3    H117751   3.177   6.661   5.392
 5929TIP3    H217752   3.075   6.623   5.498
 5930TIP3   OH217753   6.231   1.592   5.426
 5930TIP3    H117754   6.318   1.604   5.388
 5930TIP3    H217755   6.236   1.637   5.511
 5931TIP3   OH217756   5.993   4.882   2.617
 5931TIP3    H117757   5.898   4.870   2.620
 5931TIP3    H217758   6.021   4.878   2.709
 5932TIP3   OH217759   6.932   4.575   0.988
 5932TIP3    H117760   6.858   4.619   1.029
 5932TIP3    H217761   6.893   4.520   0.920
 5933TIP3   OH217762   1.167   1.755   1.281
 5933TIP3    H117763   1.156   1.849   1.294
 5933TIP3    H217764   1.212   1.725   1.360
 5934TIP3   OH217765   7.057   1.642   3.182
 5934TIP3    H117766   7.006   1.575   3.136
 5934TIP3    H217767   6.994   1.685   3.240
 5935TIP3   OH217768   3.409   1.576   4.384
 5935TIP3    H117769   3.478   1.610   4.328
 5935TIP3    H217770   3.341   1.644   4.383
 5936TIP3   OH217771   2.796   2.514   1.109
 5936TIP3    H117772   2.832   2.602   1.111
 5936TIP3    H217773   2.859   2.460   1.157
 5937TIP3   OH217774   5.923   5.700   4.376
 5937TIP3    H117775   5.914   5.606   4.393
 5937TIP3    H217776   5.946   5.737   4.461
 5938TIP3   OH217777   0.981   1.753   2.150
 5938TIP3    H117778   0.905   1.782   2.199
 5938TIP3    H217779   1.027   1.834   2.127
 5939TIP3   OH217780   3.049   1.435   2.119
 5939TIP3    H117781   2.979   1.391   2.070
 5939TIP3    H217782   3.061   1.519   2.073
 5940TIP3   OH217783   2.468   2.686   5.849
 5940TIP3    H117784   2.457   2.631   5.772
 5940TIP3    H217785   2.458   2.776   5.817
 5941TIP3   OH217786   2.028   5.711   0.153
 5941TIP3    H117787   2.047   5.750   0.238
 5941TIP3    H217788   1.982   5.780   0.105
 5942TIP3   OH217789   1.641   0.527   1.946
 5942TIP3    H117790   1.568   0.520   1.884
 5942TIP3    H217791   1.634   0.448   2.000
 5943TIP3   OH217792   6.586   2.572   0.961
 5943TIP3    H117793   6.586   2.496   1.019
 5943TIP3    H217794   6.521   2.631   0.998
 5944TIP3   OH217795   4.160   0.800   0.546
 5944TIP3    H117796   4.075   0.833   0.516
 5944TIP3    H217797   4.160   0.707   0.523
 5945TIP3   OH217798   0.410   4.680   3.311
 5945TIP3    H117799   0.462   4.731   3.249
 5945TIP3    H217800   0.475   4.640   3.369
 5946TIP3   OH217801   4.156   4.000   5.143
 5946TIP3    H117802   4.135   4.032   5.231
 5946TIP3    H217803   4.128   4.070   5.085
 5947TIP3   OH217804   1.639   5.507   3.529
 5947TIP3    H117805   1.676   5.419   3.520
 5947TIP3    H217806   1.706   5.556   3.577
 5948TIP3   OH217807   1.513   5.572   3.898
 5948TIP3    H117808   1.438   5.632   3.902
 5948TIP3    H217809   1.474   5.485   3.895
 5949TIP3   OH217810   0.463   3.371   0.398
 5949TIP3    H117811   0.531   3.429   0.432
 5949TIP3    H217812   0.390   3.430   0.378
 5950TIP3   OH217813   1.287   0.241   3.136
 5950TIP3    H117814   1.200   0.248   3.097
 5950TIP3    H217815   1.308   0.147   3.133
 5951TIP3   OH217816   4.311   6.626   3.409
 5951TIP3    H117817   4.224   6.595   3.436
 5951TIP3    H217818   4.355   6.648   3.491
 5952TIP3   OH217819   5.963   3.810   3.973
 5952TIP3    H117820   5.876   3.772   3.967
 5952TIP3    H217821   6.023   3.737   3.958
 5953TIP3   OH217822   5.204   2.516   2.810
 5953TIP3    H117823   5.225   2.564   2.890
 5953TIP3    H217824   5.274   2.538   2.749
 5954TIP3   OH217825   5.093   4.950   4.696
 5954TIP3    H117826   5.003   4.951   4.664
 5954TIP3    H217827   5.085   4.963   4.791
 5955TIP3   OH217828   4.745   2.451   5.240
 5955TIP3    H117829   4.686   2.406   5.180
 5955TIP3    H217830   4.829   2.408   5.229
 5956TIP3   OH217831   2.256   1.621   5.888
 5956TIP3    H117832   2.283   1.694   5.833
 5956TIP3    H217833   2.305   1.546   5.854
 5957TIP3   OH217834   6.130   4.872   0.572
 5957TIP3    H117835   6.040   4.865   0.603
 5957TIP3    H217836   6.177   4.803   0.619
 5958TIP3   OH217837   2.173   1.282   1.513
 5958TIP3    H117838   2.268   1.272   1.522
 5958TIP3    H217839   2.140   1.193   1.505
 5959TIP3   OH217840   1.019   4.040   0.898
 5959TIP3    H117841   1.048   4.087   0.819
 5959TIP3    H217842   1.024   4.105   0.968
 5960TIP3   OH217843   2.944   5.524   2.894
 5960TIP3    H117844   2.969   5.519   2.802
 5960TIP3    H217845   3.003   5.463   2.938
 5961TIP3   OH217846   0.457   0.756   4.956
 5961TIP3    H117847   0.422   0.842   4.931
 5961TIP3    H217848   0.550   0.759   4.931
 5962TIP3   OH217849   5.113   6.676   3.680
 5962TIP3    H117850   5.167   6.605   3.644
 5962TIP3    H217851   5.028   6.635   3.695
 5963TIP3   OH217852   2.497   3.108   3.601
 5963TIP3    H117853   2.483   3.140   3.512
 5963TIP3    H217854   2.543   3.025   3.590
 5964TIP3   OH217855   2.502   1.560   1.295
 5964TIP3    H117856   2.488   1.640   1.244
 5964TIP3    H217857   2.523   1.591   1.383
 5965TIP3   OH217858   3.698   2.433   1.166
 5965TIP3    H117859   3.635   2.483   1.115
 5965TIP3    H217860   3.763   2.497   1.194
 5966TIP3   OH217861   0.214   6.566   2.212
 5966TIP3    H117862   0.245   6.638   2.267
 5966TIP3    H217863   0.231   6.487   2.263
 5967TIP3   OH217864   4.628   3.768   1.866
 5967TIP3    H117865   4.630   3.863   1.862
 5967TIP3    H217866   4.551   3.748   1.920
 5968TIP3   OH217867   3.883   0.086   3.923
 5968TIP3    H117868   3.869   0.177   3.949
 5968TIP3    H217869   3.794   0.051   3.910
 5969TIP3   OH217870   1.955   6.359   3.876
 5969TIP3    H117871   1.895   6.397   3.941
 5969TIP3    H217872   1.960   6.426   3.807
 5970TIP3   OH217873   4.589   2.508   4.379
 5970TIP3    H117874   4.653   2.531   4.446
 5970TIP3    H217875   4.512   2.560   4.400
 5971TIP3   OH217876   1.646   0.664   5.114
 5971TIP3    H117877   1.568   0.629   5.157
 5971TIP3    H217878   1.615   0.742   5.067
 5972TIP3   OH217879   0.945   0.432   0.853
 5972TIP3    H117880   1.034   0.453   0.824
 5972TIP3    H217881   0.924   0.500   0.917
 5973TIP3   OH217882   5.653   4.945   3.181
 5973TIP3    H117883   5.654   4.896   3.099
 5973TIP3    H217884   5.561   4.952   3.204
 5974TIP3   OH217885   7.161   4.217   5.473
 5974TIP3    H117886   7.073   4.228   5.437
 5974TIP3    H217887   7.219   4.247   5.403
 5975TIP3   OH217888   2.641   0.110   5.564
 5975TIP3    H117889   2.726   0.067   5.553
 5975TIP3    H217890   2.661   0.203   5.556
 5976TIP3   OH217891   2.750   6.092   2.476
 5976TIP3    H117892   2.803   6.016   2.501
 5976TIP3    H217893   2.698   6.112   2.554
 5977TIP3   OH217894   3.592   3.975   1.617
 5977TIP3    H117895   3.623   3.891   1.582
 5977TIP3    H217896   3.509   3.955   1.659
 5978TIP3   OH217897   6.818   1.703   1.212
 5978TIP3    H117898   6.900   1.656   1.215
 5978TIP3    H217899   6.763   1.661   1.279
 5979TIP3   OH217900   1.131   2.475   1.179
 5979TIP3    H117901   1.066   2.404   1.179
 5979TIP3    H217902   1.092   2.543   1.234
 5980TIP3   OH217903   6.779   3.305   3.762
 5980TIP3    H117904   6.715   3.348   3.705
 5980TIP3    H217905   6.757   3.212   3.754
 5981TIP3   OH217906   6.837   4.924   0.324
 5981TIP3    H117907   6.760   4.972   0.295
 5981TIP3    H217908   6.851   4.858   0.256
 5982TIP3   OH217909   6.008   5.848   5.428
 5982TIP3    H117910   6.077   5.874   5.487
 5982TIP3    H217911   5.928   5.852   5.480
 5983TIP3   OH217912   2.208   4.360   5.223
 5983TIP3    H117913   2.265   4.287   5.244
 5983TIP3    H217914   2.149   4.367   5.298
 5984TIP3   OH217915   3.982   4.338   3.995
 5984TIP3    H117916   3.969   4.377   3.908
 5984TIP3    H217917   3.927   4.259   3.994
 5985TIP3   OH217918   3.321   4.335   1.951
 5985TIP3    H117919   3.380   4.368   1.884
 5985TIP3    H217920   3.330   4.397   2.024
 5986TIP3   OH217921   6.291   5.487   3.795
 5986TIP3    H117922   6.329   5.433   3.865
 5986TIP3    H217923   6.197   5.470   3.801
 5987TIP3   OH217924   7.014   4.762   4.081
 5987TIP3    H117925   7.070   4.696   4.122
 5987TIP3    H217926   7.069   4.840   4.075
 5988TIP3   OH217927   0.881   0.268   4.164
 5988TIP3    H117928   0.885   0.332   4.092
 5988TIP3    H217929   0.957   0.288   4.219
 5989TIP3   OH217930   5.645   4.605   4.945
 5989TIP3    H117931   5.705   4.564   5.007
 5989TIP3    H217932   5.562   4.612   4.993
 5990TIP3   OH217933   4.872   4.023   5.223
 5990TIP3    H117934   4.966   4.005   5.223
 5990TIP3    H217935   4.842   3.997   5.310
 5991TIP3   OH217936   3.946   3.871   0.847
 5991TIP3    H117937   3.927   3.794   0.901
 5991TIP3    H217938   3.861   3.899   0.815
 5992TIP3   OH217939   3.148   0.119   5.760
 5992TIP3    H117940   3.130   0.038   5.712
 5992TIP3    H217941   3.096   0.112   5.840
 5993TIP3   OH217942   5.830   4.578   4.226
 5993TIP3    H117943   5.737   4.598   4.235
 5993TIP3    H217944   5.848   4.512   4.292
 5994TIP3   OH217945   0.506   1.641   0.237
 5994TIP3    H117946   0.511   1.619   0.144
 5994TIP3    H217947   0.559   1.575   0.281
 5995TIP3   OH217948   6.882   3.137   2.477
 5995TIP3    H117949   6.817   3.194   2.518
 5995TIP3    H217950   6.964   3.184   2.486
 5996TIP3   OH217951   1.200   6.128   0.852
 5996TIP3    H117952   1.207   6.143   0.757
 5996TIP3    H217953   1.174   6.037   0.860
 5997TIP3   OH217954   5.782   4.710   1.729
 5997TIP3    H117955   5.821   4.785   1.684
 5997TIP3    H217956   5.832   4.701   1.809
 5998TIP3   OH217957   0.781   2.655   0.716
 5998TIP3    H117958   0.840   2.625   0.785
 5998TIP3    H217959   0.794   2.750   0.714
 5999TIP3   OH217960   2.261   1.411   4.962
 5999TIP3    H117961   2.230   1.487   4.912
 5999TIP3    H217962   2.203   1.407   5.038
 6000TIP3   OH217963   7.067   1.562   3.515
 6000TIP3    H117964   6.980   1.524   3.506
 6000TIP3    H217965   7.127   1.494   3.484
 6001TIP3   OH217966   1.200   0.786   4.668
 6001TIP3    H117967   1.288   0.766   4.699
 6001TIP3    H217968   1.211   0.805   4.575
 6002TIP3   OH217969   4.114   3.396   5.814
 6002TIP3    H117970   4.043   3.460   5.809
 6002TIP3    H217971   4.167   3.413   5.736
 6003TIP3   OH217972   0.603   0.670   2.512
 6003TIP3    H117973   0.688   0.712   2.508
 6003TIP3    H217974   0.571   0.689   2.600
 6004TIP3   OH217975   4.041   2.256   0.709
 6004TIP3    H117976   4.114   2.203   0.740
 6004TIP3    H217977   4.050   2.339   0.756
 6005TIP3   OH217978   3.951   5.385   0.278
 6005TIP3    H117979   3.860   5.413   0.267
 6005TIP3    H217980   3.989   5.391   0.190
 6006TIP3   OH217981   4.245   4.898   0.811
 6006TIP3    H117982   4.323   4.920   0.863
 6006TIP3    H217983   4.222   4.809   0.839
 6007TIP3   OH217984   3.149   3.232  -0.011
 6007TIP3    H117985   3.170   3.313  -0.058
 6007TIP3    H217986   3.161   3.254   0.081
 6008TIP3   OH217987   2.645   1.223   5.710
 6008TIP3    H117988   2.601   1.272   5.642
 6008TIP3    H217989   2.585   1.151   5.731
 6009TIP3   OH217990   3.101   4.845   5.655
 6009TIP3    H117991   3.060   4.815   5.574
 6009TIP3    H217992   3.155   4.919   5.629
 6010TIP3   OH217993   4.079   4.627   4.130
 6010TIP3    H117994   4.132   4.596   4.203
 6010TIP3    H217995   4.056   4.548   4.082
 6011TIP3   OH217996   3.129   3.360   3.830
 6011TIP3    H117997   3.053   3.303   3.816
 6011TIP3    H217998   3.145   3.355   3.924
 6012TIP3   OH217999   5.805   4.048   5.393
 6012TIP3    H118000   5.866   4.024   5.463
 6012TIP3    H218001   5.801   4.143   5.396
 6013TIP3   OH218002   1.885   2.325   0.447
 6013TIP3    H118003   1.890   2.416   0.419
 6013TIP3    H218004   1.800   2.295   0.414
 6014TIP3   OH218005   7.190   6.360   4.099
 6014TIP3    H118006   7.107   6.408   4.094
 6014TIP3    H218007   7.240   6.405   4.168
 6015TIP3   OH218008   3.244   1.851   2.743
 6015TIP3    H118009   3.222   1.761   2.767
 6015TIP3    H218010   3.339   1.852   2.735
 6016TIP3   OH218011   6.564   2.298   0.415
 6016TIP3    H118012   6.648   2.344   0.408
 6016TIP3    H218013   6.574   2.223   0.357
 6017TIP3   OH218014   5.210   4.807   3.573
 6017TIP3    H118015   5.265   4.739   3.536
 6017TIP3    H218016   5.130   4.762   3.599
 6018TIP3   OH218017   2.247   5.704   5.240
 6018TIP3    H118018   2.154   5.682   5.229
 6018TIP3    H218019   2.249   5.757   5.320
 6019TIP3   OH218020   4.757   3.156   4.475
 6019TIP3    H118021   4.734   3.170   4.567
 6019TIP3    H218022   4.838   3.106   4.478
 6020TIP3   OH218023   3.799   5.113   0.054
 6020TIP3    H118024   3.730   5.049   0.035
 6020TIP3    H218025   3.881   5.065   0.042
 6021TIP3   OH218026   3.648   0.277   4.258
 6021TIP3    H118027   3.722   0.217   4.247
 6021TIP3    H218028   3.593   0.262   4.181
 6022TIP3   OH218029   3.020   0.755   3.252
 6022TIP3    H118030   3.025   0.765   3.157
 6022TIP3    H218031   2.972   0.673   3.265
 6023TIP3   OH218032   6.266   1.479   2.145
 6023TIP3    H118033   6.305   1.502   2.061
 6023TIP3    H218034   6.270   1.559   2.197
 6024TIP3   OH218035   4.147   3.475   4.439
 6024TIP3    H118036   4.066   3.423   4.434
 6024TIP3    H218037   4.200   3.444   4.366
 6025TIP3   OH218038   2.550   4.930   2.859
 6025TIP3    H118039   2.490   4.935   2.785
 6025TIP3    H218040   2.592   4.844   2.850
 6026TIP3   OH218041   4.342   5.224   0.980
 6026TIP3    H118042   4.316   5.258   0.895
 6026TIP3    H218043   4.260   5.205   1.025
 6027TIP3   OH218044   2.199   2.600   0.698
 6027TIP3    H118045   2.145   2.614   0.776
 6027TIP3    H218046   2.224   2.688   0.671
 6028TIP3   OH218047   4.085   4.584   5.579
 6028TIP3    H118048   4.064   4.610   5.669
 6028TIP3    H218049   4.161   4.528   5.587
 6029TIP3   OH218050   0.203   1.712   3.576
 6029TIP3    H118051   0.207   1.699   3.481
 6029TIP3    H218052   0.141   1.785   3.587
 6030TIP3   OH218053   3.555   5.620   4.045
 6030TIP3    H118054   3.525   5.534   4.075
 6030TIP3    H218055   3.520   5.629   3.957
 6031TIP3   OH218056   1.506   5.683   5.811
 6031TIP3    H118057   1.583   5.627   5.822
 6031TIP3    H218058   1.492   5.685   5.716
 6032TIP3   OH218059   2.283   2.945   3.052
 6032TIP3    H118060   2.324   3.032   3.058
 6032TIP3    H218061   2.349   2.891   3.008
 6033TIP3   OH218062   4.348   1.591   1.942
 6033TIP3    H118063   4.283   1.660   1.929
 6033TIP3    H218064   4.430   1.630   1.913
 6034TIP3   OH218065   6.960   4.335   1.498
 6034TIP3    H118066   6.961   4.366   1.589
 6034TIP3    H218067   6.923   4.407   1.448
 6035TIP3   OH218068   1.792   6.284   1.189
 6035TIP3    H118069   1.792   6.193   1.161
 6035TIP3    H218070   1.758   6.281   1.279
 6036TIP3   OH218071   0.701   6.329   3.495
 6036TIP3    H118072   0.615   6.337   3.453
 6036TIP3    H218073   0.696   6.387   3.571
 6037TIP3   OH218074   6.000   6.401   2.766
 6037TIP3    H118075   6.092   6.377   2.751
 6037TIP3    H218076   5.984   6.472   2.704
 6038TIP3   OH218077   3.149   2.124   1.004
 6038TIP3    H118078   3.104   2.041   0.990
 6038TIP3    H218079   3.185   2.118   1.092
 6039TIP3   OH218080   4.178   4.077   4.038
 6039TIP3    H118081   4.098   4.128   4.041
 6039TIP3    H218082   4.152   3.990   4.069
 6040TIP3   OH218083   6.472   2.310   2.645
 6040TIP3    H118084   6.415   2.331   2.571
 6040TIP3    H218085   6.547   2.368   2.635
 6041TIP3   OH218086   3.200   4.711   0.509
 6041TIP3    H118087   3.226   4.680   0.596
 6041TIP3    H218088   3.196   4.806   0.518
 6042TIP3   OH218089   1.394   5.359   0.830
 6042TIP3    H118090   1.366   5.274   0.794
 6042TIP3    H218091   1.407   5.414   0.753
 6043TIP3   OH218092   0.367   4.340   4.998
 6043TIP3    H118093   0.392   4.330   5.090
 6043TIP3    H218094   0.284   4.388   5.001
 6044TIP3   OH218095   2.735   2.264   0.387
 6044TIP3    H118096   2.707   2.273   0.478
 6044TIP3    H218097   2.821   2.306   0.384
 6045TIP3   OH218098   0.941   2.058   5.079
 6045TIP3    H118099   1.027   2.076   5.119
 6045TIP3    H218100   0.953   1.974   5.035
 6046TIP3   OH218101   3.953   1.508   1.315
 6046TIP3    H118102   4.031   1.463   1.346
 6046TIP3    H218103   3.922   1.455   1.241
 6047TIP3   OH218104   5.929   3.899   2.467
 6047TIP3    H118105   5.901   3.822   2.417
 6047TIP3    H218106   5.849   3.950   2.479
 6048TIP3   OH218107   4.492   1.267   5.376
 6048TIP3    H118108   4.428   1.206   5.339
 6048TIP3    H218109   4.550   1.212   5.429
 6049TIP3   OH218110   5.143  -0.021   1.313
 6049TIP3    H118111   5.185   0.006   1.231
 6049TIP3    H218112   5.116   0.061   1.354
 6050TIP3   OH218113   6.724   5.186   0.184
 6050TIP3    H118114   6.663   5.156   0.251
 6050TIP3    H218115   6.682   5.265   0.147
 6051TIP3   OH218116   1.413   6.489   1.664
 6051TIP3    H118117   1.460   6.423   1.714
 6051TIP3    H218118   1.346   6.522   1.723
 6052TIP3   OH218119   5.721   3.858   2.165
 6052TIP3    H118120   5.729   3.772   2.207
 6052TIP3    H218121   5.628   3.867   2.147
 6053TIP3   OH218122   2.551   5.324   2.806
 6053TIP3    H118123   2.592   5.261   2.865
 6053TIP3    H218124   2.458   5.299   2.805
 6054TIP3   OH218125   0.711   6.564   3.668
 6054TIP3    H118126   0.674   6.568   3.757
 6054TIP3    H218127   0.737   6.654   3.650
 6055TIP3   OH218128   2.916   4.440   4.746
 6055TIP3    H118129   2.935   4.364   4.800
 6055TIP3    H218130   2.833   4.418   4.702
 6056TIP3   OH218131   1.520   1.146   1.749
 6056TIP3    H118132   1.610   1.115   1.762
 6056TIP3    H218133   1.501   1.199   1.826
 6057TIP3   OH218134   4.678   1.169   4.496
 6057TIP3    H118135   4.760   1.185   4.542
 6057TIP3    H218136   4.615   1.227   4.538
 6058TIP3   OH218137   2.969   5.502   2.332
 6058TIP3    H118138   2.985   5.507   2.238
 6058TIP3    H218139   3.014   5.423   2.360
 6059TIP3   OH218140   3.390   0.162   3.216
 6059TIP3    H118141   3.401   0.247   3.258
 6059TIP3    H218142   3.369   0.102   3.288
 6060TIP3   OH218143   3.465   3.683   3.754
 6060TIP3    H118144   3.371   3.700   3.745
 6060TIP3    H218145   3.504   3.769   3.769
 6061TIP3   OH218146   3.755   2.793   0.807
 6061TIP3    H118147   3.694   2.738   0.758
 6061TIP3    H218148   3.806   2.838   0.740
 6062TIP3   OH218149   1.225   0.803   2.476
 6062TIP3    H118150   1.179   0.877   2.437
 6062TIP3    H218151   1.250   0.833   2.564
 6063TIP3   OH218152   2.421   6.733   3.012
 6063TIP3    H118153   2.350   6.669   3.004
 6063TIP3    H218154   2.384   6.803   3.066
 6064TIP3   OH218155   0.407   2.474   2.182
 6064TIP3    H118156   0.394   2.546   2.245
 6064TIP3    H218157   0.492   2.492   2.143
 6065TIP3   OH218158   4.802   2.146   2.169
 6065TIP3    H118159   4.808   2.166   2.262
 6065TIP3    H218160   4.795   2.231   2.126
 6066TIP3   OH218161   2.884   1.965   0.151
 6066TIP3    H118162   2.897   2.018   0.230
 6066TIP3    H218163   2.859   2.029   0.084
 6067TIP3   OH218164   1.714   4.113   1.811
 6067TIP3    H118165   1.755   4.028   1.797
 6067TIP3    H218166   1.621   4.098   1.790
 6068TIP3   OH218167   1.706   5.042   0.184
 6068TIP3    H118168   1.766   5.045   0.258
 6068TIP3    H218169   1.662   4.958   0.193
 6069TIP3   OH218170   6.948   5.746   5.675
 6069TIP3    H118171   7.043   5.755   5.675
 6069TIP3    H218172   6.927   5.717   5.764
 6070TIP3   OH218173   1.225   3.967   5.663
 6070TIP3    H118174   1.257   3.877   5.659
 6070TIP3    H218175   1.305   4.021   5.665
 6071TIP3   OH218176   1.816   0.128   2.482
 6071TIP3    H118177   1.802   0.042   2.443
 6071TIP3    H218178   1.858   0.179   2.413
 6072TIP3   OH218179   2.589   2.580   0.458
 6072TIP3    H118180   2.643   2.528   0.399
 6072TIP3    H218181   2.520   2.520   0.487
 6073TIP3   OH218182   5.117   2.791   0.818
 6073TIP3    H118183   5.159   2.707   0.839
 6073TIP3    H218184   5.074   2.776   0.734
 6074TIP3   OH218185   3.393   3.089   1.963
 6074TIP3    H118186   3.392   3.045   2.048
 6074TIP3    H218187   3.390   3.017   1.899
 6075TIP3   OH218188   0.766   6.444   2.084
 6075TIP3    H118189   0.804   6.524   2.047
 6075TIP3    H218190   0.815   6.373   2.044
 6076TIP3   OH218191   5.249   5.878   1.498
 6076TIP3    H118192   5.182   5.837   1.554
 6076TIP3    H218193   5.320   5.814   1.496
 6077TIP3   OH218194   3.505   0.185   4.016
 6077TIP3    H118195   3.498   0.099   4.057
 6077TIP3    H218196   3.419   0.201   3.979
 6078TIP3   OH218197   6.954   1.778   5.384
 6078TIP3    H118198   6.861   1.783   5.408
 6078TIP3    H218199   6.979   1.688   5.402
 6079TIP3   OH218200   0.830   5.486   0.024
 6079TIP3    H118201   0.900   5.541   0.058
 6079TIP3    H218202   0.802   5.529  -0.057
 6080TIP3   OH218203   4.542   1.065   1.668
 6080TIP3    H118204   4.574   1.065   1.578
 6080TIP3    H218205   4.609   1.113   1.717
 6081TIP3   OH218206   4.894   4.108   5.765
 6081TIP3    H118207   4.914   4.151   5.849
 6081TIP3    H218208   4.845   4.174   5.716
 6082TIP3   OH218209   4.418   3.763   0.989
 6082TIP3    H118210   4.411   3.669   1.005
 6082TIP3    H218211   4.402   3.773   0.895
 6083TIP3   OH218212   6.296   0.494   2.064
 6083TIP3    H118213   6.244   0.529   1.992
 6083TIP3    H218214   6.235   0.438   2.113
 6084TIP3   OH218215   2.112   5.347   5.197
 6084TIP3    H118216   2.188   5.357   5.255
 6084TIP3    H218217   2.102   5.253   5.187
 6085TIP3   OH218218   6.766   1.969   3.088
 6085TIP3    H118219   6.849   1.952   3.043
 6085TIP3    H218220   6.792   1.998   3.176
 6086TIP3   OH218221   5.369   5.459   1.637
 6086TIP3    H118222   5.280   5.449   1.670
 6086TIP3    H218223   5.425   5.436   1.711
 6087TIP3   OH218224   1.846   0.613   1.290
 6087TIP3    H118225   1.825   0.521   1.311
 6087TIP3    H218226   1.937   0.611   1.263
 6088TIP3   OH218227   5.933   4.270   1.879
 6088TIP3    H118228   5.984   4.197   1.845
 6088TIP3    H218229   5.892   4.309   1.802
 6089TIP3   OH218230   2.035   1.468   1.696
 6089TIP3    H118231   1.945   1.436   1.704
 6089TIP3    H218232   2.072   1.418   1.624
 6090TIP3   OH218233   6.370   4.446   3.896
 6090TIP3    H118234   6.360   4.358   3.861
 6090TIP3    H218235   6.338   4.440   3.986
 6091TIP3   OH218236   4.689   2.270   3.801
 6091TIP3    H118237   4.602   2.298   3.772
 6091TIP3    H218238   4.681   2.262   3.896
 6092TIP3   OH218239   6.840   1.967   1.302
 6092TIP3    H118240   6.837   1.872   1.295
 6092TIP3    H218241   6.811   1.985   1.391
 6093TIP3   OH218242   6.976   1.315   3.780
 6093TIP3    H118243   6.943   1.385   3.836
 6093TIP3    H218244   6.932   1.328   3.696
 6094TIP3   OH218245   0.639   5.659   4.649
 6094TIP3    H118246   0.674   5.748   4.645
 6094TIP3    H218247   0.716   5.603   4.648
 6095TIP3   OH218248   0.536   5.102   5.505
 6095TIP3    H118249   0.525   5.195   5.487
 6095TIP3    H218250   0.454   5.062   5.475
 6096TIP3   OH218251   1.249   3.054   0.918
 6096TIP3    H118252   1.329   3.012   0.887
 6096TIP3    H218253   1.212   3.095   0.839
 6097TIP3   OH218254   1.267   3.018   2.959
 6097TIP3    H118255   1.338   2.954   2.958
 6097TIP3    H218256   1.293   3.081   3.025
 6098TIP3   OH218257   0.957   0.375   3.290
 6098TIP3    H118258   1.046   0.388   3.325
 6098TIP3    H218259   0.963   0.404   3.199
 6099TIP3   OH218260   0.338   5.502   3.995
 6099TIP3    H118261   0.336   5.593   3.967
 6099TIP3    H218262   0.431   5.481   4.002
 6100TIP3   OH218263   0.604   2.573   3.130
 6100TIP3    H118264   0.529   2.528   3.168
 6100TIP3    H218265   0.630   2.636   3.197
 6101TIP3   OH218266   1.023   0.480   4.776
 6101TIP3    H118267   0.964   0.405   4.788
 6101TIP3    H218268   1.103   0.455   4.821
 6102TIP3   OH218269   3.443   1.955   0.193
 6102TIP3    H118270   3.474   1.906   0.270
 6102TIP3    H218271   3.363   1.998   0.223
 6103TIP3   OH218272   0.171   6.027   2.677
 6103TIP3    H118273   0.119   5.962   2.724
 6103TIP3    H218274   0.236   5.976   2.630
 6104TIP3   OH218275   3.121   0.734   0.688
 6104TIP3    H118276   3.157   0.821   0.706
 6104TIP3    H218277   3.198   0.680   0.671
 6105TIP3   OH218278   3.688   4.277   4.146
 6105TIP3    H118279   3.698   4.326   4.228
 6105TIP3    H218280   3.644   4.338   4.087
 6106TIP3   OH218281   5.137   0.706   2.914
 6106TIP3    H118282   5.044   0.692   2.895
 6106TIP3    H218283   5.182   0.646   2.855
 6107TIP3   OH218284   2.994   2.815   5.862
 6107TIP3    H118285   2.933   2.744   5.843
 6107TIP3    H218286   2.982   2.833   5.955
 6108TIP3   OH218287   6.818   5.391   1.002
 6108TIP3    H118288   6.743   5.336   1.023
 6108TIP3    H218289   6.806   5.414   0.910
 6109TIP3   OH218290   2.072   4.300   2.167
 6109TIP3    H118291   2.093   4.293   2.074
 6109TIP3    H218292   2.124   4.375   2.198
 6110TIP3   OH218293   1.657   5.146   3.786
 6110TIP3    H118294   1.577   5.148   3.733
 6110TIP3    H218295   1.728   5.140   3.722
 6111TIP3   OH218296   0.578   3.142   2.195
 6111TIP3    H118297   0.567   3.194   2.275
 6111TIP3    H218298   0.489   3.112   2.174
 6112TIP3   OH218299   0.022   3.676   0.674
 6112TIP3    H118300  -0.025   3.659   0.756
 6112TIP3    H218301  -0.044   3.712   0.615
 6113TIP3   OH218302   3.949   0.572   4.736
 6113TIP3    H118303   4.040   0.602   4.744
 6113TIP3    H218304   3.953   0.478   4.751
 6114TIP3   OH218305   2.570   5.394   3.450
 6114TIP3    H118306   2.558   5.480   3.411
 6114TIP3    H218307   2.588   5.412   3.542
 6115TIP3   OH218308   0.752   6.078   1.359
 6115TIP3    H118309   0.719   6.168   1.352
 6115TIP3    H218310   0.743   6.042   1.270
 6116TIP3   OH218311   5.890   1.007   3.814
 6116TIP3    H118312   5.803   1.032   3.785
 6116TIP3    H218313   5.899   0.916   3.787
 6117TIP3   OH218314   0.496   2.423   2.885
 6117TIP3    H118315   0.577   2.456   2.924
 6117TIP3    H218316   0.511   2.430   2.791
 6118TIP3   OH218317   6.422   4.944  -0.021
 6118TIP3    H118318   6.354   4.915   0.039
 6118TIP3    H218319   6.406   5.038  -0.032
 6119TIP3   OH218320   2.848   0.360   3.049
 6119TIP3    H118321   2.925   0.415   3.035
 6119TIP3    H218322   2.854   0.292   2.982
 6120TIP3   OH218323   0.414   4.379   3.870
 6120TIP3    H118324   0.383   4.289   3.858
 6120TIP3    H218325   0.380   4.427   3.795
 6121TIP3   OH218326   5.555   4.225   2.585
 6121TIP3    H118327   5.505   4.301   2.614
 6121TIP3    H218328   5.590   4.250   2.499
 6122TIP3   OH218329   4.555   0.747   1.648
 6122TIP3    H118330   4.552   0.801   1.727
 6122TIP3    H218331   4.465   0.744   1.617
 6123TIP3   OH218332   3.926   0.581   1.211
 6123TIP3    H118333   3.965   0.642   1.149
 6123TIP3    H218334   3.993   0.569   1.278
 6124TIP3   OH218335   2.362   0.680   0.912
 6124TIP3    H118336   2.388   0.620   0.981
 6124TIP3    H218337   2.313   0.748   0.956
 6125TIP3   OH218338   2.357   2.963   2.320
 6125TIP3    H118339   2.355   3.026   2.392
 6125TIP3    H218340   2.450   2.946   2.306
 6126TIP3   OH218341   1.363   1.992   1.992
 6126TIP3    H118342   1.370   1.902   1.958
 6126TIP3    H218343   1.442   2.035   1.959
 6127TIP3   OH218344   1.335   0.407   3.365
 6127TIP3    H118345   1.332   0.351   3.287
 6127TIP3    H218346   1.294   0.489   3.337
 6128TIP3   OH218347   3.308   3.413   2.350
 6128TIP3    H118348   3.272   3.491   2.308
 6128TIP3    H218349   3.235   3.377   2.400
 6129TIP3   OH218350   4.589   5.932   3.027
 6129TIP3    H118351   4.649   5.914   3.100
 6129TIP3    H218352   4.579   6.027   3.028
 6130TIP3   OH218353   5.228   2.246   4.365
 6130TIP3    H118354   5.261   2.230   4.453
 6130TIP3    H218355   5.306   2.254   4.311
 6131TIP3   OH218356   1.236   6.786   3.833
 6131TIP3    H118357   1.201   6.754   3.916
 6131TIP3    H218358   1.256   6.707   3.783
 6132TIP3   OH218359   6.872   0.668   5.326
 6132TIP3    H118360   6.899   0.727   5.256
 6132TIP3    H218361   6.900   0.711   5.407
 6133TIP3   OH218362   3.706   1.540   0.454
 6133TIP3    H118363   3.761   1.492   0.393
 6133TIP3    H218364   3.765   1.601   0.498
 6134TIP3   OH218365   3.957   2.014   2.599
 6134TIP3    H118366   3.918   2.072   2.534
 6134TIP3    H218367   4.036   2.060   2.628
 6135TIP3   OH218368   2.144   4.965   3.898
 6135TIP3    H118369   2.059   4.979   3.940
 6135TIP3    H218370   2.208   4.998   3.961
 6136TIP3   OH218371   3.915   6.750   5.831
 6136TIP3    H118372   3.869   6.700   5.764
 6136TIP3    H218373   4.006   6.718   5.827
 6137TIP3   OH218374   0.135   5.417   3.472
 6137TIP3    H118375   0.153   5.355   3.401
 6137TIP3    H218376   0.195   5.490   3.454
 6138TIP3   OH218377   0.106   6.396   0.306
 6138TIP3    H118378   0.197   6.371   0.323
 6138TIP3    H218379   0.089   6.468   0.366
 6139TIP3   OH218380   3.861   2.309   0.270
 6139TIP3    H118381   3.772   2.291   0.298
 6139TIP3    H218382   3.882   2.393   0.311
 6140TIP3   OH218383   1.527   3.094   3.828
 6140TIP3    H118384   1.586   3.028   3.864
 6140TIP3    H218385   1.568   3.121   3.746
 6141TIP3   OH218386   4.717   3.971   2.694
 6141TIP3    H118387   4.711   4.067   2.691
 6141TIP3    H218388   4.762   3.947   2.614
 6142TIP3   OH218389   3.109   1.400   3.536
 6142TIP3    H118390   3.194   1.433   3.564
 6142TIP3    H218391   3.125   1.309   3.509
 6143TIP3   OH218392   1.835   1.383   4.978
 6143TIP3    H118393   1.880   1.448   4.925
 6143TIP3    H218394   1.757   1.429   5.011
 6144TIP3   OH218395   3.492   0.258   1.108
 6144TIP3    H118396   3.497   0.308   1.190
 6144TIP3    H218397   3.458   0.320   1.044
 6145TIP3   OH218398   4.051   3.324   3.421
 6145TIP3    H118399   4.000   3.330   3.340
 6145TIP3    H218400   4.008   3.386   3.480
 6146TIP3   OH218401   4.271   6.362   5.358
 6146TIP3    H118402   4.300   6.340   5.269
 6146TIP3    H218403   4.285   6.456   5.365
 6147TIP3   OH218404   5.198   2.536   5.795
 6147TIP3    H118405   5.146   2.591   5.854
 6147TIP3    H218406   5.174   2.447   5.818
 6148TIP3   OH218407   4.970   6.003   4.250
 6148TIP3    H118408   5.048   6.048   4.282
 6148TIP3    H218409   4.902   6.070   4.251
 6149TIP3   OH218410   0.373   5.471   0.806
 6149TIP3    H118411   0.366   5.376   0.805
 6149TIP3    H218412   0.372   5.494   0.899
 6150TIP3   OH218413   2.984   2.645   4.589
 6150TIP3    H118414   3.046   2.577   4.560
 6150TIP3    H218415   3.009   2.662   4.680
 6151TIP3   OH218416   4.835   5.489   3.451
 6151TIP3    H118417   4.893   5.561   3.473
 6151TIP3    H218418   4.766   5.492   3.517
 6152TIP3   OH218419   1.619   0.144   4.226
 6152TIP3    H118420   1.589   0.233   4.207
 6152TIP3    H218421   1.563   0.088   4.172
 6153TIP3   OH218422   4.275   0.510   5.902
 6153TIP3    H118423   4.280   0.417   5.926
 6153TIP3    H218424   4.298   0.512   5.809
 6154TIP3   OH218425   6.719   2.879   4.875
 6154TIP3    H118426   6.752   2.945   4.936
 6154TIP3    H218427   6.707   2.926   4.793
 6155TIP3   OH218428   4.122   4.078   5.404
 6155TIP3    H118429   4.045   4.132   5.422
 6155TIP3    H218430   4.094   3.989   5.429
 6156TIP3   OH218431   6.759   1.120   5.712
 6156TIP3    H118432   6.790   1.089   5.627
 6156TIP3    H218433   6.704   1.049   5.745
 6157TIP3   OH218434   5.044   4.780   0.629
 6157TIP3    H118435   4.964   4.727   0.629
 6157TIP3    H218436   5.012   4.870   0.626
 6158TIP3   OH218437   5.969   4.233   4.193
 6158TIP3    H118438   6.050   4.203   4.153
 6158TIP3    H218439   5.910   4.247   4.118
 6159TIP3   OH218440   5.264   3.199   3.328
 6159TIP3    H118441   5.352   3.191   3.364
 6159TIP3    H218442   5.224   3.272   3.377
 6160TIP3   OH218443   1.053   4.464   4.872
 6160TIP3    H118444   0.983   4.505   4.822
 6160TIP3    H218445   1.017   4.453   4.960
 6161TIP3   OH218446   5.839   0.417   2.032
 6161TIP3    H118447   5.867   0.387   1.945
 6161TIP3    H218448   5.748   0.386   2.040
 6162TIP3   OH218449   0.139   2.478   0.679
 6162TIP3    H118450   0.186   2.395   0.679
 6162TIP3    H218451   0.103   2.486   0.591
 6163TIP3   OH218452   1.733   6.119   5.585
 6163TIP3    H118453   1.735   6.133   5.680
 6163TIP3    H218454   1.650   6.076   5.569
 6164TIP3   OH218455   2.262   3.016   5.050
 6164TIP3    H118456   2.250   3.077   4.977
 6164TIP3    H218457   2.236   3.067   5.127
 6165TIP3   OH218458   6.434   1.085   2.776
 6165TIP3    H118459   6.474   1.156   2.725
 6165TIP3    H218460   6.367   1.129   2.829
 6166TIP3   OH218461   6.474   1.429   0.304
 6166TIP3    H118462   6.569   1.424   0.304
 6166TIP3    H218463   6.454   1.522   0.308
 6167TIP3   OH218464   3.410   6.250   5.846
 6167TIP3    H118465   3.333   6.305   5.851
 6167TIP3    H218466   3.376   6.161   5.842
 6168TIP3   OH218467   3.607   3.987   1.062
 6168TIP3    H118468   3.674   4.008   0.997
 6168TIP3    H218469   3.537   3.945   1.011
 6169TIP3   OH218470   4.773   6.623   3.949
 6169TIP3    H118471   4.751   6.588   3.863
 6169TIP3    H218472   4.864   6.599   3.963
 6170TIP3   OH218473   5.486   6.816   2.333
 6170TIP3    H118474   5.477   6.752   2.262
 6170TIP3    H218475   5.399   6.820   2.372
 6171TIP3   OH218476   5.944   0.534   0.104
 6171TIP3    H118477   5.986   0.448   0.119
 6171TIP3    H218478   6.018   0.593   0.089
 6172TIP3   OH218479   2.051   5.404   1.224
 6172TIP3    H118480   2.086   5.485   1.188
 6172TIP3    H218481   2.024   5.427   1.313
 6173TIP3   OH218482   5.146   6.732   2.741
 6173TIP3    H118483   5.093   6.654   2.758
 6173TIP3    H218484   5.194   6.746   2.823
 6174TIP3   OH218485   4.904   0.959   2.154
 6174TIP3    H118486   4.995   0.962   2.126
 6174TIP3    H218487   4.868   1.044   2.128
 6175TIP3   OH218488   4.194   1.497   2.165
 6175TIP3    H118489   4.121   1.457   2.213
 6175TIP3    H218490   4.228   1.563   2.225
 6176TIP3   OH218491   2.947   5.636   4.918
 6176TIP3    H118492   2.982   5.623   4.830
 6176TIP3    H218493   2.859   5.671   4.904
 6177TIP3   OH218494   2.764   5.569   1.809
 6177TIP3    H118495   2.769   5.660   1.839
 6177TIP3    H218496   2.813   5.519   1.875
 6178TIP3   OH218497   6.226   2.771   2.636
 6178TIP3    H118498   6.312   2.758   2.597
 6178TIP3    H218499   6.186   2.684   2.637
 6179TIP3   OH218500   6.015   3.354   1.643
 6179TIP3    H118501   6.063   3.301   1.707
 6179TIP3    H218502   5.925   3.356   1.676
 6180TIP3   OH218503   0.329   0.288   5.667
 6180TIP3    H118504   0.344   0.205   5.622
 6180TIP3    H218505   0.390   0.286   5.741
 6181TIP3   OH218506   6.774   0.111   1.808
 6181TIP3    H118507   6.849   0.089   1.863
 6181TIP3    H218508   6.756   0.031   1.759
 6182TIP3   OH218509   4.559   5.386   5.748
 6182TIP3    H118510   4.577   5.337   5.829
 6182TIP3    H218511   4.492   5.333   5.703
 6183TIP3   OH218512   3.754   3.572   5.031
 6183TIP3    H118513   3.848   3.553   5.040
 6183TIP3    H218514   3.722   3.577   5.121
 6184TIP3   OH218515   1.054   6.356   3.979
 6184TIP3    H118516   1.074   6.262   3.983
 6184TIP3    H218517   1.129   6.398   4.023
 6185TIP3   OH218518   6.271   4.710   0.749
 6185TIP3    H118519   6.364   4.712   0.771
 6185TIP3    H218520   6.230   4.762   0.817
 6186TIP3   OH218521   1.055   1.170   3.987
 6186TIP3    H118522   1.086   1.115   4.059
 6186TIP3    H218523   1.130   1.225   3.965
 6187TIP3   OH218524   1.815   2.468   2.169
 6187TIP3    H118525   1.891   2.524   2.156
 6187TIP3    H218526   1.824   2.435   2.258
 6188TIP3   OH218527   3.114   5.854   1.951
 6188TIP3    H118528   3.143   5.931   1.901
 6188TIP3    H218529   3.026   5.838   1.919
 6189TIP3   OH218530   5.314   4.597   4.369
 6189TIP3    H118531   5.252   4.557   4.430
 6189TIP3    H218532   5.267   4.673   4.335
 6190TIP3   OH218533   1.629   4.015   0.559
 6190TIP3    H118534   1.565   3.999   0.489
 6190TIP3    H218535   1.575   4.035   0.636
 6191TIP3   OH218536   2.588   2.550   5.496
 6191TIP3    H118537   2.670   2.558   5.447
 6191TIP3    H218538   2.529   2.611   5.453
 6192TIP3   OH218539   1.349   3.851   1.940
 6192TIP3    H118540   1.354   3.946   1.941
 6192TIP3    H218541   1.409   3.824   1.871
 6193TIP3   OH218542   2.113   5.403   0.783
 6193TIP3    H118543   2.020   5.383   0.769
 6193TIP3    H218544   2.131   5.476   0.723
 6194TIP3   OH218545   6.163   2.855   5.071
 6194TIP3    H118546   6.070   2.864   5.093
 6194TIP3    H218547   6.207   2.844   5.155
 6195TIP3   OH218548   6.288   3.970   5.674
 6195TIP3    H118549   6.351   3.925   5.730
 6195TIP3    H218550   6.204   3.961   5.720
 6196TIP3   OH218551   5.080   0.128   3.107
 6196TIP3    H118552   5.103   0.154   3.196
 6196TIP3    H218553   4.993   0.164   3.093
 6197TIP3   OH218554   1.509   1.811   3.263
 6197TIP3    H118555   1.590   1.767   3.240
 6197TIP3    H218556   1.535   1.900   3.288
 6198TIP3   OH218557   5.380   2.634   0.341
 6198TIP3    H118558   5.440   2.707   0.327
 6198TIP3    H218559   5.293   2.674   0.340
 6199TIP3   OH218560   3.928   0.136   0.621
 6199TIP3    H118561   3.909   0.230   0.615
 6199TIP3    H218562   3.992   0.120   0.551
 6200TIP3   OH218563   4.139   4.689   3.572
 6200TIP3    H118564   4.081   4.753   3.612
 6200TIP3    H218565   4.083   4.614   3.552
 6201TIP3   OH218566   5.697   4.622   0.013
 6201TIP3    H118567   5.629   4.673  -0.030
 6201TIP3    H218568   5.756   4.687   0.052
 6202TIP3   OH218569   2.595   4.287   1.929
 6202TIP3    H118570   2.546   4.207   1.948
 6202TIP3    H218571   2.588   4.297   1.834
 6203TIP3   OH218572   6.014   1.918   0.374
 6203TIP3    H118573   6.031   1.927   0.280
 6203TIP3    H218574   5.920   1.933   0.383
 6204TIP3   OH218575   6.757   3.873   0.560
 6204TIP3    H118576   6.840   3.919   0.544
 6204TIP3    H218577   6.720   3.859   0.473
 6205TIP3   OH218578   4.763   1.507   0.298
 6205TIP3    H118579   4.839   1.505   0.240
 6205TIP3    H218580   4.728   1.595   0.288
 6206TIP3   OH218581   0.538   1.471   0.702
 6206TIP3    H118582   0.632   1.470   0.723
 6206TIP3    H218583   0.524   1.393   0.649
 6207TIP3   OH218584   5.458   2.735   2.860
 6207TIP3    H118585   5.475   2.798   2.791
 6207TIP3    H218586   5.516   2.661   2.841
 6208TIP3   OH218587   7.075   1.734   1.377
 6208TIP3    H118588   7.143   1.786   1.421
 6208TIP3    H218589   7.109   1.720   1.289
 6209TIP3   OH218590   0.094   3.437   3.467
 6209TIP3    H118591   0.040   3.393   3.533
 6209TIP3    H218592   0.049   3.520   3.451
 6210TIP3   OH218593   5.358   3.245   2.888
 6210TIP3    H118594   5.405   3.293   2.820
 6210TIP3    H218595   5.426   3.217   2.949
 6211TIP3   OH218596   0.790   6.010   4.829
 6211TIP3    H118597   0.790   6.079   4.895
 6211TIP3    H218598   0.701   5.974   4.832
 6212TIP3   OH218599   4.922   3.829   5.733
 6212TIP3    H118600   4.893   3.920   5.740
 6212TIP3    H218601   4.863   3.781   5.791
 6213TIP3   OH218602   2.879   0.076   4.722
 6213TIP3    H118603   2.839   0.041   4.801
 6213TIP3    H218604   2.910  -0.002   4.675
 6214TIP3   OH218605   3.999   5.208   0.462
 6214TIP3    H118606   3.964   5.280   0.409
 6214TIP3    H218607   3.934   5.197   0.532
 6215TIP3   OH218608   0.695   6.620   0.151
 6215TIP3    H118609   0.603   6.607   0.127
 6215TIP3    H218610   0.733   6.666   0.076
 6216TIP3   OH218611   0.323   4.100   5.213
 6216TIP3    H118612   0.296   4.011   5.237
 6216TIP3    H218613   0.241   4.146   5.194
 6217TIP3   OH218614   2.615   4.995   5.325
 6217TIP3    H118615   2.567   5.072   5.355
 6217TIP3    H218616   2.548   4.937   5.289
 6218TIP3   OH218617   2.876   0.896   2.633
 6218TIP3    H118618   2.790   0.926   2.661
 6218TIP3    H218619   2.863   0.866   2.543
 6219TIP3   OH218620   3.640   3.078   5.236
 6219TIP3    H118621   3.698   3.014   5.194
 6219TIP3    H218622   3.566   3.026   5.267
 6220TIP3   OH218623   0.263   3.870   2.778
 6220TIP3    H118624   0.321   3.908   2.712
 6220TIP3    H218625   0.267   3.776   2.762
 6221TIP3   OH218626   6.674   2.007   5.599
 6221TIP3    H118627   6.597   1.951   5.588
 6221TIP3    H218628   6.717   2.006   5.513
 6222TIP3   OH218629   0.957   5.771   2.285
 6222TIP3    H118630   0.972   5.793   2.193
 6222TIP3    H218631   1.039   5.792   2.329
 6223TIP3   OH218632   0.743   0.363   0.093
 6223TIP3    H118633   0.690   0.284   0.079
 6223TIP3    H218634   0.822   0.331   0.136
 6224TIP3   OH218635   0.901   6.040   2.395
 6224TIP3    H118636   0.934   5.957   2.361
 6224TIP3    H218637   0.964   6.065   2.463
 6225TIP3   OH218638   6.926   6.233   5.528
 6225TIP3    H118639   6.999   6.246   5.589
 6225TIP3    H218640   6.894   6.145   5.547
 6226TIP3   OH218641   0.433   2.804   1.182
 6226TIP3    H118642   0.372   2.819   1.253
 6226TIP3    H218643   0.431   2.885   1.131
 6227TIP3   OH218644   3.977   4.345   0.808
 6227TIP3    H118645   4.055   4.302   0.774
 6227TIP3    H218646   3.999   4.438   0.808
 6228TIP3   OH218647   3.317   0.415   3.285
 6228TIP3    H118648   3.231   0.459   3.280
 6228TIP3    H218649   3.371   0.463   3.223
 6229TIP3   OH218650   0.386   1.075   4.540
 6229TIP3    H118651   0.312   1.118   4.583
 6229TIP3    H218652   0.433   1.146   4.497
 6230TIP3   OH218653   3.272   2.571   4.682
 6230TIP3    H118654   3.287   2.665   4.691
 6230TIP3    H218655   3.348   2.540   4.633
 6231TIP3   OH218656   3.503   1.076   1.038
 6231TIP3    H118657   3.418   1.036   1.019
 6231TIP3    H218658   3.550   1.009   1.088
 6232TIP3   OH218659   3.826   1.884   4.141
 6232TIP3    H118660   3.794   1.838   4.063
 6232TIP3    H218661   3.918   1.859   4.147
 6233TIP3   OH218662   3.748   5.618   1.516
 6233TIP3    H118663   3.783   5.688   1.461
 6233TIP3    H218664   3.824   5.567   1.542
 6234TIP3   OH218665   0.575   6.575   0.704
 6234TIP3    H118666   0.616   6.661   0.693
 6234TIP3    H218667   0.494   6.593   0.753
 6235TIP3   OH218668   6.082   2.597   1.148
 6235TIP3    H118669   6.090   2.601   1.053
 6235TIP3    H218670   6.015   2.531   1.164
 6236TIP3   OH218671   5.450   2.480   5.536
 6236TIP3    H118672   5.534   2.497   5.494
 6236TIP3    H218673   5.451   2.535   5.614
 6237TIP3   OH218674   2.846   6.365   1.279
 6237TIP3    H118675   2.905   6.402   1.214
 6237TIP3    H218676   2.818   6.281   1.241
 6238TIP3   OH218677   1.798   4.967   2.065
 6238TIP3    H118678   1.780   4.873   2.060
 6238TIP3    H218679   1.825   4.981   2.156
 6239TIP3   OH218680   4.056   1.023   5.766
 6239TIP3    H118681   4.120   1.031   5.837
 6239TIP3    H218682   4.024   1.112   5.752
 6240TIP3   OH218683   6.579   2.410   0.087
 6240TIP3    H118684   6.572   2.325   0.042
 6240TIP3    H218685   6.637   2.394   0.160
 6241TIP3   OH218686   2.012   6.667   4.073
 6241TIP3    H118687   1.957   6.681   3.996
 6241TIP3    H218688   2.095   6.710   4.051
 6242TIP3   OH218689   5.414   0.497   2.347
 6242TIP3    H118690   5.423   0.590   2.327
 6242TIP3    H218691   5.328   0.489   2.388
 6243TIP3   OH218692   2.161   3.662   1.777
 6243TIP3    H118693   2.197   3.690   1.861
 6243TIP3    H218694   2.086   3.607   1.800
 6244TIP3   OH218695   0.087   0.668   0.082
 6244TIP3    H118696   0.090   0.763   0.068
 6244TIP3    H218697   0.023   0.637   0.017
 6245TIP3   OH218698   3.251   4.569   4.261
 6245TIP3    H118699   3.253   4.595   4.169
 6245TIP3    H218700   3.315   4.498   4.267
 6246TIP3   OH218701   3.720   5.075   2.327
 6246TIP3    H118702   3.692   5.059   2.237
 6246TIP3    H218703   3.644   5.053   2.381
 6247TIP3   OH218704   5.967   5.447   5.237
 6247TIP3    H118705   5.972   5.394   5.317
 6247TIP3    H218706   5.963   5.382   5.166
 6248TIP3   OH218707   6.793   1.563   0.628
 6248TIP3    H118708   6.799   1.655   0.604
 6248TIP3    H218709   6.799   1.562   0.723
 6249TIP3   OH218710   5.628   1.834   5.730
 6249TIP3    H118711   5.558   1.809   5.670
 6249TIP3    H218712   5.663   1.915   5.694
 6250TIP3   OH218713   4.634   2.977   5.237
 6250TIP3    H118714   4.637   3.030   5.317
 6250TIP3    H218715   4.607   2.890   5.267
 6251TIP3   OH218716   3.639   6.236   5.037
 6251TIP3    H118717   3.570   6.292   5.074
 6251TIP3    H218718   3.679   6.194   5.114
 6252TIP3   OH218719   2.294   3.733   4.892
 6252TIP3    H118720   2.272   3.825   4.907
 6252TIP3    H218721   2.308   3.727   4.798
 6253TIP3   OH218722   4.753   0.472   4.964
 6253TIP3    H118723   4.697   0.398   4.988
 6253TIP3    H218724   4.717   0.504   4.881
 6254TIP3   OH218725   2.554   6.298   3.972
 6254TIP3    H118726   2.500   6.355   4.027
 6254TIP3    H218727   2.548   6.336   3.885
 6255TIP3   OH218728   6.362   5.338   4.478
 6255TIP3    H118729   6.338   5.417   4.430
 6255TIP3    H218730   6.313   5.268   4.435
 6256TIP3   OH218731   1.703   2.413   1.688
 6256TIP3    H118732   1.687   2.330   1.643
 6256TIP3    H218733   1.639   2.473   1.650
 6257TIP3   OH218734   3.712   0.835   1.577
 6257TIP3    H118735   3.767   0.757   1.565
 6257TIP3    H218736   3.737   0.868   1.663
 6258TIP3   OH218737   4.256   0.182   2.964
 6258TIP3    H118738   4.329   0.127   2.937
 6258TIP3    H218739   4.229   0.147   3.048
 6259TIP3   OH218740   3.807   4.324   5.545
 6259TIP3    H118741   3.899   4.299   5.548
 6259TIP3    H218742   3.798   4.387   5.618
 6260TIP3   OH218743   6.015   3.768   1.084
 6260TIP3    H118744   5.982   3.795   1.169
 6260TIP3    H218745   5.952   3.702   1.054
 6261TIP3   OH218746   3.502   5.738   2.725
 6261TIP3    H118747   3.548   5.818   2.702
 6261TIP3    H218748   3.506   5.684   2.646
 6262TIP3   OH218749   2.679   5.489   3.689
 6262TIP3    H118750   2.767   5.499   3.654
 6262TIP3    H218751   2.689   5.428   3.763
 6263TIP3   OH218752   1.252   0.319   3.626
 6263TIP3    H118753   1.156   0.315   3.626
 6263TIP3    H218754   1.274   0.343   3.536
 6264TIP3   OH218755   6.562   5.374   1.407
 6264TIP3    H118756   6.580   5.455   1.360
 6264TIP3    H218757   6.618   5.309   1.364
 6265TIP3   OH218758   4.872   0.765   0.732
 6265TIP3    H118759   4.931   0.693   0.707
 6265TIP3    H218760   4.845   0.743   0.821
 6266TIP3   OH218761   7.228   5.664   2.743
 6266TIP3    H118762   7.268   5.601   2.684
 6266TIP3    H218763   7.135   5.640   2.745
 6267TIP3   OH218764   0.962   6.258   2.567
 6267TIP3    H118765   1.045   6.230   2.607
 6267TIP3    H218766   0.895   6.231   2.629
 6268TIP3   OH218767   6.939   2.793   0.776
 6268TIP3    H118768   6.864   2.827   0.825
 6268TIP3    H218769   6.976   2.871   0.734
 6269TIP3   OH218770   1.577   2.087   1.862
 6269TIP3    H118771   1.635   2.146   1.909
 6269TIP3    H218772   1.606   2.093   1.770
 6270TIP3   OH218773   1.853   0.368   1.827
 6270TIP3    H118774   1.780   0.309   1.849
 6270TIP3    H218775   1.868   0.417   1.908
 6271TIP3   OH218776   4.851   5.684   2.322
 6271TIP3    H118777   4.911   5.622   2.361
 6271TIP3    H218778   4.797   5.716   2.394
 6272TIP3   OH218779   1.058   5.619   2.580
 6272TIP3    H118780   0.964   5.637   2.590
 6272TIP3    H218781   1.094   5.699   2.542
 6273TIP3   OH218782   6.799   6.214   0.923
 6273TIP3    H118783   6.707   6.239   0.925
 6273TIP3    H218784   6.805   6.138   0.981
 6274TIP3   OH218785   1.872   0.451   0.765
 6274TIP3    H118786   1.947   0.396   0.743
 6274TIP3    H218787   1.895   0.537   0.731
 6275TIP3   OH218788   3.903   6.544   4.867
 6275TIP3    H118789   3.814   6.562   4.837
 6275TIP3    H218790   3.956   6.540   4.787
 6276TIP3   OH218791   1.304   5.740   0.772
 6276TIP3    H118792   1.292   5.700   0.686
 6276TIP3    H218793   1.381   5.795   0.762
 6277TIP3   OH218794   6.723   0.196   4.929
 6277TIP3    H118795   6.736   0.262   4.997
 6277TIP3    H218796   6.629   0.181   4.927
 6278TIP3   OH218797   6.266   0.536   2.409
 6278TIP3    H118798   6.225   0.622   2.418
 6278TIP3    H218799   6.248   0.492   2.492
 6279TIP3   OH218800   4.403   3.286   1.473
 6279TIP3    H118801   4.443   3.303   1.558
 6279TIP3    H218802   4.399   3.371   1.430
 6280TIP3   OH218803   6.459   3.746   0.127
 6280TIP3    H118804   6.503   3.829   0.108
 6280TIP3    H218805   6.369   3.770   0.148
 6281TIP3   OH218806   3.487   1.102   5.526
 6281TIP3    H118807   3.494   1.025   5.470
 6281TIP3    H218808   3.397   1.132   5.516
 6282TIP3   OH218809   1.384   2.276   5.070
 6282TIP3    H118810   1.377   2.209   5.002
 6282TIP3    H218811   1.374   2.359   5.024
 6283TIP3   OH218812   0.912   6.563   1.122
 6283TIP3    H118813   0.915   6.469   1.108
 6283TIP3    H218814   0.846   6.595   1.060
 6284TIP3   OH218815   4.080   0.305   0.116
 6284TIP3    H118816   4.073   0.384   0.062
 6284TIP3    H218817   3.993   0.266   0.112
 6285TIP3   OH218818   4.478   5.174   3.543
 6285TIP3    H118819   4.471   5.094   3.490
 6285TIP3    H218820   4.513   5.240   3.483
 6286TIP3   OH218821   1.757   1.845   5.485
 6286TIP3    H118822   1.722   1.933   5.500
 6286TIP3    H218823   1.710   1.813   5.407
 6287TIP3   OH218824   0.720   6.347   0.709
 6287TIP3    H118825   0.651   6.412   0.727
 6287TIP3    H218826   0.801   6.397   0.714
 6288TIP3   OH218827   3.163   0.616   1.273
 6288TIP3    H118828   3.208   0.589   1.353
 6288TIP3    H218829   3.119   0.698   1.297
 6289TIP3   OH218830   6.077   1.369   3.518
 6289TIP3    H118831   5.998   1.396   3.472
 6289TIP3    H218832   6.132   1.330   3.450
 6290TIP3   OH218833   5.008   1.604   0.469
 6290TIP3    H118834   4.950   1.680   0.470
 6290TIP3    H218835   4.966   1.542   0.410
 6291TIP3   OH218836   7.127   3.688   4.247
 6291TIP3    H118837   7.191   3.688   4.175
 6291TIP3    H218838   7.044   3.669   4.204
 6292TIP3   OH218839   4.822   1.485   2.567
 6292TIP3    H118840   4.803   1.480   2.661
 6292TIP3    H218841   4.796   1.399   2.533
 6293TIP3   OH218842   3.079   4.551   2.715
 6293TIP3    H118843   3.125   4.468   2.717
 6293TIP3    H218844   2.996   4.532   2.672
 6294TIP3   OH218845   3.149   3.006   2.974
 6294TIP3    H118846   3.097   2.978   3.049
 6294TIP3    H218847   3.233   3.033   3.011
 6295TIP3   OH218848   1.931   5.569   1.427
 6295TIP3    H118849   1.868   5.588   1.358
 6295TIP3    H218850   2.003   5.630   1.411
 6296TIP3   OH218851   5.257   5.980   5.210
 6296TIP3    H118852   5.242   5.997   5.303
 6296TIP3    H218853   5.179   5.933   5.181
 6297TIP3   OH218854   1.524   0.890   5.031
 6297TIP3    H118855   1.431   0.911   5.034
 6297TIP3    H218856   1.567   0.974   5.016
 6298TIP3   OH218857   5.606   4.086   3.164
 6298TIP3    H118858   5.690   4.076   3.118
 6298TIP3    H218859   5.608   4.017   3.230
 6299TIP3   OH218860   0.348   1.113   2.381
 6299TIP3    H118861   0.261   1.143   2.357
 6299TIP3    H218862   0.333   1.035   2.434
 6300TIP3   OH218863   2.299   3.398   4.436
 6300TIP3    H118864   2.238   3.326   4.418
 6300TIP3    H218865   2.378   3.355   4.468
 6301TIP3   OH218866   0.740   2.898   2.147
 6301TIP3    H118867   0.815   2.901   2.087
 6301TIP3    H218868   0.709   2.988   2.151
 6302TIP3   OH218869   3.864   0.977   3.357
 6302TIP3    H118870   3.832   0.936   3.277
 6302TIP3    H218871   3.822   0.929   3.428
 6303TIP3   OH218872   7.012   6.426   2.229
 6303TIP3    H118873   6.998   6.473   2.146
 6303TIP3    H218874   7.041   6.494   2.290
 6304TIP3   OH218875   6.002   3.416   5.177
 6304TIP3    H118876   5.963   3.465   5.250
 6304TIP3    H218877   5.940   3.427   5.105
 6305TIP3   OH218878   2.236   5.154   3.582
 6305TIP3    H118879   2.191   5.070   3.591
 6305TIP3    H218880   2.298   5.156   3.654
 6306TIP3   OH218881   6.259   5.003   4.593
 6306TIP3    H118882   6.205   5.072   4.555
 6306TIP3    H218883   6.346   5.043   4.601
 6307TIP3   OH218884   6.253   1.066   1.580
 6307TIP3    H118885   6.194   1.038   1.510
 6307TIP3    H218886   6.340   1.068   1.539
 6308TIP3   OH218887   5.487   6.249   3.251
 6308TIP3    H118888   5.395   6.231   3.232
 6308TIP3    H218889   5.485   6.317   3.318
 6309TIP3   OH218890   1.413   3.411   1.734
 6309TIP3    H118891   1.448   3.341   1.680
 6309TIP3    H218892   1.319   3.393   1.739
 6310TIP3   OH218893   1.182   4.496   4.356
 6310TIP3    H118894   1.232   4.418   4.331
 6310TIP3    H218895   1.149   4.477   4.443
 6311TIP3   OH218896   0.473   1.903   0.212
 6311TIP3    H118897   0.559   1.944   0.197
 6311TIP3    H218898   0.493   1.814   0.239
 6312TIP3   OH218899   0.915   4.395   1.606
 6312TIP3    H118900   0.849   4.347   1.557
 6312TIP3    H218901   0.969   4.437   1.539
 6313TIP3   OH218902   3.236   0.976   0.739
 6313TIP3    H118903   3.314   0.960   0.685
 6313TIP3    H218904   3.194   1.052   0.698
 6314TIP3   OH218905   6.057   4.416   3.912
 6314TIP3    H118906   6.104   4.414   3.995
 6314TIP3    H218907   6.008   4.499   3.914
 6315TIP3   OH218908   0.416   6.601   0.070
 6315TIP3    H118909   0.371   6.608   0.154
 6315TIP3    H218910   0.373   6.527   0.026
 6316TIP3   OH218911   5.521   4.802   3.569
 6316TIP3    H118912   5.457   4.731   3.562
 6316TIP3    H218913   5.605   4.757   3.578
 6317TIP3   OH218914   0.842   1.995   4.601
 6317TIP3    H118915   0.890   1.953   4.672
 6317TIP3    H218916   0.895   1.977   4.523
 6318TIP3   OH218917   1.448   0.175   0.280
 6318TIP3    H118918   1.372   0.217   0.239
 6318TIP3    H218919   1.517   0.184   0.214
 6319TIP3   OH218920   4.882   0.584   1.367
 6319TIP3    H118921   4.876   0.675   1.396
 6319TIP3    H218922   4.808   0.540   1.410
 6320TIP3   OH218923   3.215   3.762   3.762
 6320TIP3    H118924   3.183   3.784   3.849
 6320TIP3    H218925   3.207   3.844   3.712
 6321TIP3   OH218926   2.328   1.723   1.016
 6321TIP3    H118927   2.410   1.676   0.999
 6321TIP3    H218928   2.296   1.748   0.930
 6322TIP3   OH218929   6.584   5.292   1.108
 6322TIP3    H118930   6.515   5.318   1.047
 6322TIP3    H218931   6.548   5.217   1.155
 6323TIP3   OH218932   6.106   6.227   3.382
 6323TIP3    H118933   6.113   6.183   3.467
 6323TIP3    H218934   6.012   6.239   3.369
 6324TIP3   OH218935   6.921   5.057   5.182
 6324TIP3    H118936   6.932   4.977   5.233
 6324TIP3    H218937   6.868   5.114   5.237
 6325TIP3   OH218938   1.231   0.120   1.907
 6325TIP3    H118939   1.174   0.128   1.831
 6325TIP3    H218940   1.178   0.075   1.973
 6326TIP3   OH218941   6.189   5.361   4.117
 6326TIP3    H118942   6.095   5.367   4.095
 6326TIP3    H218943   6.202   5.427   4.185
 6327TIP3   OH218944   1.764   2.950   4.472
 6327TIP3    H118945   1.834   2.886   4.484
 6327TIP3    H218946   1.706   2.910   4.407
 6328TIP3   OH218947   5.831   3.023   2.111
 6328TIP3    H118948   5.784   3.020   2.028
 6328TIP3    H218949   5.923   3.035   2.086
 6329TIP3   OH218950   0.393   0.388   4.175
 6329TIP3    H118951   0.473   0.396   4.227
 6329TIP3    H218952   0.358   0.477   4.172
 6330TIP3   OH218953   5.640   4.050   3.430
 6330TIP3    H118954   5.705   4.093   3.486
 6330TIP3    H218955   5.560   4.102   3.443
 6331TIP3   OH218956   5.729   0.243   2.595
 6331TIP3    H118957   5.807   0.197   2.563
 6331TIP3    H218958   5.662   0.226   2.528
 6332TIP3   OH218959   3.566   3.668   0.858
 6332TIP3    H118960   3.637   3.676   0.921
 6332TIP3    H218961   3.518   3.589   0.884
 6333TIP3   OH218962   4.831   4.950   0.250
 6333TIP3    H118963   4.814   4.959   0.156
 6333TIP3    H218964   4.847   5.039   0.280
 6334TIP3   OH218965   4.884   4.381   0.418
 6334TIP3    H118966   4.950   4.312   0.429
 6334TIP3    H218967   4.847   4.393   0.505
 6335TIP3   OH218968   3.907   5.446   5.140
 6335TIP3    H118969   3.873   5.536   5.144
 6335TIP3    H218970   3.860   5.400   5.210
 6336TIP3   OH218971   7.130   6.528   1.089
 6336TIP3    H118972   7.170   6.441   1.082
 6336TIP3    H218973   7.036   6.511   1.093
 6337TIP3   OH218974   0.899   4.630   4.321
 6337TIP3    H118975   0.888   4.718   4.285
 6337TIP3    H218976   0.991   4.608   4.302
 6338TIP3   OH218977   4.393   4.988   2.005
 6338TIP3    H118978   4.375   5.076   1.972
 6338TIP3    H218979   4.313   4.963   2.052
 6339TIP3   OH218980   6.980   3.974   0.741
 6339TIP3    H118981   6.931   3.942   0.817
 6339TIP3    H218982   6.919   4.033   0.696
 6340TIP3   OH218983   7.038   5.996   2.189
 6340TIP3    H118984   7.041   6.015   2.095
 6340TIP3    H218985   7.094   6.063   2.228
 6341TIP3   OH218986   4.413   5.735   5.091
 6341TIP3    H118987   4.330   5.688   5.090
 6341TIP3    H218988   4.410   5.792   5.014
 6342TIP3   OH218989   5.617   5.343   4.863
 6342TIP3    H118990   5.537   5.321   4.814
 6342TIP3    H218991   5.634   5.265   4.916
 6343TIP3   OH218992   1.688   2.935   1.534
 6343TIP3    H118993   1.756   2.880   1.573
 6343TIP3    H218994   1.619   2.938   1.600
 6344TIP3   OH218995   6.753   0.454   2.793
 6344TIP3    H118996   6.786   0.477   2.706
 6344TIP3    H218997   6.669   0.500   2.799
 6345TIP3   OH218998   5.085   0.690   3.869
 6345TIP3    H118999   5.094   0.783   3.889
 6345TIP3    H219000   4.994   0.680   3.842
 6346TIP3   OH219001   6.547   5.157   3.158
 6346TIP3    H119002   6.465   5.203   3.142
 6346TIP3    H219003   6.558   5.100   3.082
 6347TIP3   OH219004   0.328   0.303   4.503
 6347TIP3    H119005   0.372   0.387   4.491
 6347TIP3    H219006   0.242   0.315   4.464
 6348TIP3   OH219007   0.386   3.291   2.859
 6348TIP3    H119008   0.444   3.367   2.863
 6348TIP3    H219009   0.331   3.306   2.782
 6349TIP3   OH219010   6.489   6.700   3.641
 6349TIP3    H119011   6.494   6.616   3.596
 6349TIP3    H219012   6.547   6.758   3.591
 6350TIP3   OH219013   6.529   3.289   0.461
 6350TIP3    H119014   6.518   3.374   0.420
 6350TIP3    H219015   6.465   3.233   0.418
 6351TIP3   OH219016   1.883   5.228   1.995
 6351TIP3    H119017   1.871   5.261   2.084
 6351TIP3    H219018   1.851   5.138   1.998
 6352TIP3   OH219019   4.184   1.819   1.959
 6352TIP3    H119020   4.256   1.866   1.916
 6352TIP3    H219021   4.107   1.841   1.907
 6353TIP3   OH219022   4.092   2.735   1.893
 6353TIP3    H119023   4.106   2.802   1.960
 6353TIP3    H219024   4.133   2.771   1.814
 6354TIP3   OH219025   3.787   2.086   5.671
 6354TIP3    H119026   3.804   2.133   5.753
 6354TIP3    H219027   3.717   2.136   5.630
 6355TIP3   OH219028   5.457   4.923   2.833
 6355TIP3    H119029   5.441   5.001   2.887
 6355TIP3    H219030   5.550   4.905   2.845
 6356TIP3   OH219031   0.295   6.267   2.818
 6356TIP3    H119032   0.325   6.177   2.821
 6356TIP3    H219033   0.249   6.274   2.734
 6357TIP3   OH219034   3.261   1.001   2.601
 6357TIP3    H119035   3.282   1.031   2.513
 6357TIP3    H219036   3.292   1.072   2.658
 6358TIP3   OH219037   3.438   4.147   3.006
 6358TIP3    H119038   3.529   4.119   3.003
 6358TIP3    H219039   3.425   4.196   2.925
 6359TIP3   OH219040   1.005   0.824   3.375
 6359TIP3    H119041   0.944   0.875   3.321
 6359TIP3    H219042   1.073   0.886   3.400
 6360TIP3   OH219043   6.744   2.830   3.082
 6360TIP3    H119044   6.735   2.912   3.034
 6360TIP3    H219045   6.683   2.770   3.039
 6361TIP3   OH219046   0.532   3.630   1.282
 6361TIP3    H119047   0.529   3.707   1.339
 6361TIP3    H219048   0.564   3.560   1.339
 6362TIP3   OH219049   0.463   0.703   5.219
 6362TIP3    H119050   0.434   0.612   5.210
 6362TIP3    H219051   0.468   0.736   5.129
 6363TIP3   OH219052   5.271   3.947   3.032
 6363TIP3    H119053   5.310   3.864   3.008
 6363TIP3    H219054   5.181   3.942   2.998
 6364TIP3   OH219055   4.219   3.044   1.294
 6364TIP3    H119056   4.305   3.007   1.315
 6364TIP3    H219057   4.158   2.971   1.306
 6365TIP3   OH219058   6.400   6.286   1.528
 6365TIP3    H119059   6.319   6.299   1.578
 6365TIP3    H219060   6.377   6.220   1.462
 6366TIP3   OH219061   6.178   0.058   5.499
 6366TIP3    H119062   6.089   0.050   5.464
 6366TIP3    H219063   6.196  -0.028   5.536
 6367TIP3   OH219064   7.088   5.538   3.960
 6367TIP3    H119065   7.178   5.514   3.937
 6367TIP3    H219066   7.036   5.509   3.885
 6368TIP3   OH219067   0.895   0.417   3.922
 6368TIP3    H119068   0.839   0.386   3.851
 6368TIP3    H219069   0.933   0.499   3.890
 6369TIP3   OH219070   1.418   3.680   3.523
 6369TIP3    H119071   1.352   3.748   3.525
 6369TIP3    H219072   1.494   3.719   3.567
 6370TIP3   OH219073   6.495   4.123   1.635
 6370TIP3    H119074   6.502   4.195   1.697
 6370TIP3    H219075   6.421   4.147   1.579
 6371TIP3   OH219076   6.450   3.002   0.312
 6371TIP3    H119077   6.521   2.958   0.360
 6371TIP3    H219078   6.477   2.997   0.220
 6372TIP3   OH219079   6.870   2.981   3.950
 6372TIP3    H119080   6.820   2.950   4.026
 6372TIP3    H219081   6.806   3.030   3.898
 6373TIP3   OH219082   2.771   2.811   0.256
 6373TIP3    H119083   2.796   2.719   0.267
 6373TIP3    H219084   2.778   2.826   0.161
 6374TIP3   OH219085   7.129   1.692   4.013
 6374TIP3    H119086   7.051   1.739   3.983
 6374TIP3    H219087   7.095   1.617   4.063
 6375TIP3   OH219088   0.258   3.578   2.830
 6375TIP3    H119089   0.195   3.515   2.864
 6375TIP3    H219090   0.304   3.530   2.761
 6376TIP3   OH219091   5.833   2.778   4.441
 6376TIP3    H119092   5.826   2.731   4.525
 6376TIP3    H219093   5.743   2.805   4.422
 6377TIP3   OH219094   3.992   2.152   1.690
 6377TIP3    H119095   4.082   2.180   1.704
 6377TIP3    H219096   3.984   2.142   1.595
 6378TIP3   OH219097   5.140   0.316   1.803
 6378TIP3    H119098   5.068   0.260   1.831
 6378TIP3    H219099   5.163   0.283   1.716
 6379TIP3   OH219100   4.851   5.241   1.384
 6379TIP3    H119101   4.939   5.276   1.399
 6379TIP3    H219102   4.848   5.222   1.291
 6380TIP3   OH219103   0.635   0.403   2.424
 6380TIP3    H119104   0.722   0.384   2.388
 6380TIP3    H219105   0.640   0.495   2.448
 6381TIP3   OH219106   6.704   5.706   2.472
 6381TIP3    H119107   6.734   5.679   2.558
 6381TIP3    H219108   6.783   5.738   2.428
 6382TIP3   OH219109   5.796   5.950   3.062
 6382TIP3    H119110   5.773   6.042   3.073
 6382TIP3    H219111   5.717   5.902   3.086
 6383TIP3   OH219112   6.766   0.780   4.467
 6383TIP3    H119113   6.812   0.742   4.542
 6383TIP3    H219114   6.715   0.851   4.504
 6384TIP3   OH219115   0.988   2.734   2.790
 6384TIP3    H119116   0.983   2.660   2.731
 6384TIP3    H219117   1.067   2.719   2.841
 6385TIP3   OH219118   4.560   0.441   3.739
 6385TIP3    H119119   4.515   0.365   3.777
 6385TIP3    H219120   4.523   0.516   3.785
 6386TIP3   OH219121   5.276   5.367   0.138
 6386TIP3    H119122   5.293   5.277   0.108
 6386TIP3    H219123   5.253   5.414   0.058
 6387TIP3   OH219124   5.243   6.056   1.815
 6387TIP3    H119125   5.148   6.061   1.810
 6387TIP3    H219126   5.263   5.963   1.824
 6388TIP3   OH219127   5.008   1.851   2.895
 6388TIP3    H119128   4.998   1.757   2.878
 6388TIP3    H219129   5.101   1.868   2.881
 6389TIP3   OH219130   7.116   4.307   4.196
 6389TIP3    H119131   7.172   4.274   4.125
 6389TIP3    H219132   7.027   4.287   4.167
 6390TIP3   OH219133   2.376   4.840   0.584
 6390TIP3    H119134   2.390   4.855   0.677
 6390TIP3    H219135   2.455   4.794   0.555
 6391TIP3   OH219136   2.864   2.057   2.670
 6391TIP3    H119137   2.862   1.973   2.716
 6391TIP3    H219138   2.811   2.116   2.723
 6392TIP3   OH219139   4.275   2.043   4.686
 6392TIP3    H119140   4.218   2.069   4.613
 6392TIP3    H219141   4.272   1.947   4.686
 6393TIP3   OH219142   3.312   5.890   3.852
 6393TIP3    H119143   3.308   5.795   3.862
 6393TIP3    H219144   3.279   5.905   3.763
 6394TIP3   OH219145   1.473   5.714   1.060
 6394TIP3    H119146   1.488   5.799   1.102
 6394TIP3    H219147   1.538   5.711   0.989
 6395TIP3   OH219148   2.180   3.817   4.361
 6395TIP3    H119149   2.220   3.738   4.399
 6395TIP3    H219150   2.253   3.861   4.317
 6396TIP3   OH219151   7.016   3.617   3.158
 6396TIP3    H119152   6.987   3.657   3.240
 6396TIP3    H219153   6.996   3.524   3.168
 6397TIP3   OH219154   2.082   4.963   1.272
 6397TIP3    H119155   2.132   4.994   1.348
 6397TIP3    H219156   2.138   4.897   1.231
 6398TIP3   OH219157   4.849   1.979   4.393
 6398TIP3    H119158   4.942   1.970   4.375
 6398TIP3    H219159   4.831   2.072   4.383
 6399TIP3   OH219160   4.024   0.386   2.614
 6399TIP3    H119161   4.023   0.466   2.561
 6399TIP3    H219162   4.081   0.326   2.566
 6400TIP3   OH219163   0.130   0.457   1.489
 6400TIP3    H119164   0.043   0.448   1.452
 6400TIP3    H219165   0.117   0.445   1.583
 6401TIP3   OH219166   3.551   2.553   4.885
 6401TIP3    H119167   3.546   2.647   4.868
 6401TIP3    H219168   3.503   2.513   4.813
 6402TIP3   OH219169   0.553   4.913   1.033
 6402TIP3    H119170   0.552   5.007   1.018
 6402TIP3    H219171   0.581   4.903   1.124
 6403TIP3   OH219172   5.163   4.001   2.187
 6403TIP3    H119173   5.096   3.989   2.121
 6403TIP3    H219174   5.182   3.913   2.219
 6404TIP3   OH219175   6.795   2.086   2.465
 6404TIP3    H119176   6.855   2.128   2.404
 6404TIP3    H219177   6.770   2.156   2.526
 6405TIP3   OH219178   0.883   6.607   4.192
 6405TIP3    H119179   0.813   6.673   4.193
 6405TIP3    H219180   0.837   6.524   4.188
 6406TIP3   OH219181   1.677   1.037   4.145
 6406TIP3    H119182   1.697   1.031   4.238
 6406TIP3    H219183   1.693   1.129   4.122
 6407TIP3   OH219184   4.456   3.207   3.721
 6407TIP3    H119185   4.408   3.287   3.700
 6407TIP3    H219186   4.464   3.161   3.637
 6408TIP3   OH219187   4.523   0.684   0.660
 6408TIP3    H119188   4.486   0.742   0.593
 6408TIP3    H219189   4.567   0.744   0.721
 6409TIP3   OH219190   2.789   0.852   0.206
 6409TIP3    H119191   2.708   0.880   0.164
 6409TIP3    H219192   2.769   0.853   0.299
 6410TIP3   OH219193   4.036   2.134   3.259
 6410TIP3    H119194   3.993   2.186   3.191
 6410TIP3    H219195   4.050   2.196   3.331
 6411TIP3   OH219196   0.605   0.726   3.679
 6411TIP3    H119197   0.660   0.685   3.611
 6411TIP3    H219198   0.623   0.676   3.758
 6412TIP3   OH219199   7.092   6.312   2.838
 6412TIP3    H119200   7.135   6.371   2.901
 6412TIP3    H219201   7.162   6.283   2.780
 6413TIP3   OH219202   3.308   2.931   1.367
 6413TIP3    H119203   3.363   2.960   1.441
 6413TIP3    H219204   3.370   2.889   1.307
 6414TIP3   OH219205   5.981   5.355   3.181
 6414TIP3    H119206   5.952   5.430   3.128
 6414TIP3    H219207   5.901   5.318   3.218
 6415TIP3   OH219208   3.708   2.272   2.864
 6415TIP3    H119209   3.736   2.324   2.789
 6415TIP3    H219210   3.612   2.280   2.865
 6416TIP3   OH219211   6.490   3.176   0.063
 6416TIP3    H119212   6.533   3.247   0.016
 6416TIP3    H219213   6.552   3.104   0.060
 6417TIP3   OH219214   2.092   1.501   4.042
 6417TIP3    H119215   2.162   1.480   4.103
 6417TIP3    H219216   2.115   1.453   3.962
 6418TIP3   OH219217   2.075   1.057   0.527
 6418TIP3    H119218   1.984   1.085   0.528
 6418TIP3    H219219   2.119   1.119   0.469
 6419TIP3   OH219220   5.095   5.476   0.308
 6419TIP3    H119221   5.068   5.555   0.260
 6419TIP3    H219222   5.148   5.427   0.245
 6420TIP3   OH219223   2.009   3.258   0.889
 6420TIP3    H119224   2.057   3.187   0.846
 6420TIP3    H219225   1.922   3.221   0.907
 6421TIP3   OH219226   2.141   0.162   2.259
 6421TIP3    H119227   2.057   0.179   2.216
 6421TIP3    H219228   2.196   0.236   2.235
 6422TIP3   OH219229   4.624   6.445   2.727
 6422TIP3    H119230   4.547   6.463   2.674
 6422TIP3    H219231   4.608   6.489   2.810
 6423TIP3   OH219232   5.622   3.974   0.773
 6423TIP3    H119233   5.540   3.969   0.822
 6423TIP3    H219234   5.659   3.886   0.778
 6424TIP3   OH219235  -0.050   2.273   5.488
 6424TIP3    H119236  -0.036   2.254   5.581
 6424TIP3    H219237  -0.076   2.189   5.451
 6425TIP3   OH219238   3.434   2.437   5.133
 6425TIP3    H119239   3.407   2.522   5.170
 6425TIP3    H219240   3.468   2.459   5.046
 6426TIP3   OH219241   2.390   3.602   5.529
 6426TIP3    H119242   2.351   3.519   5.558
 6426TIP3    H219243   2.404   3.651   5.611
 6427TIP3   OH219244   5.533   1.312   3.844
 6427TIP3    H119245   5.455   1.329   3.898
 6427TIP3    H219246   5.585   1.251   3.896
 6428TIP3   OH219247   3.132   3.365   1.421
 6428TIP3    H119248   3.107   3.450   1.385
 6428TIP3    H219249   3.221   3.351   1.389
 6429TIP3   OH219250   2.806   3.618   2.802
 6429TIP3    H119251   2.788   3.619   2.708
 6429TIP3    H219252   2.865   3.543   2.814
 6430TIP3   OH219253   6.350   0.773   3.365
 6430TIP3    H119254   6.278   0.753   3.427
 6430TIP3    H219255   6.372   0.688   3.328
 6431TIP3   OH219256   6.750   0.043   3.192
 6431TIP3    H119257   6.749  -0.048   3.223
 6431TIP3    H219258   6.678   0.085   3.239
 6432TIP3   OH219259   5.903   2.222   5.311
 6432TIP3    H119260   5.912   2.160   5.240
 6432TIP3    H219261   5.951   2.300   5.281
 6433TIP3   OH219262   3.005   1.829   1.205
 6433TIP3    H119263   3.061   1.759   1.239
 6433TIP3    H219264   3.039   1.846   1.117
 6434TIP3   OH219265   6.415   0.706   0.263
 6434TIP3    H119266   6.505   0.703   0.231
 6434TIP3    H219267   6.363   0.668   0.193
 6435TIP3   OH219268   2.646   2.584   1.681
 6435TIP3    H119269   2.722   2.595   1.623
 6435TIP3    H219270   2.679   2.530   1.753
 6436TIP3   OH219271   4.530   0.113   4.113
 6436TIP3    H119272   4.594   0.184   4.125
 6436TIP3    H219273   4.486   0.134   4.031
 6437TIP3   OH219274   6.969   3.500   0.239
 6437TIP3    H119275   6.984   3.444   0.316
 6437TIP3    H219276   7.056   3.527   0.212
 6438TIP3   OH219277   6.675   4.385   0.960
 6438TIP3    H119278   6.684   4.297   0.996
 6438TIP3    H219279   6.590   4.385   0.916
 6439TIP3   OH219280   1.219   1.441   5.645
 6439TIP3    H119281   1.164   1.366   5.625
 6439TIP3    H219282   1.214   1.497   5.567
 6440TIP3   OH219283   3.247   2.109   1.669
 6440TIP3    H119284   3.154   2.111   1.648
 6440TIP3    H219285   3.259   2.029   1.720
 6441TIP3   OH219286   6.841   0.203   5.510
 6441TIP3    H119287   6.930   0.167   5.501
 6441TIP3    H219288   6.851   0.278   5.569
 6442TIP3   OH219289   1.333   3.254   0.331
 6442TIP3    H119290   1.398   3.309   0.288
 6442TIP3    H219291   1.259   3.251   0.270
 6443TIP3   OH219292   0.459   4.571   2.495
 6443TIP3    H119293   0.464   4.639   2.563
 6443TIP3    H219294   0.485   4.491   2.540
 6444TIP3   OH219295   5.847   3.604   3.165
 6444TIP3    H119296   5.935   3.566   3.176
 6444TIP3    H219297   5.837   3.615   3.070
 6445TIP3   OH219298   2.283   3.207   0.485
 6445TIP3    H119299   2.365   3.162   0.506
 6445TIP3    H219300   2.245   3.155   0.414
 6446TIP3   OH219301   6.308   2.399   0.398
 6446TIP3    H119302   6.243   2.363   0.458
 6446TIP3    H219303   6.389   2.353   0.419
 6447TIP3   OH219304   4.167   5.527   5.163
 6447TIP3    H119305   4.077   5.522   5.132
 6447TIP3    H219306   4.210   5.452   5.123
 6448TIP3   OH219307   5.514   1.291   5.184
 6448TIP3    H119308   5.495   1.206   5.223
 6448TIP3    H219309   5.574   1.333   5.245
 6449TIP3   OH219310   1.148   0.020   5.475
 6449TIP3    H119311   1.098  -0.061   5.487
 6449TIP3    H219312   1.158   0.028   5.380
 6450TIP3   OH219313   1.288   2.499   1.693
 6450TIP3    H119314   1.325   2.424   1.739
 6450TIP3    H219315   1.229   2.460   1.628
 6451TIP3   OH219316   2.037   6.047   0.473
 6451TIP3    H119317   1.987   6.112   0.523
 6451TIP3    H219318   2.099   6.099   0.422
 6452TIP3   OH219319   1.859   6.449   4.603
 6452TIP3    H119320   1.798   6.454   4.677
 6452TIP3    H219321   1.802   6.443   4.526
 6453TIP3   OH219322   2.007   5.901   1.572
 6453TIP3    H119323   2.037   5.814   1.597
 6453TIP3    H219324   2.023   5.956   1.649
 6454TIP3   OH219325   5.536   3.197   2.632
 6454TIP3    H119326   5.483   3.211   2.553
 6454TIP3    H219327   5.572   3.283   2.653
 6455TIP3   OH219328   6.223   5.707   1.313
 6455TIP3    H119329   6.248   5.794   1.282
 6455TIP3    H219330   6.305   5.659   1.320
 6456TIP3   OH219331   4.010   0.072   1.412
 6456TIP3    H119332   4.097   0.090   1.446
 6456TIP3    H219333   3.964   0.029   1.484
 6457TIP3   OH219334   1.035   5.956   3.742
 6457TIP3    H119335   0.970   5.901   3.786
 6457TIP3    H219336   1.065   6.016   3.810
 6458TIP3   OH219337   1.964   0.244   1.615
 6458TIP3    H119338   2.014   0.176   1.661
 6458TIP3    H219339   1.910   0.284   1.683
 6459TIP3   OH219340   4.265   4.389   2.672
 6459TIP3    H119341   4.261   4.326   2.600
 6459TIP3    H219342   4.307   4.466   2.634
 6460TIP3   OH219343   5.705   2.731   3.850
 6460TIP3    H119344   5.667   2.747   3.764
 6460TIP3    H219345   5.754   2.649   3.840
 6461TIP3   OH219346   2.796   5.072   0.133
 6461TIP3    H119347   2.835   4.984   0.139
 6461TIP3    H219348   2.748   5.082   0.215
 6462TIP3   OH219349   2.198   3.941   1.339
 6462TIP3    H119350   2.200   3.891   1.420
 6462TIP3    H219351   2.192   3.875   1.270
 6463TIP3   OH219352   5.941   1.921   4.300
 6463TIP3    H119353   5.868   1.958   4.349
 6463TIP3    H219354   6.019   1.940   4.353
 6464TIP3   OH219355   3.601   2.295   0.385
 6464TIP3    H119356   3.512   2.302   0.351
 6464TIP3    H219357   3.592   2.256   0.471
 6465TIP3   OH219358   6.713   6.739   2.854
 6465TIP3    H119359   6.621   6.716   2.856
 6465TIP3    H219360   6.715   6.832   2.879
 6466TIP3   OH219361   0.843   3.152   1.508
 6466TIP3    H119362   0.878   3.234   1.544
 6466TIP3    H219363   0.921   3.104   1.480
 6467TIP3   OH219364   5.737   3.981   4.683
 6467TIP3    H119365   5.776   3.966   4.769
 6467TIP3    H219366   5.654   3.934   4.685
 6468TIP3   OH219367   4.716   0.888   4.091
 6468TIP3    H119368   4.682   0.936   4.166
 6468TIP3    H219369   4.782   0.946   4.054
 6469TIP3   OH219370   6.403   5.924   2.401
 6469TIP3    H119371   6.331   5.957   2.456
 6469TIP3    H219372   6.480   5.927   2.458
 6470TIP3   OH219373   5.856   0.492   2.507
 6470TIP3    H119374   5.930   0.513   2.563
 6470TIP3    H219375   5.853   0.396   2.504
 6471TIP3   OH219376   6.517   2.280   5.507
 6471TIP3    H119377   6.577   2.206   5.494
 6471TIP3    H219378   6.574   2.356   5.513
 6472TIP3   OH219379   3.524   0.136   2.080
 6472TIP3    H119380   3.482   0.052   2.096
 6472TIP3    H219381   3.454   0.201   2.093
 6473TIP3   OH219382   4.983   2.238   1.604
 6473TIP3    H119383   4.970   2.146   1.626
 6473TIP3    H219384   4.909   2.261   1.549
 6474TIP3   OH219385   1.153   3.782   3.044
 6474TIP3    H119386   1.200   3.731   2.978
 6474TIP3    H219387   1.216   3.793   3.115
 6475TIP3   OH219388   2.757   6.131   1.158
 6475TIP3    H119389   2.671   6.089   1.162
 6475TIP3    H219390   2.779   6.132   1.065
 6476TIP3   OH219391   0.899   0.599   0.347
 6476TIP3    H119392   0.827   0.623   0.289
 6476TIP3    H219393   0.948   0.680   0.360
 6477TIP3   OH219394   5.487   1.748   1.123
 6477TIP3    H119395   5.548   1.675   1.134
 6477TIP3    H219396   5.452   1.763   1.211
 6478TIP3   OH219397   0.727   3.446   0.789
 6478TIP3    H119398   0.774   3.465   0.869
 6478TIP3    H219399   0.634   3.449   0.813
 6479TIP3   OH219400   7.158   1.937   5.658
 6479TIP3    H119401   7.246   1.940   5.623
 6479TIP3    H219402   7.169   1.949   5.752
 6480TIP3   OH219403   0.761   1.701   0.399
 6480TIP3    H119404   0.755   1.606   0.398
 6480TIP3    H219405   0.853   1.720   0.382
 6481TIP3   OH219406   5.958   5.352   3.955
 6481TIP3    H119407   5.912   5.270   3.974
 6481TIP3    H219408   6.032   5.325   3.899
 6482TIP3   OH219409   4.196   2.328   2.536
 6482TIP3    H119410   4.204   2.423   2.541
 6482TIP3    H219411   4.217   2.298   2.624
 6483TIP3   OH219412   4.522   1.855   4.068
 6483TIP3    H119413   4.496   1.866   3.976
 6483TIP3    H219414   4.565   1.938   4.091
 6484TIP3   OH219415   2.985   0.035   3.559
 6484TIP3    H119416   2.974   0.008   3.651
 6484TIP3    H219417   2.923  -0.020   3.511
 6485TIP3   OH219418   1.708   1.438   3.909
 6485TIP3    H119419   1.781   1.376   3.903
 6485TIP3    H219420   1.745   1.521   3.877
 6486TIP3   OH219421   1.448   0.075   3.625
 6486TIP3    H119422   1.518   0.010   3.623
 6486TIP3    H219423   1.475   0.138   3.691
 6487TIP3   OH219424   3.615   1.624   5.351
 6487TIP3    H119425   3.586   1.625   5.442
 6487TIP3    H219426   3.666   1.705   5.342
 6488TIP3   OH219427   0.395   6.345   0.341
 6488TIP3    H119428   0.409   6.260   0.383
 6488TIP3    H219429   0.464   6.350   0.275
 6489TIP3   OH219430   4.459   6.356   3.811
 6489TIP3    H119431   4.433   6.381   3.899
 6489TIP3    H219432   4.521   6.284   3.824
 6490TIP3   OH219433   5.835   6.775   3.053
 6490TIP3    H119434   5.891   6.741   3.122
 6490TIP3    H219435   5.887   6.765   2.973
 6491TIP3   OH219436   2.118   6.624   2.798
 6491TIP3    H119437   2.110   6.671   2.881
 6491TIP3    H219438   2.028   6.621   2.763
 6492TIP3   OH219439   6.588   5.555   5.182
 6492TIP3    H119440   6.590   5.574   5.276
 6492TIP3    H219441   6.498   5.527   5.165
 6493TIP3   OH219442   4.635   1.495   1.361
 6493TIP3    H119443   4.600   1.499   1.272
 6493TIP3    H219444   4.727   1.520   1.352
 6494TIP3   OH219445   3.976   6.541   2.791
 6494TIP3    H119446   4.060   6.497   2.781
 6494TIP3    H219447   3.953   6.529   2.883
 6495TIP3   OH219448   6.308   2.439   3.354
 6495TIP3    H119449   6.372   2.487   3.301
 6495TIP3    H219450   6.233   2.499   3.361
 6496TIP3   OH219451   1.084   4.466   3.779
 6496TIP3    H119452   1.176   4.482   3.801
 6496TIP3    H219453   1.049   4.419   3.855
 6497TIP3   OH219454   0.175   2.229   3.712
 6497TIP3    H119455   0.218   2.315   3.721
 6497TIP3    H219456   0.247   2.166   3.715
 6498TIP3   OH219457   0.883   5.198   1.841
 6498TIP3    H119458   0.966   5.246   1.837
 6498TIP3    H219459   0.895   5.124   1.781
 6499TIP3   OH219460   4.301   6.735   5.072
 6499TIP3    H119461   4.327   6.819   5.035
 6499TIP3    H219462   4.205   6.738   5.073
 6500TIP3   OH219463   5.321   0.028   5.361
 6500TIP3    H119464   5.353  -0.062   5.370
 6500TIP3    H219465   5.393   0.075   5.318
 6501TIP3   OH219466   4.880   6.110   5.049
 6501TIP3    H119467   4.834   6.028   5.030
 6501TIP3    H219468   4.881   6.114   5.145
 6502TIP3   OH219469   6.499   3.890   4.288
 6502TIP3    H119470   6.469   3.800   4.305
 6502TIP3    H219471   6.436   3.945   4.334
 6503TIP3   OH219472   4.266   2.260   1.775
 6503TIP3    H119473   4.334   2.271   1.709
 6503TIP3    H219474   4.263   2.344   1.821
 6504TIP3   OH219475   3.379   0.655   3.070
 6504TIP3    H119476   3.371   0.738   3.023
 6504TIP3    H219477   3.419   0.595   3.006
 6505TIP3   OH219478   2.690   1.862   1.111
 6505TIP3    H119479   2.681   1.881   1.017
 6505TIP3    H219480   2.752   1.789   1.114
 6506TIP3   OH219481   2.990   6.522   1.865
 6506TIP3    H119482   3.075   6.502   1.904
 6506TIP3    H219483   2.929   6.463   1.909
 6507TIP3   OH219484   3.221   2.648   1.972
 6507TIP3    H119485   3.282   2.715   1.941
 6507TIP3    H219486   3.142   2.661   1.919
 6508TIP3   OH219487   6.446   1.321   4.958
 6508TIP3    H119488   6.526   1.271   4.942
 6508TIP3    H219489   6.476   1.408   4.983
 6509TIP3   OH219490   6.245   5.327   3.449
 6509TIP3    H119491   6.178   5.390   3.472
 6509TIP3    H219492   6.327   5.366   3.477
 6510TIP3   OH219493   2.741   3.593   1.307
 6510TIP3    H119494   2.652   3.578   1.276
 6510TIP3    H219495   2.758   3.521   1.367
 6511TIP3   OH219496   3.095   3.912   5.723
 6511TIP3    H119497   3.096   3.902   5.628
 6511TIP3    H219498   3.129   3.830   5.757
 6512TIP3   OH219499   5.039   3.129   3.963
 6512TIP3    H119500   5.100   3.132   3.889
 6512TIP3    H219501   4.996   3.215   3.962
 6513TIP3   OH219502   0.125   6.303   3.777
 6513TIP3    H119503   0.195   6.244   3.749
 6513TIP3    H219504   0.115   6.286   3.870
 6514TIP3   OH219505   2.661   2.959   5.789
 6514TIP3    H119506   2.718   2.936   5.862
 6514TIP3    H219507   2.595   3.018   5.826
 6515TIP3   OH219508   0.010   4.026   3.367
 6515TIP3    H119509   0.005   4.003   3.274
 6515TIP3    H219510   0.103   4.019   3.389
 6516TIP3   OH219511   4.681   4.254   5.722
 6516TIP3    H119512   4.640   4.213   5.798
 6516TIP3    H219513   4.683   4.348   5.744
 6517TIP3   OH219514   4.727   3.885   5.035
 6517TIP3    H119515   4.791   3.821   5.002
 6517TIP3    H219516   4.774   3.931   5.105
 6518TIP3   OH219517   4.240   1.716   1.108
 6518TIP3    H119518   4.292   1.748   1.181
 6518TIP3    H219519   4.303   1.700   1.038
 6519TIP3   OH219520   1.094   0.516   1.459
 6519TIP3    H119521   1.170   0.552   1.505
 6519TIP3    H219522   1.119   0.426   1.439
 6520TIP3   OH219523   6.500   0.974   3.186
 6520TIP3    H119524   6.434   1.034   3.152
 6520TIP3    H219525   6.453   0.920   3.250
 6521TIP3   OH219526   5.161   0.654   3.251
 6521TIP3    H119527   5.202   0.688   3.171
 6521TIP3    H219528   5.099   0.588   3.219
 6522TIP3   OH219529   0.662   5.177   4.771
 6522TIP3    H119530   0.737   5.179   4.831
 6522TIP3    H219531   0.635   5.085   4.770
 6523TIP3   OH219532   2.242   0.109   5.843
 6523TIP3    H119533   2.266   0.104   5.750
 6523TIP3    H219534   2.326   0.106   5.889
 6524TIP3   OH219535  -0.029   4.961   4.144
 6524TIP3    H119536   0.028   4.989   4.072
 6524TIP3    H219537   0.028   4.905   4.198
 6525TIP3   OH219538   0.094   3.680   3.138
 6525TIP3    H119539   0.137   3.692   3.053
 6525TIP3    H219540   0.026   3.746   3.140
 6526TIP3   OH219541   6.970   0.510   3.902
 6526TIP3    H119542   6.901   0.564   3.941
 6526TIP3    H219543   6.974   0.538   3.811
 6527TIP3   OH219544   4.957   5.850   5.767
 6527TIP3    H119545   4.866   5.850   5.737
 6527TIP3    H219546   5.007   5.829   5.689
 6528TIP3   OH219547   2.031   6.182   5.175
 6528TIP3    H119548   1.994   6.103   5.214
 6528TIP3    H219549   2.055   6.156   5.086
 6529TIP3   OH219550   2.035   4.578   4.133
 6529TIP3    H119551   1.965   4.513   4.129
 6529TIP3    H219552   2.035   4.620   4.047
 6530TIP3   OH219553   6.307   6.106   4.493
 6530TIP3    H119554   6.370   6.174   4.517
 6530TIP3    H219555   6.334   6.030   4.545
 6531TIP3   OH219556   0.844   4.153   2.848
 6531TIP3    H119557   0.878   4.072   2.887
 6531TIP3    H219558   0.912   4.180   2.786
 6532TIP3   OH219559   1.279   0.784   1.281
 6532TIP3    H119560   1.253   0.822   1.365
 6532TIP3    H219561   1.364   0.824   1.263
 6533TIP3   OH219562   7.117   3.795   1.143
 6533TIP3    H119563   7.041   3.842   1.107
 6533TIP3    H219564   7.171   3.864   1.181
 6534TIP3   OH219565   0.551   1.069   5.116
 6534TIP3    H119566   0.546   1.016   5.036
 6534TIP3    H219567   0.463   1.104   5.127
 6535TIP3   OH219568   3.356   3.043   2.501
 6535TIP3    H119569   3.371   3.007   2.588
 6535TIP3    H219570   3.299   3.119   2.515
 6536TIP3   OH219571   5.417   3.445   1.268
 6536TIP3    H119572   5.407   3.530   1.312
 6536TIP3    H219573   5.364   3.385   1.320
 6537TIP3   OH219574   4.959   1.701   3.575
 6537TIP3    H119575   4.889   1.638   3.556
 6537TIP3    H219576   4.986   1.680   3.665
 6538TIP3   OH219577   7.170   0.993   1.343
 6538TIP3    H119578   7.140   1.042   1.266
 6538TIP3    H219579   7.237   0.934   1.309
 6539TIP3   OH219580   5.775   2.096   0.174
 6539TIP3    H119581   5.845   2.111   0.110
 6539TIP3    H219582   5.794   2.157   0.245
 6540TIP3   OH219583   4.812   0.567   3.734
 6540TIP3    H119584   4.737   0.511   3.751
 6540TIP3    H219585   4.775   0.646   3.694
 6541TIP3   OH219586   0.399   6.730   2.606
 6541TIP3    H119587   0.365   6.691   2.687
 6541TIP3    H219588   0.466   6.668   2.577
 6542TIP3   OH219589   2.399   2.554   1.880
 6542TIP3    H119590   2.476   2.497   1.887
 6542TIP3    H219591   2.396   2.600   1.964
 6543TIP3   OH219592   3.185   2.766   2.622
 6543TIP3    H119593   3.144   2.852   2.620
 6543TIP3    H219594   3.234   2.760   2.540
 6544TIP3   OH219595   1.236   2.671   5.239
 6544TIP3    H119596   1.182   2.595   5.261
 6544TIP3    H219597   1.176   2.745   5.241
 6545TIP3   OH219598   7.012   3.274   3.054
 6545TIP3    H119599   7.092   3.308   3.095
 6545TIP3    H219600   7.025   3.289   2.960
 6546TIP3   OH219601   6.226   4.076   1.866
 6546TIP3    H119602   6.193   4.037   1.785
 6546TIP3    H219603   6.317   4.047   1.871
 6547TIP3   OH219604   3.733   3.886   5.568
 6547TIP3    H119605   3.737   3.919   5.657
 6547TIP3    H219606   3.784   3.949   5.517
 6548TIP3   OH219607   1.031   3.823   2.123
 6548TIP3    H119608   1.018   3.783   2.037
 6548TIP3    H219609   1.008   3.753   2.185
 6549TIP3   OH219610   2.890   3.626  -0.030
 6549TIP3    H119611   2.881   3.573   0.049
 6549TIP3    H219612   2.906   3.714   0.003
 6550TIP3   OH219613   3.727   3.645   4.140
 6550TIP3    H119614   3.749   3.733   4.171
 6550TIP3    H219615   3.812   3.603   4.124
 6551TIP3   OH219616   1.857   0.355   1.395
 6551TIP3    H119617   1.884   0.285   1.336
 6551TIP3    H219618   1.895   0.331   1.479
 6552TIP3   OH219619   0.155   1.216   2.201
 6552TIP3    H119620   0.197   1.188   2.119
 6552TIP3    H219621   0.144   1.311   2.191
 6553TIP3   OH219622   4.925   2.402   5.804
 6553TIP3    H119623   4.985   2.364   5.867
 6553TIP3    H219624   4.843   2.411   5.852
 6554TIP3   OH219625   5.195   0.007   0.184
 6554TIP3    H119626   5.160  -0.049   0.253
 6554TIP3    H219627   5.170   0.096   0.209
 6555TIP3   OH219628   5.177   4.747   1.481
 6555TIP3    H119629   5.090   4.720   1.509
 6555TIP3    H219630   5.218   4.668   1.448
 6556TIP3   OH219631   6.366   4.528   5.665
 6556TIP3    H119632   6.437   4.567   5.716
 6556TIP3    H219633   6.291   4.586   5.681
 6557TIP3   OH219634   0.705   6.225   4.509
 6557TIP3    H119635   0.717   6.202   4.416
 6557TIP3    H219636   0.776   6.179   4.554
 6558TIP3   OH219637   3.189   0.109   1.063
 6558TIP3    H119638   3.275   0.135   1.029
 6558TIP3    H219639   3.170   0.026   1.021
 6559TIP3   OH219640   1.940   3.138   4.563
 6559TIP3    H119641   1.900   3.051   4.553
 6559TIP3    H219642   2.016   3.123   4.620
 6560TIP3   OH219643   1.404   2.522   2.042
 6560TIP3    H119644   1.481   2.557   1.997
 6560TIP3    H219645   1.374   2.451   1.985
 6561TIP3   OH219646   1.403   6.620   1.985
 6561TIP3    H119647   1.487   6.637   1.942
 6561TIP3    H219648   1.409   6.528   2.013
 6562TIP3   OH219649   2.082   1.769   3.937
 6562TIP3    H119650   2.151   1.758   3.871
 6562TIP3    H219651   2.072   1.681   3.975
 6563TIP3   OH219652   6.473   3.743   0.635
 6563TIP3    H119653   6.378   3.758   0.631
 6563TIP3    H219654   6.511   3.825   0.602
 6564TIP3   OH219655   5.440   3.699   5.375
 6564TIP3    H119656   5.388   3.619   5.362
 6564TIP3    H219657   5.498   3.678   5.449
 6565TIP3   OH219658   1.624   6.505   0.408
 6565TIP3    H119659   1.596   6.483   0.497
 6565TIP3    H219660   1.543   6.531   0.364
 6566TIP3   OH219661   2.659   2.048   5.112
 6566TIP3    H119662   2.644   2.142   5.122
 6566TIP3    H219663   2.710   2.024   5.189
 6567TIP3   OH219664   7.084   0.312   1.188
 6567TIP3    H119665   7.081   0.367   1.266
 6567TIP3    H219666   7.007   0.256   1.196
 6568TIP3   OH219667   3.137   1.609   1.505
 6568TIP3    H119668   3.156   1.518   1.482
 6568TIP3    H219669   3.221   1.645   1.534
 6569TIP3   OH219670   4.178   1.403   3.048
 6569TIP3    H119671   4.128   1.470   3.095
 6569TIP3    H219672   4.213   1.347   3.116
 6570TIP3   OH219673   3.677   6.531   0.974
 6570TIP3    H119674   3.683   6.468   1.046
 6570TIP3    H219675   3.717   6.611   1.009
 6571TIP3   OH219676   0.902   6.400   4.931
 6571TIP3    H119677   0.882   6.408   4.838
 6571TIP3    H219678   0.832   6.346   4.967
 6572TIP3   OH219679   1.304   4.755   2.801
 6572TIP3    H119680   1.293   4.766   2.706
 6572TIP3    H219681   1.225   4.794   2.839
 6573TIP3   OH219682   2.820   6.349   2.014
 6573TIP3    H119683   2.854   6.269   2.054
 6573TIP3    H219684   2.756   6.382   2.077
 6574TIP3   OH219685   6.879   1.762   3.986
 6574TIP3    H119686   6.840   1.785   4.070
 6574TIP3    H219687   6.847   1.829   3.925
 6575TIP3   OH219688   3.869   0.969   0.797
 6575TIP3    H119689   3.810   0.972   0.722
 6575TIP3    H219690   3.861   1.054   0.838
 6576TIP3   OH219691   3.265   1.751   2.393
 6576TIP3    H119692   3.326   1.739   2.466
 6576TIP3    H219693   3.316   1.732   2.315
 6577TIP3   OH219694   2.408   2.164   3.863
 6577TIP3    H119695   2.325   2.197   3.829
 6577TIP3    H219696   2.446   2.239   3.909
 6578TIP3   OH219697   2.146   5.448   5.502
 6578TIP3    H119698   2.215   5.458   5.437
 6578TIP3    H219699   2.135   5.353   5.510
 6579TIP3   OH219700   2.786   1.166   0.385
 6579TIP3    H119701   2.874   1.145   0.353
 6579TIP3    H219702   2.779   1.120   0.468
 6580TIP3   OH219703   2.233   2.322   0.703
 6580TIP3    H119704   2.245   2.294   0.613
 6580TIP3    H219705   2.231   2.418   0.699
 6581TIP3   OH219706   3.147   6.733   1.800
 6581TIP3    H119707   3.082   6.668   1.825
 6581TIP3    H219708   3.141   6.737   1.704
 6582TIP3   OH219709   5.971   1.725   0.678
 6582TIP3    H119710   5.904   1.751   0.615
 6582TIP3    H219711   5.971   1.795   0.743
 6583TIP3   OH219712   4.537   6.512   4.543
 6583TIP3    H119713   4.468   6.561   4.588
 6583TIP3    H219714   4.549   6.433   4.595
 6584TIP3   OH219715   4.749   3.244   0.214
 6584TIP3    H119716   4.666   3.249   0.166
 6584TIP3    H219717   4.799   3.320   0.183
 6585TIP3   OH219718   4.604   0.342   3.085
 6585TIP3    H119719   4.545   0.404   3.042
 6585TIP3    H219720   4.545   0.287   3.138
 6586TIP3   OH219721   2.116   1.207   4.345
 6586TIP3    H119722   2.030   1.240   4.317
 6586TIP3    H219723   2.178   1.272   4.312
 6587TIP3   OH219724   2.014   6.032   0.102
 6587TIP3    H119725   2.070   6.022   0.025
 6587TIP3    H219726   1.965   6.112   0.087
 6588TIP3   OH219727   5.011   1.791   3.187
 6588TIP3    H119728   4.925   1.760   3.158
 6588TIP3    H219729   5.058   1.711   3.211
 6589TIP3   OH219730   3.999   2.842   3.013
 6589TIP3    H119731   4.026   2.919   3.063
 6589TIP3    H219732   4.072   2.781   3.023
 6590TIP3   OH219733   4.927   6.473   1.734
 6590TIP3    H119734   4.941   6.478   1.639
 6590TIP3    H219735   4.992   6.410   1.764
 6591TIP3   OH219736   4.557   0.597   5.586
 6591TIP3    H119737   4.612   0.518   5.579
 6591TIP3    H219738   4.539   0.621   5.495
 6592TIP3   OH219739   2.846   6.246   5.447
 6592TIP3    H119740   2.822   6.154   5.437
 6592TIP3    H219741   2.763   6.292   5.456
 6593TIP3   OH219742   4.294   4.002   0.975
 6593TIP3    H119743   4.344   4.083   0.985
 6593TIP3    H219744   4.336   3.957   0.901
 6594TIP3   OH219745   5.410   4.004   0.944
 6594TIP3    H119746   5.392   4.079   0.887
 6594TIP3    H219747   5.327   3.959   0.951
 6595TIP3   OH219748   0.021   3.771   0.009
 6595TIP3    H119749   0.011   3.683  -0.029
 6595TIP3    H219750   0.059   3.756   0.096
 6596TIP3   OH219751   4.736   1.118   1.888
 6596TIP3    H119752   4.825   1.108   1.854
 6596TIP3    H219753   4.709   1.030   1.912
 6597TIP3   OH219754   0.182   1.425   1.246
 6597TIP3    H119755   0.265   1.399   1.285
 6597TIP3    H219756   0.132   1.463   1.319
 6598TIP3   OH219757   6.473   0.607   3.928
 6598TIP3    H119758   6.538   0.676   3.913
 6598TIP3    H219759   6.417   0.609   3.851
 6599TIP3   OH219760   6.676   0.214   2.619
 6599TIP3    H119761   6.668   0.165   2.537
 6599TIP3    H219762   6.640   0.155   2.686
 6600TIP3   OH219763   0.290   0.517   5.443
 6600TIP3    H119764   0.224   0.585   5.459
 6600TIP3    H219765   0.314   0.486   5.531
 6601TIP3   OH219766   6.552   3.886   5.797
 6601TIP3    H119767   6.601   3.961   5.762
 6601TIP3    H219768   6.618   3.834   5.842
 6602TIP3   OH219769   6.076   5.489   2.509
 6602TIP3    H119770   6.104   5.536   2.430
 6602TIP3    H219771   6.129   5.527   2.579
 6603TIP3   OH219772   1.685   2.739   4.290
 6603TIP3    H119773   1.638   2.659   4.312
 6603TIP3    H219774   1.640   2.773   4.213
 6604TIP3   OH219775   5.425   4.165   4.100
 6604TIP3    H119776   5.488   4.098   4.128
 6604TIP3    H219777   5.478   4.239   4.072
 6605TIP3   OH219778   2.548   1.440   4.945
 6605TIP3    H119779   2.559   1.461   5.038
 6605TIP3    H219780   2.464   1.394   4.941
 6606TIP3   OH219781   4.595   2.296   5.066
 6606TIP3    H119782   4.605   2.311   4.972
 6606TIP3    H219783   4.509   2.332   5.087
 6607TIP3   OH219784   2.504   1.013   0.942
 6607TIP3    H119785   2.503   1.034   1.035
 6607TIP3    H219786   2.415   0.981   0.923
 6608TIP3   OH219787   1.750   3.251   1.845
 6608TIP3    H119788   1.738   3.169   1.893
 6608TIP3    H219789   1.692   3.313   1.888
 6609TIP3   OH219790   0.839   5.358   1.032
 6609TIP3    H119791   0.755   5.373   1.075
 6609TIP3    H219792   0.821   5.289   0.968
 6610TIP3   OH219793   0.841   0.975   3.967
 6610TIP3    H119794   0.892   1.056   3.974
 6610TIP3    H219795   0.905   0.909   3.940
 6611TIP3   OH219796   2.676   6.157   1.704
 6611TIP3    H119797   2.603   6.208   1.740
 6611TIP3    H219798   2.709   6.211   1.632
 6612TIP3   OH219799   3.016   1.700   3.211
 6612TIP3    H119800   2.943   1.740   3.163
 6612TIP3    H219801   3.007   1.606   3.193
 6613TIP3   OH219802   1.573   2.862   1.058
 6613TIP3    H119803   1.658   2.853   1.015
 6613TIP3    H219804   1.593   2.911   1.138
 6614TIP3   OH219805   4.833   6.110   4.502
 6614TIP3    H119806   4.900   6.085   4.439
 6614TIP3    H219807   4.882   6.129   4.582
 6615TIP3   OH219808   1.041   0.841   0.423
 6615TIP3    H119809   1.015   0.863   0.333
 6615TIP3    H219810   1.136   0.835   0.419
 6616TIP3   OH219811   6.932   0.193   3.734
 6616TIP3    H119812   6.944   0.124   3.800
 6616TIP3    H219813   7.003   0.255   3.750
 6617TIP3   OH219814   1.342   3.478   1.420
 6617TIP3    H119815   1.297   3.554   1.383
 6617TIP3    H219816   1.372   3.508   1.506
 6618TIP3   OH219817   3.959   1.324   5.689
 6618TIP3    H119818   3.982   1.392   5.752
 6618TIP3    H219819   3.926   1.372   5.613
 6619TIP3   OH219820   3.605   3.609   0.584
 6619TIP3    H119821   3.524   3.630   0.539
 6619TIP3    H219822   3.603   3.660   0.665
 6620TIP3   OH219823   5.930   0.341   1.732
 6620TIP3    H119824   5.974   0.262   1.762
 6620TIP3    H219825   5.993   0.384   1.674
 6621TIP3   OH219826   4.094   2.757   3.542
 6621TIP3    H119827   4.174   2.743   3.492
 6621TIP3    H219828   4.079   2.852   3.538
 6622TIP3   OH219829   4.942   2.379   3.776
 6622TIP3    H119830   4.867   2.320   3.783
 6622TIP3    H219831   5.010   2.326   3.733
 6623TIP3   OH219832   2.666   5.161   4.247
 6623TIP3    H119833   2.741   5.133   4.194
 6623TIP3    H219834   2.607   5.086   4.246
 6624TIP3   OH219835   2.943   3.995   0.696
 6624TIP3    H119836   3.016   4.024   0.751
 6624TIP3    H219837   2.974   3.914   0.656
 6625TIP3   OH219838   4.926   1.467   1.663
 6625TIP3    H119839   4.882   1.398   1.612
 6625TIP3    H219840   5.018   1.442   1.662
 6626TIP3   OH219841   6.554   0.898   2.916
 6626TIP3    H119842   6.558   0.926   3.008
 6626TIP3    H219843   6.486   0.952   2.877
 6627TIP3   OH219844   1.615   4.540   0.096
 6627TIP3    H119845   1.529   4.576   0.079
 6627TIP3    H219846   1.676   4.606   0.064
 6628TIP3   OH219847   6.212   2.019   1.497
 6628TIP3    H119848   6.226   2.090   1.560
 6628TIP3    H219849   6.259   2.047   1.419
 6629TIP3   OH219850   5.644   4.348   3.247
 6629TIP3    H119851   5.733   4.324   3.220
 6629TIP3    H219852   5.598   4.264   3.253
 6630TIP3   OH219853   0.009   1.287   3.537
 6630TIP3    H119854   0.024   1.260   3.447
 6630TIP3    H219855   0.089   1.332   3.563
 6631TIP3   OH219856   2.401   5.185   1.874
 6631TIP3    H119857   2.351   5.227   1.804
 6631TIP3    H219858   2.404   5.250   1.944
 6632TIP3   OH219859   4.157   3.629   0.629
 6632TIP3    H119860   4.087   3.669   0.578
 6632TIP3    H219861   4.220   3.598   0.563
 6633TIP3   OH219862   5.337   5.404   0.481
 6633TIP3    H119863   5.268   5.407   0.415
 6633TIP3    H219864   5.291   5.418   0.564
 6634TIP3   OH219865   6.454   4.616   3.001
 6634TIP3    H119866   6.472   4.637   3.093
 6634TIP3    H219867   6.536   4.634   2.956
 6635TIP3   OH219868   6.061   1.484   0.531
 6635TIP3    H119869   5.985   1.458   0.479
 6635TIP3    H219870   6.025   1.540   0.600
 6636TIP3   OH219871   2.332   4.703   5.814
 6636TIP3    H119872   2.323   4.798   5.819
 6636TIP3    H219873   2.372   4.678   5.897
 6637TIP3   OH219874   2.624   4.873   5.914
 6637TIP3    H119875   2.634   4.968   5.927
 6637TIP3    H219876   2.636   4.861   5.819
 6638TIP3   OH219877   1.812   4.189   4.723
 6638TIP3    H119878   1.802   4.275   4.764
 6638TIP3    H219879   1.789   4.127   4.793
 6639TIP3   OH219880   4.914   1.516   3.934
 6639TIP3    H119881   4.828   1.547   3.905
 6639TIP3    H219882   4.961   1.595   3.958
 6640TIP3   OH219883   3.771   3.409   2.808
 6640TIP3    H119884   3.707   3.464   2.854
 6640TIP3    H219885   3.794   3.460   2.730
 6641TIP3   OH219886   2.010   3.879   2.627
 6641TIP3    H119887   2.105   3.876   2.623
 6641TIP3    H219888   1.990   3.915   2.713
 6642TIP3   OH219889   3.466   2.852   5.612
 6642TIP3    H119890   3.514   2.771   5.631
 6642TIP3    H219891   3.375   2.831   5.633
 6643TIP3   OH219892   5.379   0.771   3.043
 6643TIP3    H119893   5.430   0.827   2.984
 6643TIP3    H219894   5.329   0.713   2.984
 6644TIP3   OH219895   6.844   3.633   0.947
 6644TIP3    H119896   6.812   3.600   0.863
 6644TIP3    H219897   6.931   3.593   0.956
 6645TIP3   OH219898   3.583   0.274   2.446
 6645TIP3    H119899   3.611   0.306   2.532
 6645TIP3    H219900   3.618   0.338   2.384
 6646TIP3   OH219901   4.082   0.274   1.252
 6646TIP3    H119902   4.110   0.223   1.176
 6646TIP3    H219903   4.035   0.211   1.307
 6647TIP3   OH219904   4.190   0.121   5.383
 6647TIP3    H119905   4.265   0.124   5.325
 6647TIP3    H219906   4.126   0.179   5.342
 6648TIP3   OH219907   4.477   3.607   4.352
 6648TIP3    H119908   4.447   3.516   4.350
 6648TIP3    H219909   4.500   3.627   4.262
 6649TIP3   OH219910   3.215   4.386   4.716
 6649TIP3    H119911   3.134   4.411   4.760
 6649TIP3    H219912   3.186   4.337   4.639
 6650TIP3   OH219913   1.807   3.787   2.029
 6650TIP3    H119914   1.861   3.715   2.060
 6650TIP3    H219915   1.809   3.780   1.934
 6651TIP3   OH219916   6.647   3.522   5.683
 6651TIP3    H119917   6.682   3.443   5.641
 6651TIP3    H219918   6.555   3.502   5.701
 6652TIP3   OH219919   3.783   0.568   5.375
 6652TIP3    H119920   3.769   0.518   5.294
 6652TIP3    H219921   3.734   0.649   5.362
 6653TIP3   OH219922   6.616   2.379   4.535
 6653TIP3    H119923   6.643   2.317   4.603
 6653TIP3    H219924   6.684   2.374   4.468
 6654TIP3   OH219925   0.662   4.403   4.542
 6654TIP3    H119926   0.612   4.348   4.601
 6654TIP3    H219927   0.753   4.373   4.551
 6655TIP3   OH219928   6.157   4.210   1.320
 6655TIP3    H119929   6.158   4.132   1.375
 6655TIP3    H219930   6.143   4.177   1.231
 6656TIP3   OH219931   2.978   1.158   3.055
 6656TIP3    H119932   2.938   1.112   3.129
 6656TIP3    H219933   3.052   1.102   3.030
 6657TIP3   OH219934   5.304   6.542   0.246
 6657TIP3    H119935   5.295   6.449   0.223
 6657TIP3    H219936   5.215   6.568   0.272
 6658TIP3   OH219937   6.525   2.698   4.993
 6658TIP3    H119938   6.559   2.745   5.070
 6658TIP3    H219939   6.519   2.766   4.926
 6659TIP3   OH219940   0.074   4.633   3.927
 6659TIP3    H119941   0.068   4.601   4.017
 6659TIP3    H219942   0.131   4.709   3.932
 6660TIP3   OH219943   5.757   1.939   4.522
 6660TIP3    H119944   5.781   1.850   4.549
 6660TIP3    H219945   5.757   1.989   4.603
 6661TIP3   OH219946   6.202   3.305   3.156
 6661TIP3    H119947   6.161   3.346   3.081
 6661TIP3    H219948   6.259   3.238   3.119
 6662TIP3   OH219949   4.642   4.724   3.367
 6662TIP3    H119950   4.619   4.670   3.443
 6662TIP3    H219951   4.628   4.666   3.292
 6663TIP3   OH219952   2.408   2.645   2.559
 6663TIP3    H119953   2.392   2.582   2.489
 6663TIP3    H219954   2.465   2.711   2.520
 6664TIP3   OH219955   5.951   0.695   0.785
 6664TIP3    H119956   5.881   0.645   0.742
 6664TIP3    H219957   5.963   0.652   0.870
 6665TIP3   OH219958   5.286   3.236   1.381
 6665TIP3    H119959   5.306   3.180   1.306
 6665TIP3    H219960   5.214   3.191   1.426
 6666TIP3   OH219961   3.284   4.525   3.699
 6666TIP3    H119962   3.293   4.492   3.789
 6666TIP3    H219963   3.289   4.620   3.708
 6667TIP3   OH219964   5.905   1.022   4.963
 6667TIP3    H119965   5.856   1.068   4.896
 6667TIP3    H219966   5.996   1.023   4.932
 6668TIP3   OH219967   2.827   1.423   1.569
 6668TIP3    H119968   2.787   1.338   1.590
 6668TIP3    H219969   2.873   1.408   1.487
 6669TIP3   OH219970   3.009   0.330   5.602
 6669TIP3    H119971   3.058   0.356   5.524
 6669TIP3    H219972   3.055   0.252   5.634
 6670TIP3   OH219973   5.539   4.655   0.901
 6670TIP3    H119974   5.562   4.592   0.832
 6670TIP3    H219975   5.586   4.735   0.877
 6671TIP3   OH219976   0.724   2.089   0.432
 6671TIP3    H119977   0.684   2.175   0.419
 6671TIP3    H219978   0.719   2.047   0.346
 6672TIP3   OH219979   7.144   6.778   0.595
 6672TIP3    H119980   7.134   6.786   0.690
 6672TIP3    H219981   7.055   6.774   0.562
 6673TIP3   OH219982   3.769   0.116   1.136
 6673TIP3    H119983   3.687   0.135   1.091
 6673TIP3    H219984   3.830   0.183   1.104
 6674TIP3   OH219985   5.903   3.212   0.114
 6674TIP3    H119986   5.911   3.176   0.026
 6674TIP3    H219987   5.974   3.172   0.163
 6675TIP3   OH219988   6.282   6.686   4.950
 6675TIP3    H119989   6.281   6.763   4.894
 6675TIP3    H219990   6.192   6.654   4.950
 6676TIP3   OH219991   5.949   5.421   4.402
 6676TIP3    H119992   5.911   5.365   4.334
 6676TIP3    H219993   5.993   5.360   4.461
 6677TIP3   OH219994   1.329   5.894   3.974
 6677TIP3    H119995   1.274   5.830   3.929
 6677TIP3    H219996   1.399   5.913   3.911
 6678TIP3   OH219997   0.327   5.180   1.012
 6678TIP3    H119998   0.241   5.213   1.038
 6678TIP3    H219999   0.327   5.186   0.916
 6679TIP3   OH220000   5.445   5.410   3.098
 6679TIP3    H120001   5.413   5.493   3.133
 6679TIP3    H220002   5.540   5.419   3.097
 6680TIP3   OH220003   5.145   6.062   2.202
 6680TIP3    H120004   5.089   6.073   2.125
 6680TIP3    H220005   5.084   6.049   2.274
 6681TIP3   OH220006   4.992   3.555   5.634
 6681TIP3    H120007   4.994   3.612   5.711
 6681TIP3    H220008   4.907   3.511   5.640
 6682TIP3   OH220009   3.504   4.705   2.324
 6682TIP3    H120010   3.436   4.770   2.306
 6682TIP3    H220011   3.570   4.720   2.256
 6683TIP3   OH220012   6.638   0.192   4.168
 6683TIP3    H120013   6.548   0.223   4.163
 6683TIP3    H220014   6.660   0.168   4.078
 6684TIP3   OH220015   1.275   5.418   3.430
 6684TIP3    H120016   1.334   5.493   3.444
 6684TIP3    H220017   1.265   5.379   3.517
 6685TIP3   OH220018   3.623   3.933   0.155
 6685TIP3    H120019   3.552   3.903   0.211
 6685TIP3    H220020   3.689   3.864   0.159
 6686TIP3   OH220021   3.538   0.676   1.759
 6686TIP3    H120022   3.469   0.615   1.730
 6686TIP3    H220023   3.543   0.741   1.689
 6687TIP3   OH220024   2.374   2.439   4.120
 6687TIP3    H120025   2.289   2.456   4.160
 6687TIP3    H220026   2.365   2.471   4.030
 6688TIP3   OH220027   3.799   3.428   2.405
 6688TIP3    H120028   3.773   3.512   2.366
 6688TIP3    H220029   3.716   3.386   2.428
 6689TIP3   OH220030   4.574   0.870   0.864
 6689TIP3    H120031   4.526   0.907   0.938
 6689TIP3    H220032   4.579   0.940   0.800
 6690TIP3   OH220033   2.875   2.525   4.869
 6690TIP3    H120034   2.840   2.450   4.917
 6690TIP3    H220035   2.812   2.540   4.799
 6691TIP3   OH220036   3.654   0.037   5.863
 6691TIP3    H120037   3.585   0.104   5.855
 6691TIP3    H220038   3.647  -0.014   5.782
 6692TIP3   OH220039   7.097   2.646   5.410
 6692TIP3    H120040   7.025   2.708   5.404
 6692TIP3    H220041   7.062   2.573   5.462
 6693TIP3   OH220042   1.394   0.167   2.788
 6693TIP3    H120043   1.419   0.255   2.760
 6693TIP3    H220044   1.459   0.110   2.747
 6694TIP3   OH220045   6.916   5.654   4.594
 6694TIP3    H120046   6.849   5.720   4.577
 6694TIP3    H220047   6.904   5.631   4.686
 6695TIP3   OH220048   4.245   4.592   4.572
 6695TIP3    H120049   4.301   4.528   4.617
 6695TIP3    H220050   4.209   4.543   4.498
 6696TIP3   OH220051   6.878   2.321   3.724
 6696TIP3    H120052   6.875   2.266   3.803
 6696TIP3    H220053   6.968   2.313   3.693
 6697TIP3   OH220054   2.335   4.112   4.636
 6697TIP3    H120055   2.430   4.105   4.626
 6697TIP3    H220056   2.314   4.054   4.710
 6698TIP3   OH220057   2.123   1.370   3.797
 6698TIP3    H120058   2.057   1.311   3.760
 6698TIP3    H220059   2.205   1.345   3.753
 6699TIP3   OH220060   1.703   5.914   3.716
 6699TIP3    H120061   1.737   5.900   3.627
 6699TIP3    H220062   1.712   5.829   3.759
 6700TIP3   OH220063   5.939   6.205   0.427
 6700TIP3    H120064   5.902   6.284   0.387
 6700TIP3    H220065   5.863   6.156   0.458
 6701TIP3   OH220066   2.077   1.460   1.349
 6701TIP3    H120067   2.106   1.400   1.417
 6701TIP3    H220068   2.023   1.524   1.395
 6702TIP3   OH220069   1.895   3.939   4.046
 6702TIP3    H120070   1.913   3.866   4.106
 6702TIP3    H220071   1.836   3.903   3.981
 6703TIP3   OH220072   0.282   0.661   4.131
 6703TIP3    H120073   0.227   0.634   4.057
 6703TIP3    H220074   0.258   0.752   4.148
 6704TIP3   OH220075   2.029   2.924   1.574
 6704TIP3    H120076   2.036   3.019   1.567
 6704TIP3    H220077   2.055   2.891   1.488
 6705TIP3   OH220078   4.571   2.846   2.612
 6705TIP3    H120079   4.522   2.923   2.583
 6705TIP3    H220080   4.519   2.772   2.582
 6706TIP3   OH220081   6.856   3.871   3.866
 6706TIP3    H120082   6.797   3.862   3.941
 6706TIP3    H220083   6.940   3.896   3.905
 6707TIP3   OH220084   5.776   5.780   4.929
 6707TIP3    H120085   5.820   5.744   4.853
 6707TIP3    H220086   5.726   5.707   4.966
 6708TIP3   OH220087   4.209   0.984   2.277
 6708TIP3    H120088   4.220   1.013   2.186
 6708TIP3    H220089   4.294   0.946   2.300
 6709TIP3   OH220090   1.643   2.297   3.765
 6709TIP3    H120091   1.663   2.390   3.760
 6709TIP3    H220092   1.672   2.270   3.852
 6710TIP3   OH220093   6.612   0.007   0.128
 6710TIP3    H120094   6.706   0.021   0.140
 6710TIP3    H220095   6.570   0.085   0.165
 6711TIP3   OH220096   3.224   3.065   4.798
 6711TIP3    H120097   3.232   3.072   4.703
 6711TIP3    H220098   3.256   2.977   4.818
 6712TIP3   OH220099   3.960   1.234   1.281
 6712TIP3    H120100   3.995   1.233   1.192
 6712TIP3    H220101   3.885   1.174   1.278
 6713TIP3   OH220102   0.454   4.082   0.978
 6713TIP3    H120103   0.430   4.126   0.896
 6713TIP3    H220104   0.413   3.996   0.972
 6714TIP3   OH220105   4.972   2.222   5.538
 6714TIP3    H120106   5.007   2.138   5.568
 6714TIP3    H220107   4.971   2.215   5.442
 6715TIP3   OH220108   7.194   1.709   1.138
 6715TIP3    H120109   7.289   1.698   1.142
 6715TIP3    H220110   7.177   1.737   1.048
 6716TIP3   OH220111   5.484   5.001   4.278
 6716TIP3    H120112   5.472   5.092   4.251
 6716TIP3    H220113   5.494   5.006   4.374
 6717TIP3   OH220114   1.478   0.460   4.663
 6717TIP3    H120115   1.509   0.534   4.715
 6717TIP3    H220116   1.557   0.407   4.648
 6718TIP3   OH220117   4.726   2.472   1.881
 6718TIP3    H120118   4.812   2.441   1.910
 6718TIP3    H220119   4.698   2.532   1.950
 6719TIP3   OH220120   5.922   6.064   1.262
 6719TIP3    H120121   5.956   6.153   1.254
 6719TIP3    H220122   5.919   6.048   1.357
 6720TIP3   OH220123   6.336   6.439   4.115
 6720TIP3    H120124   6.351   6.533   4.108
 6720TIP3    H220125   6.293   6.427   4.199
 6721TIP3   OH220126   5.393   4.158   3.485
 6721TIP3    H120127   5.340   4.235   3.464
 6721TIP3    H220128   5.350   4.086   3.437
 6722TIP3   OH220129   0.021   6.627   4.995
 6722TIP3    H120130   0.067   6.622   4.911
 6722TIP3    H220131  -0.040   6.553   4.993
 6723TIP3   OH220132   5.145   3.865   0.979
 6723TIP3    H120133   5.160   3.849   1.072
 6723TIP3    H220134   5.125   3.779   0.943
 6724TIP3   OH220135   3.505   2.244   1.109
 6724TIP3    H120136   3.433   2.296   1.146
 6724TIP3    H220137   3.584   2.289   1.138
 6725TIP3   OH220138   5.970   5.889   3.372
 6725TIP3    H120139   6.021   5.840   3.436
 6725TIP3    H220140   5.912   5.944   3.424
 6726TIP3   OH220141   3.808   3.463   0.436
 6726TIP3    H120142   3.882   3.453   0.496
 6726TIP3    H220143   3.748   3.522   0.482
 6727TIP3   OH220144   5.690   5.361   5.449
 6727TIP3    H120145   5.653   5.432   5.398
 6727TIP3    H220146   5.654   5.281   5.410
 6728TIP3   OH220147   7.055   0.965   5.646
 6728TIP3    H120148   7.091   0.967   5.557
 6728TIP3    H220149   7.074   1.052   5.681
 6729TIP3   OH220150   3.712   3.617   3.241
 6729TIP3    H120151   3.773   3.686   3.270
 6729TIP3    H220152   3.651   3.608   3.314
 6730TIP3   OH220153   1.299   6.000   5.009
 6730TIP3    H120154   1.262   5.916   5.039
 6730TIP3    H220155   1.315   6.048   5.090
 6731TIP3   OH220156   3.176   5.722   3.232
 6731TIP3    H120157   3.233   5.738   3.157
 6731TIP3    H220158   3.102   5.674   3.196
 6732TIP3   OH220159   5.986   4.050   0.677
 6732TIP3    H120160   5.999   4.126   0.620
 6732TIP3    H220161   6.051   3.986   0.648
 6733TIP3   OH220162   1.453   2.590   3.359
 6733TIP3    H120163   1.405   2.656   3.310
 6733TIP3    H220164   1.388   2.552   3.419
 6734TIP3   OH220165   6.648   2.484   0.692
 6734TIP3    H120166   6.671   2.507   0.782
 6734TIP3    H220167   6.639   2.389   0.693
 6735TIP3   OH220168   5.035   1.614   2.422
 6735TIP3    H120169   4.969   1.564   2.470
 6735TIP3    H220170   5.015   1.597   2.330
 6736TIP3   OH220171   1.046   6.261   2.266
 6736TIP3    H120172   0.973   6.215   2.309
 6736TIP3    H220173   1.008   6.297   2.186
 6737TIP3   OH220174   6.102   1.675   2.875
 6737TIP3    H120175   6.131   1.694   2.786
 6737TIP3    H220176   6.113   1.757   2.923
 6738TIP3   OH220177   5.027   0.207   0.941
 6738TIP3    H120178   4.997   0.249   1.021
 6738TIP3    H220179   4.974   0.246   0.872
 6739TIP3   OH220180   0.301   0.568   3.499
 6739TIP3    H120181   0.277   0.623   3.425
 6739TIP3    H220182   0.255   0.485   3.484
 6740TIP3   OH220183   0.541   0.647   5.561
 6740TIP3    H120184   0.577   0.563   5.589
 6740TIP3    H220185   0.561   0.652   5.468
 6741TIP3   OH220186   6.386   1.145   1.280
 6741TIP3    H120187   6.426   1.077   1.225
 6741TIP3    H220188   6.324   1.190   1.221
 6742TIP3   OH220189   6.477   3.184   2.080
 6742TIP3    H120190   6.558   3.136   2.069
 6742TIP3    H220191   6.410   3.128   2.041
 6743TIP3   OH220192   4.187   4.436   0.132
 6743TIP3    H120193   4.097   4.404   0.125
 6743TIP3    H220194   4.233   4.393   0.060
 6744TIP3   OH220195   6.890   5.628   3.534
 6744TIP3    H120196   6.907   5.571   3.610
 6744TIP3    H220197   6.861   5.710   3.573
 6745TIP3   OH220198   6.640   2.765   3.682
 6745TIP3    H120199   6.544   2.758   3.683
 6745TIP3    H220200   6.670   2.675   3.671
 6746TIP3   OH220201   0.675   6.210   0.373
 6746TIP3    H120202   0.598   6.156   0.394
 6746TIP3    H220203   0.642   6.275   0.311
 6747TIP3   OH220204   7.244   6.201   1.738
 6747TIP3    H120205   7.215   6.148   1.663
 6747TIP3    H220206   7.171   6.259   1.756
 6748TIP3   OH220207   4.666   1.651   3.912
 6748TIP3    H120208   4.617   1.712   3.966
 6748TIP3    H220209   4.611   1.638   3.834
 6749TIP3   OH220210   1.987   1.684   5.411
 6749TIP3    H120211   1.897   1.652   5.403
 6749TIP3    H220212   2.027   1.667   5.326
 6750TIP3   OH220213   4.874   2.480   0.260
 6750TIP3    H120214   4.796   2.480   0.205
 6750TIP3    H220215   4.873   2.565   0.303
 6751TIP3   OH220216   5.385   4.272   0.090
 6751TIP3    H120217   5.395   4.365   0.110
 6751TIP3    H220218   5.303   4.267   0.041
 6752TIP3   OH220219   0.433   3.848   0.037
 6752TIP3    H120220   0.527   3.844   0.025
 6752TIP3    H220221   0.420   3.853   0.132
 6753TIP3   OH220222   4.957   2.257   4.272
 6753TIP3    H120223   4.960   2.341   4.227
 6753TIP3    H220224   5.046   2.244   4.305
 6754TIP3   OH220225   4.364   2.320   4.763
 6754TIP3    H120226   4.458   2.306   4.762
 6754TIP3    H220227   4.327   2.238   4.730
 6755TIP3   OH220228   3.280   2.003   4.878
 6755TIP3    H120229   3.252   2.090   4.909
 6755TIP3    H220230   3.288   2.013   4.784
 6756TIP3   OH220231   5.249   4.910   1.098
 6756TIP3    H120232   5.171   4.874   1.140
 6756TIP3    H220233   5.285   4.970   1.163
 6757TIP3   OH220234   5.597   4.590   5.403
 6757TIP3    H120235   5.645   4.631   5.476
 6757TIP3    H220236   5.512   4.634   5.402
 6758TIP3   OH220237   0.374   2.858   1.745
 6758TIP3    H120238   0.291   2.904   1.727
 6758TIP3    H220239   0.401   2.889   1.831
 6759TIP3   OH220240   1.201   4.725   3.577
 6759TIP3    H120241   1.272   4.666   3.554
 6759TIP3    H220242   1.129   4.701   3.517
 6760TIP3   OH220243   5.174   5.078   3.608
 6760TIP3    H120244   5.081   5.094   3.623
 6760TIP3    H220245   5.183   4.983   3.611
 6761TIP3   OH220246   2.797   2.882   4.975
 6761TIP3    H120247   2.767   2.970   4.999
 6761TIP3    H220248   2.786   2.879   4.880
 6762TIP3   OH220249   3.303   5.615   0.773
 6762TIP3    H120250   3.282   5.699   0.814
 6762TIP3    H220251   3.223   5.590   0.726
 6763TIP3   OH220252   0.495   3.093   5.437
 6763TIP3    H120253   0.415   3.113   5.387
 6763TIP3    H220254   0.552   3.049   5.374
 6764TIP3   OH220255   5.134   1.962   4.379
 6764TIP3    H120256   5.204   1.901   4.403
 6764TIP3    H220257   5.172   2.049   4.391
 6765TIP3   OH220258   4.667   2.529   0.074
 6765TIP3    H120259   4.695   2.496  -0.012
 6765TIP3    H220260   4.601   2.595   0.054
 6766TIP3   OH220261   3.537   5.001   2.511
 6766TIP3    H120262   3.594   4.928   2.534
 6766TIP3    H220263   3.501   5.032   2.594
 6767TIP3   OH220264   4.179   3.530   4.028
 6767TIP3    H120265   4.238   3.472   4.075
 6767TIP3    H220266   4.220   3.543   3.942
 6768TIP3   OH220267   4.272   1.642   3.834
 6768TIP3    H120268   4.205   1.651   3.902
 6768TIP3    H220269   4.320   1.725   3.838
 6769TIP3   OH220270   2.969   5.205   4.051
 6769TIP3    H120271   2.976   5.165   4.138
 6769TIP3    H220272   3.032   5.156   3.997
 6770TIP3   OH220273   2.893   1.551   0.328
 6770TIP3    H120274   2.958   1.596   0.275
 6770TIP3    H220275   2.809   1.578   0.290
 6771TIP3   OH220276   6.057   3.202   0.851
 6771TIP3    H120277   6.082   3.144   0.923
 6771TIP3    H220278   6.100   3.164   0.774
 6772TIP3   OH220279   6.085   1.903   5.829
 6772TIP3    H120280   6.166   1.853   5.818
 6772TIP3    H220281   6.041   1.862   5.904
 6773TIP3   OH220282   1.422   2.084   4.825
 6773TIP3    H120283   1.505   2.037   4.836
 6773TIP3    H220284   1.358   2.016   4.805
 6774TIP3   OH220285   5.576   2.801   1.280
 6774TIP3    H120286   5.655   2.776   1.231
 6774TIP3    H220287   5.505   2.791   1.217
 6775TIP3   OH220288   4.673   3.204   4.774
 6775TIP3    H120289   4.578   3.201   4.788
 6775TIP3    H220290   4.698   3.293   4.799
 6776TIP3   OH220291   6.892   1.816   3.323
 6776TIP3    H120292   6.805   1.787   3.351
 6776TIP3    H220293   6.947   1.805   3.401
 6777TIP3   OH220294   0.209   2.046   2.172
 6777TIP3    H120295   0.146   2.028   2.242
 6777TIP3    H220296   0.266   2.114   2.208
 6778TIP3   OH220297   5.259   3.502   2.456
 6778TIP3    H120298   5.265   3.407   2.446
 6778TIP3    H220299   5.316   3.522   2.530
 6779TIP3   OH220300   0.151   6.160   4.022
 6779TIP3    H120301   0.097   6.218   4.075
 6779TIP3    H220302   0.094   6.087   4.001
 6780TIP3   OH220303   1.352   4.853   2.007
 6780TIP3    H120304   1.326   4.799   1.932
 6780TIP3    H220305   1.285   4.921   2.011
 6781TIP3   OH220306   3.237   4.782   2.963
 6781TIP3    H120307   3.331   4.788   2.944
 6781TIP3    H220308   3.231   4.724   3.039
 6782TIP3   OH220309   1.938   5.708   0.754
 6782TIP3    H120310   1.892   5.708   0.838
 6782TIP3    H220311   1.880   5.759   0.696
 6783TIP3   OH220312   4.308   0.296   2.119
 6783TIP3    H120313   4.266   0.232   2.061
 6783TIP3    H220314   4.301   0.256   2.206
 6784TIP3   OH220315   0.432   1.105   1.481
 6784TIP3    H120316   0.425   1.025   1.534
 6784TIP3    H220317   0.428   1.074   1.391
 6785TIP3   OH220318   4.689   5.117   1.570
 6785TIP3    H120319   4.723   5.197   1.529
 6785TIP3    H220320   4.602   5.106   1.532
 6786TIP3   OH220321   0.604   0.624   0.837
 6786TIP3    H120322   0.694   0.620   0.870
 6786TIP3    H220323   0.564   0.542   0.865
 6787TIP3   OH220324   4.027   5.151   1.384
 6787TIP3    H120325   3.975   5.220   1.341
 6787TIP3    H220326   4.104   5.141   1.328
 6788TIP3   OH220327   2.133   3.398   2.975
 6788TIP3    H120328   2.042   3.395   2.943
 6788TIP3    H220329   2.127   3.370   3.066
 6789TIP3   OH220330   1.319   5.873   5.892
 6789TIP3    H120331   1.394   5.837   5.845
 6789TIP3    H220332   1.358   5.918   5.967
 6790TIP3   OH220333   6.082   6.163   1.865
 6790TIP3    H120334   6.169   6.199   1.845
 6790TIP3    H220335   6.100   6.077   1.901
 6791TIP3   OH220336   6.166   0.134   2.986
 6791TIP3    H120337   6.257   0.105   2.994
 6791TIP3    H220338   6.172   0.220   2.944
 6792TIP3   OH220339   5.715   2.649   2.706
 6792TIP3    H120340   5.702   2.574   2.648
 6792TIP3    H220341   5.640   2.706   2.688
 6793TIP3   OH220342   1.105   1.979   2.030
 6793TIP3    H120343   1.199   1.963   2.020
 6793TIP3    H220344   1.100   2.056   2.086
 6794TIP3   OH220345   7.090   6.389   4.999
 6794TIP3    H120346   7.138   6.306   4.995
 6794TIP3    H220347   7.006   6.371   4.957
 6795TIP3   OH220348   6.093   0.557   4.551
 6795TIP3    H120349   6.177   0.603   4.550
 6795TIP3    H220350   6.109   0.478   4.603
 6796TIP3   OH220351   4.178   3.465   5.204
 6796TIP3    H120352   4.271   3.451   5.221
 6796TIP3    H220353   4.135   3.387   5.239
 6797TIP3   OH220354   3.620   5.233   3.780
 6797TIP3    H120355   3.659   5.316   3.753
 6797TIP3    H220356   3.658   5.214   3.866
 6798TIP3   OH220357   2.082   3.217   1.941
 6798TIP3    H120358   2.000   3.197   1.898
 6798TIP3    H220359   2.149   3.193   1.877
 6799TIP3   OH220360   3.904   3.843   3.907
 6799TIP3    H120361   3.858   3.783   3.849
 6799TIP3    H220362   3.856   3.925   3.899
 6800TIP3   OH220363   5.280   3.321   0.587
 6800TIP3    H120364   5.221   3.369   0.645
 6800TIP3    H220365   5.354   3.295   0.643
 6801TIP3   OH220366   3.448   6.751   4.349
 6801TIP3    H120367   3.363   6.711   4.369
 6801TIP3    H220368   3.426   6.834   4.307
 6802TIP3   OH220369   0.031   5.690   1.289
 6802TIP3    H120370   0.033   5.661   1.380
 6802TIP3    H220371   0.027   5.609   1.239
 6803TIP3   OH220372   4.968   6.717   5.555
 6803TIP3    H120373   4.996   6.754   5.639
 6803TIP3    H220374   4.903   6.651   5.578
 6804TIP3   OH220375   0.142   6.020   0.418
 6804TIP3    H120376   0.061   6.064   0.442
 6804TIP3    H220377   0.202   6.040   0.489
 6805TIP3   OH220378   1.278   1.766   3.389
 6805TIP3    H120379   1.259   1.675   3.368
 6805TIP3    H220380   1.358   1.786   3.339
 6806TIP3   OH220381   1.660   4.346   1.493
 6806TIP3    H120382   1.701   4.288   1.429
 6806TIP3    H220383   1.566   4.339   1.476
 6807TIP3   OH220384   5.573   2.897   2.678
 6807TIP3    H120385   5.520   2.976   2.684
 6807TIP3    H220386   5.640   2.917   2.613
 6808TIP3   OH220387   4.402   4.750   3.139
 6808TIP3    H120388   4.360   4.689   3.079
 6808TIP3    H220389   4.484   4.773   3.096
 6809TIP3   OH220390   4.247   1.418   5.846
 6809TIP3    H120391   4.156   1.445   5.863
 6809TIP3    H220392   4.286   1.494   5.802
 6810TIP3   OH220393   6.911   6.521   0.663
 6810TIP3    H120394   6.963   6.472   0.599
 6810TIP3    H220395   6.904   6.609   0.626
 6811TIP3   OH220396   5.019   1.126   2.384
 6811TIP3    H120397   4.993   1.134   2.292
 6811TIP3    H220398   5.096   1.182   2.392
 6812TIP3   OH220399   5.678   6.700   4.641
 6812TIP3    H120400   5.602   6.662   4.597
 6812TIP3    H220401   5.718   6.756   4.574
 6813TIP3   OH220402   0.563   3.895   5.006
 6813TIP3    H120403   0.620   3.821   4.985
 6813TIP3    H220404   0.491   3.888   4.944
 6814TIP3   OH220405   1.297   4.539   0.262
 6814TIP3    H120406   1.252   4.613   0.222
 6814TIP3    H220407   1.290   4.469   0.197
 6815TIP3   OH220408   1.393   4.739   5.584
 6815TIP3    H120409   1.466   4.681   5.565
 6815TIP3    H220410   1.329   4.685   5.630
 6816TIP3   OH220411   1.087   1.832   0.422
 6816TIP3    H120412   1.166   1.786   0.449
 6816TIP3    H220413   1.078   1.811   0.329
 6817TIP3   OH220414   6.533   6.215   4.241
 6817TIP3    H120415   6.455   6.168   4.211
 6817TIP3    H220416   6.519   6.306   4.212
 6818TIP3   OH220417   4.395   4.729   1.991
 6818TIP3    H120418   4.409   4.823   1.981
 6818TIP3    H220419   4.308   4.713   1.954
 6819TIP3   OH220420   3.397   1.027   1.336
 6819TIP3    H120421   3.402   0.932   1.325
 6819TIP3    H220422   3.305   1.043   1.358
 6820TIP3   OH220423   3.125   5.797   1.496
 6820TIP3    H120424   3.047   5.808   1.549
 6820TIP3    H220425   3.107   5.720   1.441
 6821TIP3   OH220426   6.680   0.893   2.229
 6821TIP3    H120427   6.644   0.967   2.278
 6821TIP3    H220428   6.668   0.818   2.286
 6822TIP3   OH220429   1.528   5.196   1.090
 6822TIP3    H120430   1.528   5.101   1.103
 6822TIP3    H220431   1.620   5.222   1.095
 6823TIP3   OH220432   1.694   0.536   4.021
 6823TIP3    H120433   1.628   0.511   4.086
 6823TIP3    H220434   1.676   0.629   4.004
 6824TIP3   OH220435   6.387   1.819   3.151
 6824TIP3    H120436   6.472   1.805   3.192
 6824TIP3    H220437   6.391   1.770   3.069
 6825TIP3   OH220438   5.836   3.649   2.329
 6825TIP3    H120439   5.795   3.586   2.388
 6825TIP3    H220440   5.841   3.604   2.245
 6826TIP3   OH220441   2.385   2.333   1.129
 6826TIP3    H120442   2.440   2.327   1.207
 6826TIP3    H220443   2.316   2.269   1.144
 6827TIP3   OH220444   6.277   2.578   5.490
 6827TIP3    H120445   6.322   2.575   5.574
 6827TIP3    H220446   6.221   2.500   5.490
 6828TIP3   OH220447   1.733   6.299   0.267
 6828TIP3    H120448   1.739   6.242   0.344
 6828TIP3    H220449   1.703   6.383   0.302
 6829TIP3   OH220450   2.565   3.546   4.953
 6829TIP3    H120451   2.477   3.578   4.931
 6829TIP3    H220452   2.596   3.605   5.021
 6830TIP3   OH220453   4.492   5.418   3.411
 6830TIP3    H120454   4.560   5.477   3.444
 6830TIP3    H220455   4.411   5.467   3.421
 6831TIP3   OH220456   4.878   1.702   4.947
 6831TIP3    H120457   4.816   1.629   4.954
 6831TIP3    H220458   4.962   1.660   4.926
 6832TIP3   OH220459   6.057   6.563   2.347
 6832TIP3    H120460   6.094   6.481   2.379
 6832TIP3    H220461   6.060   6.555   2.252
 6833TIP3   OH220462   1.836   5.305   5.065
 6833TIP3    H120463   1.879   5.257   4.994
 6833TIP3    H220464   1.875   5.393   5.062
 6834TIP3   OH220465   5.412   2.760   1.073
 6834TIP3    H120466   5.317   2.758   1.064
 6834TIP3    H220467   5.444   2.712   0.997
 6835TIP3   OH220468   4.392   3.286   5.643
 6835TIP3    H120469   4.349   3.354   5.591
 6835TIP3    H220470   4.458   3.249   5.584
 6836TIP3   OH220471   2.337   1.821   5.715
 6836TIP3    H120472   2.341   1.890   5.781
 6836TIP3    H220473   2.278   1.855   5.648
 6837TIP3   OH220474   0.112   3.666   5.027
 6837TIP3    H120475   0.202   3.670   5.058
 6837TIP3    H220476   0.071   3.745   5.062
 6838TIP3   OH220477   5.603   0.285   0.433
 6838TIP3    H120478   5.586   0.375   0.407
 6838TIP3    H220479   5.693   0.286   0.466
 6839TIP3   OH220480   6.932   6.790   2.462
 6839TIP3    H120481   6.841   6.781   2.433
 6839TIP3    H220482   6.967   6.862   2.410
 6840TIP3   OH220483   2.160   2.514   0.424
 6840TIP3    H120484   2.069   2.529   0.400
 6840TIP3    H220485   2.172   2.566   0.504
 6841TIP3   OH220486   0.940   4.928   1.741
 6841TIP3    H120487   0.926   4.901   1.832
 6841TIP3    H220488   1.024   4.889   1.717
 6842TIP3   OH220489   1.968   3.647   5.418
 6842TIP3    H120490   1.984   3.621   5.327
 6842TIP3    H220491   1.927   3.570   5.458
 6843TIP3   OH220492   0.039   3.596   2.095
 6843TIP3    H120493  -0.021   3.648   2.042
 6843TIP3    H220494   0.118   3.587   2.042
 6844TIP3   OH220495   2.723   0.410   4.869
 6844TIP3    H120496   2.795   0.361   4.909
 6844TIP3    H220497   2.721   0.380   4.778
 6845TIP3   OH220498   3.515   2.169   5.360
 6845TIP3    H120499   3.611   2.177   5.360
 6845TIP3    H220500   3.498   2.083   5.399
 6846TIP3   OH220501   5.817   4.215   4.526
 6846TIP3    H120502   5.733   4.241   4.489
 6846TIP3    H220503   5.795   4.149   4.592
 6847TIP3   OH220504   2.789   0.759   5.215
 6847TIP3    H120505   2.701   0.746   5.251
 6847TIP3    H220506   2.834   0.676   5.232
 6848TIP3   OH220507   3.200   3.983   5.432
 6848TIP3    H120508   3.190   3.889   5.414
 6848TIP3    H220509   3.110   4.016   5.438
 6849TIP3   OH220510   1.569   3.387   5.053
 6849TIP3    H120511   1.498   3.448   5.032
 6849TIP3    H220512   1.524   3.307   5.081
 6850TIP3   OH220513   1.648   5.437   0.955
 6850TIP3    H120514   1.646   5.379   1.031
 6850TIP3    H220515   1.569   5.413   0.905
 6851TIP3   OH220516   0.279   2.471   3.659
 6851TIP3    H120517   0.281   2.547   3.600
 6851TIP3    H220518   0.358   2.480   3.712
 6852TIP3   OH220519   0.663   1.938   4.385
 6852TIP3    H120520   0.723   1.920   4.313
 6852TIP3    H220521   0.720   1.955   4.460
 6853TIP3   OH220522   0.724   1.130   2.770
 6853TIP3    H120523   0.803   1.131   2.824
 6853TIP3    H220524   0.727   1.213   2.723
 6854TIP3   OH220525   1.960   5.080   0.305
 6854TIP3    H120526   2.016   5.154   0.281
 6854TIP3    H220527   1.971   5.072   0.400
 6855TIP3   OH220528   4.358   5.190   5.618
 6855TIP3    H120529   4.342   5.097   5.602
 6855TIP3    H220530   4.309   5.236   5.550
 6856TIP3   OH220531   0.842   1.102   1.588
 6856TIP3    H120532   0.841   1.009   1.611
 6856TIP3    H220533   0.866   1.104   1.496
 6857TIP3   OH220534   2.351   6.110   0.110
 6857TIP3    H120535   2.302   6.090   0.031
 6857TIP3    H220536   2.366   6.025   0.151
 6858TIP3   OH220537   0.454   0.470   1.188
 6858TIP3    H120538   0.467   0.556   1.228
 6858TIP3    H220539   0.508   0.411   1.241
 6859TIP3   OH220540   6.367   6.172   1.886
 6859TIP3    H120541   6.353   6.137   1.974
 6859TIP3    H220542   6.412   6.103   1.839
 6860TIP3   OH220543   3.124   0.725   4.366
 6860TIP3    H120544   3.103   0.635   4.391
 6860TIP3    H220545   3.166   0.763   4.443
 6861TIP3   OH220546   0.909   6.556   0.751
 6861TIP3    H120547   0.924   6.639   0.705
 6861TIP3    H220548   0.986   6.545   0.807
 6862TIP3   OH220549   2.277   5.866   2.960
 6862TIP3    H120550   2.344   5.826   3.016
 6862TIP3    H220551   2.303   5.842   2.871
 6863TIP3   OH220552   6.596   2.415   4.882
 6863TIP3    H120553   6.656   2.361   4.830
 6863TIP3    H220554   6.636   2.502   4.882
 6864TIP3   OH220555   3.421   4.129   3.524
 6864TIP3    H120556   3.347   4.088   3.568
 6864TIP3    H220557   3.436   4.074   3.447
 6865TIP3   OH220558   1.673   1.543   2.438
 6865TIP3    H120559   1.758   1.502   2.421
 6865TIP3    H220560   1.623   1.477   2.486
 6866TIP3   OH220561   5.321   2.503   5.135
 6866TIP3    H120562   5.329   2.419   5.090
 6866TIP3    H220563   5.242   2.494   5.189
 6867TIP3   OH220564   1.361   5.880   1.570
 6867TIP3    H120565   1.332   5.789   1.579
 6867TIP3    H220566   1.280   5.931   1.576
 6868TIP3   OH220567   4.687   3.253   3.216
 6868TIP3    H120568   4.733   3.299   3.145
 6868TIP3    H220569   4.683   3.317   3.288
 6869TIP3   OH220570   4.664   0.641   0.122
 6869TIP3    H120571   4.640   0.686   0.042
 6869TIP3    H220572   4.692   0.711   0.181
 6870TIP3   OH220573   1.341   1.192   4.827
 6870TIP3    H120574   1.249   1.201   4.803
 6870TIP3    H220575   1.364   1.103   4.802
 6871TIP3   OH220576   6.023   2.771   4.795
 6871TIP3    H120577   6.028   2.850   4.849
 6871TIP3    H220578   5.989   2.704   4.853
 6872TIP3   OH220579   4.694   1.439   2.230
 6872TIP3    H120580   4.648   1.433   2.314
 6872TIP3    H220581   4.647   1.507   2.182
 6873TIP3   OH220582   5.638   2.977   3.320
 6873TIP3    H120583   5.697   2.994   3.246
 6873TIP3    H220584   5.588   2.900   3.295
 6874TIP3   OH220585   1.977   1.662   5.812
 6874TIP3    H120586   2.019   1.582   5.780
 6874TIP3    H220587   2.004   1.668   5.903
 6875TIP3   OH220588   5.761   4.610   5.626
 6875TIP3    H120589   5.725   4.529   5.664
 6875TIP3    H220590   5.825   4.640   5.690
 6876TIP3   OH220591   2.305   5.064   5.290
 6876TIP3    H120592   2.300   4.969   5.300
 6876TIP3    H220593   2.323   5.077   5.197
 6877TIP3   OH220594   7.094   0.177   0.068
 6877TIP3    H120595   7.133   0.159   0.153
 6877TIP3    H220596   7.166   0.216   0.017
 6878TIP3   OH220597   4.613   3.952   3.904
 6878TIP3    H120598   4.670   3.913   3.970
 6878TIP3    H220599   4.534   3.899   3.906
 6879TIP3   OH220600   0.096   2.315   4.748
 6879TIP3    H120601   0.035   2.286   4.815
 6879TIP3    H220602   0.065   2.272   4.668
 6880TIP3   OH220603   4.949   5.965   2.381
 6880TIP3    H120604   4.947   5.910   2.459
 6880TIP3    H220605   4.861   6.001   2.374
 6881TIP3   OH220606   4.101   0.906   4.712
 6881TIP3    H120607   4.097   0.912   4.808
 6881TIP3    H220608   4.193   0.889   4.693
 6882TIP3   OH220609   5.320   0.980   2.760
 6882TIP3    H120610   5.375   0.956   2.835
 6882TIP3    H220611   5.332   1.074   2.750
 6883TIP3   OH220612   6.645   4.745   2.593
 6883TIP3    H120613   6.626   4.671   2.536
 6883TIP3    H220614   6.686   4.706   2.670
 6884TIP3   OH220615   1.960   2.477   3.824
 6884TIP3    H120616   2.004   2.501   3.743
 6884TIP3    H220617   1.868   2.498   3.809
 6885TIP3   OH220618   4.753   1.484   4.431
 6885TIP3    H120619   4.676   1.434   4.405
 6885TIP3    H220620   4.828   1.433   4.400
 6886TIP3   OH220621   1.867   0.763   0.740
 6886TIP3    H120622   1.832   0.843   0.778
 6886TIP3    H220623   1.961   0.770   0.752
 6887TIP3   OH220624   5.413   1.542   3.994
 6887TIP3    H120625   5.345   1.580   4.050
 6887TIP3    H220626   5.370   1.531   3.909
 6888TIP3   OH220627   1.172   5.467   4.086
 6888TIP3    H120628   1.180   5.473   4.181
 6888TIP3    H220629   1.134   5.380   4.070
 6889TIP3   OH220630   6.501   6.725   4.365
 6889TIP3    H120631   6.454   6.795   4.320
 6889TIP3    H220632   6.433   6.681   4.418
 6890TIP3   OH220633   3.851   4.273   4.554
 6890TIP3    H120634   3.893   4.240   4.633
 6890TIP3    H220635   3.878   4.364   4.549
 6891TIP3   OH220636   4.388   2.438   4.056
 6891TIP3    H120637   4.314   2.468   4.107
 6891TIP3    H220638   4.439   2.517   4.038
 6892TIP3   OH220639   6.953   6.269   1.190
 6892TIP3    H120640   6.934   6.178   1.168
 6892TIP3    H220641   7.048   6.276   1.183
 6893TIP3   OH220642   1.044   3.100   5.177
 6893TIP3    H120643   0.958   3.084   5.137
 6893TIP3    H220644   1.103   3.112   5.102
 6894TIP3   OH220645   6.516   2.058   2.979
 6894TIP3    H120646   6.459   2.046   3.055
 6894TIP3    H220647   6.598   2.015   3.004
 6895TIP3   OH220648   2.101  -0.028   0.316
 6895TIP3    H120649   2.142   0.058   0.308
 6895TIP3    H220650   2.058  -0.026   0.402
 6896TIP3   OH220651   0.578   6.032   0.108
 6896TIP3    H120652   0.567   5.974   0.183
 6896TIP3    H220653   0.491   6.070   0.094
 6897TIP3   OH220654   2.432   2.257   2.203
 6897TIP3    H120655   2.432   2.246   2.108
 6897TIP3    H220656   2.505   2.315   2.221
 6898TIP3   OH220657   1.061   1.282   5.511
 6898TIP3    H120658   1.068   1.274   5.416
 6898TIP3    H220659   1.033   1.194   5.540
 6899TIP3   OH220660   3.048   6.443   1.536
 6899TIP3    H120661   3.012   6.521   1.493
 6899TIP3    H220662   3.123   6.475   1.586
 6900TIP3   OH220663   4.404   3.377   4.204
 6900TIP3    H120664   4.410   3.329   4.121
 6900TIP3    H220665   4.347   3.322   4.259
 6901TIP3   OH220666   2.815   6.718   4.431
 6901TIP3    H120667   2.800   6.677   4.516
 6901TIP3    H220668   2.866   6.797   4.451
 6902TIP3   OH220669   4.813   3.364   3.006
 6902TIP3    H120670   4.887   3.304   3.012
 6902TIP3    H220671   4.851   3.451   3.020
 6903TIP3   OH220672   2.023   4.051   0.897
 6903TIP3    H120673   2.064   4.085   0.817
 6903TIP3    H220674   2.097   4.021   0.950
 6904TIP3   OH220675   4.471   2.771   3.017
 6904TIP3    H120676   4.540   2.768   2.951
 6904TIP3    H220677   4.518   2.781   3.100
 6905TIP3   OH220678   0.107   4.913   3.260
 6905TIP3    H120679   0.172   4.924   3.330
 6905TIP3    H220680   0.041   4.855   3.297
 6906TIP3   OH220681   4.950   3.343   1.289
 6906TIP3    H120682   5.039   3.348   1.255
 6906TIP3    H220683   4.948   3.260   1.337
 6907TIP3   OH220684   5.868   1.177   1.695
 6907TIP3    H120685   5.955   1.151   1.665
 6907TIP3    H220686   5.826   1.216   1.618
 6908TIP3   OH220687   6.287   0.147   0.822
 6908TIP3    H120688   6.294   0.214   0.891
 6908TIP3    H220689   6.372   0.147   0.779
 6909TIP3   OH220690   0.977   2.969   4.012
 6909TIP3    H120691   0.887   3.001   4.001
 6909TIP3    H220692   0.999   2.933   3.926
 6910TIP3   OH220693   6.678   5.880   2.207
 6910TIP3    H120694   6.693   5.973   2.191
 6910TIP3    H220695   6.734   5.859   2.282
 6911TIP3   OH220696   3.290   2.355   3.796
 6911TIP3    H120697   3.302   2.263   3.817
 6911TIP3    H220698   3.199   2.362   3.766
 6912TIP3   OH220699   2.653   4.963   0.856
 6912TIP3    H120700   2.667   5.007   0.941
 6912TIP3    H220701   2.678   5.029   0.791
 6913TIP3   OH220702   1.872   0.563   2.972
 6913TIP3    H120703   1.965   0.557   2.951
 6913TIP3    H220704   1.851   0.656   2.961
 6914TIP3   OH220705   3.127   5.388   4.819
 6914TIP3    H120706   3.155   5.334   4.745
 6914TIP3    H220707   3.119   5.326   4.892
 6915TIP3   OH220708   1.249   1.287   0.325
 6915TIP3    H120709   1.207   1.272   0.240
 6915TIP3    H220710   1.261   1.382   0.329
 6916TIP3   OH220711   1.298   2.857   1.110
 6916TIP3    H120712   1.393   2.853   1.122
 6916TIP3    H220713   1.285   2.919   1.039
 6917TIP3   OH220714   4.857   0.222   3.730
 6917TIP3    H120715   4.778   0.225   3.675
 6917TIP3    H220716   4.921   0.274   3.682
 6918TIP3   OH220717   2.025   4.008   2.225
 6918TIP3    H120718   1.987   4.090   2.195
 6918TIP3    H220719   1.958   3.970   2.283
 6919TIP3   OH220720   4.309   6.708   1.340
 6919TIP3    H120721   4.224   6.752   1.338
 6919TIP3    H220722   4.299   6.638   1.404
 6920TIP3   OH220723   0.144   5.922   3.824
 6920TIP3    H120724   0.049   5.925   3.819
 6920TIP3    H220725   0.173   5.999   3.774
 6921TIP3   OH220726   5.418   4.222   1.561
 6921TIP3    H120727   5.443   4.287   1.495
 6921TIP3    H220728   5.496   4.167   1.572
 6922TIP3   OH220729   5.409   5.146   2.173
 6922TIP3    H120730   5.333   5.204   2.169
 6922TIP3    H220731   5.464   5.182   2.242
 6923TIP3   OH220732   0.591   3.718   5.465
 6923TIP3    H120733   0.664   3.742   5.408
 6923TIP3    H220734   0.602   3.625   5.481
 6924TIP3   OH220735   0.325   4.035   1.660
 6924TIP3    H120736   0.379   4.114   1.670
 6924TIP3    H220737   0.291   4.018   1.748
 6925TIP3   OH220738   2.535   2.264   2.646
 6925TIP3    H120739   2.447   2.235   2.622
 6925TIP3    H220740   2.549   2.343   2.594
 6926TIP3   OH220741   0.753   5.380   3.725
 6926TIP3    H120742   0.805   5.459   3.712
 6926TIP3    H220743   0.817   5.313   3.749
 6927TIP3   OH220744   2.815   4.440   1.314
 6927TIP3    H120745   2.858   4.428   1.229
 6927TIP3    H220746   2.756   4.364   1.321
 6928TIP3   OH220747   4.193   5.217   0.186
 6928TIP3    H120748   4.149   5.146   0.139
 6928TIP3    H220749   4.148   5.219   0.271
 6929TIP3   OH220750   5.211   1.514   1.180
 6929TIP3    H120751   5.186   1.595   1.137
 6929TIP3    H220752   5.185   1.526   1.271
 6930TIP3   OH220753   4.049   6.241   0.704
 6930TIP3    H120754   4.073   6.154   0.674
 6930TIP3    H220755   3.955   6.247   0.688
 6931TIP3   OH220756   4.949   4.780   2.977
 6931TIP3    H120757   4.974   4.745   3.063
 6931TIP3    H220758   5.016   4.845   2.957
 6932TIP3   OH220759   4.458   2.650   5.097
 6932TIP3    H120760   4.460   2.656   5.001
 6932TIP3    H220761   4.415   2.566   5.115
 6933TIP3   OH220762   1.245   6.489   4.140
 6933TIP3    H120763   1.294   6.416   4.103
 6933TIP3    H220764   1.210   6.455   4.223
 6934TIP3   OH220765   5.733   6.506   1.240
 6934TIP3    H120766   5.638   6.511   1.248
 6934TIP3    H220767   5.748   6.443   1.169
 6935TIP3   OH220768   0.200  -0.013   0.763
 6935TIP3    H120769   0.214   0.032   0.681
 6935TIP3    H220770   0.216   0.053   0.831
 6936TIP3   OH220771   0.934   0.258   2.588
 6936TIP3    H120772   0.903   0.168   2.580
 6936TIP3    H220773   0.910   0.300   2.506
 6937TIP3   OH220774   1.018   0.923   0.799
 6937TIP3    H120775   1.047   0.901   0.888
 6937TIP3    H220776   1.084   0.984   0.767
 6938TIP3   OH220777   5.027   5.713   1.386
 6938TIP3    H120778   5.103   5.767   1.408
 6938TIP3    H220779   5.056   5.623   1.404
 6939TIP3   OH220780   5.596   3.475   0.577
 6939TIP3    H120781   5.616   3.427   0.658
 6939TIP3    H220782   5.518   3.526   0.599
 6940TIP3   OH220783   5.105   2.357   5.251
 6940TIP3    H120784   5.101   2.358   5.156
 6940TIP3    H220785   5.086   2.266   5.275
 6941TIP3   OH220786   7.202   2.787   3.044
 6941TIP3    H120787   7.160   2.806   2.959
 6941TIP3    H220788   7.239   2.700   3.033
 6942TIP3   OH220789   4.828   6.237   3.935
 6942TIP3    H120790   4.833   6.268   4.025
 6942TIP3    H220791   4.872   6.152   3.936
 6943TIP3   OH220792   0.331   4.836   3.673
 6943TIP3    H120793   0.333   4.745   3.646
 6943TIP3    H220794   0.356   4.834   3.766
 6944TIP3   OH220795   3.037   1.832   4.700
 6944TIP3    H120796   3.115   1.787   4.732
 6944TIP3    H220797   2.976   1.831   4.774
 6945TIP3   OH220798   6.178   1.782   5.083
 6945TIP3    H120799   6.113   1.781   5.153
 6945TIP3    H220800   6.221   1.696   5.088
 6946TIP3   OH220801   6.860   0.601   2.564
 6946TIP3    H120802   6.872   0.561   2.478
 6946TIP3    H220803   6.800   0.675   2.548
 6947TIP3   OH220804   7.028   3.353   1.960
 6947TIP3    H120805   6.987   3.423   1.909
 6947TIP3    H220806   6.974   3.276   1.944
 6948TIP3   OH220807   1.638   0.561   5.619
 6948TIP3    H120808   1.547   0.580   5.594
 6948TIP3    H220809   1.681   0.647   5.620
 6949TIP3   OH220810   1.997   5.737   3.079
 6949TIP3    H120811   2.055   5.748   3.154
 6949TIP3    H220812   1.963   5.825   3.061
 6950TIP3   OH220813   2.460   1.073   1.929
 6950TIP3    H120814   2.368   1.090   1.908
 6950TIP3    H220815   2.489   1.152   1.974
 6951TIP3   OH220816   0.526   4.872   4.171
 6951TIP3    H120817   0.447   4.920   4.192
 6951TIP3    H220818   0.509   4.783   4.201
 6952TIP3   OH220819   3.984   2.077   1.404
 6952TIP3    H120820   3.929   2.018   1.352
 6952TIP3    H220821   3.942   2.163   1.396
 6953TIP3   OH220822   3.109   3.603   5.084
 6953TIP3    H120823   3.204   3.605   5.091
 6953TIP3    H220824   3.087   3.677   5.028
 6954TIP3   OH220825   7.130   4.229   2.752
 6954TIP3    H120826   7.110   4.258   2.840
 6954TIP3    H220827   7.201   4.287   2.722
 6955TIP3   OH220828   2.401   4.030   1.784
 6955TIP3    H120829   2.431   3.947   1.748
 6955TIP3    H220830   2.446   4.038   1.868
 6956TIP3   OH220831   3.049   5.665   4.626
 6956TIP3    H120832   3.007   5.749   4.646
 6956TIP3    H220833   3.134   5.670   4.671
 6957TIP3   OH220834   0.602   2.360   3.451
 6957TIP3    H120835   0.573   2.278   3.491
 6957TIP3    H220836   0.544   2.372   3.376
 6958TIP3   OH220837   6.395   2.863   3.272
 6958TIP3    H120838   6.453   2.829   3.340
 6958TIP3    H220839   6.351   2.785   3.237
 6959TIP3   OH220840   2.039   3.294   0.311
 6959TIP3    H120841   2.030   3.203   0.340
 6959TIP3    H220842   2.058   3.342   0.392
 6960TIP3   OH220843   7.203   0.827   3.853
 6960TIP3    H120844   7.170   0.770   3.784
 6960TIP3    H220845   7.274   0.876   3.812
 6961TIP3   OH220846   4.441   4.933   0.998
 6961TIP3    H120847   4.519   4.918   1.052
 6961TIP3    H220848   4.428   5.027   1.001
 6962TIP3   OH220849   3.437   3.001   2.241
 6962TIP3    H120850   3.531   2.990   2.248
 6962TIP3    H220851   3.409   3.029   2.328
 6963TIP3   OH220852   1.442   5.192   0.551
 6963TIP3    H120853   1.445   5.139   0.631
 6963TIP3    H220854   1.533   5.193   0.520
 6964TIP3   OH220855   0.948   6.418   0.392
 6964TIP3    H120856   0.926   6.361   0.465
 6964TIP3    H220857   0.927   6.366   0.314
 6965TIP3   OH220858   1.434   3.616   3.857
 6965TIP3    H120859   1.467   3.603   3.768
 6965TIP3    H220860   1.451   3.533   3.902
 6966TIP3   OH220861   5.730   1.934   5.010
 6966TIP3    H120862   5.780   1.857   4.983
 6966TIP3    H220863   5.668   1.900   5.075
 6967TIP3   OH220864   1.393   6.253   2.585
 6967TIP3    H120865   1.388   6.338   2.630
 6967TIP3    H220866   1.398   6.275   2.492
 6968TIP3   OH220867   6.098   0.963   3.162
 6968TIP3    H120868   6.107   1.029   3.093
 6968TIP3    H220869   6.143   0.886   3.128
 6969TIP3   OH220870   1.549   4.367   0.878
 6969TIP3    H120871   1.472   4.343   0.930
 6969TIP3    H220872   1.610   4.295   0.891
 6970TIP3   OH220873   3.375   2.496   0.839
 6970TIP3    H120874   3.375   2.572   0.896
 6970TIP3    H220875   3.290   2.455   0.854
 6971TIP3   OH220876   0.043   5.431   4.518
 6971TIP3    H120877  -0.034   5.471   4.478
 6971TIP3    H220878   0.039   5.339   4.490
 6972TIP3   OH220879   4.530   1.665   5.114
 6972TIP3    H120880   4.552   1.579   5.150
 6972TIP3    H220881   4.555   1.660   5.022
 6973TIP3   OH220882   0.713   3.656   4.962
 6973TIP3    H120883   0.802   3.689   4.975
 6973TIP3    H220884   0.715   3.612   4.877
 6974TIP3   OH220885   5.259   6.137   3.165
 6974TIP3    H120886   5.201   6.204   3.130
 6974TIP3    H220887   5.218   6.054   3.140
 6975TIP3   OH220888   4.533   6.085   1.965
 6975TIP3    H120889   4.602   6.090   2.031
 6975TIP3    H220890   4.493   6.172   1.965
 6976TIP3   OH220891   6.044   1.729   1.207
 6976TIP3    H120892   5.986   1.761   1.137
 6976TIP3    H220893   6.036   1.634   1.202
 6977TIP3   OH220894   5.499   3.262   1.537
 6977TIP3    H120895   5.524   3.177   1.500
 6977TIP3    H220896   5.412   3.279   1.501
 6978TIP3   OH220897   6.875   4.409   3.373
 6978TIP3    H120898   6.937   4.340   3.398
 6978TIP3    H220899   6.887   4.476   3.441
 6979TIP3   OH220900   2.933   6.451   3.227
 6979TIP3    H120901   2.838   6.454   3.232
 6979TIP3    H220902   2.961   6.543   3.237
 6980TIP3   OH220903   3.783   2.212   0.635
 6980TIP3    H120904   3.862   2.245   0.678
 6980TIP3    H220905   3.711   2.259   0.676
 6981TIP3   OH220906   1.985   0.591   4.305
 6981TIP3    H120907   2.032   0.545   4.374
 6981TIP3    H220908   2.027   0.563   4.224
 6982TIP3   OH220909   2.301   6.358   5.821
 6982TIP3    H120910   2.252   6.280   5.793
 6982TIP3    H220911   2.275   6.372   5.912
 6983TIP3   OH220912   6.251   3.135   4.176
 6983TIP3    H120913   6.187   3.145   4.106
 6983TIP3    H220914   6.285   3.046   4.165
 6984TIP3   OH220915   3.927   5.733   0.416
 6984TIP3    H120916   3.845   5.718   0.370
 6984TIP3    H220917   3.902   5.744   0.507
 6985TIP3   OH220918   4.830   6.615   4.264
 6985TIP3    H120919   4.918   6.619   4.227
 6985TIP3    H220920   4.795   6.703   4.251
 6986TIP3   OH220921   5.073   3.840   4.281
 6986TIP3    H120922   5.059   3.915   4.222
 6986TIP3    H220923   5.041   3.871   4.366
 6987TIP3   OH220924   0.719   4.929   0.826
 6987TIP3    H120925   0.733   4.863   0.758
 6987TIP3    H220926   0.632   4.909   0.861
 6988TIP3   OH220927   0.473   3.444   4.724
 6988TIP3    H120928   0.449   3.371   4.668
 6988TIP3    H220929   0.392   3.495   4.734
 6989TIP3   OH220930   2.052   0.682   2.515
 6989TIP3    H120931   2.025   0.765   2.477
 6989TIP3    H220932   1.978   0.623   2.500
 6990TIP3   OH220933   3.722   0.405   1.727
 6990TIP3    H120934   3.645   0.359   1.695
 6990TIP3    H220935   3.733   0.479   1.667
 6991TIP3   OH220936   4.452   2.781   2.196
 6991TIP3    H120937   4.492   2.868   2.194
 6991TIP3    H220938   4.523   2.722   2.171
 6992TIP3   OH220939   5.311   4.079   2.763
 6992TIP3    H120940   5.378   4.069   2.830
 6992TIP3    H220941   5.251   4.145   2.797
 6993TIP3   OH220942   1.517   4.462   2.312
 6993TIP3    H120943   1.424   4.456   2.290
 6993TIP3    H220944   1.558   4.391   2.263
 6994TIP3   OH220945   3.926   3.923   1.958
 6994TIP3    H120946   4.012   3.957   1.982
 6994TIP3    H220947   3.890   3.987   1.897
 6995TIP3   OH220948   3.409   3.533   0.346
 6995TIP3    H120949   3.466   3.559   0.273
 6995TIP3    H220950   3.391   3.614   0.392
 6996TIP3   OH220951   3.441   6.643   0.551
 6996TIP3    H120952   3.460   6.581   0.481
 6996TIP3    H220953   3.502   6.618   0.621
 6997TIP3   OH220954   1.945   2.586   3.291
 6997TIP3    H120955   1.994   2.510   3.321
 6997TIP3    H220956   1.856   2.572   3.321
 6998TIP3   OH220957   0.692   0.550   4.831
 6998TIP3    H120958   0.628   0.480   4.824
 6998TIP3    H220959   0.768   0.508   4.873
 6999TIP3   OH220960   4.947   0.670   2.704
 6999TIP3    H120961   5.000   0.727   2.649
 6999TIP3    H220962   4.857   0.701   2.691
 7000TIP3   OH220963   4.062   1.488   4.368
 7000TIP3    H120964   4.004   1.540   4.312
 7000TIP3    H220965   4.120   1.443   4.307
 7001TIP3   OH220966   2.754   6.700   1.954
 7001TIP3    H120967   2.783   6.761   1.886
 7001TIP3    H220968   2.803   6.620   1.937
 7002TIP3   OH220969   7.046   2.660   5.762
 7002TIP3    H120970   6.968   2.662   5.707
 7002TIP3    H220971   7.098   2.736   5.733
 7003TIP3   OH220972   2.692   5.983   5.149
 7003TIP3    H120973   2.653   6.010   5.232
 7003TIP3    H220974   2.618   5.956   5.095
 7004TIP3   OH220975   5.293   5.918   2.973
 7004TIP3    H120976   5.279   6.003   2.931
 7004TIP3    H220977   5.386   5.917   2.994
 7005TIP3   OH220978   4.421   3.457   0.753
 7005TIP3    H120979   4.393   3.500   0.672
 7005TIP3    H220980   4.509   3.491   0.768
 7006TIP3   OH220981   7.123   2.547   1.526
 7006TIP3    H120982   7.183   2.516   1.593
 7006TIP3    H220983   7.131   2.482   1.456
 7007TIP3   OH220984   4.798   6.498   1.000
 7007TIP3    H120985   4.873   6.442   1.021
 7007TIP3    H220986   4.725   6.459   1.047
 7008TIP3   OH220987   0.248   5.088   4.690
 7008TIP3    H120988   0.304   5.146   4.742
 7008TIP3    H220989   0.268   5.112   4.599
 7009TIP3   OH220990   1.070   4.684   2.173
 7009TIP3    H120991   1.147   4.636   2.204
 7009TIP3    H220992   0.999   4.657   2.232
 7010TIP3   OH220993   2.133   4.403   2.912
 7010TIP3    H120994   2.043   4.397   2.947
 7010TIP3    H220995   2.122   4.410   2.818
 7011TIP3   OH220996   0.330   6.622   0.353
 7011TIP3    H120997   0.392   6.681   0.398
 7011TIP3    H220998   0.380   6.542   0.338
 7012TIP3   OH220999   0.290   2.769   0.394
 7012TIP3    H121000   0.199   2.749   0.414
 7012TIP3    H221001   0.320   2.824   0.467
 7013TIP3   OH221002   3.849   6.380   4.295
 7013TIP3    H121003   3.816   6.469   4.294
 7013TIP3    H221004   3.944   6.389   4.305
 7014TIP3   OH221005   4.839   2.595   1.062
 7014TIP3    H121006   4.833   2.544   1.143
 7014TIP3    H221007   4.824   2.531   0.992
 7015TIP3   OH221008   1.127   2.664   3.621
 7015TIP3    H121009   1.064   2.665   3.548
 7015TIP3    H221010   1.191   2.598   3.595
 7016TIP3   OH221011   4.505   3.061   4.337
 7016TIP3    H121012   4.590   3.105   4.331
 7016TIP3    H221013   4.493   3.044   4.431
 7017TIP3   OH221014   3.277   2.659   0.641
 7017TIP3    H121015   3.338   2.592   0.670
 7017TIP3    H221016   3.264   2.715   0.717
 7018TIP3   OH221017   1.157   5.374   1.595
 7018TIP3    H121018   1.155   5.322   1.676
 7018TIP3    H221019   1.195   5.315   1.530
 7019TIP3   OH221020   0.919   2.757   1.146
 7019TIP3    H121021   0.957   2.705   1.217
 7019TIP3    H221022   0.824   2.747   1.159
 7020TIP3   OH221023   1.035   1.065   2.027
 7020TIP3    H121024   1.082   0.984   2.004
 7020TIP3    H221025   0.943   1.040   2.025
 7021TIP3   OH221026   4.424   2.484   3.406
 7021TIP3    H121027   4.425   2.390   3.390
 7021TIP3    H221028   4.516   2.507   3.420
 7022TIP3   OH221029   1.016   1.591   3.504
 7022TIP3    H121030   1.109   1.578   3.518
 7022TIP3    H221031   0.981   1.503   3.489
 7023TIP3   OH221032   0.577   5.543   5.785
 7023TIP3    H121033   0.645   5.477   5.796
 7023TIP3    H221034   0.538   5.552   5.872
 7024TIP3   OH221035   4.962   6.592   1.998
 7024TIP3    H121036   4.887   6.548   2.037
 7024TIP3    H221037   4.954   6.576   1.904
 7025TIP3   OH221038   7.117   4.607   5.445
 7025TIP3    H121039   7.166   4.550   5.503
 7025TIP3    H221040   7.094   4.551   5.371
 7026TIP3   OH221041   4.144   0.920   4.160
 7026TIP3    H121042   4.153   0.849   4.223
 7026TIP3    H221043   4.081   0.980   4.199
 7027TIP3   OH221044   4.162   0.774   4.373
 7027TIP3    H121045   4.089   0.750   4.430
 7027TIP3    H221046   4.207   0.844   4.420
 7028TIP3   OH221047   1.527   2.821   4.080
 7028TIP3    H121048   1.542   2.803   3.987
 7028TIP3    H221049   1.433   2.839   4.086
 7029TIP3   OH221050   5.045   3.907   1.975
 7029TIP3    H121051   4.985   3.946   1.911
 7029TIP3    H221052   5.004   3.824   1.998
 7030TIP3   OH221053   0.324   3.973   1.914
 7030TIP3    H121054   0.378   4.027   1.973
 7030TIP3    H221055   0.256   3.938   1.971
 7031TIP3   OH221056   3.634   5.815   1.237
 7031TIP3    H121057   3.560   5.801   1.296
 7031TIP3    H221058   3.594   5.826   1.151
 7032TIP3   OH221059   6.873   6.576   0.925
 7032TIP3    H121060   6.827   6.659   0.913
 7032TIP3    H221061   6.884   6.541   0.836
 7033TIP3   OH221062   5.917   3.803   3.516
 7033TIP3    H121063   5.939   3.895   3.529
 7033TIP3    H221064   5.831   3.803   3.475
 7034TIP3   OH221065   1.814   3.692   1.204
 7034TIP3    H121066   1.883   3.631   1.178
 7034TIP3    H221067   1.735   3.659   1.163
 7035TIP3   OH221068   4.058   5.021   0.056
 7035TIP3    H121069   4.089   5.024  -0.035
 7035TIP3    H221070   4.038   4.928   0.071
 7036TIP3   OH221071   5.454   5.132   5.770
 7036TIP3    H121072   5.407   5.066   5.717
 7036TIP3    H221073   5.388   5.197   5.791
 7037TIP3   OH221074   1.991   1.626   4.944
 7037TIP3    H121075   1.911   1.671   4.973
 7037TIP3    H221076   2.007   1.660   4.857
 7038TIP3   OH221077   3.310   0.959   3.771
 7038TIP3    H121078   3.352   0.919   3.847
 7038TIP3    H221079   3.217   0.938   3.782
 7039TIP3   OH221080   5.520   0.703   5.791
 7039TIP3    H121081   5.608   0.686   5.759
 7039TIP3    H221082   5.476   0.618   5.788
 7040TIP3   OH221083   5.888   6.149   5.572
 7040TIP3    H121084   5.924   6.170   5.486
 7040TIP3    H221085   5.805   6.197   5.575
 7041TIP3   OH221086   2.124   3.533   5.703
 7041TIP3    H121087   2.114   3.627   5.722
 7041TIP3    H221088   2.071   3.490   5.770
 7042TIP3   OH221089   3.765   5.887   0.883
 7042TIP3    H121090   3.679   5.852   0.906
 7042TIP3    H221091   3.762   5.897   0.788
 7043TIP3   OH221092   4.297   2.169   3.025
 7043TIP3    H121093   4.346   2.089   3.045
 7043TIP3    H221094   4.302   2.220   3.106
 7044TIP3   OH221095   4.323   1.133   5.151
 7044TIP3    H121096   4.321   1.201   5.084
 7044TIP3    H221097   4.230   1.117   5.172
 7045TIP3   OH221098   0.964   5.788   4.497
 7045TIP3    H121099   0.900   5.737   4.447
 7045TIP3    H221100   1.049   5.750   4.475
 7046TIP3   OH221101   5.232   0.588   3.624
 7046TIP3    H121102   5.273   0.666   3.586
 7046TIP3    H221103   5.181   0.622   3.698
 7047TIP3   OH221104   6.244   1.782   1.363
 7047TIP3    H121105   6.174   1.781   1.298
 7047TIP3    H221106   6.225   1.860   1.416
 7048TIP3   OH221107   1.693   0.289   5.156
 7048TIP3    H121108   1.729   0.374   5.134
 7048TIP3    H221109   1.744   0.260   5.232
 7049TIP3   OH221110   1.524   5.074   3.549
 7049TIP3    H121111   1.517   4.978   3.549
 7049TIP3    H221112   1.435   5.104   3.567
 7050TIP3   OH221113   3.836   5.862   0.005
 7050TIP3    H121114   3.882   5.900  -0.070
 7050TIP3    H221115   3.907   5.834   0.064
 7051TIP3   OH221116   6.700   3.342   2.536
 7051TIP3    H121117   6.616   3.323   2.494
 7051TIP3    H221118   6.739   3.411   2.483
 7052TIP3   OH221119   4.528   0.237   4.635
 7052TIP3    H121120   4.570   0.163   4.679
 7052TIP3    H221121   4.566   0.238   4.547
 7053TIP3   OH221122   6.204   6.236   0.606
 7053TIP3    H121123   6.240   6.304   0.550
 7053TIP3    H221124   6.126   6.275   0.646
 7054TIP3   OH221125   2.445   1.878   0.017
 7054TIP3    H121126   2.350   1.879   0.027
 7054TIP3    H221127   2.460   1.893  -0.076
 7055TIP3   OH221128   5.842   2.635   5.682
 7055TIP3    H121129   5.862   2.582   5.605
 7055TIP3    H221130   5.830   2.572   5.753
 7056TIP3   OH221131   0.428   0.102   2.103
 7056TIP3    H121132   0.453   0.185   2.145
 7056TIP3    H221133   0.412   0.125   2.012
 7057TIP3   OH221134   4.081   3.751   3.578
 7057TIP3    H121135   4.166   3.749   3.622
 7057TIP3    H221136   4.030   3.815   3.627
 7058TIP3   OH221137   4.325   5.231   2.399
 7058TIP3    H121138   4.306   5.153   2.451
 7058TIP3    H221139   4.298   5.304   2.455
 7059TIP3   OH221140   5.956   0.942   4.593
 7059TIP3    H121141   6.027   0.952   4.657
 7059TIP3    H221142   5.915   1.028   4.590
 7060TIP3   OH221143   6.838   4.758   0.108
 7060TIP3    H121144   6.756   4.775   0.062
 7060TIP3    H221145   6.904   4.748   0.039
 7061TIP3   OH221146   5.184   2.724   4.222
 7061TIP3    H121147   5.260   2.757   4.270
 7061TIP3    H221148   5.132   2.801   4.202
 7062TIP3   OH221149   1.201   3.642   1.613
 7062TIP3    H121150   1.246   3.703   1.555
 7062TIP3    H221151   1.108   3.661   1.600
 7063TIP3   OH221152   4.014   0.318   5.391
 7063TIP3    H121153   4.043   0.406   5.416
 7063TIP3    H221154   3.922   0.329   5.369
 7064TIP3   OH221155   1.784   5.358   5.590
 7064TIP3    H121156   1.748   5.322   5.671
 7064TIP3    H221157   1.811   5.281   5.539
 7065TIP3   OH221158   2.224   4.612   5.511
 7065TIP3    H121159   2.133   4.615   5.484
 7065TIP3    H221160   2.233   4.685   5.572
 7066TIP3   OH221161   4.369   3.590   5.605
 7066TIP3    H121162   4.460   3.569   5.582
 7066TIP3    H221163   4.325   3.600   5.521
 7067TIP3   OH221164   2.161   2.748   1.742
 7067TIP3    H121165   2.137   2.823   1.688
 7067TIP3    H221166   2.193   2.682   1.680
 7068TIP3   OH221167   2.952   5.627   5.913
 7068TIP3    H121168   3.046   5.636   5.933
 7068TIP3    H221169   2.949   5.564   5.841
 7069TIP3   OH221170   1.597   0.819   0.240
 7069TIP3    H121171   1.651   0.870   0.301
 7069TIP3    H221172   1.507   0.841   0.264
 7070TIP3   OH221173   3.799   6.772   1.053
 7070TIP3    H121174   3.875   6.762   0.996
 7070TIP3    H221175   3.789   6.867   1.064
 7071TIP3   OH221176   5.790   2.658   3.064
 7071TIP3    H121177   5.741   2.608   3.129
 7071TIP3    H221178   5.732   2.732   3.042
 7072TIP3   OH221179   4.093   1.569   2.472
 7072TIP3    H121180   4.168   1.511   2.488
 7072TIP3    H221181   4.130   1.657   2.469
 7073TIP3   OH221182   0.397   0.720   0.179
 7073TIP3    H121183   0.420   0.631   0.205
 7073TIP3    H221184   0.306   0.714   0.151
 7074TIP3   OH221185   3.774   0.988   4.862
 7074TIP3    H121186   3.866   0.959   4.866
 7074TIP3    H221187   3.747   0.993   4.954
 7075TIP3   OH221188   4.000   4.803   1.525
 7075TIP3    H121189   3.963   4.771   1.607
 7075TIP3    H221190   4.086   4.837   1.550
 7076TIP3   OH221191   5.179   4.461   0.995
 7076TIP3    H121192   5.198   4.373   0.964
 7076TIP3    H221193   5.256   4.485   1.047
 7077TIP3   OH221194   2.020   5.681   2.665
 7077TIP3    H121195   2.091   5.616   2.667
 7077TIP3    H221196   1.946   5.637   2.707
 7078TIP3   OH221197   6.068   6.281   3.028
 7078TIP3    H121198   5.985   6.238   3.051
 7078TIP3    H221199   6.065   6.288   2.933
 7079TIP3   OH221200   6.334   4.543   4.926
 7079TIP3    H121201   6.243   4.518   4.915
 7079TIP3    H221202   6.372   4.474   4.982
 7080TIP3   OH221203   1.846   1.534   0.515
 7080TIP3    H121204   1.769   1.585   0.490
 7080TIP3    H221205   1.871   1.489   0.434
 7081TIP3   OH221206   3.032   3.524   0.772
 7081TIP3    H121207   3.059   3.612   0.800
 7081TIP3    H221208   2.964   3.539   0.707
 7082TIP3   OH221209   4.240   2.938   0.244
 7082TIP3    H121210   4.170   3.003   0.246
 7082TIP3    H221211   4.237   2.904   0.154
 7083TIP3   OH221212   0.864   1.430   5.366
 7083TIP3    H121213   0.775   1.451   5.393
 7083TIP3    H221214   0.915   1.432   5.446
 7084TIP3   OH221215   4.329   4.372   1.846
 7084TIP3    H121216   4.329   4.286   1.803
 7084TIP3    H221217   4.384   4.360   1.924
 7085TIP3   OH221218   4.828   5.362   4.279
 7085TIP3    H121219   4.743   5.361   4.324
 7085TIP3    H221220   4.889   5.327   4.344
 7086TIP3   OH221221   5.223   5.367   4.056
 7086TIP3    H121222   5.238   5.308   3.982
 7086TIP3    H221223   5.252   5.453   4.025
 7087TIP3   OH221224   2.128   3.483   2.642
 7087TIP3    H121225   2.162   3.544   2.707
 7087TIP3    H221226   2.042   3.518   2.619
 7088TIP3   OH221227   3.691   5.459   1.854
 7088TIP3    H121228   3.779   5.444   1.889
 7088TIP3    H221229   3.706   5.486   1.764
 7089TIP3   OH221230   1.171   2.374   4.164
 7089TIP3    H121231   1.184   2.469   4.155
 7089TIP3    H221232   1.260   2.338   4.165
 7090TIP3   OH221233   1.595   6.224   5.181
 7090TIP3    H121234   1.605   6.306   5.230
 7090TIP3    H221235   1.637   6.241   5.097
 7091TIP3   OH221236   2.232   3.270   1.079
 7091TIP3    H121237   2.323   3.295   1.097
 7091TIP3    H221238   2.224   3.275   0.984
 7092TIP3   OH221239   6.802   6.232   4.583
 7092TIP3    H121240   6.792   6.308   4.641
 7092TIP3    H221241   6.846   6.266   4.506
 7093TIP3   OH221242   1.906   2.590   0.343
 7093TIP3    H121243   1.869   2.636   0.418
 7093TIP3    H221244   1.856   2.622   0.268
 7094TIP3   OH221245   2.099   5.129   2.679
 7094TIP3    H121246   2.159   5.190   2.721
 7094TIP3    H221247   2.148   5.093   2.605
 7095TIP3   OH221248   5.605   0.438   2.797
 7095TIP3    H121249   5.653   0.395   2.726
 7095TIP3    H221250   5.526   0.385   2.808
 7096TIP3   OH221251   2.779   5.156   0.645
 7096TIP3    H121252   2.713   5.221   0.667
 7096TIP3    H221253   2.859   5.189   0.687
 7097TIP3   OH221254   3.700   5.495   4.726
 7097TIP3    H121255   3.642   5.419   4.729
 7097TIP3    H221256   3.660   5.558   4.785
 7098TIP3   OH221257   0.603   4.714   0.528
 7098TIP3    H121258   0.593   4.686   0.619
 7098TIP3    H221259   0.681   4.770   0.529
 7099TIP3   OH221260   2.146   5.337   4.205
 7099TIP3    H121261   2.179   5.426   4.190
 7099TIP3    H221262   2.051   5.348   4.213
 7100TIP3   OH221263   1.425   4.822   1.715
 7100TIP3    H121264   1.443   4.899   1.661
 7100TIP3    H221265   1.504   4.812   1.769
 7101TIP3   OH221266   4.712   3.388   5.041
 7101TIP3    H121267   4.711   3.484   5.049
 7101TIP3    H221268   4.620   3.363   5.035
 7102TIP3   OH221269   3.103   1.193   0.583
 7102TIP3    H121270   3.021   1.235   0.610
 7102TIP3    H221271   3.161   1.266   0.562
 7103TIP3   OH221272   6.185   6.338   1.027
 7103TIP3    H121273   6.120   6.300   0.968
 7103TIP3    H221274   6.228   6.407   0.975
 7104TIP3   OH221275   0.491   4.772   2.700
 7104TIP3    H121276   0.432   4.847   2.698
 7104TIP3    H221277   0.555   4.794   2.767
 7105TIP3   OH221278   5.784   5.358   3.672
 7105TIP3    H121279   5.699   5.329   3.639
 7105TIP3    H221280   5.820   5.282   3.717
 7106TIP3   OH221281   6.812   1.092   0.484
 7106TIP3    H121282   6.842   1.032   0.552
 7106TIP3    H221283   6.776   1.167   0.531
 7107TIP3   OH221284   6.982   0.685   1.378
 7107TIP3    H121285   6.988   0.711   1.286
 7107TIP3    H221286   6.959   0.766   1.424
 7108TIP3   OH221287   2.039   1.432   2.571
 7108TIP3    H121288   2.121   1.413   2.526
 7108TIP3    H221289   2.035   1.528   2.575
 7109TIP3   OH221290   4.481   3.316   1.730
 7109TIP3    H121291   4.466   3.233   1.776
 7109TIP3    H221292   4.462   3.383   1.795
 7110TIP3   OH221293   1.795   5.030   5.147
 7110TIP3    H121294   1.865   4.970   5.123
 7110TIP3    H221295   1.829   5.117   5.125
 7111TIP3   OH221296   5.555   3.177   3.881
 7111TIP3    H121297   5.580   3.100   3.830
 7111TIP3    H221298   5.625   3.188   3.944
 7112TIP3   OH221299   5.825   5.332   1.430
 7112TIP3    H121300   5.790   5.324   1.519
 7112TIP3    H221301   5.853   5.424   1.424
 7113TIP3   OH221302   1.915   5.487   3.860
 7113TIP3    H121303   1.926   5.457   3.769
 7113TIP3    H221304   1.869   5.571   3.852
 7114TIP3   OH221305   0.431   3.408   5.818
 7114TIP3    H121306   0.408   3.390   5.909
 7114TIP3    H221307   0.400   3.498   5.803
 7115TIP3   OH221308   5.174   5.962   2.689
 7115TIP3    H121309   5.256   5.918   2.712
 7115TIP3    H221310   5.196   6.055   2.686
 7116TIP3   OH221311   6.228   4.221   3.552
 7116TIP3    H121312   6.261   4.207   3.641
 7116TIP3    H221313   6.176   4.301   3.558
 7117TIP3   OH221314   1.019   3.458   2.016
 7117TIP3    H121315   1.053   3.439   2.103
 7117TIP3    H221316   1.073   3.531   1.984
 7118TIP3   OH221317   2.381   3.016   3.907
 7118TIP3    H121318   2.334   2.986   3.830
 7118TIP3    H221319   2.319   3.072   3.954
 7119TIP3   OH221320   4.285   3.405   3.534
 7119TIP3    H121321   4.289   3.482   3.477
 7119TIP3    H221322   4.206   3.359   3.507
 7120TIP3   OH221323   3.886   2.477   0.845
 7120TIP3    H121324   3.841   2.531   0.780
 7120TIP3    H221325   3.917   2.539   0.910
 7121TIP3   OH221326   4.000   4.477   4.656
 7121TIP3    H121327   3.968   4.456   4.744
 7121TIP3    H221328   4.054   4.556   4.669
 7122TIP3   OH221329   0.885   5.626   3.654
 7122TIP3    H121330   0.967   5.632   3.605
 7122TIP3    H221331   0.824   5.682   3.606
 7123TIP3   OH221332   4.860   4.639   2.746
 7123TIP3    H121333   4.796   4.570   2.760
 7123TIP3    H221334   4.890   4.663   2.834
 7124TIP3   OH221335   1.648   4.712   5.791
 7124TIP3    H121336   1.617   4.698   5.881
 7124TIP3    H221337   1.606   4.641   5.741
 7125TIP3   OH221338   6.376   3.063   5.477
 7125TIP3    H121339   6.403   2.975   5.450
 7125TIP3    H221340   6.350   3.052   5.569
 7126TIP3   OH221341   5.575   3.850   0.374
 7126TIP3    H121342   5.595   3.756   0.374
 7126TIP3    H221343   5.654   3.891   0.337
 7127TIP3   OH221344   4.484   1.238   3.000
 7127TIP3    H121345   4.493   1.318   3.053
 7127TIP3    H221346   4.514   1.264   2.913
 7128TIP3   OH221347   1.463   0.350   1.780
 7128TIP3    H121348   1.475   0.256   1.794
 7128TIP3    H221349   1.496   0.365   1.691
 7129TIP3   OH221350   2.859   1.694   1.422
 7129TIP3    H121351   2.873   1.635   1.348
 7129TIP3    H221352   2.941   1.692   1.471
 7130TIP3   OH221353   6.240   0.539   4.984
 7130TIP3    H121354   6.254   0.561   5.076
 7130TIP3    H221355   6.156   0.579   4.962
 7131TIP3   OH221356   5.479   2.653   1.514
 7131TIP3    H121357   5.548   2.650   1.580
 7131TIP3    H221358   5.519   2.698   1.440
 7132TIP3   OH221359   3.380   5.494   1.016
 7132TIP3    H121360   3.346   5.511   0.928
 7132TIP3    H221361   3.344   5.408   1.039
 7133TIP3   OH221362   5.702   5.363   0.071
 7133TIP3    H121363   5.663   5.307   0.003
 7133TIP3    H221364   5.650   5.345   0.149
 7134TIP3   OH221365   6.159   4.453   0.778
 7134TIP3    H121366   6.156   4.417   0.690
 7134TIP3    H221367   6.174   4.547   0.766
 7135TIP3   OH221368   2.491   1.876   3.930
 7135TIP3    H121369   2.470   1.954   3.878
 7135TIP3    H221370   2.467   1.900   4.020
 7136TIP3   OH221371   3.941   2.154   2.351
 7136TIP3    H121372   3.872   2.194   2.298
 7136TIP3    H221373   4.020   2.164   2.298
 7137TIP3   OH221374   2.464   5.903   2.481
 7137TIP3    H121375   2.462   5.900   2.385
 7137TIP3    H221376   2.451   5.996   2.502
 7138TIP3   OH221377   0.153   5.012   0.383
 7138TIP3    H121378   0.248   5.005   0.370
 7138TIP3    H221379   0.134   5.105   0.373
 7139TIP3   OH221380   5.306   1.334   3.060
 7139TIP3    H121381   5.315   1.343   2.965
 7139TIP3    H221382   5.392   1.356   3.094
 7140TIP3   OH221383  -0.027   3.926   5.471
 7140TIP3    H121384   0.019   3.902   5.551
 7140TIP3    H221385  -0.012   4.020   5.461
 7141TIP3   OH221386   3.806   5.234   4.008
 7141TIP3    H121387   3.845   5.320   4.026
 7141TIP3    H221388   3.833   5.179   4.081
 7142TIP3   OH221389   3.677   5.447   0.183
 7142TIP3    H121390   3.640   5.468   0.269
 7142TIP3    H221391   3.622   5.376   0.150
 7143TIP3   OH221392   2.635   5.975   0.252
 7143TIP3    H121393   2.655   5.960   0.160
 7143TIP3    H221394   2.642   6.070   0.263
 7144TIP3   OH221395   6.666   4.613   1.152
 7144TIP3    H121396   6.661   4.559   1.231
 7144TIP3    H221397   6.641   4.554   1.081
 7145TIP3   OH221398   1.672   5.324   2.517
 7145TIP3    H121399   1.641   5.414   2.506
 7145TIP3    H221400   1.761   5.332   2.550
 7146TIP3   OH221401   5.253   4.556   1.727
 7146TIP3    H121402   5.229   4.464   1.737
 7146TIP3    H221403   5.343   4.554   1.693
 7147TIP3   OH221404   5.031   2.380   1.928
 7147TIP3    H121405   5.102   2.365   1.990
 7147TIP3    H221406   5.042   2.471   1.899
 7148TIP3   OH221407   1.598   1.054   2.296
 7148TIP3    H121408   1.550   0.983   2.252
 7148TIP3    H221409   1.542   1.131   2.286
 7149TIP3   OH221410   4.920   3.395   1.609
 7149TIP3    H121411   4.972   3.318   1.631
 7149TIP3    H221412   4.852   3.362   1.550
 7150TIP3   OH221413   6.231   1.805   4.352
 7150TIP3    H121414   6.175   1.730   4.334
 7150TIP3    H221415   6.218   1.822   4.446
 7151TIP3   OH221416   4.513   5.879   1.121
 7151TIP3    H121417   4.586   5.862   1.062
 7151TIP3    H221418   4.473   5.960   1.087
 7152TIP3   OH221419   0.472   1.185   3.869
 7152TIP3    H121420   0.553   1.186   3.818
 7152TIP3    H221421   0.499   1.165   3.958
 7153TIP3   OH221422   2.986   5.525   3.703
 7153TIP3    H121423   2.986   5.578   3.623
 7153TIP3    H221424   3.079   5.519   3.727
 7154TIP3   OH221425   7.174   3.660   3.501
 7154TIP3    H121426   7.117   3.674   3.577
 7154TIP3    H221427   7.120   3.683   3.426
 7155TIP3   OH221428   5.139   2.586   4.821
 7155TIP3    H121429   5.227   2.619   4.804
 7155TIP3    H221430   5.111   2.633   4.900
 7156TIP3   OH221431   0.296   6.784   4.978
 7156TIP3    H121432   0.284   6.817   5.067
 7156TIP3    H221433   0.377   6.734   4.982
 7157TIP3   OH221434   4.360   4.332   4.116
 7157TIP3    H121435   4.306   4.263   4.078
 7157TIP3    H221436   4.363   4.400   4.048
 7158TIP3   OH221437   1.597   0.842   4.420
 7158TIP3    H121438   1.639   0.797   4.494
 7158TIP3    H221439   1.621   0.934   4.431
 7159TIP3   OH221440   0.263   0.115   1.240
 7159TIP3    H121441   0.173   0.094   1.215
 7159TIP3    H221442   0.312   0.034   1.225
 7160TIP3   OH221443   0.422   6.288   4.275
 7160TIP3    H121444   0.363   6.240   4.334
 7160TIP3    H221445   0.413   6.379   4.301
 7161TIP3   OH221446   6.530   0.381   4.714
 7161TIP3    H121447   6.544   0.399   4.621
 7161TIP3    H221448   6.617   0.389   4.753
 7162TIP3   OH221449   6.536   6.116   3.454
 7162TIP3    H121450   6.550   6.157   3.539
 7162TIP3    H221451   6.512   6.025   3.475
 7163TIP3   OH221452   2.762   1.370   2.013
 7163TIP3    H121453   2.748   1.293   2.067
 7163TIP3    H221454   2.718   1.441   2.060
 7164TIP3   OH221455   5.317   3.965   1.453
 7164TIP3    H121456   5.263   3.989   1.378
 7164TIP3    H221457   5.374   4.041   1.468
 7165TIP3   OH221458   2.049   1.953   1.900
 7165TIP3    H121459   2.066   2.012   1.827
 7165TIP3    H221460   2.063   1.865   1.864
 7166TIP3   OH221461   2.865   1.897   4.906
 7166TIP3    H121462   2.923   1.946   4.964
 7166TIP3    H221463   2.783   1.947   4.906
 7167TIP3   OH221464   1.942   4.460   0.833
 7167TIP3    H121465   1.926   4.399   0.905
 7167TIP3    H221466   2.003   4.524   0.869
 7168TIP3   OH221467   1.646   0.338   2.779
 7168TIP3    H121468   1.693   0.284   2.715
 7168TIP3    H221469   1.716   0.383   2.827
 7169TIP3   OH221470   2.871   2.882   1.408
 7169TIP3    H121471   2.933   2.946   1.373
 7169TIP3    H221472   2.797   2.884   1.347
 7170TIP3   OH221473   1.809   1.470   0.035
 7170TIP3    H121474   1.902   1.446   0.029
 7170TIP3    H221475   1.762   1.396  -0.003
 7171TIP3   OH221476   4.758   2.214   0.274
 7171TIP3    H121477   4.812   2.288   0.247
 7171TIP3    H221478   4.756   2.157   0.198
 7172TIP3   OH221479   6.698   2.210   3.554
 7172TIP3    H121480   6.713   2.280   3.489
 7172TIP3    H221481   6.775   2.213   3.610
 7173TIP3   OH221482   1.319   1.658   4.796
 7173TIP3    H121483   1.337   1.610   4.715
 7173TIP3    H221484   1.252   1.605   4.840
 7174TIP3   OH221485   0.149   1.355   4.434
 7174TIP3    H121486   0.083   1.392   4.376
 7174TIP3    H221487   0.233   1.371   4.390
 7175TIP3   OH221488   4.834   0.094   3.984
 7175TIP3    H121489   4.755   0.049   3.953
 7175TIP3    H221490   4.858   0.153   3.913
 7176TIP3   OH221491   1.819   6.268   2.495
 7176TIP3    H121492   1.763   6.329   2.448
 7176TIP3    H221493   1.824   6.303   2.584
 7177TIP3   OH221494   7.074   1.348   1.347
 7177TIP3    H121495   7.070   1.424   1.405
 7177TIP3    H221496   7.049   1.381   1.261
 7178TIP3   OH221497   6.482   2.291   5.890
 7178TIP3    H121498   6.467   2.198   5.872
 7178TIP3    H221499   6.538   2.321   5.819
 7179TIP3   OH221500   1.291   3.904   0.502
 7179TIP3    H121501   1.337   3.826   0.531
 7179TIP3    H221502   1.352   3.945   0.440
 7180TIP3   OH221503   1.496   1.264   0.410
 7180TIP3    H121504   1.495   1.193   0.474
 7180TIP3    H221505   1.403   1.279   0.390
 7181TIP3   OH221506   0.830   0.599   2.818
 7181TIP3    H121507   0.856   0.579   2.728
 7181TIP3    H221508   0.866   0.686   2.834
 7182TIP3   OH221509   2.948   4.939   4.483
 7182TIP3    H121510   2.981   4.883   4.554
 7182TIP3    H221511   2.874   4.891   4.447
 7183TIP3   OH221512   4.439   5.662   1.277
 7183TIP3    H121513   4.458   5.740   1.225
 7183TIP3    H221514   4.463   5.588   1.220
 7184TIP3   OH221515   0.082   2.569   0.023
 7184TIP3    H121516   0.048   2.652   0.056
 7184TIP3    H221517   0.004   2.514   0.011
 7185TIP3   OH221518   6.161   3.326   3.487
 7185TIP3    H121519   6.123   3.243   3.515
 7185TIP3    H221520   6.136   3.335   3.395
 7186TIP3   OH221521   1.623   4.044   0.108
 7186TIP3    H121522   1.532   4.052   0.078
 7186TIP3    H221523   1.641   4.128   0.151
 7187TIP3   OH221524   5.045   3.541   3.024
 7187TIP3    H121525   5.063   3.573   2.935
 7187TIP3    H221526   5.109   3.470   3.037
 7188TIP3   OH221527   4.829   0.596   5.467
 7188TIP3    H121528   4.774   0.586   5.389
 7188TIP3    H221529   4.809   0.519   5.520
 7189TIP3   OH221530   2.811   4.640   4.937
 7189TIP3    H121531   2.779   4.712   4.883
 7189TIP3    H221532   2.879   4.599   4.884
 7190TIP3   OH221533   1.935   0.859   4.087
 7190TIP3    H121534   1.874   0.845   4.160
 7190TIP3    H221535   2.021   0.864   4.128
 7191TIP3   OH221536   0.369   1.000   0.629
 7191TIP3    H121537   0.454   0.976   0.664
 7191TIP3    H221538   0.337   0.920   0.587
 7192TIP3   OH221539   2.760   3.658   2.540
 7192TIP3    H121540   2.685   3.599   2.549
 7192TIP3    H221541   2.747   3.699   2.454
 7193TIP3   OH221542   5.178   0.579   2.435
 7193TIP3    H121543   5.217   0.652   2.483
 7193TIP3    H221544   5.084   0.587   2.452
 7194TIP3   OH221545   6.222   3.816   4.979
 7194TIP3    H121546   6.298   3.760   4.965
 7194TIP3    H221547   6.162   3.793   4.908
 7195TIP3   OH221548   6.901   1.429   3.087
 7195TIP3    H121549   6.970   1.364   3.079
 7195TIP3    H221550   6.852   1.404   3.166
 7196TIP3   OH221551   5.083   5.263   5.314
 7196TIP3    H121552   5.108   5.345   5.356
 7196TIP3    H221553   4.988   5.266   5.311
 7197TIP3   OH221554   0.200   3.672   3.821
 7197TIP3    H121555   0.209   3.699   3.730
 7197TIP3    H221556   0.265   3.725   3.868
 7198TIP3   OH221557   0.318   2.047   5.155
 7198TIP3    H121558   0.304   2.131   5.198
 7198TIP3    H221559   0.229   2.016   5.136
 7199TIP3   OH221560   0.671   0.572   3.895
 7199TIP3    H121561   0.684   0.644   3.957
 7199TIP3    H221562   0.671   0.493   3.949
 7200TIP3   OH221563   4.913   0.226   4.203
 7200TIP3    H121564   4.908   0.295   4.137
 7200TIP3    H221565   4.895   0.145   4.155
 7201TIP3   OH221566   5.426   6.644   3.992
 7201TIP3    H121567   5.466   6.658   4.078
 7201TIP3    H221568   5.414   6.732   3.957
 7202TIP3   OH221569   2.367   0.752   2.949
 7202TIP3    H121570   2.357   0.687   3.019
 7202TIP3    H221571   2.453   0.732   2.911
 7203TIP3   OH221572   4.684   0.084   3.215
 7203TIP3    H121573   4.739   0.128   3.279
 7203TIP3    H221574   4.594   0.101   3.242
 7204TIP3   OH221575   6.061   0.179   4.160
 7204TIP3    H121576   6.087   0.232   4.235
 7204TIP3    H221577   5.965   0.178   4.164
 7205TIP3   OH221578   6.392   6.069   0.731
 7205TIP3    H121579   6.455   6.037   0.666
 7205TIP3    H221580   6.344   6.138   0.686
 7206TIP3   OH221581   6.308   0.521   4.115
 7206TIP3    H121582   6.372   0.566   4.060
 7206TIP3    H221583   6.312   0.429   4.086
 7207TIP3   OH221584   4.624   2.004   1.115
 7207TIP3    H121585   4.626   2.047   1.029
 7207TIP3    H221586   4.704   1.951   1.117
 7208TIP3   OH221587   5.847   1.011   3.023
 7208TIP3    H121588   5.868   1.051   3.108
 7208TIP3    H221589   5.834   1.086   2.964
 7209TIP3   OH221590   4.935   5.403   4.652
 7209TIP3    H121591   4.859   5.443   4.694
 7209TIP3    H221592   4.955   5.461   4.579
 7210TIP3   OH221593   5.348   1.429   2.188
 7210TIP3    H121594   5.326   1.391   2.273
 7210TIP3    H221595   5.393   1.359   2.141
 7211TIP3   OH221596   4.671   3.414   3.434
 7211TIP3    H121597   4.723   3.415   3.514
 7211TIP3    H221598   4.646   3.506   3.420
 7212TIP3   OH221599   2.067   1.737   4.677
 7212TIP3    H121600   2.031   1.685   4.605
 7212TIP3    H221601   2.146   1.777   4.640
 7213TIP3   OH221602   2.320   3.003   4.317
 7213TIP3    H121603   2.268   2.946   4.260
 7213TIP3    H221604   2.259   3.073   4.342
 7214TIP3   OH221605   2.616   1.849   1.654
 7214TIP3    H121606   2.581   1.775   1.604
 7214TIP3    H221607   2.545   1.913   1.653
 7215TIP3   OH221608   0.224   4.310   2.194
 7215TIP3    H121609   0.132   4.284   2.200
 7215TIP3    H221610   0.227   4.397   2.235
 7216TIP3   OH221611   1.284   1.464   0.666
 7216TIP3    H121612   1.359   1.513   0.700
 7216TIP3    H221613   1.292   1.469   0.571
 7217TIP3   OH221614   4.266   2.027   1.452
 7217TIP3    H121615   4.294   2.019   1.361
 7217TIP3    H221616   4.175   2.059   1.446
 7218TIP3   OH221617   2.634   3.822   3.457
 7218TIP3    H121618   2.709   3.780   3.498
 7218TIP3    H221619   2.568   3.753   3.452
 7219TIP3   OH221620   6.053   3.623   1.594
 7219TIP3    H121621   6.055   3.532   1.622
 7219TIP3    H221622   5.969   3.633   1.550
 7220TIP3   OH221623   5.042   6.070   3.993
 7220TIP3    H121624   5.016   6.054   4.083
 7220TIP3    H221625   5.008   5.995   3.944
 7221TIP3   OH221626   6.454   1.531   4.572
 7221TIP3    H121627   6.519   1.482   4.621
 7221TIP3    H221628   6.397   1.465   4.534
 7222TIP3   OH221629   4.492   3.177   0.719
 7222TIP3    H121630   4.459   3.267   0.728
 7222TIP3    H221631   4.482   3.140   0.807
 7223TIP3   OH221632   4.360   1.953   3.579
 7223TIP3    H121633   4.372   1.997   3.496
 7223TIP3    H221634   4.296   1.883   3.560
 7224TIP3   OH221635   1.097   2.456   5.358
 7224TIP3    H121636   1.112   2.507   5.437
 7224TIP3    H221637   1.003   2.462   5.343
 7225TIP3   OH221638   2.171   3.135   2.714
 7225TIP3    H121639   2.101   3.195   2.689
 7225TIP3    H221640   2.128   3.070   2.770
 7226TIP3   OH221641   0.725   5.379   0.654
 7226TIP3    H121642   0.743   5.311   0.719
 7226TIP3    H221643   0.807   5.427   0.645
 7227TIP3   OH221644   4.421   3.507   1.044
 7227TIP3    H121645   4.482   3.455   0.993
 7227TIP3    H221646   4.355   3.444   1.074
 7228TIP3   OH221647   0.779   3.538   3.644
 7228TIP3    H121648   0.835   3.566   3.572
 7228TIP3    H221649   0.825   3.463   3.682
 7229TIP3   OH221650   5.356   5.096   4.690
 7229TIP3    H121651   5.340   5.162   4.623
 7229TIP3    H221652   5.286   5.032   4.678
 7230TIP3   OH221653   5.765   2.960   3.046
 7230TIP3    H121654   5.760   3.025   2.976
 7230TIP3    H221655   5.837   2.989   3.102
 7231TIP3   OH221656   5.067   1.347   2.024
 7231TIP3    H121657   5.008   1.406   1.975
 7231TIP3    H221658   5.045   1.363   2.116
 7232TIP3   OH221659   3.692   1.374   3.665
 7232TIP3    H121660   3.630   1.447   3.665
 7232TIP3    H221661   3.777   1.416   3.647
 7233TIP3   OH221662   1.167   4.776   1.747
 7233TIP3    H121663   1.208   4.694   1.722
 7233TIP3    H221664   1.233   4.843   1.727
 7234TIP3   OH221665   7.005   5.580   4.863
 7234TIP3    H121666   7.002   5.505   4.924
 7234TIP3    H221667   7.078   5.560   4.805
 7235TIP3   OH221668   4.979   4.726   3.239
 7235TIP3    H121669   4.955   4.664   3.308
 7235TIP3    H221670   4.960   4.812   3.276
 7236TIP3   OH221671   5.904   2.554   0.195
 7236TIP3    H121672   5.932   2.557   0.104
 7236TIP3    H221673   5.820   2.600   0.196
 7237TIP3   OH221674   7.109   6.377   0.519
 7237TIP3    H121675   7.180   6.435   0.494
 7237TIP3    H221676   7.141   6.289   0.498
 7238TIP3   OH221677   2.016   6.104   2.048
 7238TIP3    H121678   1.959   6.142   2.114
 7238TIP3    H221679   2.098   6.086   2.094
 7239TIP3   OH221680   3.090   2.669   5.218
 7239TIP3    H121681   3.087   2.721   5.138
 7239TIP3    H221682   3.057   2.583   5.191
 7240TIP3   OH221683   4.061   2.469   5.759
 7240TIP3    H121684   3.995   2.525   5.718
 7240TIP3    H221685   4.012   2.393   5.790
 7241TIP3   OH221686   4.920   4.481   3.441
 7241TIP3    H121687   4.842   4.434   3.470
 7241TIP3    H221688   4.993   4.438   3.485
 7242TIP3   OH221689   0.064   3.152   5.581
 7242TIP3    H121690   0.120   3.228   5.596
 7242TIP3    H221691   0.034   3.162   5.490
 7243TIP3   OH221692   6.281   4.433   5.406
 7243TIP3    H121693   6.312   4.497   5.341
 7243TIP3    H221694   6.348   4.435   5.475
 7244TIP3   OH221695   2.739   4.998   2.561
 7244TIP3    H121696   2.769   5.043   2.482
 7244TIP3    H221697   2.644   4.992   2.551
 7245TIP3   OH221698   6.035   2.129   3.898
 7245TIP3    H121699   6.123   2.096   3.918
 7245TIP3    H221700   5.978   2.084   3.961
 7246TIP3   OH221701   1.300   0.198   1.061
 7246TIP3    H121702   1.210   0.216   1.034
 7246TIP3    H221703   1.291   0.136   1.133
 7247TIP3   OH221704   0.690   0.435   3.302
 7247TIP3    H121705   0.663   0.443   3.211
 7247TIP3    H221706   0.779   0.399   3.297
 7248TIP3   OH221707   1.623   6.447   5.334
 7248TIP3    H121708   1.694   6.505   5.306
 7248TIP3    H221709   1.555   6.506   5.366
 7249TIP3   OH221710   0.586   3.336   4.964
 7249TIP3    H121711   0.638   3.310   4.888
 7249TIP3    H221712   0.518   3.393   4.929
 7250TIP3   OH221713   5.184   1.362   1.656
 7250TIP3    H121714   5.247   1.331   1.721
 7250TIP3    H221715   5.173   1.289   1.596
 7251TIP3   OH221716   0.337   3.507   1.581
 7251TIP3    H121717   0.398   3.433   1.575
 7251TIP3    H221718   0.310   3.523   1.490
 7252TIP3   OH221719   4.320   5.642   0.951
 7252TIP3    H121720   4.280   5.555   0.961
 7252TIP3    H221721   4.406   5.632   0.992
 7253TIP3   OH221722   2.018   0.358   3.783
 7253TIP3    H121723   2.109   0.386   3.773
 7253TIP3    H221724   2.012   0.275   3.736
 7254TIP3   OH221725   2.908   3.706   2.117
 7254TIP3    H121726   2.988   3.654   2.127
 7254TIP3    H221727   2.859   3.661   2.049
 7255TIP3   OH221728   3.847   0.024   5.184
 7255TIP3    H121729   3.930   0.050   5.144
 7255TIP3    H221730   3.840  -0.069   5.167
 7256TIP3   OH221731   6.501   6.350   2.501
 7256TIP3    H121732   6.562   6.322   2.569
 7256TIP3    H221733   6.556   6.395   2.436
 7257TIP3   OH221734   4.353   3.833   1.948
 7257TIP3    H121735   4.311   3.832   1.862
 7257TIP3    H221736   4.283   3.813   2.010
 7258TIP3   OH221737   0.725   6.677   0.933
 7258TIP3    H121738   0.660   6.654   0.999
 7258TIP3    H221739   0.700   6.626   0.856
 7259TIP3   OH221740   3.752   2.377   4.660
 7259TIP3    H121741   3.801   2.368   4.578
 7259TIP3    H221742   3.746   2.288   4.694
 7260TIP3   OH221743   6.317   2.528   4.255
 7260TIP3    H121744   6.338   2.468   4.184
 7260TIP3    H221745   6.349   2.613   4.225
 7261TIP3   OH221746   1.766   1.867   1.237
 7261TIP3    H121747   1.757   1.930   1.166
 7261TIP3    H221748   1.677   1.854   1.269
 7262TIP3   OH221749   7.044   5.051   2.292
 7262TIP3    H121750   7.088   5.038   2.376
 7262TIP3    H221751   6.953   5.069   2.315
 7263TIP3   OH221752   0.340   5.587   3.413
 7263TIP3    H121753   0.313   5.675   3.437
 7263TIP3    H221754   0.401   5.561   3.482
 7264TIP3   OH221755   1.144   2.621   2.098
 7264TIP3    H121756   1.146   2.693   2.034
 7264TIP3    H221757   1.232   2.584   2.095
 7265TIP3   OH221758   5.584   0.879   2.909
 7265TIP3    H121759   5.639   0.859   2.985
 7265TIP3    H221760   5.641   0.928   2.850
 7266TIP3   OH221761   4.110   0.800   0.225
 7266TIP3    H121762   4.036   0.776   0.281
 7266TIP3    H221763   4.073   0.806   0.137
 7267TIP3   OH221764   1.408   5.489   0.223
 7267TIP3    H121765   1.412   5.445   0.139
 7267TIP3    H221766   1.339   5.555   0.212
 7268TIP3   OH221767   2.946   0.103   1.336
 7268TIP3    H121768   2.913   0.104   1.426
 7268TIP3    H221769   2.933   0.192   1.304
 7269TIP3   OH221770   6.389   1.741   3.996
 7269TIP3    H121771   6.419   1.691   3.920
 7269TIP3    H221772   6.383   1.676   4.066
 7270TIP3   OH221773   1.024   2.645   1.376
 7270TIP3    H121774   1.098   2.675   1.429
 7270TIP3    H221775   0.950   2.641   1.436
 7271TIP3   OH221776   1.126   0.294   2.233
 7271TIP3    H121777   1.039   0.256   2.227
 7271TIP3    H221778   1.111   0.387   2.251
 7272TIP3   OH221779   3.767   2.795   4.170
 7272TIP3    H121780   3.703   2.755   4.229
 7272TIP3    H221781   3.728   2.786   4.083
 7273TIP3   OH221782   3.208   4.102   4.179
 7273TIP3    H121783   3.218   4.182   4.128
 7273TIP3    H221784   3.293   4.091   4.222
 7274TIP3   OH221785   0.585   2.698   0.439
 7274TIP3    H121786   0.583   2.676   0.346
 7274TIP3    H221787   0.675   2.727   0.455
 7275TIP3   OH221788   2.251   1.270   2.714
 7275TIP3    H121789   2.261   1.190   2.662
 7275TIP3    H221790   2.169   1.309   2.683
 7276TIP3   OH221791   1.105   2.886   0.572
 7276TIP3    H121792   1.173   2.834   0.616
 7276TIP3    H221793   1.092   2.840   0.489
 7277TIP3   OH221794   1.650   5.056   2.432
 7277TIP3    H121795   1.560   5.029   2.450
 7277TIP3    H221796   1.660   5.139   2.479
 7278TIP3   OH221797   6.586   4.631   5.791
 7278TIP3    H121798   6.664   4.660   5.838
 7278TIP3    H221799   6.584   4.536   5.806
 7279TIP3   OH221800   2.080   6.044   1.797
 7279TIP3    H121801   2.084   6.051   1.892
 7279TIP3    H221802   2.149   6.103   1.766
 7280TIP3   OH221803   5.745   1.864   2.091
 7280TIP3    H121804   5.712   1.879   2.180
 7280TIP3    H221805   5.667   1.845   2.039
 7281TIP3   OH221806   0.165   0.103   2.201
 7281TIP3    H121807   0.134   0.129   2.114
 7281TIP3    H221808   0.258   0.126   2.201
 7282TIP3   OH221809   1.599   3.681   4.764
 7282TIP3    H121810   1.533   3.686   4.834
 7282TIP3    H221811   1.657   3.610   4.791
 7283TIP3   OH221812   4.235   4.936   1.655
 7283TIP3    H121813   4.273   5.021   1.631
 7283TIP3    H221814   4.295   4.901   1.721
 7284TIP3   OH221815   4.102   1.729   4.535
 7284TIP3    H121816   4.042   1.691   4.470
 7284TIP3    H221817   4.186   1.732   4.490
 7285TIP3   OH221818   0.029   2.477   1.272
 7285TIP3    H121819   0.023   2.556   1.218
 7285TIP3    H221820   0.092   2.498   1.340
 7286TIP3   OH221821   3.176   3.869   2.732
 7286TIP3    H121822   3.215   3.872   2.819
 7286TIP3    H221823   3.087   3.903   2.745
 7287TIP3   OH221824   1.078   0.657   5.449
 7287TIP3    H121825   1.122   0.741   5.464
 7287TIP3    H221826   1.119   0.623   5.369
 7288TIP3   OH221827   4.410   4.692   4.189
 7288TIP3    H121828   4.370   4.755   4.129
 7288TIP3    H221829   4.448   4.625   4.132
 7289TIP3   OH221830   4.098   3.037   2.506
 7289TIP3    H121831   4.026   2.985   2.469
 7289TIP3    H221832   4.147   2.974   2.560
 7290TIP3   OH221833   5.725   1.216   4.062
 7290TIP3    H121834   5.722   1.134   4.110
 7290TIP3    H221835   5.798   1.265   4.101
 7291TIP3   OH221836   2.602   4.279   1.319
 7291TIP3    H121837   2.522   4.303   1.365
 7291TIP3    H221838   2.574   4.260   1.229
 7292TIP3   OH221839   4.683   0.405   2.669
 7292TIP3    H121840   4.726   0.421   2.753
 7292TIP3    H221841   4.725   0.326   2.635
 7293TIP3   OH221842   3.045   3.069   3.399
 7293TIP3    H121843   3.051   3.162   3.377
 7293TIP3    H221844   2.953   3.056   3.422
 7294TIP3   OH221845   2.491   4.105   4.998
 7294TIP3    H121846   2.415   4.056   4.965
 7294TIP3    H221847   2.565   4.047   4.982
 7295TIP3   OH221848   5.109   4.615   2.093
 7295TIP3    H121849   5.111   4.679   2.165
 7295TIP3    H221850   5.163   4.542   2.125
 7296TIP3   OH221851   1.734   3.337   1.187
 7296TIP3    H121852   1.762   3.362   1.275
 7296TIP3    H221853   1.688   3.415   1.154
 7297TIP3   OH221854   0.894   5.875   5.227
 7297TIP3    H121855   0.932   5.857   5.141
 7297TIP3    H221856   0.899   5.791   5.273
 7298TIP3   OH221857   2.293   3.580   5.124
 7298TIP3    H121858   2.347   3.643   5.172
 7298TIP3    H221859   2.286   3.617   5.036
 7299TIP3   OH221860   5.839   4.922   4.014
 7299TIP3    H121861   5.783   4.987   3.973
 7299TIP3    H221862   5.924   4.932   3.972
 7300TIP3   OH221863   1.595   2.053   3.376
 7300TIP3    H121864   1.627   2.049   3.466
 7300TIP3    H221865   1.545   2.135   3.373
 7301TIP3   OH221866   5.136   5.480   5.545
 7301TIP3    H121867   5.141   5.575   5.539
 7301TIP3    H221868   5.227   5.451   5.536
 7302TIP3   OH221869   1.480   3.333   3.945
 7302TIP3    H121870   1.533   3.319   4.023
 7302TIP3    H221871   1.489   3.253   3.894
 7303TIP3   OH221872   3.829   3.246   5.808
 7303TIP3    H121873   3.800   3.258   5.718
 7303TIP3    H221874   3.914   3.289   5.813
 7304TIP3   OH221875   2.114   6.707   4.523
 7304TIP3    H121876   2.053   6.737   4.456
 7304TIP3    H221877   2.069   6.726   4.606
 7305TIP3   OH221878   0.555   4.374   2.658
 7305TIP3    H121879   0.482   4.358   2.718
 7305TIP3    H221880   0.596   4.289   2.646
 7306TIP3   OH221881   1.046   6.788   1.041
 7306TIP3    H121882   1.050   6.852   1.112
 7306TIP3    H221883   1.017   6.707   1.083
 7307TIP3   OH221884   0.653   5.163   5.200
 7307TIP3    H121885   0.586   5.097   5.213
 7307TIP3    H221886   0.606   5.246   5.201
 7308TIP3   OH221887   6.794   5.790   3.753
 7308TIP3    H121888   6.714   5.825   3.792
 7308TIP3    H221889   6.855   5.780   3.826
 7309TIP3   OH221890   2.728   5.331   5.691
 7309TIP3    H121891   2.764   5.409   5.731
 7309TIP3    H221892   2.794   5.263   5.707
 7310TIP3   OH221893   6.112   0.621   1.898
 7310TIP3    H121894   6.018   0.633   1.905
 7310TIP3    H221895   6.141   0.692   1.840
 7311TIP3   OH221896   1.718   2.712   0.522
 7311TIP3    H121897   1.636   2.664   0.516
 7311TIP3    H221898   1.758   2.682   0.604
 7312TIP3   OH221899   1.418   4.988   2.551
 7312TIP3    H121900   1.383   4.903   2.523
 7312TIP3    H221901   1.342   5.045   2.556
 7313TIP3   OH221902   0.088   3.816   4.518
 7313TIP3    H121903   0.168   3.786   4.475
 7313TIP3    H221904   0.021   3.813   4.449
 7314TIP3   OH221905   3.340   2.169   0.560
 7314TIP3    H121906   3.422   2.140   0.600
 7314TIP3    H221907   3.345   2.265   0.563
 7315TIP3   OH221908   0.719   3.554   2.274
 7315TIP3    H121909   0.635   3.547   2.228
 7315TIP3    H221910   0.710   3.631   2.330
 7316TIP3   OH221911   5.658   5.022   0.446
 7316TIP3    H121912   5.718   4.949   0.432
 7316TIP3    H221913   5.699   5.097   0.402
 7317TIP3   OH221914   3.170   6.784   5.087
 7317TIP3    H121915   3.090   6.734   5.072
 7317TIP3    H221916   3.241   6.721   5.070
 7318TIP3   OH221917   5.166   2.969   1.221
 7318TIP3    H121918   5.202   2.888   1.258
 7318TIP3    H221919   5.239   3.007   1.172
 7319TIP3   OH221920   0.767   2.974   0.398
 7319TIP3    H121921   0.689   2.981   0.344
 7319TIP3    H221922   0.827   2.920   0.346
 7320TIP3   OH221923   4.709   6.440   2.010
 7320TIP3    H121924   4.746   6.353   2.000
 7320TIP3    H221925   4.615   6.427   2.005
 7321TIP3   OH221926   3.173   4.662   4.860
 7321TIP3    H121927   3.181   4.603   4.935
 7321TIP3    H221928   3.225   4.739   4.884
 7322TIP3   OH221929   6.244   1.448   0.724
 7322TIP3    H121930   6.176   1.492   0.776
 7322TIP3    H221931   6.212   1.454   0.634
 7323TIP3   OH221932   6.485   1.416   3.084
 7323TIP3    H121933   6.468   1.463   3.166
 7323TIP3    H221934   6.424   1.342   3.085
 7324TIP3   OH221935   5.009   6.428   4.571
 7324TIP3    H121936   4.927   6.476   4.562
 7324TIP3    H221937   5.076   6.495   4.582
 7325TIP3   OH221938   6.973   0.833   5.133
 7325TIP3    H121939   6.889   0.879   5.130
 7325TIP3    H221940   7.017   0.858   5.052
 7326TIP3   OH221941   4.063   4.265   5.602
 7326TIP3    H121942   4.150   4.269   5.563
 7326TIP3    H221943   4.078   4.272   5.696
 7327TIP3   OH221944   0.357   2.804   4.267
 7327TIP3    H121945   0.328   2.767   4.351
 7327TIP3    H221946   0.277   2.810   4.214
 7328TIP3   OH221947   4.228   2.649   0.302
 7328TIP3    H121948   4.257   2.720   0.359
 7328TIP3    H221949   4.186   2.693   0.229
 7329TIP3   OH221950   2.349   2.179   2.440
 7329TIP3    H121951   2.258   2.150   2.447
 7329TIP3    H221952   2.362   2.195   2.346
 7330TIP3   OH221953   6.965   0.294   2.575
 7330TIP3    H121954   6.954   0.372   2.521
 7330TIP3    H221955   6.913   0.312   2.654
 7331TIP3   OH221956   6.888   0.621   5.821
 7331TIP3    H121957   6.837   0.666   5.888
 7331TIP3    H221958   6.862   0.529   5.829
 7332TIP3   OH221959   0.091   6.594   0.459
 7332TIP3    H121960   0.042   6.673   0.483
 7332TIP3    H221961   0.180   6.625   0.442
 7333TIP3   OH221962   1.901   2.701   1.349
 7333TIP3    H121963   1.808   2.715   1.331
 7333TIP3    H221964   1.902   2.641   1.423
 7334TIP3   OH221965   0.444   6.392   5.694
 7334TIP3    H121966   0.439   6.463   5.758
 7334TIP3    H221967   0.402   6.427   5.616
 7335TIP3   OH221968   0.284   3.552   4.499
 7335TIP3    H121969   0.239   3.509   4.572
 7335TIP3    H221970   0.216   3.568   4.434
 7336TIP3   OH221971   3.589   5.059   1.413
 7336TIP3    H121972   3.509   5.094   1.450
 7336TIP3    H221973   3.608   4.981   1.466
 7337TIP3   OH221974   6.046   1.114   5.442
 7337TIP3    H121975   5.997   1.169   5.381
 7337TIP3    H221976   6.094   1.177   5.497
 7338TIP3   OH221977   6.894   6.355   2.642
 7338TIP3    H121978   6.968   6.312   2.684
 7338TIP3    H221979   6.906   6.448   2.661
 7339TIP3   OH221980   5.042   2.681   5.330
 7339TIP3    H121981   5.056   2.621   5.403
 7339TIP3    H221982   5.113   2.744   5.336
 7340TIP3   OH221983   2.187   2.640   5.763
 7340TIP3    H121984   2.097   2.661   5.742
 7340TIP3    H221985   2.186   2.546   5.783
 7341TIP3   OH221986   6.239   1.804   2.661
 7341TIP3    H121987   6.259   1.898   2.667
 7341TIP3    H221988   6.197   1.795   2.575
 7342TIP3   OH221989   5.789   4.423   1.689
 7342TIP3    H121990   5.698   4.451   1.677
 7342TIP3    H221991   5.840   4.504   1.684
 7343TIP3   OH221992   1.435   1.854   0.700
 7343TIP3    H121993   1.357   1.896   0.736
 7343TIP3    H221994   1.455   1.783   0.761
 7344TIP3   OH221995   0.492   0.777   2.291
 7344TIP3    H121996   0.464   0.740   2.375
 7344TIP3    H221997   0.564   0.720   2.263
 7345TIP3   OH221998   2.663   5.569   0.263
 7345TIP3    H121999   2.607   5.610   0.329
 7345TIP3    H222000   2.629   5.479   0.256
 7346TIP3   OH222001   3.464   3.150   0.166
 7346TIP3    H122002   3.434   3.200   0.242
 7346TIP3    H222003   3.517   3.212   0.116
 7347TIP3   OH222004   0.752   3.474   1.913
 7347TIP3    H122005   0.741   3.419   1.835
 7347TIP3    H222006   0.836   3.447   1.949
 7348TIP3   OH222007   2.150   5.550   2.939
 7348TIP3    H122008   2.144   5.636   2.981
 7348TIP3    H222009   2.160   5.570   2.846
 7349TIP3   OH222010   1.696   1.086   3.270
 7349TIP3    H122011   1.611   1.067   3.231
 7349TIP3    H222012   1.754   1.018   3.235
 7350TIP3   OH222013   3.701   4.008   0.504
 7350TIP3    H122014   3.752   4.076   0.460
 7350TIP3    H222015   3.646   3.971   0.435
 7351TIP3   OH222016   5.198   3.600   1.156
 7351TIP3    H122017   5.169   3.509   1.153
 7351TIP3    H222018   5.215   3.618   1.248
 7352TIP3   OH222019   2.003   3.730   3.325
 7352TIP3    H122020   2.052   3.694   3.399
 7352TIP3    H222021   1.933   3.667   3.309
 7353TIP3   OH222022   1.580   0.742   1.202
 7353TIP3    H122023   1.623   0.678   1.260
 7353TIP3    H222024   1.583   0.824   1.251
 7354TIP3   OH222025   6.908   0.851   1.958
 7354TIP3    H122026   6.965   0.830   2.032
 7354TIP3    H222027   6.875   0.767   1.928
 7355TIP3   OH222028   7.023   4.817   5.301
 7355TIP3    H122029   7.087   4.769   5.354
 7355TIP3    H222030   7.040   4.788   5.211
 7356TIP3   OH222031   3.749   6.217   0.685
 7356TIP3    H122032   3.677   6.170   0.644
 7356TIP3    H222033   3.722   6.228   0.776
 7357TIP3   OH222034   6.168   1.362   3.930
 7357TIP3    H122035   6.095   1.306   3.904
 7357TIP3    H222036   6.126   1.437   3.973
 7358TIP3   OH222037   4.047   2.328   1.188
 7358TIP3    H122038   3.979   2.302   1.127
 7358TIP3    H222039   4.001   2.344   1.270
 7359TIP3   OH222040   2.835   5.849   1.928
 7359TIP3    H122041   2.779   5.883   1.858
 7359TIP3    H222042   2.828   5.914   1.998
 7360TIP3   OH222043   7.246   0.069   1.095
 7360TIP3    H122044   7.182  -0.002   1.096
 7360TIP3    H222045   7.195   0.147   1.075
 7361TIP3   OH222046   0.311   3.632   0.406
 7361TIP3    H122047   0.364   3.691   0.354
 7361TIP3    H222048   0.238   3.685   0.438
 7362TIP3   OH222049   2.979   1.897   0.728
 7362TIP3    H122050   3.035   1.973   0.711
 7362TIP3    H222051   2.896   1.919   0.686
 7363TIP3   OH222052   3.829   6.399   5.273
 7363TIP3    H122053   3.875   6.394   5.189
 7363TIP3    H222054   3.794   6.311   5.286
 7364TIP3   OH222055   5.007   4.590   1.847
 7364TIP3    H122056   5.051   4.597   1.932
 7364TIP3    H222057   5.079   4.586   1.784
 7365TIP3   OH222058   2.810   3.501   4.840
 7365TIP3    H122059   2.722   3.492   4.877
 7365TIP3    H222060   2.796   3.512   4.746
 7366TIP3   OH222061   1.466   2.676   0.096
 7366TIP3    H122062   1.549   2.628   0.091
 7366TIP3    H222063   1.400   2.613   0.066
 7367TIP3   OH222064   1.604   1.739   2.130
 7367TIP3    H122065   1.654   1.766   2.054
 7367TIP3    H222066   1.657   1.671   2.172
 7368TIP3   OH222067   3.940   4.270   1.977
 7368TIP3    H122068   3.910   4.284   1.888
 7368TIP3    H222069   4.007   4.337   1.991
 7369TIP3   OH222070   1.273   1.066   1.114
 7369TIP3    H122071   1.308   1.140   1.164
 7369TIP3    H222072   1.235   1.107   1.036
 7370TIP3   OH222073   2.513   3.802   1.707
 7370TIP3    H122074   2.601   3.820   1.673
 7370TIP3    H222075   2.529   3.762   1.793
 7371TIP3   OH222076   5.720   3.198   5.760
 7371TIP3    H122077   5.807   3.224   5.730
 7371TIP3    H222078   5.730   3.105   5.782
 7372TIP3   OH222079   0.192   5.932   4.380
 7372TIP3    H122080   0.103   5.897   4.378
 7372TIP3    H222081   0.248   5.855   4.389
 7373TIP3   OH222082   4.318   5.356   4.561
 7373TIP3    H122083   4.328   5.308   4.643
 7373TIP3    H222084   4.242   5.316   4.519
 7374TIP3   OH222085   1.260   2.310   0.705
 7374TIP3    H122086   1.341   2.336   0.748
 7374TIP3    H222087   1.256   2.215   0.717
 7375TIP3   OH222088   1.059   2.067   0.191
 7375TIP3    H122089   1.051   1.975   0.217
 7375TIP3    H222090   1.151   2.088   0.203
 7376TIP3   OH222091   3.145   5.755   5.317
 7376TIP3    H122092   3.156   5.721   5.228
 7376TIP3    H222093   3.114   5.845   5.304
 7377TIP3   OH222094   1.327   0.507   1.079
 7377TIP3    H122095   1.353   0.550   1.160
 7377TIP3    H222096   1.323   0.414   1.101
 7378TIP3   OH222097   5.982   6.382   0.699
 7378TIP3    H122098   5.977   6.465   0.652
 7378TIP3    H222099   5.923   6.393   0.774
 7379TIP3   OH222100   4.377   2.826   0.998
 7379TIP3    H122101   4.445   2.767   0.967
 7379TIP3    H222102   4.295   2.780   0.981
 7380TIP3   OH222103   1.852   4.705   4.807
 7380TIP3    H122104   1.764   4.737   4.789
 7380TIP3    H222105   1.851   4.681   4.899
 7381TIP3   OH222106   3.352   5.611   3.867
 7381TIP3    H122107   3.316   5.559   3.795
 7381TIP3    H222108   3.302   5.583   3.944
 7382TIP3   OH222109   6.878   4.223   5.874
 7382TIP3    H122110   6.935   4.283   5.826
 7382TIP3    H222111   6.830   4.176   5.806
 7383TIP3   OH222112   1.799   6.673   5.288
 7383TIP3    H122113   1.786   6.758   5.330
 7383TIP3    H222114   1.888   6.677   5.252
 7384TIP3   OH222115   6.043   5.273   1.709
 7384TIP3    H122116   6.001   5.359   1.719
 7384TIP3    H222117   6.082   5.276   1.621
 7385TIP3   OH222118   2.597   2.994   1.314
 7385TIP3    H122119   2.502   3.007   1.309
 7385TIP3    H222120   2.609   2.901   1.293
 7386TIP3   OH222121   3.403   2.962   3.959
 7386TIP3    H122122   3.328   3.005   3.999
 7386TIP3    H222123   3.398   2.871   3.991
 7387TIP3   OH222124   4.289   6.555   0.338
 7387TIP3    H122125   4.225   6.604   0.390
 7387TIP3    H222126   4.343   6.510   0.402
 7388TIP3   OH222127   2.578   6.521   2.040
 7388TIP3    H122128   2.622   6.589   1.989
 7388TIP3    H222129   2.585   6.551   2.130
 7389TIP3   OH222130   2.494   3.946   1.331
 7389TIP3    H122131   2.519   4.025   1.379
 7389TIP3    H222132   2.409   3.922   1.366
 7390TIP3   OH222133   3.120   2.356   3.110
 7390TIP3    H122134   3.086   2.442   3.136
 7390TIP3    H222135   3.076   2.338   3.026
 7391TIP3   OH222136   4.767   5.295   4.863
 7391TIP3    H122137   4.816   5.228   4.814
 7391TIP3    H222138   4.676   5.280   4.839
 7392TIP3   OH222139   4.303   4.873   5.608
 7392TIP3    H122140   4.394   4.874   5.579
 7392TIP3    H222141   4.297   4.798   5.668
 7393TIP3   OH222142   0.770   6.719   4.789
 7393TIP3    H122143   0.751   6.698   4.698
 7393TIP3    H222144   0.692   6.690   4.837
 7394TIP3   OH222145   3.876   0.011   3.310
 7394TIP3    H122146   3.802  -0.031   3.354
 7394TIP3    H222147   3.838   0.087   3.266
 7395TIP3   OH222148   6.944   3.738   3.385
 7395TIP3    H122149   6.866   3.687   3.404
 7395TIP3    H222150   6.923   3.826   3.415
 7396TIP3   OH222151   2.473   5.661   3.983
 7396TIP3    H122152   2.389   5.690   4.017
 7396TIP3    H222153   2.524   5.741   3.973
 7397TIP3   OH222154   1.290   5.196   4.512
 7397TIP3    H122155   1.213   5.162   4.467
 7397TIP3    H222156   1.271   5.184   4.605
 7398TIP3   OH222157   0.354   4.911   1.234
 7398TIP3    H122158   0.371   4.988   1.287
 7398TIP3    H222159   0.401   4.928   1.152
 7399TIP3   OH222160   0.287   3.141   2.050
 7399TIP3    H122161   0.194   3.155   2.030
 7399TIP3    H222162   0.288   3.060   2.101
 7400TIP3   OH222163   7.059   3.348   2.497
 7400TIP3    H122164   7.096   3.432   2.523
 7400TIP3    H222165   7.056   3.351   2.401
 7401TIP3   OH222166   2.037   6.115   3.784
 7401TIP3    H122167   2.022   6.048   3.850
 7401TIP3    H222168   2.026   6.198   3.831
 7402TIP3   OH222169   7.064   2.238   0.587
 7402TIP3    H122170   7.048   2.273   0.675
 7402TIP3    H222171   7.156   2.260   0.570
 7403TIP3   OH222172   5.428   3.127   5.631
 7403TIP3    H122173   5.447   3.174   5.550
 7403TIP3    H222174   5.494   3.058   5.635
 7404TIP3   OH222175   6.161   1.209   2.475
 7404TIP3    H122176   6.151   1.158   2.555
 7404TIP3    H222177   6.248   1.188   2.443
 7405TIP3   OH222178   1.517   5.046   1.570
 7405TIP3    H122179   1.574   4.979   1.533
 7405TIP3    H222180   1.560   5.129   1.550
 7406TIP3   OH222181   1.429   3.159   2.155
 7406TIP3    H122182   1.355   3.115   2.197
 7406TIP3    H222183   1.505   3.134   2.209
 7407TIP3   OH222184   5.941   4.360   5.623
 7407TIP3    H122185   5.915   4.444   5.663
 7407TIP3    H222186   5.877   4.346   5.554
 7408TIP3   OH222187   1.008   5.361   0.344
 7408TIP3    H122188   0.939   5.397   0.400
 7408TIP3    H222189   1.088   5.373   0.395
 7409TIP3   OH222190   1.678   1.166   0.191
 7409TIP3    H122191   1.752   1.135   0.242
 7409TIP3    H222192   1.612   1.191   0.256
 7410TIP3   OH222193   0.590   4.518   3.428
 7410TIP3    H122194   0.656   4.480   3.486
 7410TIP3    H222195   0.609   4.482   3.342
 7411TIP3   OH222196   3.960   0.349   5.097
 7411TIP3    H122197   3.970   0.254   5.089
 7411TIP3    H222198   3.870   0.361   5.129
 7412TIP3   OH222199   4.975   0.420   2.775
 7412TIP3    H122200   5.060   0.431   2.731
 7412TIP3    H222201   4.940   0.509   2.781
 7413TIP3   OH222202   1.366   4.160   0.233
 7413TIP3    H122203   1.326   4.213   0.164
 7413TIP3    H222204   1.335   4.071   0.215
 7414TIP3   OH222205   3.198   3.731   0.853
 7414TIP3    H122206   3.280   3.765   0.889
 7414TIP3    H222207   3.131   3.759   0.916
 7415TIP3   OH222208   5.553   4.009   5.526
 7415TIP3    H122209   5.640   4.019   5.487
 7415TIP3    H222210   5.568   3.959   5.606
 7416TIP3   OH222211   0.364   5.542   1.994
 7416TIP3    H122212   0.408   5.491   1.926
 7416TIP3    H222213   0.429   5.549   2.064
 7417TIP3   OH222214   1.632   3.572   1.822
 7417TIP3    H122215   1.578   3.500   1.788
 7417TIP3    H222216   1.575   3.649   1.817
 7418TIP3   OH222217   2.722   4.157   0.970
 7418TIP3    H122218   2.792   4.163   1.035
 7418TIP3    H222219   2.650   4.113   1.016
 7419TIP3   OH222220   2.044   6.422   1.257
 7419TIP3    H122221   1.980   6.459   1.317
 7419TIP3    H222222   2.018   6.330   1.247
 7420TIP3   OH222223   0.587   5.451   5.103
 7420TIP3    H122224   0.666   5.429   5.055
 7420TIP3    H222225   0.545   5.519   5.050
 7421TIP3   OH222226   4.859   3.825   4.046
 7421TIP3    H122227   4.867   3.739   4.086
 7421TIP3    H222228   4.937   3.873   4.073
 7422TIP3   OH222229   6.605   6.346   0.283
 7422TIP3    H122230   6.649   6.428   0.308
 7422TIP3    H222231   6.598   6.351   0.188
 7423TIP3   OH222232   0.828   1.635   2.370
 7423TIP3    H122233   0.885   1.644   2.446
 7423TIP3    H222234   0.740   1.625   2.406
 7424TIP3   OH222235   7.050   1.032   3.173
 7424TIP3    H122236   6.969   0.983   3.184
 7424TIP3    H222237   7.098   0.986   3.104
 7425TIP3   OH222238   1.944   3.551   2.110
 7425TIP3    H122239   1.886   3.489   2.154
 7425TIP3    H222240   2.019   3.498   2.083
 7426TIP3   OH222241   5.832   2.989   4.708
 7426TIP3    H122242   5.895   3.009   4.639
 7426TIP3    H222243   5.854   2.900   4.735
 7427TIP3   OH222244   1.576   2.361   0.307
 7427TIP3    H122245   1.491   2.344   0.347
 7427TIP3    H222246   1.616   2.274   0.298
 7428TIP3   OH222247   5.533   6.752   0.474
 7428TIP3    H122248   5.601   6.757   0.542
 7428TIP3    H222249   5.456   6.721   0.521
 7429TIP3   OH222250   4.640   6.000   1.707
 7429TIP3    H122251   4.583   6.027   1.779
 7429TIP3    H222252   4.691   5.927   1.742
 7430TIP3   OH222253   6.018   0.977   2.034
 7430TIP3    H122254   6.014   0.994   2.128
 7430TIP3    H222255   6.064   1.053   1.998
 7431TIP3   OH222256   2.785   2.461   4.594
 7431TIP3    H122257   2.739   2.477   4.512
 7431TIP3    H222258   2.861   2.520   4.591
 7432TIP3   OH222259   4.252   0.961   1.600
 7432TIP3    H122260   4.234   1.013   1.521
 7432TIP3    H222261   4.348   0.960   1.605
 7433TIP3   OH222262   4.881   5.748   4.229
 7433TIP3    H122263   4.952   5.684   4.220
 7433TIP3    H222264   4.925   5.831   4.244
 7434TIP3   OH222265   5.724   0.056   0.599
 7434TIP3    H122266   5.751  -0.036   0.596
 7434TIP3    H222267   5.678   0.070   0.516
 7435TIP3   OH222268   0.384   0.400   3.171
 7435TIP3    H122269   0.442   0.331   3.202
 7435TIP3    H222270   0.369   0.455   3.249
 7436TIP3   OH222271   0.335   1.785   5.220
 7436TIP3    H122272   0.340   1.865   5.168
 7436TIP3    H222273   0.373   1.809   5.305
 7437TIP3   OH222274   2.865   6.725   3.202
 7437TIP3    H122275   2.810   6.704   3.127
 7437TIP3    H222276   2.809   6.777   3.260
 7438TIP3   OH222277   1.665   5.301   1.559
 7438TIP3    H122278   1.700   5.343   1.637
 7438TIP3    H222279   1.736   5.246   1.527
 7439TIP3   OH222280   2.430   1.761   3.487
 7439TIP3    H122281   2.444   1.769   3.392
 7439TIP3    H222282   2.517   1.740   3.522
 7440TIP3   OH222283   1.046   4.951   5.356
 7440TIP3    H122284   0.996   5.023   5.393
 7440TIP3    H222285   1.119   4.937   5.417
 7441TIP3   OH222286   5.661   5.571   4.113
 7441TIP3    H122287   5.730   5.626   4.151
 7441TIP3    H222288   5.676   5.575   4.019
 7442TIP3   OH222289   3.746   3.567   1.591
 7442TIP3    H122290   3.719   3.629   1.522
 7442TIP3    H222291   3.781   3.623   1.660
 7443TIP3   OH222292   3.133   5.273   2.376
 7443TIP3    H122293   3.119   5.280   2.282
 7443TIP3    H222294   3.137   5.178   2.393
 7444TIP3   OH222295   3.120   4.517   1.307
 7444TIP3    H122296   3.164   4.476   1.382
 7444TIP3    H222297   3.028   4.521   1.333
 7445TIP3   OH222298   4.874   3.420   0.554
 7445TIP3    H122299   4.958   3.456   0.525
 7445TIP3    H222300   4.871   3.332   0.518
 7446TIP3   OH222301   0.963   5.794   4.770
 7446TIP3    H122302   0.971   5.803   4.675
 7446TIP3    H222303   0.894   5.854   4.794
 7447TIP3   OH222304   2.305   0.365   2.197
 7447TIP3    H122305   2.366   0.422   2.244
 7447TIP3    H222306   2.314   0.391   2.105
 7448TIP3   OH222307   0.399   3.134   0.314
 7448TIP3    H122308   0.431   3.212   0.361
 7448TIP3    H222309   0.477   3.096   0.274
 7449TIP3   OH222310   5.142   1.502   5.747
 7449TIP3    H122311   5.194   1.574   5.783
 7449TIP3    H222312   5.128   1.443   5.820
 7450TIP3   OH222313   6.599   1.613   0.934
 7450TIP3    H122314   6.646   1.532   0.952
 7450TIP3    H222315   6.510   1.597   0.965
 7451TIP3   OH222316   3.462   6.292   4.271
 7451TIP3    H122317   3.520   6.221   4.241
 7451TIP3    H222318   3.515   6.341   4.334
 7452TIP3   OH222319   6.640   4.168   2.832
 7452TIP3    H122320   6.681   4.254   2.818
 7452TIP3    H222321   6.547   4.184   2.822
 7453TIP3   OH222322   3.605   6.001   2.003
 7453TIP3    H122323   3.546   5.980   2.076
 7453TIP3    H222324   3.676   6.051   2.043
 7454TIP3   OH222325   5.970   4.187   5.835
 7454TIP3    H122326   5.874   4.182   5.833
 7454TIP3    H222327   5.993   4.227   5.751
 7455TIP3   OH222328   0.188   1.477   4.075
 7455TIP3    H122329   0.118   1.462   4.012
 7455TIP3    H222330   0.145   1.518   4.150
 7456TIP3   OH222331   5.046   3.166   1.633
 7456TIP3    H122332   5.070   3.096   1.694
 7456TIP3    H222333   5.012   3.120   1.556
 7457TIP3   OH222334   1.423   2.935   0.694
 7457TIP3    H122335   1.443   2.981   0.613
 7457TIP3    H222336   1.397   2.847   0.667
 7458TIP3   OH222337   6.198   1.161   1.092
 7458TIP3    H122338   6.187   1.075   1.052
 7458TIP3    H222339   6.135   1.161   1.164
 7459TIP3   OH222340   2.838   5.976   3.233
 7459TIP3    H122341   2.773   6.040   3.206
 7459TIP3    H222342   2.816   5.897   3.183
 7460TIP3   OH222343   6.609   1.925   0.964
 7460TIP3    H122344   6.594   1.843   1.009
 7460TIP3    H222345   6.575   1.910   0.875
 7461TIP3   OH222346   2.367   0.970   5.857
 7461TIP3    H122347   2.387   0.890   5.810
 7461TIP3    H222348   2.327   1.027   5.791
 7462TIP3   OH222349   6.892   4.843   2.036
 7462TIP3    H122350   6.903   4.844   2.131
 7462TIP3    H222351   6.798   4.847   2.023
 7463TIP3   OH222352   3.918   2.784   4.528
 7463TIP3    H122353   3.944   2.704   4.574
 7463TIP3    H222354   3.836   2.762   4.484
 7464TIP3   OH222355   0.132   1.737   1.586
 7464TIP3    H122356   0.187   1.752   1.663
 7464TIP3    H222357   0.126   1.642   1.579
 7465TIP3   OH222358   1.877   4.456   5.703
 7465TIP3    H122359   1.866   4.533   5.648
 7465TIP3    H222360   1.898   4.491   5.790
 7466TIP3   OH222361   1.902   4.683   1.698
 7466TIP3    H122362   1.963   4.755   1.710
 7466TIP3    H222363   1.957   4.605   1.694
 7467TIP3   OH222364   4.613   1.352   1.909
 7467TIP3    H122365   4.650   1.264   1.902
 7467TIP3    H222366   4.601   1.381   1.819
 7468TIP3   OH222367   7.094   4.108   5.725
 7468TIP3    H122368   7.120   4.124   5.634
 7468TIP3    H222369   6.999   4.106   5.723
 7469TIP3   OH222370   6.718   6.115   3.782
 7469TIP3    H122371   6.801   6.108   3.735
 7469TIP3    H222372   6.735   6.075   3.867
 7470TIP3   OH222373   2.647   3.927   3.816
 7470TIP3    H122374   2.583   3.956   3.881
 7470TIP3    H222375   2.601   3.935   3.732
 7471TIP3   OH222376   4.780   2.490   5.521
 7471TIP3    H122377   4.723   2.559   5.556
 7471TIP3    H222378   4.745   2.470   5.435
 7472TIP3   OH222379   4.999   5.925   0.547
 7472TIP3    H122380   4.933   5.906   0.614
 7472TIP3    H222381   5.065   5.857   0.559
 7473TIP3   OH222382   4.896   2.563   4.541
 7473TIP3    H122383   4.881   2.652   4.510
 7473TIP3    H222384   4.977   2.536   4.498
 7474TIP3   OH222385   4.539   3.511   5.401
 7474TIP3    H122386   4.550   3.442   5.335
 7474TIP3    H222387   4.523   3.590   5.350
 7475TIP3   OH222388   3.030   6.768   4.080
 7475TIP3    H122389   3.083   6.688   4.089
 7475TIP3    H222390   3.032   6.787   3.987
 7476TIP3   OH222391   2.192   1.921   0.115
 7476TIP3    H122392   2.251   1.944   0.187
 7476TIP3    H222393   2.104   1.934   0.152
 7477TIP3   OH222394   3.766   5.147   0.593
 7477TIP3    H122395   3.753   5.079   0.660
 7477TIP3    H222396   3.744   5.104   0.511
 7478TIP3   OH222397   6.611   5.869   4.257
 7478TIP3    H122398   6.517   5.887   4.260
 7478TIP3    H222399   6.649   5.929   4.322
 7479TIP3   OH222400   6.693   2.109   5.286
 7479TIP3    H122401   6.680   2.159   5.205
 7479TIP3    H222402   6.756   2.160   5.336
 7480TIP3   OH222403   2.743   3.236   0.709
 7480TIP3    H122404   2.688   3.310   0.684
 7480TIP3    H222405   2.823   3.246   0.658
 7481TIP3   OH222406   2.609   0.811   4.186
 7481TIP3    H122407   2.639   0.761   4.110
 7481TIP3    H222408   2.684   0.811   4.246
 7482TIP3   OH222409   3.334   1.476   3.753
 7482TIP3    H122410   3.363   1.388   3.730
 7482TIP3    H222411   3.384   1.534   3.696
 7483TIP3   OH222412   6.457   6.650   1.723
 7483TIP3    H122413   6.363   6.643   1.706
 7483TIP3    H222414   6.473   6.592   1.797
 7484TIP3   OH222415   5.266   0.804   4.627
 7484TIP3    H122416   5.268   0.808   4.722
 7484TIP3    H222417   5.316   0.725   4.606
 7485TIP3   OH222418   3.704   6.678   3.154
 7485TIP3    H122419   3.615   6.705   3.175
 7485TIP3    H222420   3.712   6.692   3.060
 7486TIP3   OH222421   2.075   4.749   0.959
 7486TIP3    H122422   2.072   4.712   1.048
 7486TIP3    H222423   2.152   4.708   0.919
 7487TIP3   OH222424   2.530   0.418   0.177
 7487TIP3    H122425   2.608   0.451   0.132
 7487TIP3    H222426   2.467   0.403   0.107
 7488TIP3   OH222427   6.103   6.797   1.259
 7488TIP3    H122428   6.025   6.772   1.209
 7488TIP3    H222429   6.172   6.739   1.225
 7489TIP3   OH222430   2.519   2.369   2.922
 7489TIP3    H122431   2.520   2.396   3.014
 7489TIP3    H222432   2.466   2.436   2.878
 7490TIP3   OH222433   5.132   2.773   0.343
 7490TIP3    H122434   5.047   2.736   0.319
 7490TIP3    H222435   5.168   2.805   0.260
 7491TIP3   OH222436   0.751   0.905   2.622
 7491TIP3    H122437   0.808   0.871   2.692
 7491TIP3    H222438   0.720   0.989   2.655
 7492TIP3   OH222439   0.742   4.634   5.197
 7492TIP3    H122440   0.647   4.638   5.184
 7492TIP3    H222441   0.775   4.584   5.123
 7493TIP3   OH222442   2.578   3.594   3.003
 7493TIP3    H122443   2.635   3.666   2.977
 7493TIP3    H222444   2.638   3.521   3.018
 7494TIP3   OH222445   3.135   4.228   4.496
 7494TIP3    H122446   3.149   4.171   4.421
 7494TIP3    H222447   3.062   4.284   4.471
 7495TIP3   OH222448   3.352   1.321   0.900
 7495TIP3    H122449   3.428   1.363   0.941
 7495TIP3    H222450   3.298   1.292   0.973
 7496TIP3   OH222451   4.357   6.440   3.161
 7496TIP3    H122452   4.330   6.487   3.239
 7496TIP3    H222453   4.344   6.347   3.181
 7497TIP3   OH222454   1.886   4.960   4.018
 7497TIP3    H122455   1.827   4.998   4.083
 7497TIP3    H222456   1.833   4.891   3.976
 7498TIP3   OH222457   2.872   1.311   5.822
 7498TIP3    H122458   2.881   1.233   5.877
 7498TIP3    H222459   2.803   1.289   5.760
 7499TIP3   OH222460   6.646   3.948   3.275
 7499TIP3    H122461   6.672   3.952   3.183
 7499TIP3    H222462   6.640   4.040   3.302
 7500TIP3   OH222463   4.846   4.275   3.933
 7500TIP3    H122464   4.885   4.361   3.947
 7500TIP3    H222465   4.794   4.259   4.011
 7501TIP3   OH222466   2.649   0.049   1.055
 7501TIP3    H122467   2.711   0.072   0.985
 7501TIP3    H222468   2.592  -0.017   1.015
 7502TIP3   OH222469   1.064   0.997   2.337
 7502TIP3    H122470   1.063   0.964   2.247
 7502TIP3    H222471   0.977   0.978   2.371
 7503TIP3   OH222472   2.346   4.338   3.086
 7503TIP3    H122473   2.420   4.385   3.047
 7503TIP3    H222474   2.271   4.364   3.033
 7504TIP3   OH222475   5.402   1.330   3.618
 7504TIP3    H122476   5.397   1.244   3.577
 7504TIP3    H222477   5.444   1.314   3.703
 7505TIP3   OH222478   3.852   3.888   2.749
 7505TIP3    H122479   3.765   3.912   2.782
 7505TIP3    H222480   3.898   3.972   2.741
 7506TIP3   OH222481   1.618   3.829   3.596
 7506TIP3    H122482   1.690   3.805   3.654
 7506TIP3    H222483   1.626   3.924   3.586
 7507TIP3   OH222484   6.994   0.700   5.594
 7507TIP3    H122485   6.994   0.792   5.620
 7507TIP3    H222486   6.955   0.654   5.668
 7508TIP3   OH222487   0.195   1.034   1.727
 7508TIP3    H122488   0.236   1.056   1.811
 7508TIP3    H222489   0.268   1.029   1.666
 7509TIP3   OH222490   4.347   3.969   1.516
 7509TIP3    H122491   4.324   4.034   1.450
 7509TIP3    H222492   4.390   3.899   1.466
 7510TIP3   OH222493   4.306   1.381   4.978
 7510TIP3    H122494   4.250   1.457   4.987
 7510TIP3    H222495   4.395   1.416   4.974
 7511TIP3   OH222496   6.908   3.262   0.121
 7511TIP3    H122497   6.933   3.347   0.155
 7511TIP3    H222498   6.974   3.201   0.155
 7512TIP3   OH222499   1.182   1.214   5.248
 7512TIP3    H122500   1.238   1.144   5.281
 7512TIP3    H222501   1.224   1.294   5.278
 7513TIP3   OH222502   5.100   5.398   1.609
 7513TIP3    H122503   5.110   5.402   1.514
 7513TIP3    H222504   5.151   5.322   1.637
 7514TIP3   OH222505   4.387   6.325   5.106
 7514TIP3    H122506   4.346   6.300   5.023
 7514TIP3    H222507   4.459   6.263   5.117
 7515TIP3   OH222508   5.745   4.829   0.847
 7515TIP3    H122509   5.733   4.920   0.821
 7515TIP3    H222510   5.765   4.833   0.940
 7516TIP3   OH222511   3.860   4.741   1.764
 7516TIP3    H122512   3.805   4.814   1.790
 7516TIP3    H222513   3.917   4.725   1.840
 7517TIP3   OH222514   6.004   3.099   3.477
 7517TIP3    H122515   5.935   3.146   3.523
 7517TIP3    H222516   6.024   3.024   3.532
 7518TIP3   OH222517   3.566   2.037   4.810
 7518TIP3    H122518   3.508   2.089   4.755
 7518TIP3    H222519   3.556   2.076   4.897
 7519TIP3   OH222520   5.230   2.023   1.740
 7519TIP3    H122521   5.143   2.033   1.779
 7519TIP3    H222522   5.259   1.936   1.768
 7520TIP3   OH222523   2.517   5.154   5.720
 7520TIP3    H122524   2.586   5.220   5.723
 7520TIP3    H222525   2.547   5.091   5.654
 7521TIP3   OH222526   0.193   5.317   1.314
 7521TIP3    H122527   0.237   5.232   1.320
 7521TIP3    H222528   0.264   5.381   1.316
 7522TIP3   OH222529   5.921   4.532   1.182
 7522TIP3    H122530   5.988   4.478   1.140
 7522TIP3    H222531   5.928   4.512   1.275
 7523TIP3   OH222532   2.334   5.101   3.018
 7523TIP3    H122533   2.390   5.064   3.086
 7523TIP3    H222534   2.258   5.042   3.015
 7524TIP3   OH222535   2.628   4.419   0.358
 7524TIP3    H122536   2.708   4.380   0.322
 7524TIP3    H222537   2.587   4.461   0.282
 7525TIP3   OH222538   3.499   2.622   2.935
 7525TIP3    H122539   3.571   2.639   2.995
 7525TIP3    H222540   3.438   2.568   2.985
 7526TIP3   OH222541   0.277   1.776   2.117
 7526TIP3    H122542   0.333   1.804   2.045
 7526TIP3    H222543   0.228   1.855   2.142
 7527TIP3   OH222544   5.339   4.499   5.739
 7527TIP3    H122545   5.366   4.434   5.674
 7527TIP3    H222546   5.375   4.467   5.821
 7528TIP3   OH222547   3.811   1.490   4.144
 7528TIP3    H122548   3.805   1.482   4.239
 7528TIP3    H222549   3.808   1.400   4.112
 7529TIP3   OH222550   0.513   5.864   3.160
 7529TIP3    H122551   0.461   5.941   3.184
 7529TIP3    H222552   0.454   5.810   3.108
 7530TIP3   OH222553   0.784   3.162   1.903
 7530TIP3    H122554   0.689   3.153   1.900
 7530TIP3    H222555   0.814   3.126   1.820
 7531TIP3   OH222556   1.769   1.047   4.403
 7531TIP3    H122557   1.815   1.130   4.389
 7531TIP3    H222558   1.822   1.001   4.468
 7532TIP3   OH222559   1.617   0.359   1.545
 7532TIP3    H122560   1.560   0.368   1.468
 7532TIP3    H222561   1.702   0.334   1.508
 7533TIP3   OH222562   2.851   6.260   4.716
 7533TIP3    H122563   2.848   6.187   4.778
 7533TIP3    H222564   2.917   6.319   4.751
 7534TIP3   OH222565   4.105   1.636   0.513
 7534TIP3    H122566   4.044   1.647   0.586
 7534TIP3    H222567   4.123   1.543   0.510
 7535TIP3   OH222568   4.388   4.610   2.577
 7535TIP3    H122569   4.441   4.676   2.622
 7535TIP3    H222570   4.425   4.605   2.489
 7536TIP3   OH222571   4.001   0.227   2.831
 7536TIP3    H122572   4.017   0.283   2.755
 7536TIP3    H222573   4.088   0.212   2.868
 7537TIP3   OH222574   2.122   3.740   0.324
 7537TIP3    H122575   2.132   3.699   0.238
 7537TIP3    H222576   2.164   3.826   0.314
 7538TIP3   OH222577   2.390   5.128   0.957
 7538TIP3    H122578   2.303   5.152   0.988
 7538TIP3    H222579   2.411   5.048   1.006
 7539TIP3   OH222580   6.347   4.463   1.268
 7539TIP3    H122581   6.304   4.466   1.183
 7539TIP3    H222582   6.343   4.370   1.293
 7540TIP3   OH222583   4.889   3.254   1.975
 7540TIP3    H122584   4.922   3.283   2.060
 7540TIP3    H222585   4.851   3.332   1.936
 7541TIP3   OH222586   5.511   2.666   5.737
 7541TIP3    H122587   5.491   2.751   5.699
 7541TIP3    H222588   5.485   2.674   5.829
 7542TIP3   OH222589   1.941   0.186   3.248
 7542TIP3    H122590   2.023   0.142   3.269
 7542TIP3    H222591   1.947   0.205   3.154
 7543TIP3   OH222592   5.677   4.166   4.983
 7543TIP3    H122593   5.756   4.217   4.962
 7543TIP3    H222594   5.710   4.080   5.008
 7544TIP3   OH222595   5.384   2.244   3.940
 7544TIP3    H122596   5.347   2.310   3.998
 7544TIP3    H222597   5.393   2.289   3.856
 7545TIP3   OH222598   4.366   5.802   4.822
 7545TIP3    H122599   4.327   5.744   4.756
 7545TIP3    H222600   4.460   5.791   4.811
 7546TIP3   OH222601   3.232   5.901   1.230
 7546TIP3    H122602   3.158   5.947   1.270
 7546TIP3    H222603   3.283   5.869   1.305
 7547TIP3   OH222604   1.218   5.116   3.893
 7547TIP3    H122605   1.236   5.075   3.977
 7547TIP3    H222606   1.260   5.059   3.829
 7548TIP3   OH222607   3.004   0.912   1.093
 7548TIP3    H122608   2.914   0.944   1.083
 7548TIP3    H222609   3.008   0.881   1.184
 7549TIP3   OH222610   0.288   2.175   2.682
 7549TIP3    H122611   0.369   2.156   2.633
 7549TIP3    H222612   0.288   2.111   2.753
 7550TIP3   OH222613   4.890   1.289   5.537
 7550TIP3    H122614   4.920   1.263   5.624
 7550TIP3    H222615   4.970   1.289   5.483
 7551TIP3   OH222616   4.547   6.506   1.620
 7551TIP3    H122617   4.479   6.568   1.648
 7551TIP3    H222618   4.614   6.513   1.688
 7552TIP3   OH222619   2.253   1.399   5.411
 7552TIP3    H122620   2.176   1.361   5.368
 7552TIP3    H222621   2.299   1.446   5.342
 7553TIP3   OH222622   6.344   2.015   2.345
 7553TIP3    H122623   6.255   1.984   2.325
 7553TIP3    H222624   6.331   2.103   2.381
 7554TIP3   OH222625   3.284   5.220   4.606
 7554TIP3    H122626   3.281   5.125   4.609
 7554TIP3    H222627   3.273   5.241   4.513
 7555TIP3   OH222628   6.714   3.399   1.782
 7555TIP3    H122629   6.728   3.356   1.867
 7555TIP3    H222630   6.787   3.459   1.773
 7556TIP3   OH222631   3.077   6.198   3.767
 7556TIP3    H122632   3.067   6.289   3.796
 7556TIP3    H222633   3.170   6.179   3.781
 7557TIP3   OH222634   1.752   5.905   3.441
 7557TIP3    H122635   1.672   5.883   3.394
 7557TIP3    H222636   1.799   5.822   3.447
 7558TIP3   OH222637   5.257   4.075   5.760
 7558TIP3    H122638   5.265   3.980   5.753
 7558TIP3    H222639   5.163   4.092   5.754
 7559TIP3   OH222640   6.735   3.254   1.000
 7559TIP3    H122641   6.703   3.262   0.910
 7559TIP3    H222642   6.700   3.330   1.045
 7560TIP3   OH222643   5.820   1.775   1.740
 7560TIP3    H122644   5.844   1.867   1.742
 7560TIP3    H222645   5.725   1.775   1.724
 7561TIP3   OH222646   2.803   0.118   3.166
 7561TIP3    H122647   2.811   0.212   3.150
 7561TIP3    H222648   2.736   0.089   3.104
 7562TIP3   OH222649   3.311   3.488   0.094
 7562TIP3    H122650   3.299   3.492   0.189
 7562TIP3    H222651   3.271   3.569   0.061
 7563TIP3   OH222652   2.188   2.370   4.874
 7563TIP3    H122653   2.157   2.360   4.784
 7563TIP3    H222654   2.117   2.336   4.928
 7564TIP3   OH222655   5.146   0.146   2.815
 7564TIP3    H122656   5.236   0.153   2.785
 7564TIP3    H222657   5.121   0.235   2.839
 7565TIP3   OH222658   0.304   5.731   4.722
 7565TIP3    H122659   0.263   5.695   4.643
 7565TIP3    H222660   0.375   5.670   4.742
 7566TIP3   OH222661   5.558   0.960   5.692
 7566TIP3    H122662   5.645   0.984   5.723
 7566TIP3    H222663   5.536   0.880   5.741
 7567TIP3   OH222664   4.755   2.715   5.324
 7567TIP3    H122665   4.832   2.768   5.345
 7567TIP3    H222666   4.791   2.628   5.303
 7568TIP3   OH222667   2.045   0.060   4.861
 7568TIP3    H122668   2.140   0.052   4.868
 7568TIP3    H222669   2.026   0.150   4.889
 7569TIP3   OH222670   3.799   3.238   3.042
 7569TIP3    H122671   3.802   3.284   2.959
 7569TIP3    H222672   3.762   3.152   3.021
 7570TIP3   OH222673   2.576   0.972   5.158
 7570TIP3    H122674   2.548   0.976   5.066
 7570TIP3    H222675   2.502   0.932   5.203
 7571TIP3   OH222676   5.404   0.227   0.587
 7571TIP3    H122677   5.470   0.255   0.524
 7571TIP3    H222678   5.454   0.185   0.657
 7572TIP3   OH222679   3.234   3.312   3.137
 7572TIP3    H122680   3.282   3.229   3.134
 7572TIP3    H222681   3.226   3.332   3.230
 7573TIP3   OH222682   6.575   4.780   1.534
 7573TIP3    H122683   6.574   4.870   1.502
 7573TIP3    H222684   6.505   4.776   1.599
 7574TIP3   OH222685   0.097   3.916   2.085
 7574TIP3    H122686   0.062   3.883   2.168
 7574TIP3    H222687   0.039   3.879   2.018
 7575TIP3   OH222688   4.635   6.417   4.296
 7575TIP3    H122689   4.610   6.431   4.387
 7575TIP3    H222690   4.690   6.492   4.275
 7576TIP3   OH222691   3.840   3.149   5.416
 7576TIP3    H122692   3.771   3.122   5.355
 7576TIP3    H222693   3.920   3.146   5.364
 7577TIP3   OH222694   2.581   4.367   1.657
 7577TIP3    H122695   2.659   4.345   1.607
 7577TIP3    H222696   2.567   4.460   1.640
 7578TIP3   OH222697   5.105   5.093   3.342
 7578TIP3    H122698   5.134   5.086   3.433
 7578TIP3    H222699   5.011   5.109   3.349
 7579TIP3   OH222700   6.721   4.615   1.720
 7579TIP3    H122701   6.660   4.630   1.792
 7579TIP3    H222702   6.674   4.644   1.642
 7580TIP3   OH222703   2.099   6.825   1.139
 7580TIP3    H122704   2.099   6.745   1.086
 7580TIP3    H222705   2.025   6.814   1.199
 7581TIP3   OH222706   1.464   5.696   4.706
 7581TIP3    H122707   1.460   5.791   4.699
 7581TIP3    H222708   1.555   5.678   4.731
 7582TIP3   OH222709   6.887   3.858   1.482
 7582TIP3    H122710   6.855   3.825   1.397
 7582TIP3    H222711   6.860   3.950   1.483
 7583TIP3   OH222712   3.391   5.675   1.279
 7583TIP3    H122713   3.389   5.580   1.288
 7583TIP3    H222714   3.355   5.692   1.193
 7584TIP3   OH222715   6.360   0.094   4.007
 7584TIP3    H122716   6.282   0.142   4.034
 7584TIP3    H222717   6.376   0.032   4.078
 7585TIP3   OH222718   3.871   2.694   4.946
 7585TIP3    H122719   3.849   2.611   4.986
 7585TIP3    H222720   3.813   2.758   4.987
 7586TIP3   OH222721   7.089   4.671   3.734
 7586TIP3    H122722   7.047   4.754   3.757
 7586TIP3    H222723   7.177   4.677   3.770
 7587TIP3   OH222724   3.599   2.724   2.063
 7587TIP3    H122725   3.608   2.796   2.127
 7587TIP3    H222726   3.677   2.670   2.077
 7588TIP3   OH222727   3.321   0.925   5.852
 7588TIP3    H122728   3.286   0.941   5.764
 7588TIP3    H222729   3.302   1.005   5.901
 7589TIP3   OH222730   0.046   3.444   5.738
 7589TIP3    H122731   0.139   3.444   5.715
 7589TIP3    H222732   0.044   3.459   5.832
 7590TIP3   OH222733   6.708   6.812   1.927
 7590TIP3    H122734   6.719   6.746   1.858
 7590TIP3    H222735   6.646   6.773   1.988
 7591TIP3   OH222736   1.816   6.510   3.033
 7591TIP3    H122737   1.791   6.590   2.988
 7591TIP3    H222738   1.889   6.536   3.090
 7592TIP3   OH222739   5.837   3.392   3.838
 7592TIP3    H122740   5.804   3.308   3.805
 7592TIP3    H222741   5.854   3.443   3.759
 7593TIP3   OH222742   4.730   3.966   1.350
 7593TIP3    H122743   4.791   3.905   1.392
 7593TIP3    H222744   4.768   3.983   1.264
 7594TIP3   OH222745   4.255   2.385   0.846
 7594TIP3    H122746   4.247   2.466   0.897
 7594TIP3    H222747   4.285   2.415   0.760
 7595TIP3   OH222748   4.192   3.890   2.445
 7595TIP3    H122749   4.182   3.972   2.492
 7595TIP3    H222750   4.118   3.836   2.475
 7596TIP3   OH222751   0.423   2.075   5.540
 7596TIP3    H122752   0.425   2.164   5.505
 7596TIP3    H222753   0.421   2.087   5.635
 7597TIP3   OH222754   5.742   2.903   0.777
 7597TIP3    H122755   5.756   2.962   0.703
 7597TIP3    H222756   5.696   2.828   0.740
 7598TIP3   OH222757   5.291   6.774   2.973
 7598TIP3    H122758   5.321   6.745   3.059
 7598TIP3    H222759   5.336   6.856   2.958
 7599TIP3   OH222760   1.202   5.647   1.327
 7599TIP3    H122761   1.242   5.571   1.369
 7599TIP3    H222762   1.237   5.647   1.238
 7600TIP3   OH222763   3.170   6.121   1.063
 7600TIP3    H122764   3.201   6.030   1.073
 7600TIP3    H222765   3.170   6.156   1.153
 7601TIP3   OH222766   6.647   6.259   2.712
 7601TIP3    H122767   6.726   6.312   2.705
 7601TIP3    H222768   6.634   6.247   2.806
 7602TIP3   OH222769   1.338   0.521   2.984
 7602TIP3    H122770   1.384   0.445   3.019
 7602TIP3    H222771   1.398   0.560   2.921
 7603TIP3   OH222772   3.337   2.274   4.879
 7603TIP3    H122773   3.402   2.317   4.824
 7603TIP3    H222774   3.283   2.345   4.914
 7604TIP3   OH222775   1.724   1.894   0.595
 7604TIP3    H122776   1.629   1.889   0.607
 7604TIP3    H222777   1.751   1.802   0.588
 7605TIP3   OH222778   3.566   1.494   5.009
 7605TIP3    H122779   3.521   1.574   4.979
 7605TIP3    H222780   3.496   1.439   5.044
 7606TIP3   OH222781   1.777   1.945   5.739
 7606TIP3    H122782   1.792   1.889   5.663
 7606TIP3    H222783   1.815   1.897   5.813
 7607TIP3   OH222784   1.597   1.637   0.442
 7607TIP3    H122785   1.582   1.643   0.347
 7607TIP3    H222786   1.513   1.609   0.478
 7608TIP3   OH222787   3.181   5.471   4.040
 7608TIP3    H122788   3.157   5.379   4.051
 7608TIP3    H222789   3.146   5.515   4.118
 7609TIP3   OH222790   6.309   5.199   0.415
 7609TIP3    H122791   6.309   5.273   0.353
 7609TIP3    H222792   6.295   5.122   0.360
 7610TIP3   OH222793   5.535   5.808   3.136
 7610TIP3    H122794   5.563   5.770   3.053
 7610TIP3    H222795   5.479   5.741   3.175
 7611TIP3   OH222796   5.870   4.052   3.057
 7611TIP3    H122797   5.898   4.074   2.968
 7611TIP3    H222798   5.949   4.021   3.101
 7612TIP3   OH222799   6.330   5.916   4.198
 7612TIP3    H122800   6.278   5.851   4.152
 7612TIP3    H222801   6.318   5.997   4.148
 7613TIP3   OH222802   2.808   1.963   1.371
 7613TIP3    H122803   2.794   1.899   1.440
 7613TIP3    H222804   2.879   1.926   1.318
 7614TIP3   OH222805   0.806   5.665   2.851
 7614TIP3    H122806   0.889   5.660   2.899
 7614TIP3    H222807   0.749   5.602   2.896
 7615TIP3   OH222808   4.546   1.804   1.863
 7615TIP3    H122809   4.499   1.860   1.801
 7615TIP3    H222810   4.636   1.836   1.862
 7616TIP3   OH222811   6.900   2.246   5.377
 7616TIP3    H122812   6.964   2.176   5.391
 7616TIP3    H222813   6.903   2.297   5.458
 7617TIP3   OH222814   5.136   4.991   2.998
 7617TIP3    H122815   5.230   5.010   2.989
 7617TIP3    H222816   5.115   5.022   3.086
 7618TIP3   OH222817   6.815   2.716   5.633
 7618TIP3    H122818   6.819   2.744   5.542
 7618TIP3    H222819   6.776   2.790   5.679
 7619TIP3   OH222820   1.180   2.609   5.561
 7619TIP3    H122821   1.258   2.665   5.563
 7619TIP3    H222822   1.108   2.670   5.576
 7620TIP3   OH222823   5.467   3.063   0.810
 7620TIP3    H122824   5.543   3.005   0.800
 7620TIP3    H222825   5.401   3.026   0.751
 7621TIP3   OH222826   4.116   3.141   3.036
 7621TIP3    H122827   4.054   3.193   2.985
 7621TIP3    H222828   4.065   3.108   3.110
 7622TIP3   OH222829   3.161   4.386   1.074
 7622TIP3    H122830   3.171   4.399   1.168
 7622TIP3    H222831   3.240   4.425   1.036
 7623TIP3   OH222832   3.001   4.235   4.909
 7623TIP3    H122833   3.025   4.155   4.863
 7623TIP3    H222834   3.063   4.241   4.982
 7624TIP3   OH222835   5.233   6.429   5.334
 7624TIP3    H122836   5.231   6.365   5.263
 7624TIP3    H222837   5.173   6.498   5.306
 7625TIP3   OH222838   3.370   3.687   5.102
 7625TIP3    H122839   3.426   3.759   5.073
 7625TIP3    H222840   3.428   3.628   5.149
 7626TIP3   OH222841   5.329   0.459   4.720
 7626TIP3    H122842   5.243   0.461   4.763
 7626TIP3    H222843   5.309   0.476   4.627
 7627TIP3   OH222844   5.473   3.801   2.086
 7627TIP3    H122845   5.476   3.722   2.032
 7627TIP3    H222846   5.396   3.790   2.142
 7628TIP3   OH222847   3.419   1.144   0.368
 7628TIP3    H122848   3.394   1.164   0.458
 7628TIP3    H222849   3.471   1.219   0.340
 7629TIP3   OH222850   6.030   6.344   0.160
 7629TIP3    H122851   5.961   6.387   0.211
 7629TIP3    H222852   5.987   6.267   0.122
 7630TIP3   OH222853   2.698   4.368   4.616
 7630TIP3    H122854   2.623   4.339   4.669
 7630TIP3    H222855   2.667   4.447   4.572
 7631TIP3   OH222856   5.983   2.801   0.337
 7631TIP3    H122857   5.996   2.858   0.261
 7631TIP3    H222858   5.956   2.717   0.299
 7632TIP3   OH222859   1.563   0.928   1.400
 7632TIP3    H122860   1.627   0.950   1.467
 7632TIP3    H222861   1.479   0.957   1.436
 7633TIP3   OH222862   6.616   5.135   2.095
 7633TIP3    H122863   6.570   5.219   2.101
 7633TIP3    H222864   6.612   5.112   2.002
 7634TIP3   OH222865   4.867   6.652   2.612
 7634TIP3    H122866   4.895   6.737   2.644
 7634TIP3    H222867   4.809   6.618   2.680
 7635TIP3   OH222868   5.336   0.922   1.253
 7635TIP3    H122869   5.329   1.016   1.241
 7635TIP3    H222870   5.286   0.885   1.180
 7636TIP3   OH222871   5.394   1.758   1.397
 7636TIP3    H122872   5.328   1.828   1.400
 7636TIP3    H222873   5.343   1.679   1.379
 7637TIP3   OH222874   0.748   2.311   5.596
 7637TIP3    H122875   0.736   2.234   5.541
 7637TIP3    H222876   0.738   2.385   5.537
 7638TIP3   OH222877   0.103   5.253   0.616
 7638TIP3    H122878   0.031   5.196   0.589
 7638TIP3    H222879   0.063   5.318   0.673
 7639TIP3   OH222880   0.677   6.432   4.233
 7639TIP3    H122881   0.599   6.376   4.231
 7639TIP3    H222882   0.751   6.371   4.230
 7640TIP3   OH222883   2.000   6.182   4.149
 7640TIP3    H122884   2.050   6.261   4.129
 7640TIP3    H222885   1.951   6.204   4.228
 7641TIP3   OH222886   6.687   3.086   1.357
 7641TIP3    H122887   6.687   3.011   1.298
 7641TIP3    H222888   6.634   3.152   1.312
 7642TIP3   OH222889   4.487   1.826   5.869
 7642TIP3    H122890   4.421   1.802   5.934
 7642TIP3    H222891   4.460   1.780   5.789
 7643TIP3   OH222892   5.345   6.104   5.869
 7643TIP3    H122893   5.338   6.192   5.906
 7643TIP3    H222894   5.439   6.090   5.859
 7644TIP3   OH222895   0.176   2.436   2.412
 7644TIP3    H122896   0.238   2.380   2.365
 7644TIP3    H222897   0.227   2.514   2.435
 7645TIP3   OH222898   6.788   5.677   4.182
 7645TIP3    H122899   6.736   5.597   4.183
 7645TIP3    H222900   6.737   5.740   4.232
 7646TIP3   OH222901   2.495   1.056   4.598
 7646TIP3    H122902   2.566   1.099   4.646
 7646TIP3    H222903   2.505   1.086   4.508
 7647TIP3   OH222904   4.698   3.676   0.233
 7647TIP3    H122905   4.788   3.669   0.264
 7647TIP3    H222906   4.657   3.594   0.259
 7648TIP3   OH222907   2.106   1.390   1.962
 7648TIP3    H122908   2.099   1.412   1.869
 7648TIP3    H222909   2.192   1.424   1.988
 7649TIP3   OH222910   7.214   2.349   1.996
 7649TIP3    H122911   7.170   2.359   2.081
 7649TIP3    H222912   7.169   2.276   1.954
 7650TIP3   OH222913   0.769   0.116   5.346
 7650TIP3    H122914   0.766   0.031   5.303
 7650TIP3    H222915   0.845   0.160   5.308
 7651TIP3   OH222916   1.139   4.743   4.921
 7651TIP3    H122917   1.223   4.697   4.918
 7651TIP3    H222918   1.074   4.674   4.909
 7652TIP3   OH222919   1.044   6.560   1.366
 7652TIP3    H122920   0.968   6.552   1.307
 7652TIP3    H222921   1.112   6.508   1.324
 7653TIP3   OH222922   5.951   2.725   5.304
 7653TIP3    H122923   6.031   2.755   5.346
 7653TIP3    H222924   5.930   2.792   5.239
 7654TIP3   OH222925   6.448   0.342   1.006
 7654TIP3    H122926   6.536   0.304   1.007
 7654TIP3    H222927   6.461   0.433   0.981
 7655TIP3   OH222928   2.324   0.253   3.971
 7655TIP3    H122929   2.365   0.334   3.942
 7655TIP3    H222930   2.313   0.201   3.891
 7656TIP3   OH222931   0.927   4.625   1.230
 7656TIP3    H122932   0.909   4.716   1.206
 7656TIP3    H222933   0.892   4.574   1.157
 7657TIP3   OH222934   3.470   2.460   3.637
 7657TIP3    H122935   3.427   2.524   3.581
 7657TIP3    H222936   3.401   2.426   3.693
 7658TIP3   OH222937   2.859   5.594   2.559
 7658TIP3    H122938   2.929   5.591   2.494
 7658TIP3    H222939   2.840   5.502   2.577
 7659TIP3   OH222940   6.454   2.789   4.619
 7659TIP3    H122941   6.422   2.857   4.560
 7659TIP3    H222942   6.422   2.707   4.581
 7660TIP3   OH222943   1.480   1.657   0.869
 7660TIP3    H122944   1.445   1.615   0.948
 7660TIP3    H222945   1.575   1.652   0.880
 7661TIP3   OH222946   6.672   5.204   3.391
 7661TIP3    H122947   6.763   5.220   3.364
 7661TIP3    H222948   6.628   5.177   3.311
 7662TIP3   OH222949   3.811   0.165   0.090
 7662TIP3    H122950   3.725   0.193   0.060
 7662TIP3    H222951   3.836   0.094   0.030
 7663TIP3   OH222952   4.138   4.015   2.910
 7663TIP3    H122953   4.063   4.066   2.878
 7663TIP3    H222954   4.213   4.072   2.894
 7664TIP3   OH222955   3.011   5.361   4.534
 7664TIP3    H122956   3.091   5.401   4.500
 7664TIP3    H222957   2.991   5.409   4.614
 7665TIP3   OH222958   0.093   6.644   5.243
 7665TIP3    H122959   0.183   6.668   5.220
 7665TIP3    H222960   0.054   6.613   5.162
 7666TIP3   OH222961   5.535   2.236   4.743
 7666TIP3    H122962   5.596   2.167   4.770
 7666TIP3    H222963   5.591   2.310   4.720
 7667TIP3   OH222964   3.086   5.465   5.429
 7667TIP3    H122965   3.159   5.526   5.426
 7667TIP3    H222966   3.011   5.515   5.397
 7668TIP3   OH222967   3.793   5.849   2.833
 7668TIP3    H122968   3.785   5.767   2.784
 7668TIP3    H222969   3.835   5.824   2.915
 7669TIP3   OH222970   3.716   3.266   4.916
 7669TIP3    H122971   3.627   3.299   4.922
 7669TIP3    H222972   3.765   3.337   4.875
 7670TIP3   OH222973   7.162   2.295   3.931
 7670TIP3    H122974   7.135   2.286   3.839
 7670TIP3    H222975   7.253   2.262   3.932
 7671TIP3   OH222976   3.089   2.653   3.084
 7671TIP3    H122977   3.147   2.723   3.113
 7671TIP3    H222978   3.001   2.688   3.097
 7672TIP3   OH222979   2.254   4.504   2.315
 7672TIP3    H122980   2.221   4.544   2.235
 7672TIP3    H222981   2.295   4.576   2.364
 7673TIP3   OH222982   5.503   2.360   0.360
 7673TIP3    H122983   5.590   2.365   0.398
 7673TIP3    H222984   5.483   2.449   0.332
 7674TIP3   OH222985   0.791   2.647   1.536
 7674TIP3    H122986   0.740   2.637   1.455
 7674TIP3    H222987   0.728   2.680   1.600
 7675TIP3   OH222988   3.808   1.711   3.574
 7675TIP3    H122989   3.854   1.636   3.537
 7675TIP3    H222990   3.815   1.779   3.507
 7676TIP3   OH222991   5.037   4.757   1.154
 7676TIP3    H122992   5.027   4.662   1.158
 7676TIP3    H222993   4.991   4.790   1.231
 7677TIP3   OH222994   4.506   1.487   5.545
 7677TIP3    H122995   4.580   1.517   5.491
 7677TIP3    H222996   4.483   1.402   5.507
 7678TIP3   OH222997   3.815   1.509   5.120
 7678TIP3    H122998   3.804   1.593   5.165
 7678TIP3    H222999   3.726   1.485   5.094
 7679TIP3   OH223000   7.091   3.743   0.450
 7679TIP3    H123001   7.027   3.780   0.389
 7679TIP3    H223002   7.049   3.664   0.484
 7680TIP3   OH223003   6.986   2.967   3.545
 7680TIP3    H123004   7.016   2.887   3.588
 7680TIP3    H223005   6.959   2.940   3.458
 7681TIP3   OH223006   5.731   2.572   4.281
 7681TIP3    H123007   5.653   2.538   4.323
 7681TIP3    H223008   5.781   2.613   4.351
 7682TIP3   OH223009   2.306   0.665   3.479
 7682TIP3    H123010   2.211   0.664   3.488
 7682TIP3    H223011   2.333   0.749   3.516
 7683TIP3   OH223012   3.264   5.401   1.593
 7683TIP3    H123013   3.337   5.462   1.606
 7683TIP3    H223014   3.189   5.445   1.633
 7684TIP3   OH223015   4.311   3.532   3.281
 7684TIP3    H123016   4.367   3.610   3.287
 7684TIP3    H223017   4.267   3.541   3.197
 7685TIP3   OH223018   0.189   0.248   4.936
 7685TIP3    H123019   0.179   0.333   4.979
 7685TIP3    H223020   0.237   0.194   4.999
 7686TIP3   OH223021   4.440   3.797   2.477
 7686TIP3    H123022   4.468   3.846   2.554
 7686TIP3    H223023   4.351   3.826   2.461
 7687TIP3   OH223024   4.430   5.308   1.605
 7687TIP3    H123025   4.407   5.369   1.535
 7687TIP3    H223026   4.516   5.338   1.635
 7688TIP3   OH223027   4.549   1.943   5.625
 7688TIP3    H123028   4.464   1.911   5.596
 7688TIP3    H223029   4.611   1.908   5.562
 7689TIP3   OH223030   2.005   3.095   3.248
 7689TIP3    H123031   1.979   3.039   3.321
 7689TIP3    H223032   2.005   3.036   3.172
 7690TIP3   OH223033   1.781   5.979   0.967
 7690TIP3    H123034   1.709   5.940   0.917
 7690TIP3    H223035   1.785   5.928   1.048
 7691TIP3   OH223036   2.562   3.383   2.056
 7691TIP3    H123037   2.492   3.319   2.069
 7691TIP3    H223038   2.538   3.456   2.114
 7692TIP3   OH223039   4.452   3.488   2.888
 7692TIP3    H123040   4.499   3.499   2.805
 7692TIP3    H223041   4.437   3.394   2.895
 7693TIP3   OH223042   3.939   5.488   4.081
 7693TIP3    H123043   3.896   5.568   4.051
 7693TIP3    H223044   4.017   5.480   4.026
 7694TIP3   OH223045   0.841   4.715   3.511
 7694TIP3    H123046   0.757   4.725   3.556
 7694TIP3    H223047   0.865   4.623   3.524
 7695TIP3   OH223048   4.244   0.491   0.692
 7695TIP3    H123049   4.174   0.454   0.746
 7695TIP3    H223050   4.207   0.497   0.605
 7696TIP3   OH223051   2.209   6.502   0.566
 7696TIP3    H123052   2.130   6.554   0.579
 7696TIP3    H223053   2.217   6.451   0.647
 7697TIP3   OH223054   5.386   5.993   3.993
 7697TIP3    H123055   5.451   5.933   3.956
 7697TIP3    H223056   5.319   6.000   3.925
 7698TIP3   OH223057   6.661   0.519   0.378
 7698TIP3    H123058   6.645   0.511   0.284
 7698TIP3    H223059   6.662   0.613   0.395
 7699TIP3   OH223060   3.756   3.685   1.071
 7699TIP3    H123061   3.700   3.684   1.148
 7699TIP3    H223062   3.825   3.622   1.090
 7700TIP3   OH223063   1.363   6.225   5.323
 7700TIP3    H123064   1.387   6.245   5.414
 7700TIP3    H223065   1.445   6.196   5.283
 7701TIP3   OH223066   4.518   3.034   2.207
 7701TIP3    H123067   4.505   3.129   2.212
 7701TIP3    H223068   4.593   3.017   2.264
 7702TIP3   OH223069   0.537   3.528   4.079
 7702TIP3    H123070   0.547   3.595   4.012
 7702TIP3    H223071   0.456   3.482   4.057
 7703TIP3   OH223072   3.024   3.207   2.383
 7703TIP3    H123073   2.952   3.263   2.353
 7703TIP3    H223074   3.068   3.179   2.303
 7704TIP3   OH223075   4.205   0.430   4.512
 7704TIP3    H123076   4.278   0.447   4.451
 7704TIP3    H223077   4.222   0.488   4.586
 7705TIP3   OH223078   1.503   1.385   3.152
 7705TIP3    H123079   1.584   1.398   3.201
 7705TIP3    H223080   1.530   1.341   3.072
 7706TIP3   OH223081   6.833   5.251   1.610
 7706TIP3    H123082   6.854   5.209   1.527
 7706TIP3    H223083   6.740   5.234   1.623
 7707TIP3   OH223084   4.360   0.892   0.196
 7707TIP3    H123085   4.418   0.864   0.125
 7707TIP3    H223086   4.273   0.865   0.168
 7708TIP3   OH223087   4.392   2.057   1.932
 7708TIP3    H123088   4.475   2.085   1.895
 7708TIP3    H223089   4.327   2.116   1.894
 7709TIP3   OH223090   0.542   4.992   0.307
 7709TIP3    H123091   0.503   5.077   0.328
 7709TIP3    H223092   0.610   5.011   0.242
 7710TIP3   OH223093   5.495   5.309   2.377
 7710TIP3    H123094   5.459   5.313   2.466
 7710TIP3    H223095   5.585   5.279   2.390
 7711TIP3   OH223096   6.499   3.510   0.763
 7711TIP3    H123097   6.412   3.485   0.794
 7711TIP3    H223098   6.485   3.592   0.715
 7712TIP3   OH223099   2.368   4.094   2.892
 7712TIP3    H123100   2.383   4.182   2.856
 7712TIP3    H223101   2.415   4.094   2.975
 7713TIP3   OH223102   1.716   4.860   5.516
 7713TIP3    H123103   1.784   4.797   5.491
 7713TIP3    H223104   1.720   4.864   5.611
 7714TIP3   OH223105   3.649   6.566   4.769
 7714TIP3    H123106   3.580   6.502   4.757
 7714TIP3    H223107   3.638   6.628   4.697
 7715TIP3   OH223108   4.753   5.696   1.365
 7715TIP3    H123109   4.824   5.675   1.426
 7715TIP3    H223110   4.796   5.711   1.281
 7716TIP3   OH223111   1.259   2.829   3.305
 7716TIP3    H123112   1.232   2.897   3.367
 7716TIP3    H223113   1.257   2.872   3.220
 7717TIP3   OH223114   6.651   1.962   0.093
 7717TIP3    H123115   6.740   1.996   0.097
 7717TIP3    H223116   6.660   1.869   0.116
 7718TIP3   OH223117   0.458   6.132   5.699
 7718TIP3    H123118   0.476   6.224   5.720
 7718TIP3    H223119   0.403   6.136   5.621
 7719TIP3   OH223120   0.204   3.560   2.354
 7719TIP3    H123121   0.174   3.621   2.287
 7719TIP3    H223122   0.249   3.615   2.418
 7720TIP3   OH223123   2.865   0.071   1.616
 7720TIP3    H123124   2.850   0.011   1.689
 7720TIP3    H223125   2.922   0.139   1.651
 7721TIP3   OH223126   3.708   6.137   0.045
 7721TIP3    H123127   3.752   6.055   0.020
 7721TIP3    H223128   3.619   6.110   0.067
 7722TIP3   OH223129   2.193   1.138   0.769
 7722TIP3    H123130   2.148   1.106   0.691
 7722TIP3    H223131   2.270   1.184   0.735
 7723TIP3   OH223132   5.707   4.087   2.763
 7723TIP3    H123133   5.785   4.142   2.757
 7723TIP3    H223134   5.641   4.132   2.710
 7724TIP3   OH223135   5.083   4.794   3.966
 7724TIP3    H123136   5.025   4.870   3.968
 7724TIP3    H223137   5.149   4.816   3.901
 7725TIP3   OH223138   6.010   0.769   5.297
 7725TIP3    H123139   6.022   0.786   5.391
 7725TIP3    H223140   6.064   0.692   5.280
 7726TIP3   OH223141   0.678   6.169   0.913
 7726TIP3    H123142   0.586   6.188   0.933
 7726TIP3    H223143   0.697   6.221   0.836
 7727TIP3   OH223144   4.618   0.557   4.288
 7727TIP3    H123145   4.580   0.483   4.336
 7727TIP3    H223146   4.596   0.634   4.340
 7728TIP3   OH223147   5.166   2.768   5.671
 7728TIP3    H123148   5.071   2.759   5.674
 7728TIP3    H223149   5.199   2.681   5.696
 7729TIP3   OH223150   4.943   5.239   2.795
 7729TIP3    H123151   4.954   5.216   2.702
 7729TIP3    H223152   5.001   5.314   2.807
 7730TIP3   OH223153   7.209   3.962   1.377
 7730TIP3    H123154   7.171   3.965   1.464
 7730TIP3    H223155   7.217   4.054   1.350
 7731TIP3   OH223156   2.024   4.033   4.482
 7731TIP3    H123157   2.082   3.966   4.445
 7731TIP3    H223158   2.068   4.115   4.462
 7732TIP3   OH223159   0.100   5.454   3.844
 7732TIP3    H123160   0.096   5.371   3.797
 7732TIP3    H223161   0.186   5.454   3.886
 7733TIP3   OH223162   5.714   1.817   0.193
 7733TIP3    H123163   5.776   1.784   0.128
 7733TIP3    H223164   5.725   1.912   0.191
 7734TIP3   OH223165   5.151   5.497   0.658
 7734TIP3    H123166   5.149   5.453   0.743
 7734TIP3    H223167   5.090   5.571   0.668
 7735TIP3   OH223168   6.367   5.247   0.003
 7735TIP3    H123169   6.463   5.250   0.001
 7735TIP3    H223170   6.340   5.335  -0.026
 7736TIP3   OH223171   5.529   0.642   5.029
 7736TIP3    H123172   5.520   0.564   4.973
 7736TIP3    H223173   5.592   0.697   4.982
 7737TIP3   OH223174   6.571   4.848   2.063
 7737TIP3    H123175   6.559   4.941   2.041
 7737TIP3    H223176   6.554   4.844   2.157
 7738TIP3   OH223177   4.430   1.807   3.293
 7738TIP3    H123178   4.360   1.871   3.307
 7738TIP3    H223179   4.503   1.858   3.259
 7739TIP3   OH223180   5.735   4.752   3.381
 7739TIP3    H123181   5.695   4.731   3.297
 7739TIP3    H223182   5.715   4.845   3.395
 7740TIP3   OH223183   4.988   5.708   0.810
 7740TIP3    H123184   5.020   5.629   0.855
 7740TIP3    H223185   4.900   5.685   0.782
 7741TIP3   OH223186   6.506   4.924   0.621
 7741TIP3    H123187   6.519   4.971   0.703
 7741TIP3    H223188   6.413   4.904   0.619
 7742TIP3   OH223189   5.048   5.151   0.177
 7742TIP3    H123190   5.064   5.070   0.128
 7742TIP3    H223191   5.064   5.128   0.269
 7743TIP3   OH223192   4.855   2.910   2.124
 7743TIP3    H123193   4.848   2.995   2.169
 7743TIP3    H223194   4.945   2.882   2.141
 7744TIP3   OH223195   5.511   3.802   2.651
 7744TIP3    H123196   5.580   3.791   2.586
 7744TIP3    H223197   5.458   3.874   2.618
 7745TIP3   OH223198   3.469   4.122   4.279
 7745TIP3    H123199   3.535   4.171   4.229
 7745TIP3    H223200   3.491   4.138   4.370
 7746TIP3   OH223201   4.232   3.009   5.889
 7746TIP3    H123202   4.266   3.084   5.937
 7746TIP3    H223203   4.188   3.048   5.812
 7747TIP3   OH223204   4.973   1.124   1.777
 7747TIP3    H123205   5.011   1.203   1.816
 7747TIP3    H223206   5.048   1.069   1.754
 7748TIP3   OH223207   6.579   4.129   2.493
 7748TIP3    H123208   6.661   4.129   2.542
 7748TIP3    H223209   6.603   4.093   2.407
 7749TIP3   OH223210   3.063   5.799   0.732
 7749TIP3    H123211   3.048   5.814   0.825
 7749TIP3    H223212   3.089   5.884   0.697
 7750TIP3   OH223213   4.875   3.480   0.112
 7750TIP3    H123214   4.883   3.567   0.153
 7750TIP3    H223215   4.964   3.460   0.083
 7751TIP3   OH223216   1.004   4.169   2.443
 7751TIP3    H123217   0.968   4.129   2.363
 7751TIP3    H223218   1.088   4.125   2.456
 7752TIP3   OH223219   5.003   6.787   1.714
 7752TIP3    H123220   4.913   6.798   1.683
 7752TIP3    H223221   5.044   6.729   1.649
 7753TIP3   OH223222   1.685   0.142   0.708
 7753TIP3    H123223   1.668   0.214   0.769
 7753TIP3    H223224   1.618   0.151   0.641
 7754TIP3   OH223225   3.911   6.245   3.723
 7754TIP3    H123226   3.840   6.190   3.757
 7754TIP3    H223227   3.972   6.254   3.796
 7755TIP3   OH223228   3.012   4.779   0.881
 7755TIP3    H123229   2.960   4.778   0.961
 7755TIP3    H223230   3.021   4.687   0.857
 7756TIP3   OH223231   2.296   6.727   1.846
 7756TIP3    H123232   2.296   6.691   1.935
 7756TIP3    H223233   2.301   6.821   1.858
 7757TIP3   OH223234   7.168   5.618   2.314
 7757TIP3    H123235   7.169   5.523   2.305
 7757TIP3    H223236   7.260   5.641   2.328
 7758TIP3   OH223237   5.383   5.607   3.265
 7758TIP3    H123238   5.302   5.585   3.311
 7758TIP3    H223239   5.449   5.610   3.334
 7759TIP3   OH223240   1.878   0.856   4.860
 7759TIP3    H123241   1.845   0.844   4.949
 7759TIP3    H223242   1.833   0.934   4.828
 7760TIP3   OH223243   1.978   5.035   0.859
 7760TIP3    H123244   2.034   5.100   0.900
 7760TIP3    H223245   2.005   4.951   0.897
 7761TIP3   OH223246   0.327   5.103   1.436
 7761TIP3    H123247   0.330   5.057   1.520
 7761TIP3    H223248   0.418   5.130   1.420
 7762TIP3   OH223249   4.615   1.160   2.756
 7762TIP3    H123250   4.655   1.080   2.790
 7762TIP3    H223251   4.677   1.192   2.691
 7763TIP3   OH223252   0.527   1.831   1.953
 7763TIP3    H123253   0.576   1.911   1.975
 7763TIP3    H223254   0.573   1.762   2.000
 7764TIP3   OH223255   0.106   2.814   0.176
 7764TIP3    H123256   0.023   2.846   0.211
 7764TIP3    H223257   0.173   2.861   0.225
 7765TIP3   OH223258   3.613   4.221   1.408
 7765TIP3    H123259   3.527   4.179   1.409
 7765TIP3    H223260   3.668   4.162   1.357
 7766TIP3   OH223261   4.617   2.231   1.941
 7766TIP3    H123262   4.560   2.264   2.011
 7766TIP3    H223263   4.653   2.310   1.901
 7767TIP3   OH223264   5.078   5.802   1.710
 7767TIP3    H123265   5.142   5.770   1.774
 7767TIP3    H223266   5.041   5.881   1.752
 7768TIP3   OH223267   6.733   1.385   1.056
 7768TIP3    H123268   6.823   1.394   1.025
 7768TIP3    H223269   6.704   1.302   1.019
 7769TIP3   OH223270   6.346   5.325   5.700
 7769TIP3    H123271   6.321   5.257   5.762
 7769TIP3    H223272   6.429   5.294   5.662
 7770TIP3   OH223273   2.968   4.908   0.628
 7770TIP3    H123274   3.045   4.946   0.586
 7770TIP3    H223275   2.998   4.880   0.714
 7771TIP3   OH223276   5.207   6.236   2.546
 7771TIP3    H123277   5.187   6.311   2.603
 7771TIP3    H223278   5.171   6.261   2.461
 7772TIP3   OH223279   5.871   0.219   0.014
 7772TIP3    H123280   5.876   0.261   0.100
 7772TIP3    H223281   5.928   0.142   0.022
 7773TIP3   OH223282   3.411   6.187   3.624
 7773TIP3    H123283   3.457   6.194   3.707
 7773TIP3    H223284   3.394   6.277   3.598
 7774TIP3   OH223285   1.675   3.503   3.602
 7774TIP3    H123286   1.758   3.458   3.588
 7774TIP3    H223287   1.621   3.475   3.528
 7775TIP3   OH223288   1.378   5.117   5.766
 7775TIP3    H123289   1.407   5.138   5.855
 7775TIP3    H223290   1.438   5.048   5.737
 7776TIP3   OH223291   4.892   5.712   5.469
 7776TIP3    H123292   4.894   5.626   5.427
 7776TIP3    H223293   4.966   5.760   5.429
 7777TIP3   OH223294   6.038   5.160   4.496
 7777TIP3    H123295   5.974   5.162   4.567
 7777TIP3    H223296   5.986   5.147   4.417
 7778TIP3   OH223297   3.280   5.211   4.212
 7778TIP3    H123298   3.193   5.229   4.247
 7778TIP3    H223299   3.271   5.126   4.170
 7779TIP3   OH223300   1.204   3.226   5.365
 7779TIP3    H123301   1.284   3.184   5.331
 7779TIP3    H223302   1.134   3.188   5.312
 7780TIP3   OH223303   4.398   1.200   0.098
 7780TIP3    H123304   4.436   1.282   0.067
 7780TIP3    H223305   4.445   1.131   0.050
 7781TIP3   OH223306   3.823   5.066   5.130
 7781TIP3    H123307   3.762   5.084   5.201
 7781TIP3    H223308   3.907   5.098   5.162
 7782TIP3   OH223309   2.707   2.172   3.120
 7782TIP3    H123310   2.717   2.224   3.040
 7782TIP3    H223311   2.762   2.216   3.185
 7783TIP3   OH223312   2.174   3.714   2.812
 7783TIP3    H123313   2.254   3.756   2.782
 7783TIP3    H223314   2.189   3.699   2.906
 7784TIP3   OH223315   3.202   6.559   0.287
 7784TIP3    H123316   3.230   6.487   0.344
 7784TIP3    H223317   3.132   6.603   0.336
 7785TIP3   OH223318   2.948   1.076   4.226
 7785TIP3    H123319   2.938   1.146   4.289
 7785TIP3    H223320   2.886   1.096   4.156
 7786TIP3   OH223321   3.603   1.375   4.359
 7786TIP3    H123322   3.524   1.417   4.390
 7786TIP3    H223323   3.619   1.303   4.420
 7787TIP3   OH223324   1.639   2.820   2.959
 7787TIP3    H123325   1.718   2.778   2.993
 7787TIP3    H223326   1.623   2.893   3.019
 7788TIP3   OH223327   6.306   2.281   2.414
 7788TIP3    H123328   6.328   2.342   2.344
 7788TIP3    H223329   6.211   2.287   2.422
 7789TIP3   OH223330   0.387   4.128   3.107
 7789TIP3    H123331   0.385   4.035   3.132
 7789TIP3    H223332   0.473   4.158   3.134
 7790TIP3   OH223333   0.899   1.996   4.200
 7790TIP3    H123334   0.953   2.010   4.278
 7790TIP3    H223335   0.921   2.070   4.143
 7791TIP3   OH223336   3.623   1.616   1.653
 7791TIP3    H123337   3.556   1.554   1.682
 7791TIP3    H223338   3.685   1.563   1.603
 7792TIP3   OH223339   0.931   3.833   1.806
 7792TIP3    H123340   1.006   3.875   1.765
 7792TIP3    H223341   0.946   3.740   1.793
 7793TIP3   OH223342   0.649   1.332   5.668
 7793TIP3    H123343   0.716   1.286   5.719
 7793TIP3    H223344   0.576   1.343   5.729
 7794TIP3   OH223345   6.279   4.794   2.861
 7794TIP3    H123346   6.327   4.749   2.931
 7794TIP3    H223347   6.207   4.735   2.839
 7795TIP3   OH223348   2.493   0.693   0.240
 7795TIP3    H123349   2.566   0.632   0.252
 7795TIP3    H223350   2.418   0.637   0.221
 7796TIP3   OH223351   0.211   1.497   2.188
 7796TIP3    H123352   0.176   1.551   2.117
 7796TIP3    H223353   0.188   1.545   2.268
 7797TIP3   OH223354   5.708   6.203   2.282
 7797TIP3    H123355   5.632   6.163   2.239
 7797TIP3    H223356   5.677   6.290   2.308
 7798TIP3   OH223357   1.401   1.056   0.114
 7798TIP3    H123358   1.379   1.144   0.083
 7798TIP3    H223359   1.496   1.059   0.126
 7799TIP3   OH223360   2.766   4.027   2.238
 7799TIP3    H123361   2.859   4.031   2.215
 7799TIP3    H223362   2.741   4.118   2.253
 7800TIP3   OH223363   0.684   2.510   0.977
 7800TIP3    H123364   0.715   2.562   1.051
 7800TIP3    H223365   0.633   2.572   0.924
 7801TIP3   OH223366   1.416   6.473   2.781
 7801TIP3    H123367   1.324   6.496   2.773
 7801TIP3    H223368   1.455   6.544   2.831
 7802TIP3   OH223369   3.360   6.685   1.998
 7802TIP3    H123370   3.309   6.711   1.920
 7802TIP3    H223371   3.326   6.599   2.021
 7803TIP3   OH223372   2.703   3.763   2.300
 7803TIP3    H123373   2.784   3.738   2.256
 7803TIP3    H223374   2.686   3.853   2.270
 7804TIP3   OH223375   5.015   5.737   0.227
 7804TIP3    H123376   5.041   5.825   0.199
 7804TIP3    H223377   4.932   5.722   0.184
 7805TIP3   OH223378   2.967   3.392   4.300
 7805TIP3    H123379   2.984   3.469   4.355
 7805TIP3    H223380   3.007   3.414   4.216
 7806TIP3   OH223381   0.515   5.861   3.649
 7806TIP3    H123382   0.606   5.885   3.633
 7806TIP3    H223383   0.519   5.772   3.686
 7807TIP3   OH223384   6.808   0.333   5.858
 7807TIP3    H123385   6.764   0.317   5.941
 7807TIP3    H223386   6.737   0.348   5.796
 7808TIP3   OH223387   1.499   1.913   2.984
 7808TIP3    H123388   1.505   1.857   3.061
 7808TIP3    H223389   1.442   1.865   2.924
 7809TIP3   OH223390   5.817   2.439   3.824
 7809TIP3    H123391   5.790   2.413   3.912
 7809TIP3    H223392   5.822   2.357   3.775
 7810TIP3   OH223393   5.440   6.635   4.501
 7810TIP3    H123394   5.434   6.660   4.409
 7810TIP3    H223395   5.354   6.657   4.538
 7811TIP3   OH223396   4.943   2.037   4.088
 7811TIP3    H123397   4.965   2.093   4.163
 7811TIP3    H223398   4.848   2.039   4.084
 7812TIP3   OH223399   2.429   0.380   4.627
 7812TIP3    H123400   2.517   0.409   4.604
 7812TIP3    H223401   2.432   0.285   4.620
 7813TIP3   OH223402   3.086   4.295   1.829
 7813TIP3    H123403   3.013   4.259   1.880
 7813TIP3    H223404   3.162   4.283   1.885
 7814TIP3   OH223405   0.569   0.766   0.612
 7814TIP3    H123406   0.593   0.728   0.697
 7814TIP3    H223407   0.652   0.768   0.564
 7815TIP3   OH223408   4.959   3.195   2.839
 7815TIP3    H123409   4.886   3.135   2.821
 7815TIP3    H223410   5.032   3.137   2.863
 7816TIP3   OH223411   0.420   3.956   2.539
 7816TIP3    H123412   0.338   4.004   2.529
 7816TIP3    H223413   0.487   4.023   2.551
 7817TIP3   OH223414   4.586   6.788   1.443
 7817TIP3    H123415   4.512   6.757   1.495
 7817TIP3    H223416   4.639   6.839   1.505
 7818TIP3   OH223417   2.071   2.765   2.474
 7818TIP3    H123418   2.129   2.802   2.407
 7818TIP3    H223419   2.062   2.673   2.451
 7819TIP3   OH223420   5.214   0.013   1.708
 7819TIP3    H123421   5.282   0.074   1.679
 7819TIP3    H223422   5.132   0.059   1.692
 7820TIP3   OH223423   5.192   3.328   1.132
 7820TIP3    H123424   5.284   3.332   1.159
 7820TIP3    H223425   5.193   3.275   1.052
 7821TIP3   OH223426   5.125   6.312   0.733
 7821TIP3    H123427   5.160   6.224   0.745
 7821TIP3    H223428   5.199   6.370   0.751
 7822TIP3   OH223429   1.377   1.473   4.592
 7822TIP3    H123430   1.452   1.415   4.581
 7822TIP3    H223431   1.304   1.425   4.552
 7823TIP3   OH223432   1.461   3.877   1.237
 7823TIP3    H123433   1.407   3.953   1.256
 7823TIP3    H223434   1.517   3.903   1.164
 7824TIP3   OH223435   3.716   4.466   1.472
 7824TIP3    H123436   3.695   4.373   1.469
 7824TIP3    H223437   3.637   4.507   1.508
 7825TIP3   OH223438   1.367   2.353   3.841
 7825TIP3    H123439   1.461   2.358   3.823
 7825TIP3    H223440   1.346   2.437   3.881
 7826TIP3   OH223441   2.332   2.126   1.916
 7826TIP3    H123442   2.294   2.081   1.991
 7826TIP3    H223443   2.264   2.188   1.888
 7827TIP3   OH223444   2.790   2.325   2.207
 7827TIP3    H123445   2.832   2.262   2.148
 7827TIP3    H223446   2.822   2.302   2.294
 7828TIP3   OH223447   4.466   1.654   2.967
 7828TIP3    H123448   4.554   1.675   2.934
 7828TIP3    H223449   4.471   1.562   2.994
 7829TIP3   OH223450   6.041   0.198   0.694
 7829TIP3    H123451   6.047   0.129   0.628
 7829TIP3    H223452   6.131   0.217   0.718
 7830TIP3   OH223453   0.330   4.227   0.089
 7830TIP3    H123454   0.312   4.302   0.032
 7830TIP3    H223455   0.262   4.163   0.066
 7831TIP3   OH223456   4.157   4.380   3.713
 7831TIP3    H123457   4.199   4.410   3.632
 7831TIP3    H223458   4.064   4.394   3.699
 7832TIP3   OH223459   2.535   2.827   0.749
 7832TIP3    H123460   2.594   2.858   0.681
 7832TIP3    H223461   2.449   2.862   0.724
 7833TIP3   OH223462   6.802   4.159   4.359
 7833TIP3    H123463   6.795   4.247   4.395
 7833TIP3    H223464   6.728   4.152   4.299
 7834TIP3   OH223465   6.911   3.937   1.047
 7834TIP3    H123466   6.857   4.006   1.010
 7834TIP3    H223467   6.854   3.892   1.110
 7835TIP3   OH223468   5.865   0.737   2.002
 7835TIP3    H123469   5.891   0.685   2.078
 7835TIP3    H223470   5.924   0.813   2.003
 7836TIP3   OH223471   0.298   5.861   5.807
 7836TIP3    H123472   0.276   5.847   5.715
 7836TIP3    H223473   0.393   5.849   5.811
 7837TIP3   OH223474   2.186   2.256   3.668
 7837TIP3    H123475   2.274   2.249   3.632
 7837TIP3    H223476   2.137   2.305   3.602
 7838TIP3   OH223477   2.407   4.287   2.233
 7838TIP3    H123478   2.349   4.353   2.271
 7838TIP3    H223479   2.372   4.203   2.262
 7839TIP3   OH223480   7.234   1.991   1.336
 7839TIP3    H123481   7.184   2.054   1.388
 7839TIP3    H223482   7.205   2.007   1.246
 7840TIP3   OH223483   3.080   0.233   1.698
 7840TIP3    H123484   3.141   0.237   1.771
 7840TIP3    H223485   3.129   0.266   1.622
 7841TIP3   OH223486   4.647   2.128   4.070
 7841TIP3    H123487   4.675   2.188   4.140
 7841TIP3    H223488   4.552   2.138   4.067
 7842TIP3   OH223489   2.375   5.437   2.434
 7842TIP3    H123490   2.426   5.392   2.366
 7842TIP3    H223491   2.433   5.507   2.465
 7843TIP3   OH223492   2.956   5.336   0.048
 7843TIP3    H123493   2.939   5.243   0.062
 7843TIP3    H223494   3.051   5.345   0.054
 7844TIP3   OH223495   0.691   2.760   1.840
 7844TIP3    H123496   0.688   2.838   1.785
 7844TIP3    H223497   0.767   2.774   1.896
 7845TIP3   OH223498   2.393   3.849   2.754
 7845TIP3    H123499   2.429   3.888   2.674
 7845TIP3    H223500   2.383   3.923   2.814
 7846TIP3   OH223501   0.616   1.234   1.677
 7846TIP3    H123502   0.698   1.190   1.654
 7846TIP3    H223503   0.548   1.183   1.634
 7847TIP3   OH223504   1.465   2.583   0.525
 7847TIP3    H123505   1.384   2.553   0.566
 7847TIP3    H223506   1.438   2.622   0.442
 7848TIP3   OH223507   3.892   6.459   1.558
 7848TIP3    H123508   3.799   6.482   1.552
 7848TIP3    H223509   3.894   6.364   1.548
 7849TIP3   OH223510   6.300   4.751   3.909
 7849TIP3    H123511   6.260   4.675   3.866
 7849TIP3    H223512   6.361   4.714   3.972
 7850TIP3   OH223513   0.787   0.453   4.455
 7850TIP3    H123514   0.878   0.483   4.451
 7850TIP3    H223515   0.740   0.522   4.502
 7851TIP3   OH223516   4.991   4.681   4.895
 7851TIP3    H123517   5.055   4.751   4.883
 7851TIP3    H223518   4.987   4.638   4.810
 7852TIP3   OH223519   0.647   6.821   3.835
 7852TIP3    H123520   0.611   6.741   3.873
 7852TIP3    H223521   0.636   6.887   3.904
 7853TIP3   OH223522   2.050   4.867   5.657
 7853TIP3    H123523   1.980   4.892   5.717
 7853TIP3    H223524   2.009   4.804   5.598
 7854TIP3   OH223525   1.153   4.783   0.106
 7854TIP3    H123526   1.095   4.858   0.118
 7854TIP3    H223527   1.108   4.727   0.043
 7855TIP3   OH223528   1.439   2.665   3.093
 7855TIP3    H123529   1.497   2.727   3.048
 7855TIP3    H223530   1.494   2.624   3.159
 7856TIP3   OH223531   4.358   0.756   5.672
 7856TIP3    H123532   4.450   0.744   5.646
 7856TIP3    H223533   4.328   0.830   5.619
 7857TIP3   OH223534   3.625   4.581   0.802
 7857TIP3    H123535   3.673   4.650   0.850
 7857TIP3    H223536   3.630   4.505   0.860
 7858TIP3   OH223537   4.643   3.038   5.800
 7858TIP3    H123538   4.570   3.099   5.788
 7858TIP3    H223539   4.605   2.962   5.842
 7859TIP3   OH223540   2.608   1.714   3.282
 7859TIP3    H123541   2.675   1.779   3.302
 7859TIP3    H223542   2.637   1.635   3.327
 7860TIP3   OH223543   2.294   1.625   0.592
 7860TIP3    H123544   2.282   1.641   0.498
 7860TIP3    H223545   2.216   1.664   0.632
 7861TIP3   OH223546   4.195   5.252   3.307
 7861TIP3    H123547   4.241   5.334   3.325
 7861TIP3    H223548   4.171   5.258   3.214
 7862TIP3   OH223549   5.410   0.588   1.195
 7862TIP3    H123550   5.431   0.565   1.286
 7862TIP3    H223551   5.458   0.669   1.180
 7863TIP3   OH223552   1.782   3.082   2.902
 7863TIP3    H123553   1.748   3.033   2.828
 7863TIP3    H223554   1.862   3.035   2.927
 7864TIP3   OH223555   6.917   1.484   0.850
 7864TIP3    H123556   6.962   1.442   0.777
 7864TIP3    H223557   6.974   1.468   0.925
 7865TIP3   OH223558   6.402   0.906   5.121
 7865TIP3    H123559   6.403   0.843   5.049
 7865TIP3    H223560   6.321   0.955   5.108
 7866TIP3   OH223561   6.833   4.810   2.371
 7866TIP3    H123562   6.774   4.772   2.437
 7866TIP3    H223563   6.794   4.895   2.351
 7867TIP3   OH223564   3.474   0.759   1.495
 7867TIP3    H123565   3.482   0.692   1.427
 7867TIP3    H223566   3.561   0.800   1.499
 7868TIP3   OH223567   3.429   4.104   5.125
 7868TIP3    H123568   3.484   4.029   5.101
 7868TIP3    H223569   3.442   4.114   5.219
 7869TIP3   OH223570   2.126   4.771   2.280
 7869TIP3    H123571   2.153   4.785   2.370
 7869TIP3    H223572   2.043   4.817   2.271
 7870TIP3   OH223573   0.257   6.088   0.124
 7870TIP3    H123574   0.223   6.174   0.100
 7870TIP3    H223575   0.254   6.086   0.219
 7871TIP3   OH223576   3.176   6.345   2.584
 7871TIP3    H123577   3.210   6.307   2.665
 7871TIP3    H223578   3.226   6.301   2.515
 7872TIP3   OH223579   1.383   6.266   4.021
 7872TIP3    H123580   1.433   6.210   3.961
 7872TIP3    H223581   1.311   6.211   4.051
 7873TIP3   OH223582   1.761   1.651   3.271
 7873TIP3    H123583   1.771   1.619   3.181
 7873TIP3    H223584   1.829   1.718   3.280
 7874TIP3   OH223585   2.476   2.800   0.358
 7874TIP3    H123586   2.497   2.798   0.264
 7874TIP3    H223587   2.519   2.723   0.394
 7875TIP3   OH223588   6.782   4.394   2.729
 7875TIP3    H123589   6.717   4.448   2.684
 7875TIP3    H223590   6.808   4.328   2.664
 7876TIP3   OH223591   6.853   2.079   5.795
 7876TIP3    H123592   6.788   2.046   5.733
 7876TIP3    H223593   6.805   2.090   5.877
 7877TIP3   OH223594   0.220   3.067   4.917
 7877TIP3    H123595   0.267   2.997   4.962
 7877TIP3    H223596   0.156   3.022   4.863
 7878TIP3   OH223597   4.497   0.023   2.234
 7878TIP3    H123598   4.463  -0.067   2.237
 7878TIP3    H223599   4.423   0.077   2.261
 7879TIP3   OH223600   3.274   2.476   2.729
 7879TIP3    H123601   3.270   2.565   2.694
 7879TIP3    H223602   3.361   2.469   2.768
 7880TIP3   OH223603   6.601   4.720   3.570
 7880TIP3    H123604   6.517   4.674   3.569
 7880TIP3    H223605   6.588   4.792   3.631
 7881TIP3   OH223606   2.627   2.345   0.651
 7881TIP3    H123607   2.536   2.332   0.623
 7881TIP3    H223608   2.631   2.437   0.676
 7882TIP3   OH223609   6.535   4.996   2.945
 7882TIP3    H123610   6.608   4.943   2.976
 7882TIP3    H223611   6.554   5.010   2.852
 7883TIP3   OH223612   0.466   2.722   5.349
 7883TIP3    H123613   0.437   2.686   5.266
 7883TIP3    H223614   0.513   2.802   5.325
 7884TIP3   OH223615   6.746   1.537   2.161
 7884TIP3    H123616   6.779   1.475   2.226
 7884TIP3    H223617   6.676   1.584   2.206
 7885TIP3   OH223618   1.584   3.274   3.258
 7885TIP3    H123619   1.552   3.354   3.298
 7885TIP3    H223620   1.672   3.295   3.228
 7886TIP3   OH223621   6.917   5.996   4.439
 7886TIP3    H123622   6.905   6.035   4.352
 7886TIP3    H223623   6.828   5.985   4.473
 7887TIP3   OH223624   3.024   2.268   1.495
 7887TIP3    H123625   3.029   2.286   1.589
 7887TIP3    H223626   2.932   2.286   1.472
 7888TIP3   OH223627   2.346   1.150   2.206
 7888TIP3    H123628   2.351   1.239   2.171
 7888TIP3    H223629   2.414   1.147   2.274
 7889TIP3   OH223630   2.949   5.973   0.103
 7889TIP3    H123631   2.953   5.916   0.026
 7889TIP3    H223632   2.939   6.061   0.068
 7890TIP3   OH223633   0.487   3.759   1.686
 7890TIP3    H123634   0.427   3.685   1.695
 7890TIP3    H223635   0.447   3.829   1.736
 7891TIP3   OH223636   0.946   1.536   0.618
 7891TIP3    H123637   1.014   1.587   0.661
 7891TIP3    H223638   0.880   1.521   0.686
 7892TIP3   OH223639   6.008   1.448   3.156
 7892TIP3    H123640   6.064   1.391   3.103
 7892TIP3    H223641   6.069   1.509   3.198
 7893TIP3   OH223642   1.018   2.335   2.239
 7893TIP3    H123643   1.091   2.275   2.254
 7893TIP3    H223644   0.986   2.357   2.326
 7894TIP3   OH223645   6.991   1.898   0.716
 7894TIP3    H123646   7.043   1.821   0.736
 7894TIP3    H223647   7.055   1.969   0.709
 7895TIP3   OH223648   4.575   4.570   2.264
 7895TIP3    H123649   4.668   4.576   2.242
 7895TIP3    H223650   4.549   4.661   2.279
 7896TIP3   OH223651   6.290   4.671   5.259
 7896TIP3    H123652   6.298   4.708   5.171
 7896TIP3    H223653   6.263   4.744   5.314
 7897TIP3   OH223654   1.132   4.876   4.563
 7897TIP3    H123655   1.043   4.864   4.596
 7897TIP3    H223656   1.164   4.787   4.547
 7898TIP3   OH223657   2.372   6.382   5.541
 7898TIP3    H123658   2.423   6.310   5.578
 7898TIP3    H223659   2.315   6.411   5.612
 7899TIP3   OH223660   4.388   2.310   5.357
 7899TIP3    H123661   4.355   2.226   5.326
 7899TIP3    H223662   4.365   2.373   5.289
 7900TIP3   OH223663   3.020   6.266   5.655
 7900TIP3    H123664   2.969   6.257   5.574
 7900TIP3    H223665   3.111   6.257   5.626
 7901TIP3   OH223666   1.538   2.323   4.777
 7901TIP3    H123667   1.469   2.387   4.758
 7901TIP3    H223668   1.492   2.239   4.781
 7902TIP3   OH223669   5.893   5.044   3.433
 7902TIP3    H123670   5.978   5.087   3.436
 7902TIP3    H223671   5.872   5.038   3.340
 7903TIP3   OH223672   4.479   1.451   1.111
 7903TIP3    H123673   4.448   1.519   1.051
 7903TIP3    H223674   4.401   1.421   1.157
 7904TIP3   OH223675   0.476   6.356   4.736
 7904TIP3    H123676   0.455   6.308   4.816
 7904TIP3    H223677   0.509   6.289   4.676
 7905TIP3   OH223678   6.509   2.784   5.496
 7905TIP3    H123679   6.553   2.814   5.576
 7905TIP3    H223680   6.469   2.701   5.521
 7906TIP3   OH223681   4.552   1.106   5.736
 7906TIP3    H123682   4.531   1.199   5.732
 7906TIP3    H223683   4.570   1.081   5.645
 7907TIP3   OH223684   5.311   0.738   2.633
 7907TIP3    H123685   5.380   0.697   2.685
 7907TIP3    H223686   5.286   0.816   2.683
 7908TIP3   OH223687   6.193   1.453   0.046
 7908TIP3    H123688   6.288   1.465   0.048
 7908TIP3    H223689   6.160   1.518   0.108
 7909TIP3   OH223690   3.183   3.167   2.161
 7909TIP3    H123691   3.275   3.139   2.159
 7909TIP3    H223692   3.182   3.251   2.115
 7910TIP3   OH223693   4.725   0.958   2.980
 7910TIP3    H123694   4.807   0.972   2.932
 7910TIP3    H223695   4.720   1.032   3.040
 7911TIP3   OH223696   6.322   2.547   0.156
 7911TIP3    H123697   6.275   2.506   0.228
 7911TIP3    H223698   6.405   2.500   0.152
 7912TIP3   OH223699   2.758   1.923   3.347
 7912TIP3    H123700   2.803   1.951   3.267
 7912TIP3    H223701   2.820   1.942   3.417
 7913TIP3   OH223702   6.629   2.688   2.042
 7913TIP3    H123703   6.570   2.689   1.967
 7913TIP3    H223704   6.631   2.596   2.070
 7914TIP3   OH223705   0.058   3.411   2.988
 7914TIP3    H123706   0.046   3.342   3.054
 7914TIP3    H223707   0.089   3.486   3.037
 7915TIP3   OH223708   1.348   2.631   4.235
 7915TIP3    H123709   1.339   2.722   4.263
 7915TIP3    H223710   1.411   2.593   4.297
 7916TIP3   OH223711   2.795   1.757   5.780
 7916TIP3    H123712   2.844   1.694   5.833
 7916TIP3    H223713   2.725   1.788   5.838
 7917TIP3   OH223714   3.485   5.292   5.783
 7917TIP3    H123715   3.529   5.318   5.701
 7917TIP3    H223716   3.428   5.366   5.803
 7918TIP3   OH223717   5.382   6.467   2.916
 7918TIP3    H123718   5.458   6.523   2.933
 7918TIP3    H223719   5.331   6.473   2.997
 7919TIP3   OH223720   0.490   0.250   2.928
 7919TIP3    H123721   0.473   0.321   2.990
 7919TIP3    H223722   0.574   0.273   2.888
 7920TIP3   OH223723   2.021   3.637   4.683
 7920TIP3    H123724   2.029   3.717   4.735
 7920TIP3    H223725   2.107   3.626   4.643
 7921TIP3   OH223726   2.657   3.324   4.081
 7921TIP3    H123727   2.593   3.358   4.143
 7921TIP3    H223728   2.666   3.231   4.104
 7922TIP3   OH223729   1.983   0.194   2.944
 7922TIP3    H123730   1.956   0.233   2.860
 7922TIP3    H223731   2.076   0.175   2.933
 7923TIP3   OH223732   1.809   2.623   0.784
 7923TIP3    H123733   1.886   2.646   0.837
 7923TIP3    H223734   1.800   2.529   0.796
 7924TIP3   OH223735   4.456   0.544   0.914
 7924TIP3    H123736   4.387   0.513   0.973
 7924TIP3    H223737   4.504   0.608   0.966
 7925TIP3   OH223738   5.910   5.934   3.745
 7925TIP3    H123739   5.866   5.959   3.664
 7925TIP3    H223740   5.954   6.013   3.774
 7926TIP3   OH223741   1.076   0.676   5.157
 7926TIP3    H123742   1.018   0.731   5.209
 7926TIP3    H223743   1.108   0.735   5.088
 7927TIP3   OH223744   6.362   5.771   5.254
 7927TIP3    H123745   6.377   5.815   5.337
 7927TIP3    H223746   6.283   5.718   5.269
 7928TIP3   OH223747   2.961   1.409   1.332
 7928TIP3    H123748   3.039   1.438   1.284
 7928TIP3    H223749   2.956   1.315   1.314
 7929TIP3   OH223750   3.442   4.715   0.356
 7929TIP3    H123751   3.375   4.721   0.424
 7929TIP3    H223752   3.522   4.745   0.398
 7930TIP3   OH223753   3.621   2.955   1.682
 7930TIP3    H123754   3.685   2.957   1.610
 7930TIP3    H223755   3.540   2.988   1.643
 7931TIP3   OH223756   2.855   5.075   3.184
 7931TIP3    H123757   2.947   5.076   3.156
 7931TIP3    H223758   2.858   5.094   3.277
 7932TIP3   OH223759   5.515   5.871   2.664
 7932TIP3    H123760   5.439   5.812   2.667
 7932TIP3    H223761   5.571   5.834   2.596
 7933TIP3   OH223762   1.666   0.251   3.091
 7933TIP3    H123763   1.631   0.165   3.116
 7933TIP3    H223764   1.643   0.261   2.999
 7934TIP3   OH223765   3.157   3.207   5.498
 7934TIP3    H123766   3.116   3.246   5.421
 7934TIP3    H223767   3.108   3.126   5.513
 7935TIP3   OH223768   6.345   0.192   5.696
 7935TIP3    H123769   6.360   0.108   5.740
 7935TIP3    H223770   6.288   0.171   5.623
 7936TIP3   OH223771   5.700   6.640   5.217
 7936TIP3    H123772   5.691   6.579   5.143
 7936TIP3    H223773   5.794   6.641   5.235
 7937TIP3   OH223774   3.215   0.318   0.167
 7937TIP3    H123775   3.122   0.309   0.144
 7937TIP3    H223776   3.218   0.394   0.225
 7938TIP3   OH223777   6.594   5.502   3.723
 7938TIP3    H123778   6.576   5.596   3.713
 7938TIP3    H223779   6.552   5.461   3.648
 7939TIP3   OH223780   4.120   3.779   4.099
 7939TIP3    H123781   4.130   3.685   4.114
 7939TIP3    H223782   4.048   3.786   4.036
 7940TIP3   OH223783   0.663   3.202   4.141
 7940TIP3    H123784   0.640   3.110   4.130
 7940TIP3    H223785   0.629   3.244   4.061
 7941TIP3   OH223786   0.954   3.573   4.297
 7941TIP3    H123787   1.018   3.590   4.229
 7941TIP3    H223788   0.873   3.552   4.250
 7942TIP3   OH223789   2.684   0.734   3.777
 7942TIP3    H123790   2.765   0.720   3.826
 7942TIP3    H223791   2.663   0.826   3.793
 7943TIP3   OH223792   2.514   4.606   4.133
 7943TIP3    H123793   2.419   4.595   4.125
 7943TIP3    H223794   2.530   4.695   4.102
 7944TIP3   OH223795   0.902   4.468   3.539
 7944TIP3    H123796   0.961   4.492   3.611
 7944TIP3    H223797   0.934   4.383   3.510
 7945TIP3   OH223798   5.192   3.815   5.713
 7945TIP3    H123799   5.203   3.826   5.619
 7945TIP3    H223800   5.103   3.783   5.724
 7946TIP3   OH223801   1.110   6.343   4.592
 7946TIP3    H123802   1.051   6.274   4.561
 7946TIP3    H223803   1.171   6.298   4.649
 7947TIP3   OH223804   0.905   5.310   4.534
 7947TIP3    H123805   0.895   5.373   4.605
 7947TIP3    H223806   0.949   5.359   4.465
 7948TIP3   OH223807   0.342   5.103   3.101
 7948TIP3    H123808   0.369   5.023   3.145
 7948TIP3    H223809   0.371   5.092   3.011
 7949TIP3   OH223810   3.251   0.059   1.328
 7949TIP3    H123811   3.260  -0.036   1.336
 7949TIP3    H223812   3.203   0.072   1.246
 7950TIP3   OH223813   5.062   2.363   1.100
 7950TIP3    H123814   5.013   2.324   1.028
 7950TIP3    H223815   5.069   2.456   1.077
 7951TIP3   OH223816   2.768   0.689   1.602
 7951TIP3    H123817   2.757   0.615   1.542
 7951TIP3    H223818   2.755   0.766   1.547
 7952TIP3   OH223819   0.848   3.286  -0.017
 7952TIP3    H123820   0.802   3.298   0.066
 7952TIP3    H223821   0.932   3.248   0.008
 7953TIP3   OH223822   3.460   0.106   0.784
 7953TIP3    H123823   3.443   0.060   0.866
 7953TIP3    H223824   3.411   0.057   0.718
 7954TIP3   OH223825   6.009   6.666   5.244
 7954TIP3    H123826   6.008   6.736   5.179
 7954TIP3    H223827   6.087   6.685   5.297
 7955TIP3   OH223828   5.207   2.991   1.856
 7955TIP3    H123829   5.230   2.901   1.833
 7955TIP3    H223830   5.253   3.008   1.938
 7956TIP3   OH223831   5.319   6.558   3.159
 7956TIP3    H123832   5.373   6.524   3.230
 7956TIP3    H223833   5.230   6.556   3.193
 7957TIP3   OH223834   3.980   2.549   0.320
 7957TIP3    H123835   3.918   2.606   0.274
 7957TIP3    H223836   4.066   2.587   0.301
 7958TIP3   OH223837   1.293   0.782   2.755
 7958TIP3    H123838   1.371   0.727   2.766
 7958TIP3    H223839   1.248   0.776   2.840
 7959TIP3   OH223840   0.890   0.297   5.829
 7959TIP3    H123841   0.889   0.365   5.762
 7959TIP3    H223842   0.969   0.247   5.811
 7960TIP3   OH223843   7.197   1.407   0.322
 7960TIP3    H123844   7.190   1.497   0.291
 7960TIP3    H223845   7.116   1.365   0.293
 7961TIP3   OH223846   5.127   3.160   5.267
 7961TIP3    H123847   5.075   3.196   5.196
 7961TIP3    H223848   5.191   3.228   5.288
 7962TIP3   OH223849   2.260   1.914   4.883
 7962TIP3    H123850   2.210   1.963   4.817
 7962TIP3    H223851   2.207   1.923   4.963
 7963TIP3   OH223852   6.377   4.159   3.774
 7963TIP3    H123853   6.381   4.094   3.845
 7963TIP3    H223854   6.465   4.197   3.771
 7964TIP3   OH223855   4.990   3.694   3.283
 7964TIP3    H123856   5.021   3.683   3.193
 7964TIP3    H223857   4.911   3.748   3.275
 7965TIP3   OH223858   5.457   6.234   1.324
 7965TIP3    H123859   5.388   6.261   1.385
 7965TIP3    H223860   5.485   6.316   1.282
 7966TIP3   OH223861   3.352   6.157   2.458
 7966TIP3    H123862   3.349   6.063   2.474
 7966TIP3    H223863   3.439   6.184   2.487
 7967TIP3   OH223864   1.229   0.698   4.131
 7967TIP3    H123865   1.177   0.623   4.105
 7967TIP3    H223866   1.319   0.675   4.107
 7968TIP3   OH223867   1.713   0.864  -0.032
 7968TIP3    H123868   1.761   0.899   0.043
 7968TIP3    H223869   1.653   0.799   0.006
 7969TIP3   OH223870   1.524   4.850   0.252
 7969TIP3    H123871   1.435   4.873   0.280
 7969TIP3    H223872   1.539   4.764   0.291
 7970TIP3   OH223873   5.167   5.620   2.093
 7970TIP3    H123874   5.153   5.683   2.163
 7970TIP3    H223875   5.149   5.535   2.134
 7971TIP3   OH223876   0.711   3.357   4.411
 7971TIP3    H123877   0.662   3.321   4.338
 7971TIP3    H223878   0.761   3.282   4.446
 7972TIP3   OH223879   2.126   2.439   4.229
 7972TIP3    H123880   2.069   2.515   4.220
 7972TIP3    H223881   2.067   2.363   4.224
 7973TIP3   OH223882   6.222   1.935   3.962
 7973TIP3    H123883   6.134   1.898   3.960
 7973TIP3    H223884   6.281   1.860   3.966
 7974TIP3   OH223885   6.096   0.940   1.394
 7974TIP3    H123886   6.130   0.858   1.357
 7974TIP3    H223887   6.033   0.912   1.461
 7975TIP3   OH223888   0.324   4.599   2.834
 7975TIP3    H123889   0.375   4.659   2.779
 7975TIP3    H223890   0.268   4.655   2.887
 7976TIP3   OH223891   1.530   3.768   0.641
 7976TIP3    H123892   1.494   3.833   0.700
 7976TIP3    H223893   1.586   3.817   0.581
 7977TIP3   OH223894   6.679   6.700   2.368
 7977TIP3    H123895   6.761   6.663   2.335
 7977TIP3    H223896   6.612   6.664   2.311
 7978TIP3   OH223897   5.211   0.402   2.634
 7978TIP3    H123898   5.289   0.347   2.634
 7978TIP3    H223899   5.211   0.445   2.549
 7979TIP3   OH223900   6.481   6.233   3.694
 7979TIP3    H123901   6.408   6.179   3.724
 7979TIP3    H223902   6.558   6.195   3.736
 7980TIP3   OH223903   1.843   3.874   2.400
 7980TIP3    H123904   1.890   3.844   2.477
 7980TIP3    H223905   1.819   3.964   2.420
 7981TIP3   OH223906   4.593   5.745   5.312
 7981TIP3    H123907   4.555   5.729   5.226
 7981TIP3    H223908   4.569   5.669   5.364
 7982TIP3   OH223909   7.145   0.094   3.898
 7982TIP3    H123910   7.124   0.157   3.967
 7982TIP3    H223911   7.165   0.013   3.945
 7983TIP3   OH223912   4.658   0.739   3.209
 7983TIP3    H123913   4.621   0.680   3.143
 7983TIP3    H223914   4.581   0.777   3.253
 7984TIP3   OH223915   5.041   0.560   4.800
 7984TIP3    H123916   5.104   0.602   4.859
 7984TIP3    H223917   4.987   0.505   4.856
 7985TIP3   OH223918   5.418   3.152   4.206
 7985TIP3    H123919   5.408   3.116   4.118
 7985TIP3    H223920   5.452   3.240   4.192
 7986TIP3   OH223921   1.849   0.931   3.484
 7986TIP3    H123922   1.780   0.971   3.431
 7986TIP3    H223923   1.829   0.837   3.482
 7987TIP3   OH223924   2.212   6.202   1.621
 7987TIP3    H123925   2.274   6.217   1.549
 7987TIP3    H223926   2.208   6.287   1.666
 7988TIP3   OH223927   2.974   4.859   5.892
 7988TIP3    H123928   2.897   4.811   5.862
 7988TIP3    H223929   3.032   4.862   5.815
 7989TIP3   OH223930   3.398   6.822   1.732
 7989TIP3    H123931   3.391   6.883   1.658
 7989TIP3    H223932   3.318   6.770   1.728
 7990TIP3   OH223933   2.979   2.824   1.751
 7990TIP3    H123934   3.045   2.795   1.687
 7990TIP3    H223935   3.014   2.907   1.784
 7991TIP3   OH223936   2.156   1.313   3.434
 7991TIP3    H123937   2.118   1.259   3.365
 7991TIP3    H223938   2.139   1.264   3.515
 7992TIP3   OH223939   4.301   4.721   1.440
 7992TIP3    H123940   4.246   4.652   1.476
 7992TIP3    H223941   4.342   4.761   1.517
 7993TIP3   OH223942   6.240   0.282   4.978
 7993TIP3    H123943   6.160   0.273   5.028
 7993TIP3    H223944   6.251   0.376   4.965
 7994TIP3   OH223945   0.457   1.313   2.588
 7994TIP3    H123946   0.364   1.336   2.583
 7994TIP3    H223947   0.459   1.225   2.623
 7995TIP3   OH223948   1.655   2.056   3.633
 7995TIP3    H123949   1.640   2.146   3.662
 7995TIP3    H223950   1.748   2.041   3.647
 7996TIP3   OH223951   5.572   2.113   2.952
 7996TIP3    H123952   5.556   2.131   2.859
 7996TIP3    H223953   5.486   2.125   2.993
 7997TIP3   OH223954   0.169   4.036   2.952
 7997TIP3    H123955   0.199   3.975   2.885
 7997TIP3    H223956   0.249   4.071   2.991
 7998TIP3   OH223957   0.719   6.458   2.779
 7998TIP3    H123958   0.725   6.433   2.871
 7998TIP3    H223959   0.726   6.375   2.731
 7999TIP3   OH223960   6.859   6.270   4.915
 7999TIP3    H123961   6.799   6.306   4.850
 7999TIP3    H223962   6.816   6.284   4.999
 8000TIP3   OH223963   5.646   5.683   5.858
 8000TIP3    H123964   5.697   5.609   5.824
 8000TIP3    H223965   5.565   5.681   5.807
 8001TIP3   OH223966   5.340   1.223   0.276
 8001TIP3    H123967   5.357   1.223   0.181
 8001TIP3    H223968   5.387   1.299   0.309
 8002TIP3   OH223969   3.036   2.150   3.993
 8002TIP3    H123970   3.104   2.209   4.025
 8002TIP3    H223971   3.060   2.132   3.902
 8003TIP3   OH223972   4.305   4.496   3.068
 8003TIP3    H123973   4.385   4.512   3.118
 8003TIP3    H223974   4.292   4.401   3.074
 8004TIP3   OH223975   5.475   5.266   3.916
 8004TIP3    H123976   5.486   5.285   4.009
 8004TIP3    H223977   5.396   5.212   3.911
 8005TIP3   OH223978   1.665   2.045   4.335
 8005TIP3    H123979   1.705   1.983   4.274
 8005TIP3    H223980   1.707   2.026   4.419
 8006TIP3   OH223981   1.895   5.504   4.575
 8006TIP3    H123982   1.864   5.413   4.572
 8006TIP3    H223983   1.987   5.499   4.552
 8007TIP3   OH223984   1.217   6.542   0.023
 8007TIP3    H123985   1.147   6.588   0.069
 8007TIP3    H223986   1.186   6.453   0.013
 8008TIP3   OH223987   2.067   2.509   2.371
 8008TIP3    H123988   2.142   2.528   2.315
 8008TIP3    H223989   2.070   2.414   2.384
 8009TIP3   OH223990   3.226   1.338   1.500
 8009TIP3    H123991   3.191   1.253   1.475
 8009TIP3    H223992   3.320   1.324   1.505
 8010TIP3   OH223993   4.083   5.681   4.923
 8010TIP3    H123994   4.008   5.715   4.874
 8010TIP3    H223995   4.122   5.759   4.963
 8011TIP3   OH223996   0.909   2.396   2.500
 8011TIP3    H123997   0.979   2.389   2.565
 8011TIP3    H223998   0.838   2.343   2.536
 8012TIP3   OH223999   0.173   2.240   5.724
 8012TIP3    H124000   0.225   2.214   5.799
 8012TIP3    H224001   0.198   2.331   5.708
 8013TIP3   OH224002   2.018   3.097   1.141
 8013TIP3    H124003   1.938   3.138   1.109
 8013TIP3    H224004   2.087   3.161   1.126
 8014TIP3   OH224005   6.726   1.696   0.094
 8014TIP3    H124006   6.707   1.603   0.087
 8014TIP3    H224007   6.819   1.703   0.070
 8015TIP3   OH224008   6.804   5.212   2.659
 8015TIP3    H124009   6.882   5.267   2.655
 8015TIP3    H224010   6.748   5.244   2.588
 8016TIP3   OH224011   6.646   4.393   4.243
 8016TIP3    H124012   6.562   4.427   4.273
 8016TIP3    H224013   6.643   4.405   4.148
 8017TIP3   OH224014   2.838   1.921   3.078
 8017TIP3    H124015   2.911   1.938   3.019
 8017TIP3    H224016   2.776   1.992   3.060
 8018TIP3   OH224017   5.976   0.038   2.615
 8018TIP3    H124018   5.954  -0.051   2.642
 8018TIP3    H224019   6.056   0.059   2.662
 8019TIP3   OH224020   5.317   6.216   0.223
 8019TIP3    H124021   5.227   6.248   0.232
 8019TIP3    H224022   5.353   6.221   0.311
 8020TIP3   OH224023   0.136   0.561   3.918
 8020TIP3    H124024   0.063   0.540   3.860
 8020TIP3    H224025   0.196   0.612   3.863
 8021TIP3   OH224026   4.956   5.178   2.525
 8021TIP3    H124027   5.000   5.240   2.467
 8021TIP3    H224028   4.936   5.103   2.470
 8022TIP3   OH224029   1.978   3.994   5.848
 8022TIP3    H124030   1.930   4.033   5.775
 8022TIP3    H224031   2.006   3.909   5.816
 8023TIP3   OH224032   3.253   6.307   0.427
 8023TIP3    H124033   3.278   6.224   0.468
 8023TIP3    H224034   3.185   6.342   0.484
 8024TIP3   OH224035   2.383   2.186   0.896
 8024TIP3    H124036   2.391   2.253   0.964
 8024TIP3    H224037   2.324   2.226   0.831
 8025TIP3   OH224038   2.293   3.649   4.594
 8025TIP3    H124039   2.383   3.684   4.593
 8025TIP3    H224040   2.304   3.555   4.581
 8026TIP3   OH224041   4.580   2.651   4.078
 8026TIP3    H124042   4.646   2.720   4.071
 8026TIP3    H224043   4.606   2.600   4.154
 8027TIP3   OH224044   4.452   4.254   0.033
 8027TIP3    H124045   4.518   4.304   0.080
 8027TIP3    H224046   4.489   4.166   0.025
 8028TIP3   OH224047   4.898   4.924   2.367
 8028TIP3    H124048   4.838   4.853   2.387
 8028TIP3    H224049   4.984   4.882   2.357
 8029TIP3   OH224050   1.699   2.260   1.007
 8029TIP3    H124051   1.608   2.256   1.038
 8029TIP3    H224052   1.692   2.292   0.917
 8030TIP3   OH224053   3.440   3.830   0.333
 8030TIP3    H124054   3.362   3.820   0.280
 8030TIP3    H224055   3.408   3.825   0.424
 8031TIP3   OH224056   2.788   5.547   0.020
 8031TIP3    H124057   2.744   5.548   0.105
 8031TIP3    H224058   2.853   5.476   0.027
 8032TIP3   OH224059   0.185   6.792   1.506
 8032TIP3    H124060   0.265   6.767   1.553
 8032TIP3    H224061   0.114   6.759   1.560
 8033TIP3   OH224062   5.831   3.327   0.486
 8033TIP3    H124063   5.818   3.407   0.536
 8033TIP3    H224064   5.898   3.349   0.422
 8034TIP3   OH224065   4.080   0.353   4.138
 8034TIP3    H124066   4.145   0.420   4.162
 8034TIP3    H224067   4.021   0.397   4.077
 8035TIP3   OH224068   4.479   0.507   4.696
 8035TIP3    H124069   4.504   0.419   4.668
 8035TIP3    H224070   4.557   0.561   4.679
 8036TIP3   OH224071   6.199   3.804   2.290
 8036TIP3    H124072   6.233   3.872   2.231
 8036TIP3    H224073   6.104   3.816   2.288
 8037TIP3   OH224074   7.137   5.361   4.987
 8037TIP3    H124075   7.077   5.287   4.972
 8037TIP3    H224076   7.206   5.350   4.923
 8038TIP3   OH224077   0.497   4.212   1.403
 8038TIP3    H124078   0.468   4.252   1.321
 8038TIP3    H224079   0.461   4.124   1.401
 8039TIP3   OH224080   2.727   2.621   4.066
 8039TIP3    H124081   2.790   2.620   4.138
 8039TIP3    H224082   2.657   2.679   4.096
 8040TIP3   OH224083   5.386   0.496   0.170
 8040TIP3    H124084   5.314   0.553   0.197
 8040TIP3    H224085   5.348   0.408   0.172
 8041TIP3   OH224086   3.635   1.551   1.021
 8041TIP3    H124087   3.719   1.505   1.019
 8041TIP3    H224088   3.635   1.603   0.940
 8042TIP3   OH224089   5.757   5.201   1.890
 8042TIP3    H124090   5.800   5.250   1.820
 8042TIP3    H224091   5.698   5.141   1.844
 8043TIP3   OH224092   3.380   1.686   0.090
 8043TIP3    H124093   3.330   1.706   0.169
 8043TIP3    H224094   3.451   1.749   0.090
 8044TIP3   OH224095   4.143   0.163   1.958
 8044TIP3    H124096   4.065   0.217   1.950
 8044TIP3    H224097   4.140   0.104   1.883
 8045TIP3   OH224098   1.119   2.276   3.557
 8045TIP3    H124099   1.036   2.314   3.586
 8045TIP3    H224100   1.155   2.234   3.635
 8046TIP3   OH224101   1.162   6.072   1.617
 8046TIP3    H124102   1.215   6.152   1.623
 8046TIP3    H224103   1.115   6.080   1.534
 8047TIP3   OH224104   4.067   1.402   5.208
 8047TIP3    H124105   3.981   1.427   5.176
 8047TIP3    H224106   4.128   1.462   5.165
 8048TIP3   OH224107   4.126   6.772   0.503
 8048TIP3    H124108   4.142   6.726   0.585
 8048TIP3    H224109   4.040   6.813   0.515
 8049TIP3   OH224110   0.992   0.814   0.146
 8049TIP3    H124111   1.079   0.812   0.105
 8049TIP3    H224112   0.936   0.764   0.086
 8050TIP3   OH224113   4.513   0.778   4.418
 8050TIP3    H124114   4.432   0.825   4.437
 8050TIP3    H224115   4.572   0.801   4.490
 8051TIP3   OH224116   1.770   1.394   0.893
 8051TIP3    H124117   1.718   1.358   0.822
 8051TIP3    H224118   1.846   1.335   0.900
 8052TIP3   OH224119   1.949   0.446   1.035
 8052TIP3    H124120   1.923   0.461   0.944
 8052TIP3    H224121   1.971   0.533   1.068
 8053TIP3   OH224122   5.601   0.309   0.043
 8053TIP3    H124123   5.676   0.273  -0.006
 8053TIP3    H224124   5.571   0.237   0.097
 8054TIP3   OH224125   1.200   5.327   5.270
 8054TIP3    H124126   1.228   5.239   5.245
 8054TIP3    H224127   1.278   5.366   5.311
 8055TIP3   OH224128   2.073   0.851   3.258
 8055TIP3    H124129   2.090   0.869   3.351
 8055TIP3    H224130   2.074   0.756   3.252
 8056TIP3   OH224131   6.606   6.755   5.691
 8056TIP3    H124132   6.546   6.726   5.621
 8056TIP3    H224133   6.693   6.747   5.653
 8057TIP3   OH224134   0.693   3.887   3.997
 8057TIP3    H124135   0.754   3.960   4.001
 8057TIP3    H224136   0.631   3.903   4.067
 8058TIP3   OH224137   5.471   0.196   3.618
 8058TIP3    H124138   5.485   0.214   3.525
 8058TIP3    H224139   5.556   0.212   3.659
 8059TIP3   OH224140   3.825   0.909   4.583
 8059TIP3    H124141   3.840   0.825   4.541
 8059TIP3    H224142   3.881   0.908   4.660
 8060TIP3   OH224143   3.573   4.529   0.183
 8060TIP3    H124144   3.658   4.553   0.145
 8060TIP3    H224145   3.560   4.592   0.254
 8061TIP3   OH224146   4.578   5.534   4.182
 8061TIP3    H124147   4.485   5.548   4.165
 8061TIP3    H224148   4.580   5.473   4.255
 8062TIP3   OH224149   0.935   6.263   1.998
 8062TIP3    H124150   0.882   6.185   1.980
 8062TIP3    H224151   0.978   6.282   1.915
 8063TIP3   OH224152   2.900   3.319   1.162
 8063TIP3    H124153   2.970   3.289   1.104
 8063TIP3    H224154   2.838   3.246   1.165
 8064TIP3   OH224155   0.925   4.385   4.618
 8064TIP3    H124156   1.004   4.370   4.671
 8064TIP3    H224157   0.921   4.480   4.607
 8065TIP3   OH224158   0.988   5.521   5.141
 8065TIP3    H124159   1.021   5.456   5.203
 8065TIP3    H224160   1.040   5.507   5.062
 8066TIP3   OH224161   6.186   4.528   0.094
 8066TIP3    H124162   6.178   4.623   0.085
 8066TIP3    H224163   6.165   4.494   0.007
 8067TIP3   OH224164   5.485   6.745   5.078
 8067TIP3    H124165   5.556   6.697   5.120
 8067TIP3    H224166   5.520   6.833   5.064
 8068TIP3   OH224167   3.061   6.249   3.374
 8068TIP3    H124168   3.014   6.324   3.339
 8068TIP3    H224169   2.997   6.204   3.430
 8069TIP3   OH224170   3.382   5.156   0.054
 8069TIP3    H124171   3.312   5.101   0.017
 8069TIP3    H224172   3.452   5.153  -0.012
 8070TIP3   OH224173   4.331   1.519   0.684
 8070TIP3    H124174   4.373   1.436   0.662
 8070TIP3    H224175   4.356   1.579   0.613
 8071TIP3   OH224176   0.470   0.552   2.000
 8071TIP3    H124177   0.487   0.491   2.072
 8071TIP3    H224178   0.533   0.623   2.015
 8072TIP3   OH224179   3.381   3.077   3.145
 8072TIP3    H124180   3.427   3.157   3.170
 8072TIP3    H224181   3.447   3.008   3.153
 8073TIP3   OH224182   2.149   1.769   4.345
 8073TIP3    H124183   2.117   1.681   4.366
 8073TIP3    H224184   2.242   1.767   4.368
 8074TIP3   OH224185   2.952   6.640   1.379
 8074TIP3    H124186   2.972   6.603   1.293
 8074TIP3    H224187   2.871   6.689   1.365
 8075TIP3   OH224188   3.777   3.990   3.464
 8075TIP3    H124189   3.809   3.917   3.410
 8075TIP3    H224190   3.837   3.994   3.538
 8076TIP3   OH224191   6.294   1.005   2.294
 8076TIP3    H124192   6.321   1.005   2.202
 8076TIP3    H224193   6.252   0.920   2.307
 8077TIP3   OH224194   4.883   5.877   3.734
 8077TIP3    H124195   4.907   5.817   3.805
 8077TIP3    H224196   4.958   5.877   3.676
 8078TIP3   OH224197   0.772   0.645   5.329
 8078TIP3    H124198   0.732   0.731   5.326
 8078TIP3    H224199   0.805   0.637   5.418
 8079TIP3   OH224200   4.668   0.030   4.769
 8079TIP3    H124201   4.697   0.005   4.857
 8079TIP3    H224202   4.712  -0.033   4.711
 8080TIP3   OH224203   0.459   0.102   4.123
 8080TIP3    H124204   0.444   0.088   4.030
 8080TIP3    H224205   0.447   0.196   4.136
 8081TIP3   OH224206   1.145   3.120   1.497
 8081TIP3    H124207   1.154   3.069   1.417
 8081TIP3    H224208   1.234   3.133   1.528
 8082TIP3   OH224209   0.727   4.396   2.064
 8082TIP3    H124210   0.758   4.452   1.992
 8082TIP3    H224211   0.725   4.308   2.026
 8083TIP3   OH224212   0.668   5.304   3.214
 8083TIP3    H124213   0.761   5.284   3.206
 8083TIP3    H224214   0.661   5.397   3.194
 8084TIP3   OH224215   1.790   0.784   5.300
 8084TIP3    H124216   1.744   0.740   5.229
 8084TIP3    H224217   1.883   0.778   5.276
 8085TIP3   OH224218   3.631   4.319   5.119
 8085TIP3    H124219   3.563   4.253   5.128
 8085TIP3    H224220   3.712   4.275   5.143
 8086TIP3   OH224221   5.002   5.605   3.150
 8086TIP3    H124222   5.061   5.594   3.075
 8086TIP3    H224223   4.917   5.623   3.110
 8087TIP3   OH224224   6.848   1.203  -0.018
 8087TIP3    H124225   6.838   1.142   0.055
 8087TIP3    H224226   6.943   1.212  -0.028
 8088TIP3   OH224227   5.344   4.705   5.414
 8088TIP3    H124228   5.313   4.748   5.334
 8088TIP3    H224229   5.264   4.691   5.465
 8089TIP3   OH224230   5.220   4.859   4.303
 8089TIP3    H124231   5.311   4.889   4.308
 8089TIP3    H224232   5.169   4.939   4.296
 8090TIP3   OH224233   3.035   1.406   3.189
 8090TIP3    H124234   3.087   1.379   3.265
 8090TIP3    H224235   2.989   1.327   3.162
 8091TIP3   OH224236   0.592   3.129   1.381
 8091TIP3    H124237   0.688   3.130   1.382
 8091TIP3    H224238   0.570   3.041   1.412
 8092TIP3   OH224239   3.462   4.090   5.396
 8092TIP3    H124240   3.368   4.085   5.417
 8092TIP3    H224241   3.501   4.134   5.472
 8093TIP3   OH224242   6.598   0.333   1.594
 8093TIP3    H124243   6.571   0.359   1.506
 8093TIP3    H224244   6.591   0.238   1.594
 8094TIP3   OH224245   2.514   6.524   0.763
 8094TIP3    H124246   2.425   6.495   0.783
 8094TIP3    H224247   2.516   6.615   0.792
 8095TIP3   OH224248   3.946   0.299   4.832
 8095TIP3    H124249   3.955   0.331   4.921
 8095TIP3    H224250   4.032   0.261   4.811
 8096TIP3   OH224251   7.097   6.289   5.736
 8096TIP3    H124252   7.086   6.282   5.830
 8096TIP3    H224253   7.132   6.377   5.722
 8097TIP3   OH224254   0.478   1.817   5.484
 8097TIP3    H124255   0.469   1.912   5.491
 8097TIP3    H224256   0.473   1.785   5.574
 8098TIP3   OH224257   5.592   6.108   0.769
 8098TIP3    H124258   5.555   6.027   0.803
 8098TIP3    H224259   5.683   6.085   0.749
 8099TIP3   OH224260   4.579   2.670   5.658
 8099TIP3    H124261   4.507   2.664   5.721
 8099TIP3    H224262   4.536   2.680   5.573
 8100TIP3   OH224263   4.479   5.380   5.249
 8100TIP3    H124264   4.485   5.384   5.154
 8100TIP3    H224265   4.566   5.407   5.280
 8101TIP3   OH224266   3.864   5.769   4.756
 8101TIP3    H124267   3.797   5.765   4.687
 8101TIP3    H224268   3.816   5.792   4.835
 8102TIP3   OH224269   6.553   1.930   2.514
 8102TIP3    H124270   6.475   1.950   2.462
 8102TIP3    H224271   6.560   2.003   2.576
 8103TIP3   OH224272   3.270   6.758   3.492
 8103TIP3    H124273   3.329   6.809   3.437
 8103TIP3    H224274   3.184   6.768   3.452
 8104TIP3   OH224275   4.857   3.897   1.096
 8104TIP3    H124276   4.777   3.889   1.043
 8104TIP3    H224277   4.876   3.808   1.125
 8105TIP3   OH224278   3.206   1.765   3.425
 8105TIP3    H124279   3.251   1.681   3.416
 8105TIP3    H224280   3.130   1.758   3.367
 8106TIP3   OH224281   6.782   5.159   0.507
 8106TIP3    H124282   6.818   5.242   0.475
 8106TIP3    H224283   6.835   5.091   0.465
 8107TIP3   OH224284   4.832   6.559   1.439
 8107TIP3    H124285   4.758   6.621   1.438
 8107TIP3    H224286   4.790   6.473   1.438
 8108TIP3   OH224287   0.733   0.420   2.035
 8108TIP3    H124288   0.823   0.436   2.063
 8108TIP3    H224289   0.734   0.437   1.941
 8109TIP3   OH224290   4.438   3.358   2.110
 8109TIP3    H124291   4.439   3.404   2.026
 8109TIP3    H224292   4.417   3.427   2.174
 8110TIP3   OH224293   2.639   4.111   5.460
 8110TIP3    H124294   2.596   4.163   5.392
 8110TIP3    H224295   2.649   4.172   5.533
 8111TIP3   OH224296   3.909   0.818   0.433
 8111TIP3    H124297   3.900   0.868   0.352
 8111TIP3    H224298   3.819   0.793   0.456
 8112TIP3   OH224299   3.442   2.008   4.266
 8112TIP3    H124300   3.353   2.041   4.276
 8112TIP3    H224301   3.472   2.044   4.182
 8113TIP3   OH224302   0.758   3.901   2.712
 8113TIP3    H124303   0.767   3.896   2.807
 8113TIP3    H224304   0.725   3.989   2.696
 8114TIP3   OH224305   0.191   2.723   0.780
 8114TIP3    H124306   0.172   2.630   0.769
 8114TIP3    H224307   0.261   2.740   0.717
 8115TIP3   OH224308   2.582   4.639   0.513
 8115TIP3    H124309   2.606   4.564   0.458
 8115TIP3    H224310   2.656   4.700   0.505
 8116TIP3   OH224311   3.355   1.652   0.659
 8116TIP3    H124312   3.302   1.620   0.732
 8116TIP3    H224313   3.338   1.746   0.655
 8117TIP3   OH224314   2.491   1.883   4.629
 8117TIP3    H124315   2.529   1.966   4.598
 8117TIP3    H224316   2.510   1.882   4.723
 8118TIP3   OH224317   1.825   3.981   1.112
 8118TIP3    H124318   1.891   3.992   1.043
 8118TIP3    H224319   1.833   3.889   1.138
 8119TIP3   OH224320   1.831   3.542   4.524
 8119TIP3    H124321   1.801   3.463   4.570
 8119TIP3    H224322   1.900   3.577   4.580
 8120TIP3   OH224323   0.804   6.233   3.268
 8120TIP3    H124324   0.761   6.256   3.350
 8120TIP3    H224325   0.898   6.239   3.287
 8121TIP3   OH224326   1.588   2.747   5.447
 8121TIP3    H124327   1.583   2.832   5.489
 8121TIP3    H224328   1.564   2.763   5.356
 8122TIP3   OH224329   1.379   4.466   5.854
 8122TIP3    H124330   1.368   4.533   5.922
 8122TIP3    H224331   1.327   4.499   5.780
 8123TIP3   OH224332   6.728   6.336   2.000
 8123TIP3    H124333   6.769   6.320   1.915
 8123TIP3    H224334   6.754   6.425   2.023
 8124TIP3   OH224335   5.602   4.888   2.159
 8124TIP3    H124336   5.633   4.972   2.126
 8124TIP3    H224337   5.666   4.863   2.226
 8125TIP3   OH224338   6.135   1.383   1.889
 8125TIP3    H124339   6.074   1.454   1.868
 8125TIP3    H224340   6.141   1.385   1.984
 8126TIP3   OH224341   1.056   3.926   3.769
 8126TIP3    H124342   1.093   4.010   3.798
 8126TIP3    H224343   1.018   3.889   3.848
 8127TIP3   OH224344   4.774   5.016   2.139
 8127TIP3    H124345   4.805   4.960   2.067
 8127TIP3    H224346   4.803   4.970   2.218
 8128TIP3   OH224347   4.694   2.550   3.435
 8128TIP3    H124348   4.767   2.509   3.389
 8128TIP3    H224349   4.726   2.560   3.525
 8129TIP3   OH224350   0.311   2.606   4.752
 8129TIP3    H124351   0.379   2.538   4.754
 8129TIP3    H224352   0.229   2.557   4.743
 8130TIP3   OH224353   1.277   1.763   2.910
 8130TIP3    H124354   1.295   1.712   2.989
 8130TIP3    H224355   1.253   1.698   2.844
 8131TIP3   OH224356   5.720   3.245   4.703
 8131TIP3    H124357   5.737   3.157   4.669
 8131TIP3    H224358   5.626   3.247   4.719
 8132TIP3   OH224359   0.064   4.703   2.537
 8132TIP3    H124360   0.055   4.645   2.613
 8132TIP3    H224361  -0.017   4.691   2.488
 8133TIP3   OH224362   6.365   3.623   4.806
 8133TIP3    H124363   6.299   3.553   4.813
 8133TIP3    H224364   6.369   3.642   4.712
 8134TIP3   OH224365   4.192   5.721   3.991
 8134TIP3    H124366   4.225   5.742   3.903
 8134TIP3    H224367   4.102   5.692   3.977
 8135TIP3   OH224368   7.056   3.174   4.004
 8135TIP3    H124369   6.985   3.114   4.026
 8135TIP3    H224370   7.104   3.130   3.934
 8136TIP3   OH224371   2.869   1.149   2.796
 8136TIP3    H124372   2.897   1.058   2.789
 8136TIP3    H224373   2.888   1.174   2.886
 8137TIP3   OH224374   2.266   4.062   5.828
 8137TIP3    H124375   2.242   4.006   5.901
 8137TIP3    H224376   2.193   4.122   5.818
 8138TIP3   OH224377   6.608   3.776   2.808
 8138TIP3    H124378   6.624   3.714   2.737
 8138TIP3    H224379   6.527   3.820   2.783
 8139TIP3   OH224380   1.859   6.646   2.693
 8139TIP3    H124381   1.786   6.687   2.739
 8139TIP3    H224382   1.825   6.626   2.606
 8140TIP3   OH224383   2.075   4.819   4.271
 8140TIP3    H124384   2.068   4.729   4.239
 8140TIP3    H224385   2.169   4.835   4.279
 8141TIP3   OH224386   3.726   2.314   3.668
 8141TIP3    H124387   3.642   2.359   3.661
 8141TIP3    H224388   3.778   2.351   3.597
 8142TIP3   OH224389   3.549   2.002   5.876
 8142TIP3    H124390   3.584   1.919   5.843
 8142TIP3    H224391   3.461   1.981   5.905
 8143TIP3   OH224392   6.969   4.956   3.227
 8143TIP3    H124393   6.970   5.039   3.181
 8143TIP3    H224394   6.964   4.980   3.320
 8144TIP3   OH224395   2.160   1.927   1.424
 8144TIP3    H124396   2.207   1.885   1.497
 8144TIP3    H224397   2.181   1.872   1.348
 8145TIP3   OH224398   0.029   0.826   4.441
 8145TIP3    H124399   0.002   0.749   4.490
 8145TIP3    H224400   0.013   0.804   4.349
 8146TIP3   OH224401   2.796   1.009   1.852
 8146TIP3    H124402   2.788   1.037   1.761
 8146TIP3    H224403   2.711   1.028   1.891
 8147TIP3   OH224404   5.321   5.935   0.399
 8147TIP3    H124405   5.228   5.959   0.403
 8147TIP3    H224406   5.330   5.861   0.458
 8148TIP3   OH224407   1.398   1.382   5.007
 8148TIP3    H124408   1.313   1.375   5.051
 8148TIP3    H224409   1.383   1.347   4.919
 8149TIP3   OH224410   3.129   2.411   0.615
 8149TIP3    H124411   3.200   2.474   0.602
 8149TIP3    H224412   3.051   2.465   0.627
 8150TIP3   OH224413   3.620   3.586   2.979
 8150TIP3    H124414   3.676   3.591   3.057
 8150TIP3    H224415   3.589   3.676   2.967
 8151TIP3   OH224416   4.125   5.642   2.808
 8151TIP3    H124417   4.162   5.721   2.769
 8151TIP3    H224418   4.039   5.632   2.767
 8152TIP3   OH224419   6.845   4.336   5.573
 8152TIP3    H124420   6.796   4.255   5.558
 8152TIP3    H224421   6.865   4.368   5.485
 8153TIP3   OH224422   4.281   3.716   4.810
 8153TIP3    H124423   4.267   3.804   4.777
 8153TIP3    H224424   4.330   3.672   4.740
 8154TIP3   OH224425   3.294   1.688   5.433
 8154TIP3    H124426   3.323   1.597   5.429
 8154TIP3    H224427   3.200   1.682   5.453
 8155TIP3   OH224428   3.541   3.856   2.952
 8155TIP3    H124429   3.446   3.852   2.963
 8155TIP3    H224430   3.554   3.862   2.857
 8156TIP3   OH224431   3.851   4.614   5.452
 8156TIP3    H124432   3.826   4.688   5.507
 8156TIP3    H224433   3.920   4.570   5.501
 8157TIP3   OH224434   4.112   2.312   0.415
 8157TIP3    H124435   4.054   2.383   0.391
 8157TIP3    H224436   4.074   2.275   0.495
 8158TIP3   OH224437   2.628   1.048   2.655
 8158TIP3    H124438   2.539   1.040   2.620
 8158TIP3    H224439   2.636   0.977   2.718
 8159TIP3   OH224440   6.027   6.525   4.947
 8159TIP3    H124441   5.951   6.583   4.940
 8159TIP3    H224442   6.040   6.492   4.858
 8160TIP3   OH224443   2.971   4.076   2.790
 8160TIP3    H124444   3.040   4.079   2.856
 8160TIP3    H224445   2.889   4.077   2.840
 8161TIP3   OH224446   6.902   3.640   4.093
 8161TIP3    H124447   6.884   3.570   4.156
 8161TIP3    H224448   6.909   3.596   4.009
 8162TIP3   OH224449   6.548   5.581   4.482
 8162TIP3    H124450   6.566   5.546   4.570
 8162TIP3    H224451   6.543   5.676   4.495
 8163TIP3   OH224452   1.672   4.765   1.812
 8163TIP3    H124453   1.704   4.729   1.895
 8163TIP3    H224454   1.749   4.767   1.755
 8164TIP3   OH224455   5.217   2.322   0.764
 8164TIP3    H124456   5.222   2.240   0.814
 8164TIP3    H224457   5.298   2.324   0.713
 8165TIP3   OH224458   1.165   5.560   0.049
 8165TIP3    H124459   1.215   5.491   0.004
 8165TIP3    H224460   1.224   5.635   0.049
 8166TIP3   OH224461   5.557   1.421   2.717
 8166TIP3    H124462   5.547   1.515   2.733
 8166TIP3    H224463   5.648   1.402   2.742
 8167TIP3   OH224464   2.556   5.818   0.603
 8167TIP3    H124465   2.498   5.889   0.574
 8167TIP3    H224466   2.638   5.835   0.556
 8168TIP3   OH224467   2.406   6.056   0.514
 8168TIP3    H124468   2.464   6.133   0.520
 8168TIP3    H224469   2.330   6.087   0.466
 8169TIP3   OH224470   3.277   1.242   1.156
 8169TIP3    H124471   3.258   1.231   1.249
 8169TIP3    H224472   3.370   1.224   1.147
 8170TIP3   OH224473   1.054   3.147   4.381
 8170TIP3    H124474   1.069   3.212   4.313
 8170TIP3    H224475   0.986   3.089   4.345
 8171TIP3   OH224476   0.973   4.119   4.530
 8171TIP3    H124477   0.918   4.196   4.541
 8171TIP3    H224478   0.975   4.105   4.435
 8172TIP3   OH224479   1.071   6.305   3.273
 8172TIP3    H124480   1.136   6.372   3.250
 8172TIP3    H224481   1.089   6.285   3.365
 8173TIP3   OH224482   3.049   4.444   3.201
 8173TIP3    H124483   3.089   4.411   3.281
 8173TIP3    H224484   3.012   4.366   3.160
 8174TIP3   OH224485   5.392   6.396   5.864
 8174TIP3    H124486   5.398   6.383   5.770
 8174TIP3    H224487   5.474   6.438   5.888
 8175TIP3   OH224488   4.513   2.360   1.527
 8175TIP3    H124489   4.511   2.298   1.454
 8175TIP3    H224490   4.605   2.366   1.552
 8176TIP3   OH224491   4.722   5.554   3.905
 8176TIP3    H124492   4.639   5.579   3.946
 8176TIP3    H224493   4.784   5.549   3.978
 8177TIP3   OH224494   0.892   2.907   4.870
 8177TIP3    H124495   0.850   2.866   4.794
 8177TIP3    H224496   0.821   2.951   4.916
 8178TIP3   OH224497   1.566   5.016   4.996
 8178TIP3    H124498   1.637   5.036   5.057
 8178TIP3    H224499   1.566   5.088   4.934
 8179TIP3   OH224500   4.046   2.091   4.845
 8179TIP3    H124501   3.961   2.085   4.802
 8179TIP3    H224502   4.110   2.073   4.776
 8180TIP3   OH224503   0.473   1.356   2.216
 8180TIP3    H124504   0.440   1.355   2.306
 8180TIP3    H224505   0.396   1.374   2.162
 8181TIP3   OH224506   5.941   6.442   4.396
 8181TIP3    H124507   5.885   6.511   4.360
 8181TIP3    H224508   5.954   6.466   4.487
 8182TIP3   OH224509   6.687   3.844   4.101
 8182TIP3    H124510   6.629   3.862   4.175
 8182TIP3    H224511   6.745   3.774   4.131
 8183TIP3   OH224512   5.681   6.275   0.000
 8183TIP3    H124513   5.606   6.227   0.037
 8183TIP3    H224514   5.758   6.230   0.035
 8184TIP3   OH224515   6.697   1.758   2.001
 8184TIP3    H124516   6.703   1.673   2.045
 8184TIP3    H224517   6.605   1.783   2.008
 8185TIP3   OH224518   6.156   5.526   2.172
 8185TIP3    H124519   6.239   5.528   2.220
 8185TIP3    H224520   6.139   5.618   2.151
 8186TIP3   OH224521   5.772   2.377   4.545
 8186TIP3    H124522   5.855   2.380   4.498
 8186TIP3    H224523   5.729   2.297   4.514
 8187TIP3   OH224524   2.362   5.984   3.961
 8187TIP3    H124525   2.425   5.943   4.021
 8187TIP3    H224526   2.387   6.076   3.958
 8188TIP3   OH224527   1.047   4.341   0.956
 8188TIP3    H124528   1.036   4.412   0.893
 8188TIP3    H224529   0.958   4.314   0.978
 8189TIP3   OH224530   1.886   3.426   1.407
 8189TIP3    H124531   1.848   3.351   1.453
 8189TIP3    H224532   1.821   3.496   1.419
 8190TIP3   OH224533   2.690   5.707   2.212
 8190TIP3    H124534   2.760   5.756   2.255
 8190TIP3    H224535   2.619   5.771   2.201
 8191TIP3   OH224536   0.630   4.882   2.903
 8191TIP3    H124537   0.651   4.865   2.995
 8191TIP3    H224538   0.626   4.978   2.896
 8192TIP3   OH224539   6.226   4.162   5.249
 8192TIP3    H124540   6.141   4.137   5.212
 8192TIP3    H224541   6.261   4.227   5.187
 8193TIP3   OH224542   1.583   0.336   0.521
 8193TIP3    H124543   1.644   0.380   0.461
 8193TIP3    H224544   1.526   0.285   0.463
 8194TIP3   OH224545   5.584   3.702   4.316
 8194TIP3    H124546   5.646   3.696   4.389
 8194TIP3    H224547   5.638   3.697   4.238
 8195TIP3   OH224548   5.993   0.351   5.739
 8195TIP3    H124549   6.076   0.386   5.708
 8195TIP3    H224550   5.943   0.334   5.659
 8196TIP3   OH224551   6.348   2.963   4.912
 8196TIP3    H124552   6.301   2.938   4.833
 8196TIP3    H224553   6.296   2.926   4.984
 8197TIP3   OH224554   2.256   4.359   4.760
 8197TIP3    H124555   2.259   4.269   4.728
 8197TIP3    H224556   2.343   4.375   4.797
 8198TIP3   OH224557   0.144   2.245   5.266
 8198TIP3    H124558   0.069   2.237   5.325
 8198TIP3    H224559   0.200   2.311   5.307
 8199TIP3   OH224560   6.225   1.620   3.255
 8199TIP3    H124561   6.263   1.702   3.222
 8199TIP3    H224562   6.298   1.575   3.297
 8200TIP3   OH224563   0.383   3.788   5.213
 8200TIP3    H124564   0.440   3.714   5.234
 8200TIP3    H224565   0.428   3.831   5.140
 8201TIP3   OH224566   1.515   0.656   0.934
 8201TIP3    H124567   1.562   0.695   1.008
 8201TIP3    H224568   1.433   0.624   0.971
 8202TIP3   OH224569   0.039   6.247   2.613
 8202TIP3    H124570   0.087   6.168   2.640
 8202TIP3    H224571   0.006   6.226   2.525
 8203TIP3   OH224572   6.252   2.335   1.017
 8203TIP3    H124573   6.260   2.421   0.977
 8203TIP3    H224574   6.289   2.275   0.952
 8204TIP3   OH224575   1.048   6.416   1.694
 8204TIP3    H124576   1.000   6.428   1.612
 8204TIP3    H224577   1.036   6.498   1.741
 8205TIP3   OH224578   4.039   3.855   5.545
 8205TIP3    H124579   4.104   3.795   5.508
 8205TIP3    H224580   3.978   3.798   5.592
 8206TIP3   OH224581   4.257   1.501   1.308
 8206TIP3    H124582   4.210   1.561   1.250
 8206TIP3    H224583   4.305   1.558   1.368
 8207TIP3   OH224584   4.600   4.423   4.889
 8207TIP3    H124585   4.679   4.376   4.917
 8207TIP3    H224586   4.621   4.515   4.902
 8208TIP3   OH224587   2.983   4.721   5.450
 8208TIP3    H124588   3.009   4.702   5.359
 8208TIP3    H224589   2.888   4.728   5.447
 8209TIP3   OH224590   5.860   6.165   5.104
 8209TIP3    H124591   5.883   6.144   5.013
 8209TIP3    H224592   5.833   6.081   5.142
 8210TIP3   OH224593   0.330   5.170   0.739
 8210TIP3    H124594   0.387   5.118   0.682
 8210TIP3    H224595   0.249   5.180   0.689
 8211TIP3   OH224596   2.738   3.099   0.257
 8211TIP3    H124597   2.702   3.116   0.169
 8211TIP3    H224598   2.785   3.017   0.247
 8212TIP3   OH224599   7.040   1.870   3.011
 8212TIP3    H124600   7.113   1.863   2.949
 8212TIP3    H224601   7.048   1.792   3.066
 8213TIP3   OH224602   0.799   5.160   5.575
 8213TIP3    H124603   0.857   5.157   5.499
 8213TIP3    H224604   0.715   5.127   5.543
 8214TIP3   OH224605   2.655   1.824   3.620
 8214TIP3    H124606   2.750   1.836   3.610
 8214TIP3    H224607   2.617   1.906   3.590
 8215TIP3   OH224608   3.635   3.113   2.660
 8215TIP3    H124609   3.678   3.088   2.742
 8215TIP3    H224610   3.591   3.196   2.681
 8216TIP3   OH224611   5.274   6.506   2.377
 8216TIP3    H124612   5.209   6.441   2.350
 8216TIP3    H224613   5.228   6.589   2.374
 8217TIP3   OH224614   0.449   1.594   1.609
 8217TIP3    H124615   0.432   1.684   1.636
 8217TIP3    H224616   0.497   1.556   1.683
 8218TIP3   OH224617   0.896   4.653   4.712
 8218TIP3    H124618   0.809   4.654   4.751
 8218TIP3    H224619   0.919   4.746   4.704
 8219TIP3   OH224620   0.728   6.509   4.497
 8219TIP3    H124621   0.688   6.489   4.413
 8219TIP3    H224622   0.749   6.423   4.534
 8220TIP3   OH224623   6.477   2.623   1.746
 8220TIP3    H124624   6.436   2.707   1.725
 8220TIP3    H224625   6.519   2.596   1.664
 8221TIP3   OH224626   1.139   2.880   4.509
 8221TIP3    H124627   1.095   2.798   4.485
 8221TIP3    H224628   1.069   2.937   4.540
 8222TIP3   OH224629   5.889   1.856   5.567
 8222TIP3    H124630   5.813   1.913   5.572
 8222TIP3    H224631   5.938   1.873   5.647
 8223TIP3   OH224632   0.389   6.496   5.102
 8223TIP3    H124633   0.375   6.490   5.196
 8223TIP3    H224634   0.303   6.477   5.064
 8224TIP3   OH224635   6.930   1.552   1.566
 8224TIP3    H124636   6.876   1.618   1.610
 8224TIP3    H224637   6.982   1.602   1.503
 8225TIP3   OH224638   1.113   6.712   4.092
 8225TIP3    H124639   1.031   6.663   4.104
 8225TIP3    H224640   1.182   6.649   4.109
 8226TIP3   OH224641   1.207   5.899   3.537
 8226TIP3    H124642   1.142   5.921   3.604
 8226TIP3    H224643   1.292   5.914   3.579
 8227TIP3   OH224644   3.151   1.567   1.174
 8227TIP3    H124645   3.236   1.577   1.217
 8227TIP3    H224646   3.171   1.521   1.093
 8228TIP3   OH224647   2.233   4.514   3.561
 8228TIP3    H124648   2.223   4.540   3.470
 8228TIP3    H224649   2.145   4.521   3.598
 8229TIP3   OH224650   2.516   0.546   1.692
 8229TIP3    H124651   2.547   0.623   1.645
 8229TIP3    H224652   2.581   0.478   1.671
 8230TIP3   OH224653   7.191   6.210   2.276
 8230TIP3    H124654   7.142   6.287   2.248
 8230TIP3    H224655   7.283   6.237   2.268
 8231TIP3   OH224656   1.993   0.503   2.038
 8231TIP3    H124657   2.071   0.450   2.056
 8231TIP3    H224658   2.027   0.584   2.002
 8232TIP3   OH224659   6.360   2.175   0.804
 8232TIP3    H124660   6.442   2.191   0.850
 8232TIP3    H224661   6.378   2.100   0.748
 8233TIP3   OH224662   4.252   5.980   5.262
 8233TIP3    H124663   4.236   5.890   5.290
 8233TIP3    H224664   4.271   5.972   5.168
 8234TIP3   OH224665   6.919   3.347   4.588
 8234TIP3    H124666   7.009   3.347   4.618
 8234TIP3    H224667   6.885   3.261   4.613
 8235TIP3   OH224668   4.304   0.213   4.960
 8235TIP3    H124669   4.279   0.304   4.976
 8235TIP3    H224670   4.282   0.198   4.868
 8236TIP3   OH224671   1.529   3.033   4.656
 8236TIP3    H124672   1.562   3.115   4.618
 8236TIP3    H224673   1.568   2.964   4.603
 8237TIP3   OH224674   6.977   1.937   1.546
 8237TIP3    H124675   6.966   1.857   1.494
 8237TIP3    H224676   7.008   2.002   1.483
 8238TIP3   OH224677   5.584   3.448   1.057
 8238TIP3    H124678   5.676   3.454   1.084
 8238TIP3    H224679   5.535   3.445   1.139
 8239TIP3   OH224680   5.927   6.704   4.029
 8239TIP3    H124681   6.007   6.736   3.987
 8239TIP3    H224682   5.862   6.701   3.959
 8240TIP3   OH224683   4.524   4.721   4.659
 8240TIP3    H124684   4.483   4.754   4.579
 8240TIP3    H224685   4.568   4.640   4.631
 8241TIP3   OH224686   5.366   3.426   5.382
 8241TIP3    H124687   5.295   3.400   5.441
 8241TIP3    H224688   5.440   3.370   5.408
 8242TIP3   OH224689   5.322   6.267   2.138
 8242TIP3    H124690   5.274   6.329   2.083
 8242TIP3    H224691   5.257   6.203   2.167
 8243TIP3   OH224692   2.134   5.056   2.382
 8243TIP3    H124693   2.228   5.050   2.366
 8243TIP3    H224694   2.115   5.149   2.380
 8244TIP3   OH224695   0.218   3.464   0.682
 8244TIP3    H124696   0.188   3.383   0.723
 8244TIP3    H224697   0.148   3.527   0.699
 8245TIP3   OH224698   4.293   2.893   3.832
 8245TIP3    H124699   4.248   2.809   3.835
 8245TIP3    H224700   4.377   2.875   3.791
 8246TIP3   OH224701   1.535   6.073   0.627
 8246TIP3    H124702   1.452   6.119   0.610
 8246TIP3    H224703   1.536   6.061   0.722
 8247TIP3   OH224704   6.896   2.739   1.958
 8247TIP3    H124705   6.893   2.646   1.934
 8247TIP3    H224706   6.812   2.756   2.000
 8248TIP3   OH224707   3.398   3.111   0.889
 8248TIP3    H124708   3.475   3.053   0.891
 8248TIP3    H224709   3.328   3.056   0.854
 8249TIP3   OH224710   0.767   1.186   5.190
 8249TIP3    H124711   0.765   1.201   5.285
 8249TIP3    H224712   0.680   1.156   5.168
 8250TIP3   OH224713   3.018   2.047   2.909
 8250TIP3    H124714   3.104   2.014   2.881
 8250TIP3    H224715   2.990   2.104   2.837
 8251TIP3   OH224716   6.327   0.923   2.003
 8251TIP3    H124717   6.263   0.854   2.021
 8251TIP3    H224718   6.281   0.986   1.949
 8252TIP3   OH224719   6.770   3.632   0.686
 8252TIP3    H124720   6.757   3.707   0.628
 8252TIP3    H224721   6.685   3.587   0.685
 8253TIP3   OH224722   6.409   4.367   0.862
 8253TIP3    H124723   6.395   4.292   0.805
 8253TIP3    H224724   6.321   4.392   0.891
 8254TIP3   OH224725   0.788   3.235   4.827
 8254TIP3    H124726   0.828   3.276   4.750
 8254TIP3    H224727   0.767   3.146   4.798
 8255TIP3   OH224728   3.682   0.676   0.290
 8255TIP3    H124729   3.597   0.719   0.283
 8255TIP3    H224730   3.662   0.584   0.308
 8256TIP3   OH224731   1.562   0.294   1.103
 8256TIP3    H124732   1.476   0.253   1.093
 8256TIP3    H224733   1.579   0.335   1.019
 8257TIP3   OH224734   2.524   2.058   3.617
 8257TIP3    H124735   2.495   2.127   3.557
 8257TIP3    H224736   2.472   2.071   3.696
 8258TIP3   OH224737   5.536   0.218   2.398
 8258TIP3    H124738   5.449   0.178   2.409
 8258TIP3    H224739   5.517   0.306   2.364
 8259TIP3   OH224740   3.431   4.420   3.516
 8259TIP3    H124741   3.359   4.439   3.576
 8259TIP3    H224742   3.420   4.327   3.494
 8260TIP3   OH224743   1.034   0.231   1.008
 8260TIP3    H124744   1.006   0.245   1.099
 8260TIP3    H224745   0.995   0.305   0.960
 8261TIP3   OH224746   4.916   4.823   1.964
 8261TIP3    H124747   4.944   4.900   1.913
 8261TIP3    H224748   4.961   4.749   1.923
 8262TIP3   OH224749   4.630   2.945   0.144
 8262TIP3    H124750   4.560   2.962   0.207
 8262TIP3    H224751   4.691   3.019   0.157
 8263TIP3   OH224752   0.896   5.591   5.558
 8263TIP3    H124753   0.911   5.617   5.648
 8263TIP3    H224754   0.816   5.639   5.532
 8264TIP3   OH224755   1.897   3.353   3.576
 8264TIP3    H124756   1.933   3.307   3.652
 8264TIP3    H224757   1.956   3.330   3.504
 8265TIP3   OH224758   6.942   1.058   4.457
 8265TIP3    H124759   6.882   0.999   4.410
 8265TIP3    H224760   7.008   1.081   4.391
 8266TIP3   OH224761   0.028   6.342   1.423
 8266TIP3    H124762   0.112   6.381   1.447
 8266TIP3    H224763  -0.037   6.403   1.458
 8267TIP3   OH224764   1.280   5.199   2.854
 8267TIP3    H124765   1.369   5.234   2.860
 8267TIP3    H224766   1.279   5.151   2.771
 8268TIP3   OH224767   2.493   2.005   1.257
 8268TIP3    H124768   2.462   1.917   1.234
 8268TIP3    H224769   2.417   2.048   1.295
 8269TIP3   OH224770   2.481   6.286   1.856
 8269TIP3    H124771   2.527   6.351   1.909
 8269TIP3    H224772   2.407   6.334   1.818
 8270TIP3   OH224773   4.836   0.226   3.385
 8270TIP3    H124774   4.826   0.321   3.372
 8270TIP3    H224775   4.792   0.209   3.469
 8271TIP3   OH224776   1.972   2.808   2.737
 8271TIP3    H124777   1.885   2.832   2.705
 8271TIP3    H224778   2.028   2.810   2.659
 8272TIP3   OH224779   3.000   3.077   5.219
 8272TIP3    H124780   2.920   3.032   5.191
 8272TIP3    H224781   3.052   3.009   5.261
 8273TIP3   OH224782   5.571   4.486   0.652
 8273TIP3    H124783   5.643   4.529   0.605
 8273TIP3    H224784   5.598   4.394   0.658
 8274TIP3   OH224785   1.948   2.781   5.760
 8274TIP3    H124786   1.863   2.744   5.736
 8274TIP3    H224787   1.931   2.833   5.839
 8275TIP3   OH224788   5.224   4.267   1.202
 8275TIP3    H124789   5.166   4.317   1.260
 8275TIP3    H224790   5.311   4.276   1.242
 8276TIP3   OH224791   4.009   3.135   0.279
 8276TIP3    H124792   3.915   3.142   0.296
 8276TIP3    H224793   4.046   3.217   0.314
 8277TIP3   OH224794   4.760   6.084   5.793
 8277TIP3    H124795   4.756   6.010   5.733
 8277TIP3    H224796   4.670   6.117   5.796
 8278TIP3   OH224797   7.217   4.881   2.172
 8278TIP3    H124798   7.164   4.952   2.210
 8278TIP3    H224799   7.305   4.895   2.209
 8279TIP3   OH224800   1.995   2.324   3.443
 8279TIP3    H124801   1.929   2.322   3.373
 8279TIP3    H224802   1.995   2.235   3.478
 8280TIP3   OH224803   6.948   0.706   0.333
 8280TIP3    H124804   7.035   0.701   0.373
 8280TIP3    H224805   6.947   0.635   0.269
 8281TIP3   OH224806   7.152   0.176   4.817
 8281TIP3    H124807   7.107   0.104   4.861
 8281TIP3    H224808   7.242   0.171   4.848
 8282TIP3   OH224809   0.006   1.124   5.301
 8282TIP3    H124810  -0.079   1.144   5.262
 8282TIP3    H224811   0.059   1.201   5.284
 8283TIP3   OH224812   5.408   3.442   3.853
 8283TIP3    H124813   5.479   3.380   3.872
 8283TIP3    H224814   5.416   3.458   3.759
 8284TIP3   OH224815   2.021   1.762   1.169
 8284TIP3    H124816   1.967   1.691   1.135
 8284TIP3    H224817   1.959   1.826   1.204
 8285TIP3   OH224818   2.671   0.618   2.148
 8285TIP3    H124819   2.761   0.590   2.165
 8285TIP3    H224820   2.642   0.562   2.076
 8286TIP3   OH224821   7.168   6.169   4.425
 8286TIP3    H124822   7.078   6.158   4.395
 8286TIP3    H224823   7.218   6.102   4.378
 8287TIP3   OH224824   4.260   5.924   4.172
 8287TIP3    H124825   4.239   5.864   4.102
 8287TIP3    H224826   4.289   5.868   4.245
 8288TIP3   OH224827   3.945   1.008   2.323
 8288TIP3    H124828   4.034   0.974   2.330
 8288TIP3    H224829   3.935   1.031   2.231
 8289TIP3   OH224830   2.463   6.172   0.834
 8289TIP3    H124831   2.551   6.182   0.871
 8289TIP3    H224832   2.476   6.186   0.740
 8290TIP3   OH224833   1.147   2.209   5.227
 8290TIP3    H124834   1.128   2.292   5.269
 8290TIP3    H224835   1.206   2.232   5.155
 8291TIP3   OH224836   2.608   2.754   2.389
 8291TIP3    H124837   2.703   2.745   2.382
 8291TIP3    H224838   2.574   2.719   2.308
 8292TIP3   OH224839   6.941   6.400   4.350
 8292TIP3    H124840   6.924   6.325   4.293
 8292TIP3    H224841   6.948   6.475   4.290
 8293TIP3   OH224842   2.670   2.085   4.232
 8293TIP3    H124843   2.673   1.990   4.220
 8293TIP3    H224844   2.578   2.108   4.216
 8294TIP3   OH224845   5.953   6.667   3.286
 8294TIP3    H124846   6.029   6.609   3.280
 8294TIP3    H224847   5.968   6.718   3.365
 8295TIP3   OH224848   3.082   6.138   4.547
 8295TIP3    H124849   3.000   6.185   4.560
 8295TIP3    H224850   3.118   6.173   4.466
 8296TIP3   OH224851   4.394   0.107   0.355
 8296TIP3    H124852   4.308   0.067   0.346
 8296TIP3    H224853   4.428   0.071   0.437
 8297TIP3   OH224854   5.603   6.083   5.317
 8297TIP3    H124855   5.528   6.036   5.355
 8297TIP3    H224856   5.669   6.015   5.302
 8298TIP3   OH224857   5.976   6.432   3.758
 8298TIP3    H124858   6.066   6.421   3.789
 8298TIP3    H224859   5.969   6.526   3.739
 8299TIP3   OH224860   6.894   5.995   4.725
 8299TIP3    H124861   6.873   6.087   4.710
 8299TIP3    H224862   6.947   5.969   4.650
 8300TIP3   OH224863   3.378   4.830   4.940
 8300TIP3    H124864   3.468   4.796   4.938
 8300TIP3    H224865   3.370   4.871   5.026
 8301TIP3   OH224866   2.039   5.698   5.809
 8301TIP3    H124867   2.077   5.618   5.846
 8301TIP3    H224868   1.960   5.712   5.860
 8302TIP3   OH224869   3.686   5.526   1.137
 8302TIP3    H124870   3.770   5.553   1.100
 8302TIP3    H224871   3.654   5.604   1.183
 8303TIP3   OH224872   0.951   4.131   5.286
 8303TIP3    H124873   0.870   4.106   5.240
 8303TIP3    H224874   0.957   4.069   5.359
 8304TIP3   OH224875   4.682   6.531   0.522
 8304TIP3    H124876   4.726   6.560   0.601
 8304TIP3    H224877   4.634   6.608   0.491
 8305TIP3   OH224878   1.448   2.194   1.361
 8305TIP3    H124879   1.367   2.149   1.336
 8305TIP3    H224880   1.443   2.278   1.316
 8306TIP3   OH224881   5.478   4.033   4.465
 8306TIP3    H124882   5.511   3.981   4.539
 8306TIP3    H224883   5.490   3.976   4.389
 8307TIP3   OH224884   3.859   6.670   4.461
 8307TIP3    H124885   3.889   6.603   4.523
 8307TIP3    H224886   3.767   6.683   4.483
 8308TIP3   OH224887   4.021   4.315   5.240
 8308TIP3    H124888   4.023   4.410   5.224
 8308TIP3    H224889   4.086   4.300   5.308
 8309TIP3   OH224890   5.614   6.652   1.669
 8309TIP3    H124891   5.539   6.595   1.688
 8309TIP3    H224892   5.668   6.648   1.748
 8310TIP3   OH224893   1.380   0.982   3.665
 8310TIP3    H124894   1.454   0.932   3.629
 8310TIP3    H224895   1.419   1.064   3.696
 8311TIP3   OH224896   3.721   3.182   1.786
 8311TIP3    H124897   3.681   3.100   1.758
 8311TIP3    H224898   3.814   3.172   1.765
 8312TIP3   OH224899   2.533   4.018   2.024
 8312TIP3    H124900   2.605   3.960   2.049
 8312TIP3    H224901   2.496   4.048   2.107
 8313TIP3   OH224902   4.827   1.364   0.514
 8313TIP3    H124903   4.847   1.271   0.510
 8313TIP3    H224904   4.770   1.380   0.439
 8314TIP3   OH224905   6.485   6.516   5.009
 8314TIP3    H124906   6.401   6.555   4.984
 8314TIP3    H224907   6.545   6.591   5.014
 8315TIP3   OH224908   2.776   6.253   4.264
 8315TIP3    H124909   2.849   6.306   4.233
 8315TIP3    H224910   2.776   6.176   4.208
 8316TIP3   OH224911   5.386   0.494   1.464
 8316TIP3    H124912   5.471   0.533   1.479
 8316TIP3    H224913   5.324   0.566   1.475
 8317TIP3   OH224914   0.697   4.503   2.291
 8317TIP3    H124915   0.616   4.553   2.295
 8317TIP3    H224916   0.712   4.489   2.197
 8318TIP3   OH224917   4.408   6.689   2.245
 8318TIP3    H124918   4.460   6.768   2.260
 8318TIP3    H224919   4.326   6.721   2.207
 8319TIP3   OH224920   7.170   6.667   2.721
 8319TIP3    H124921   7.203   6.592   2.770
 8319TIP3    H224922   7.076   6.653   2.716
 8320TIP3   OH224923   5.987   0.803   2.931
 8320TIP3    H124924   5.951   0.819   2.843
 8320TIP3    H224925   5.937   0.861   2.988
 8321TIP3   OH224926   4.494   0.607   3.005
 8321TIP3    H124927   4.433   0.544   2.966
 8321TIP3    H224928   4.447   0.690   3.001
 8322TIP3   OH224929   1.937   6.237   1.626
 8322TIP3    H124930   1.938   6.325   1.663
 8322TIP3    H224931   2.028   6.208   1.632
 8323TIP3   OH224932   7.134   0.017   1.670
 8323TIP3    H124933   7.106  -0.059   1.722
 8323TIP3    H224934   7.108   0.093   1.723
 8324TIP3   OH224935   1.699   2.133   0.396
 8324TIP3    H124936   1.699   2.108   0.489
 8324TIP3    H224937   1.764   2.075   0.356
 8325TIP3   OH224938   2.953   2.064   4.528
 8325TIP3    H124939   2.957   1.981   4.575
 8325TIP3    H224940   2.865   2.098   4.546
 8326TIP3   OH224941   5.686   3.696   0.797
 8326TIP3    H124942   5.773   3.679   0.761
 8326TIP3    H224943   5.686   3.651   0.881
 8327TIP3   OH224944   3.264   4.071   1.925
 8327TIP3    H124945   3.298   4.157   1.949
 8327TIP3    H224946   3.169   4.080   1.930
 8328TIP3   OH224947   6.540   6.323   3.276
 8328TIP3    H124948   6.446   6.327   3.259
 8328TIP3    H224949   6.552   6.243   3.327
 8329TIP3   OH224950   1.225   0.351   0.467
 8329TIP3    H124951   1.157   0.345   0.400
 8329TIP3    H224952   1.292   0.407   0.428
 8330TIP3   OH224953   1.508   2.736   5.185
 8330TIP3    H124954   1.435   2.678   5.209
 8330TIP3    H224955   1.511   2.732   5.089
 8331TIP3   OH224956   1.759   0.952   1.611
 8331TIP3    H124957   1.815   0.876   1.627
 8331TIP3    H224958   1.811   1.027   1.639
 8332TIP3   OH224959   0.837   4.877   4.245
 8332TIP3    H124960   0.750   4.866   4.206
 8332TIP3    H224961   0.820   4.894   4.338
 8333TIP3   OH224962   4.922   6.036   2.793
 8333TIP3    H124963   5.016   6.022   2.778
 8333TIP3    H224964   4.900   6.112   2.739
 8334TIP3   OH224965   1.302   4.505   1.765
 8334TIP3    H124966   1.239   4.467   1.826
 8334TIP3    H224967   1.380   4.523   1.818
 8335TIP3   OH224968   7.163   4.778   5.855
 8335TIP3    H124969   7.139   4.762   5.764
 8335TIP3    H224970   7.223   4.852   5.851
 8336TIP3   OH224971   4.115   6.790   3.810
 8336TIP3    H124972   4.087   6.709   3.767
 8336TIP3    H224973   4.049   6.806   3.877
 8337TIP3   OH224974   6.060   0.482   2.668
 8337TIP3    H124975   6.042   0.504   2.759
 8337TIP3    H224976   6.114   0.403   2.672
 8338TIP3   OH224977   3.714   6.686   2.390
 8338TIP3    H124978   3.740   6.653   2.476
 8338TIP3    H224979   3.740   6.778   2.391
 8339TIP3   OH224980   3.907   3.420   4.785
 8339TIP3    H124981   3.972   3.463   4.841
 8339TIP3    H224982   3.936   3.329   4.781
 8340TIP3   OH224983   1.460   3.291   1.077
 8340TIP3    H124984   1.489   3.260   0.991
 8340TIP3    H224985   1.371   3.323   1.062
 8341TIP3   OH224986   4.979   4.021   4.512
 8341TIP3    H124987   4.952   3.985   4.597
 8341TIP3    H224988   4.903   4.009   4.455
 8342TIP3   OH224989   6.664   3.325   5.492
 8342TIP3    H124990   6.583   3.368   5.463
 8342TIP3    H224991   6.705   3.294   5.411
 8343TIP3   OH224992   2.833   2.650   5.396
 8343TIP3    H124993   2.856   2.712   5.328
 8343TIP3    H224994   2.821   2.703   5.475
 8344TIP3   OH224995   5.855   5.972   1.820
 8344TIP3    H124996   5.830   5.908   1.886
 8344TIP3    H224997   5.823   6.056   1.854
 8345TIP3   OH224998   4.095   1.133   0.708
 8345TIP3    H124999   4.038   1.057   0.715
 8345TIP3    H225000   4.046   1.194   0.651
 8346TIP3   OH225001   4.833   6.483   5.616
 8346TIP3    H125002   4.790   6.401   5.639
 8346TIP3    H225003   4.792   6.548   5.673
 8347TIP3   OH225004   4.974   2.116   5.280
 8347TIP3    H125005   5.036   2.047   5.256
 8347TIP3    H225006   4.893   2.093   5.235
 8348TIP3   OH225007   4.008   4.849   2.850
 8348TIP3    H125008   4.044   4.764   2.873
 8348TIP3    H225009   4.044   4.909   2.914
 8349TIP3   OH225010   0.711   1.950   5.200
 8349TIP3    H125011   0.668   1.894   5.135
 8349TIP3    H225012   0.789   1.983   5.156
 8350TIP3   OH225013   5.225   2.545   3.232
 8350TIP3    H125014   5.201   2.604   3.160
 8350TIP3    H225015   5.164   2.565   3.302
 8351TIP3   OH225016   4.059   1.279   2.313
 8351TIP3    H125017   3.975   1.290   2.268
 8351TIP3    H225018   4.051   1.196   2.359
 8352TIP3   OH225019   6.167   3.428   0.482
 8352TIP3    H125020   6.222   3.350   0.486
 8352TIP3    H225021   6.162   3.459   0.573
 8353TIP3   OH225022   3.212   3.643   2.216
 8353TIP3    H125023   3.161   3.677   2.290
 8353TIP3    H225024   3.263   3.718   2.186
 8354TIP3   OH225025   4.754   4.240   4.565
 8354TIP3    H125026   4.835   4.197   4.539
 8354TIP3    H225027   4.709   4.176   4.620
 8355TIP3   OH225028   1.192   1.587   2.701
 8355TIP3    H125029   1.264   1.524   2.704
 8355TIP3    H225030   1.191   1.619   2.610
 8356TIP3   OH225031   2.171   0.499   2.839
 8356TIP3    H125032   2.209   0.506   2.926
 8356TIP3    H225033   2.245   0.511   2.780
 8357TIP3   OH225034   4.345   5.750   3.717
 8357TIP3    H125035   4.374   5.767   3.628
 8357TIP3    H225036   4.308   5.833   3.747
 8358TIP3   OH225037   1.032   3.409   3.069
 8358TIP3    H125038   1.125   3.429   3.081
 8358TIP3    H225039   1.030   3.324   3.026
 8359TIP3   OH225040   1.595   5.994   2.144
 8359TIP3    H125041   1.641   6.077   2.155
 8359TIP3    H225042   1.579   5.987   2.050
 8360TIP3   OH225043   6.190   3.826   0.132
 8360TIP3    H125044   6.102   3.792   0.113
 8360TIP3    H225045   6.201   3.899   0.070
 8361TIP3   OH225046   5.657   0.602   0.144
 8361TIP3    H125047   5.622   0.680   0.187
 8361TIP3    H225048   5.746   0.592   0.179
 8362TIP3   OH225049   0.052   5.049   5.852
 8362TIP3    H125050  -0.014   5.102   5.896
 8362TIP3    H225051   0.035   5.062   5.759
 8363TIP3   OH225052   4.340   5.723   2.211
 8363TIP3    H125053   4.396   5.679   2.147
 8363TIP3    H225054   4.366   5.685   2.295
 8364TIP3   OH225055   6.454   2.314   1.574
 8364TIP3    H125056   6.518   2.366   1.526
 8364TIP3    H225057   6.476   2.327   1.666
 8365TIP3   OH225058   4.771   0.835   1.949
 8365TIP3    H125059   4.831   0.863   2.018
 8365TIP3    H225060   4.823   0.778   1.893
 8366TIP3   OH225061   3.003   4.482   0.847
 8366TIP3    H125062   3.064   4.437   0.906
 8366TIP3    H225063   2.935   4.516   0.905
 8367TIP3   OH225064   6.965   6.119   3.171
 8367TIP3    H125065   6.998   6.082   3.252
 8367TIP3    H225066   7.004   6.206   3.167
 8368TIP3   OH225067   1.461   0.293   3.812
 8368TIP3    H125068   1.396   0.317   3.745
 8368TIP3    H225069   1.415   0.306   3.895
 8369TIP3   OH225070   5.783   0.156   4.191
 8369TIP3    H125071   5.759   0.117   4.107
 8369TIP3    H225072   5.700   0.182   4.231
 8370TIP3   OH225073   1.823   6.243   3.034
 8370TIP3    H125074   1.747   6.241   3.093
 8370TIP3    H225075   1.841   6.336   3.021
 8371TIP3   OH225076   2.941   4.562   1.668
 8371TIP3    H125077   2.964   4.494   1.730
 8371TIP3    H225078   2.888   4.624   1.719
 8372TIP3   OH225079   4.083   3.879   3.146
 8372TIP3    H125080   4.165   3.904   3.189
 8372TIP3    H225081   4.085   3.927   3.063
 8373TIP3   OH225082   0.738   4.819   1.606
 8373TIP3    H125083   0.746   4.874   1.529
 8373TIP3    H225084   0.812   4.844   1.662
 8374TIP3   OH225085   3.445   4.045   3.882
 8374TIP3    H125086   3.469   4.134   3.909
 8374TIP3    H225087   3.485   3.988   3.948
 8375TIP3   OH225088   0.065   1.980   5.052
 8375TIP3    H125089   0.010   1.915   5.095
 8375TIP3    H225090   0.004   2.047   5.021
 8376TIP3   OH225091   2.816   2.558   3.221
 8376TIP3    H125092   2.792   2.573   3.313
 8376TIP3    H225093   2.821   2.646   3.183
 8377TIP3   OH225094   0.451   4.268   1.717
 8377TIP3    H125095   0.421   4.301   1.633
 8377TIP3    H225096   0.408   4.323   1.782
 8378TIP3   OH225097   7.055   0.314   4.048
 8378TIP3    H125098   6.992   0.304   4.120
 8378TIP3    H225099   7.019   0.386   3.996
 8379TIP3   OH225100   3.682   5.863   4.037
 8379TIP3    H125101   3.610   5.924   4.049
 8379TIP3    H225102   3.645   5.778   4.057
 8380TIP3   OH225103   6.765   0.082   3.944
 8380TIP3    H125104   6.810   0.005   3.979
 8380TIP3    H225105   6.707   0.048   3.877
 8381TIP3   OH225106   1.651   2.738   5.745
 8381TIP3    H125107   1.610   2.678   5.684
 8381TIP3    H225108   1.609   2.822   5.727
 8382TIP3   OH225109   5.804   6.580   5.512
 8382TIP3    H125110   5.712   6.553   5.505
 8382TIP3    H225111   5.850   6.527   5.447
 8383TIP3   OH225112   5.592   4.510   4.539
 8383TIP3    H125113   5.593   4.424   4.498
 8383TIP3    H225114   5.507   4.547   4.514
 8384TIP3   OH225115   3.109   4.034   1.148
 8384TIP3    H125116   3.126   3.956   1.202
 8384TIP3    H225117   3.116   4.002   1.058
 8385TIP3   OH225118   5.354   6.538   0.668
 8385TIP3    H125119   5.439   6.534   0.712
 8385TIP3    H225120   5.292   6.559   0.738
 8386TIP3   OH225121   2.759   3.552   4.583
 8386TIP3    H125122   2.830   3.590   4.532
 8386TIP3    H225123   2.722   3.484   4.526
 8387TIP3   OH225124   2.194   3.745   2.052
 8387TIP3    H125125   2.155   3.775   2.134
 8387TIP3    H225126   2.192   3.650   2.058
 8388TIP3   OH225127   4.882   2.383   0.575
 8388TIP3    H125128   4.848   2.400   0.488
 8388TIP3    H225129   4.812   2.411   0.634
 8389TIP3   OH225130   0.622   0.329   1.364
 8389TIP3    H125131   0.668   0.374   1.435
 8389TIP3    H225132   0.535   0.311   1.398
 8390TIP3   OH225133   3.486   3.819   1.925
 8390TIP3    H125134   3.456   3.803   2.014
 8390TIP3    H225135   3.428   3.888   1.892
 8391TIP3   OH225136   7.170   5.934   4.685
 8391TIP3    H125137   7.207   5.854   4.647
 8391TIP3    H225138   7.201   6.004   4.628
 8392TIP3   OH225139   1.817   0.736   5.811
 8392TIP3    H125140   1.889   0.756   5.871
 8392TIP3    H225141   1.857   0.736   5.724
 8393TIP3   OH225142   4.296   6.156   0.389
 8393TIP3    H125143   4.358   6.155   0.317
 8393TIP3    H225144   4.337   6.212   0.456
 8394TIP3   OH225145   1.983   5.598   5.191
 8394TIP3    H125146   1.915   5.578   5.255
 8394TIP3    H225147   2.026   5.514   5.176
 8395TIP3   OH225148   3.717   0.156   4.759
 8395TIP3    H125149   3.700   0.143   4.666
 8395TIP3    H225150   3.785   0.223   4.762
 8396TIP3   OH225151   1.595   2.443   2.829
 8396TIP3    H125152   1.564   2.360   2.791
 8396TIP3    H225153   1.562   2.510   2.770
 8397TIP3   OH225154   3.791   2.136   5.391
 8397TIP3    H125155   3.854   2.157   5.322
 8397TIP3    H225156   3.845   2.117   5.468
 8398TIP3   OH225157   3.628   4.111   4.801
 8398TIP3    H125158   3.545   4.158   4.789
 8398TIP3    H225159   3.694   4.180   4.807
 8399TIP3   OH225160   2.070   3.044   0.658
 8399TIP3    H125161   2.090   3.064   0.566
 8399TIP3    H225162   1.974   3.043   0.662
 8400TIP3   OH225163   6.668   3.956   3.002
 8400TIP3    H125164   6.649   3.885   2.941
 8400TIP3    H225165   6.682   4.033   2.947
 8401TIP3   OH225166   3.777   4.031   1.278
 8401TIP3    H125167   3.713   4.023   1.208
 8401TIP3    H225168   3.862   4.018   1.236
 8402TIP3   OH225169   4.441   3.933   2.711
 8402TIP3    H125170   4.532   3.963   2.705
 8402TIP3    H225171   4.403   3.989   2.780
 8403TIP3   OH225172   4.394   2.533   1.683
 8403TIP3    H125173   4.415   2.608   1.627
 8403TIP3    H225174   4.429   2.458   1.636
 8404TIP3   OH225175   0.518   0.496   0.499
 8404TIP3    H125176   0.530   0.556   0.572
 8404TIP3    H225177   0.441   0.528   0.453
 8405TIP3   OH225178   5.663   0.450   5.264
 8405TIP3    H125179   5.684   0.499   5.184
 8405TIP3    H225180   5.702   0.502   5.334
 8406TIP3   OH225181   1.928   0.046   5.271
 8406TIP3    H125182   1.935  -0.020   5.340
 8406TIP3    H225183   1.868   0.009   5.207
 8407TIP3   OH225184   6.989   2.735   4.195
 8407TIP3    H125185   7.067   2.680   4.183
 8407TIP3    H225186   6.930   2.710   4.124
 8408TIP3   OH225187   5.909   1.457   5.009
 8408TIP3    H125188   5.947   1.448   5.097
 8408TIP3    H225189   5.966   1.404   4.953
 8409TIP3   OH225190   7.083   4.965   1.544
 8409TIP3    H125191   7.119   4.898   1.487
 8409TIP3    H225192   7.113   5.048   1.507
 8410TIP3   OH225193   1.262   3.089   1.839
 8410TIP3    H125194   1.224   3.029   1.904
 8410TIP3    H225195   1.317   3.033   1.785
 8411TIP3   OH225196   2.723   3.117   2.885
 8411TIP3    H125197   2.743   3.031   2.847
 8411TIP3    H225198   2.789   3.175   2.848
 8412TIP3   OH225199   6.433   1.675   2.938
 8412TIP3    H125200   6.472   1.595   2.974
 8412TIP3    H225201   6.493   1.702   2.869
 8413TIP3   OH225202   5.467   1.773   4.797
 8413TIP3    H125203   5.387   1.782   4.746
 8413TIP3    H225204   5.442   1.790   4.887
 8414TIP3   OH225205   3.823   0.650   0.771
 8414TIP3    H125206   3.740   0.627   0.812
 8414TIP3    H225207   3.823   0.746   0.769
 8415TIP3   OH225208   5.931   6.165   4.834
 8415TIP3    H125209   6.025   6.157   4.820
 8415TIP3    H225210   5.904   6.234   4.772
 8416TIP3   OH225211   0.440   0.979   4.814
 8416TIP3    H125212   0.393   0.951   4.736
 8416TIP3    H225213   0.483   1.061   4.789
 8417TIP3   OH225214   1.703   5.312   3.034
 8417TIP3    H125215   1.684   5.278   2.947
 8417TIP3    H225216   1.621   5.299   3.083
 8418TIP3   OH225217   1.156   3.156   0.667
 8418TIP3    H125218   1.158   3.072   0.621
 8418TIP3    H225219   1.065   3.186   0.658
 8419TIP3   OH225220   6.115   1.772   1.688
 8419TIP3    H125221   6.174   1.770   1.764
 8419TIP3    H225222   6.044   1.713   1.712
 8420TIP3   OH225223   4.674   4.061   1.888
 8420TIP3    H125224   4.764   4.058   1.856
 8420TIP3    H225225   4.660   4.151   1.915
 8421TIP3   OH225226   3.195   5.956   4.237
 8421TIP3    H125227   3.181   6.051   4.234
 8421TIP3    H225228   3.118   5.921   4.282
 8422TIP3   OH225229   1.780   5.273   1.189
 8422TIP3    H125230   1.793   5.244   1.279
 8422TIP3    H225231   1.865   5.260   1.147
 8423TIP3   OH225232   3.647   6.458   1.237
 8423TIP3    H125233   3.577   6.426   1.294
 8423TIP3    H225234   3.690   6.526   1.288
 8424TIP3   OH225235   3.552   3.648   3.480
 8424TIP3    H125236   3.515   3.598   3.553
 8424TIP3    H225237   3.582   3.730   3.519
 8425TIP3   OH225238   4.722   2.408   2.638
 8425TIP3    H125239   4.729   2.495   2.675
 8425TIP3    H225240   4.629   2.385   2.646
 8426TIP3   OH225241   6.806   5.801   0.640
 8426TIP3    H125242   6.872   5.801   0.709
 8426TIP3    H225243   6.856   5.797   0.559
 8427TIP3   OH225244   6.714   0.889   0.771
 8427TIP3    H125245   6.740   0.809   0.816
 8427TIP3    H225246   6.633   0.867   0.726
 8428TIP3   OH225247   3.760   0.192   5.437
 8428TIP3    H125248   3.805   0.132   5.376
 8428TIP3    H225249   3.702   0.135   5.487
 8429TIP3   OH225250   3.862   0.847   0.160
 8429TIP3    H125251   3.804   0.774   0.179
 8429TIP3    H225252   3.852   0.863   0.067
 8430TIP3   OH225253   6.746   0.564   1.268
 8430TIP3    H125254   6.702   0.649   1.261
 8430TIP3    H225255   6.822   0.582   1.325
 8431TIP3   OH225256   3.897   1.426   1.024
 8431TIP3    H125257   3.896   1.335   0.996
 8431TIP3    H225258   3.968   1.466   0.973
 8432TIP3   OH225259   6.839   2.330   4.328
 8432TIP3    H125260   6.922   2.319   4.376
 8432TIP3    H225261   6.866   2.333   4.236
 8433TIP3   OH225262   4.150   0.527   0.444
 8433TIP3    H125263   4.224   0.490   0.395
 8433TIP3    H225264   4.085   0.549   0.378
 8434TIP3   OH225265   6.529   2.041   4.802
 8434TIP3    H125266   6.582   2.059   4.724
 8434TIP3    H225267   6.450   1.998   4.768
 8435TIP3   OH225268   1.266   5.372   0.464
 8435TIP3    H125269   1.300   5.454   0.428
 8435TIP3    H225270   1.344   5.327   0.498
 8436TIP3   OH225271   2.500   6.007   4.773
 8436TIP3    H125272   2.413   6.038   4.747
 8436TIP3    H225273   2.486   5.964   4.857
 8437TIP3   OH225274   0.340   1.091   5.449
 8437TIP3    H125275   0.272   1.144   5.490
 8437TIP3    H225276   0.326   1.003   5.483
 8438TIP3   OH225277   4.695   5.845   5.646
 8438TIP3    H125278   4.646   5.768   5.678
 8438TIP3    H225279   4.749   5.811   5.575
 8439TIP3   OH225280   5.982   2.307   1.536
 8439TIP3    H125281   5.954   2.355   1.614
 8439TIP3    H225282   5.902   2.298   1.484
 8440TIP3   OH225283   0.034   4.142   0.127
 8440TIP3    H125284  -0.057   4.114   0.111
 8440TIP3    H225285   0.052   4.204   0.057
 8441TIP3   OH225286   7.234   2.020   2.814
 8441TIP3    H125287   7.298   2.075   2.860
 8441TIP3    H225288   7.176   2.082   2.770
 8442TIP3   OH225289   3.605   3.911   3.678
 8442TIP3    H125290   3.644   3.973   3.616
 8442TIP3    H225291   3.546   3.964   3.731
 8443TIP3   OH225292   5.449   1.921   4.438
 8443TIP3    H125293   5.520   1.883   4.490
 8443TIP3    H225294   5.487   1.933   4.351
 8444TIP3   OH225295   0.236   0.429   0.419
 8444TIP3    H125296   0.213   0.444   0.327
 8444TIP3    H225297   0.297   0.355   0.416
 8445TIP3   OH225298   0.405   1.725   4.602
 8445TIP3    H125299   0.466   1.696   4.533
 8445TIP3    H225300   0.386   1.646   4.652
 8446TIP3   OH225301   3.166   2.517   0.214
 8446TIP3    H125302   3.142   2.588   0.274
 8446TIP3    H225303   3.108   2.529   0.139
 8447TIP3   OH225304   5.560   4.289   4.711
 8447TIP3    H125305   5.609   4.268   4.791
 8447TIP3    H225306   5.578   4.382   4.697
 8448TIP3   OH225307   5.309   2.063   4.636
 8448TIP3    H125308   5.370   2.014   4.580
 8448TIP3    H225309   5.366   2.111   4.696
 8449TIP3   OH225310   5.087   3.622   3.900
 8449TIP3    H125311   5.179   3.594   3.904
 8449TIP3    H225312   5.090   3.706   3.855
 8450TIP3   OH225313   2.738   1.580   3.741
 8450TIP3    H125314   2.678   1.654   3.734
 8450TIP3    H225315   2.800   1.594   3.669
 8451TIP3   OH225316   5.542   1.807   1.668
 8451TIP3    H125317   5.495   1.724   1.658
 8451TIP3    H225318   5.487   1.870   1.621
 8452TIP3   OH225319   1.556   4.205   3.253
 8452TIP3    H125320   1.547   4.277   3.191
 8452TIP3    H225321   1.603   4.137   3.204
 8453TIP3   OH225322   4.338   1.253   2.370
 8453TIP3    H125323   4.248   1.278   2.353
 8453TIP3    H225324   4.332   1.165   2.407
 8454TIP3   OH225325   2.767   2.898   5.282
 8454TIP3    H125326   2.745   2.863   5.196
 8454TIP3    H225327   2.701   2.965   5.299
 8455TIP3   OH225328   2.227   1.608   0.327
 8455TIP3    H125329   2.286   1.636   0.256
 8455TIP3    H225330   2.142   1.643   0.302
 8456TIP3   OH225331   1.362   6.598   5.059
 8456TIP3    H125332   1.282   6.646   5.038
 8456TIP3    H225333   1.334   6.506   5.061
 8457TIP3   OH225334   4.770   3.925   4.387
 8457TIP3    H125335   4.689   3.966   4.357
 8457TIP3    H225336   4.783   3.851   4.329
 8458TIP3   OH225337   5.087   3.885   2.732
 8458TIP3    H125338   5.047   3.920   2.812
 8458TIP3    H225339   5.177   3.918   2.734
 8459TIP3   OH225340   4.761   2.945   0.437
 8459TIP3    H125341   4.742   3.038   0.452
 8459TIP3    H225342   4.685   2.912   0.390
 8460TIP3   OH225343   3.838   1.361   4.844
 8460TIP3    H125344   3.829   1.396   4.932
 8460TIP3    H225345   3.927   1.325   4.841
 8461TIP3   OH225346   6.440   5.877   4.627
 8461TIP3    H125347   6.375   5.825   4.675
 8461TIP3    H225348   6.522   5.860   4.672
 8462TIP3   OH225349   6.183   2.271   0.611
 8462TIP3    H125350   6.121   2.201   0.589
 8462TIP3    H225351   6.238   2.234   0.680
 8463TIP3   OH225352   4.439   6.367   1.977
 8463TIP3    H125353   4.401   6.342   2.061
 8463TIP3    H225354   4.378   6.431   1.941
 8464TIP3   OH225355   1.936   5.881   5.495
 8464TIP3    H125356   1.920   5.788   5.513
 8464TIP3    H225357   1.896   5.926   5.570
 8465TIP3   OH225358   3.890   1.394   2.091
 8465TIP3    H125359   3.871   1.463   2.155
 8465TIP3    H225360   3.882   1.437   2.006
 8466TIP3   OH225361   2.804   1.398   5.435
 8466TIP3    H125362   2.710   1.416   5.428
 8466TIP3    H225363   2.810   1.303   5.444
 8467TIP3   OH225364   0.899   4.371   3.021
 8467TIP3    H125365   0.856   4.326   2.949
 8467TIP3    H225366   0.916   4.459   2.987
 8468TIP3   OH225367   1.253   6.122   0.565
 8468TIP3    H125368   1.303   6.071   0.501
 8468TIP3    H225369   1.225   6.200   0.516
 8469TIP3   OH225370   3.102   4.046   4.721
 8469TIP3    H125371   3.026   4.003   4.682
 8469TIP3    H225372   3.124   4.116   4.660
 8470TIP3   OH225373   3.327   3.953   1.694
 8470TIP3    H125374   3.325   4.005   1.774
 8470TIP3    H225375   3.237   3.923   1.681
 8471TIP3   OH225376   3.229   0.267   5.112
 8471TIP3    H125377   3.248   0.176   5.089
 8471TIP3    H225378   3.211   0.264   5.206
 8472TIP3   OH225379   2.905   0.179   2.591
 8472TIP3    H125380   2.913   0.213   2.502
 8472TIP3    H225381   2.907   0.084   2.581
 8473TIP3   OH225382   0.750   5.342   5.862
 8473TIP3    H125383   0.764   5.355   5.955
 8473TIP3    H225384   0.693   5.266   5.856
 8474TIP3   OH225385   5.942   6.069   1.589
 8474TIP3    H125386   6.033   6.090   1.612
 8474TIP3    H225387   5.907   6.026   1.667
 8475TIP3   OH225388   4.413   2.375   2.103
 8475TIP3    H125389   4.351   2.399   2.034
 8475TIP3    H225390   4.362   2.375   2.183
 8476TIP3   OH225391   3.182   6.406   5.852
 8476TIP3    H125392   3.198   6.500   5.846
 8476TIP3    H225393   3.105   6.391   5.797
 8477TIP3   OH225394   1.880   3.460   0.711
 8477TIP3    H125395   1.923   3.386   0.755
 8477TIP3    H225396   1.913   3.457   0.621
 8478TIP3   OH225397   0.873   6.194   0.174
 8478TIP3    H125398   0.860   6.099   0.186
 8478TIP3    H225399   0.785   6.231   0.184
 8479TIP3   OH225400   3.634   3.478   5.825
 8479TIP3    H125401   3.579   3.434   5.890
 8479TIP3    H225402   3.671   3.407   5.773
 8480TIP3   OH225403   0.144   4.398   0.368
 8480TIP3    H125404   0.076   4.336   0.396
 8480TIP3    H225405   0.139   4.398   0.272
 8481TIP3   OH225406   4.966   4.049   4.866
 8481TIP3    H125407   4.969   4.136   4.825
 8481TIP3    H225408   4.874   4.024   4.863
 8482TIP3   OH225409   0.406   2.577   1.754
 8482TIP3    H125410   0.421   2.671   1.768
 8482TIP3    H225411   0.375   2.545   1.839
 8483TIP3   OH225412   2.899   0.378   3.650
 8483TIP3    H125413   2.926   0.350   3.563
 8483TIP3    H225414   2.981   0.384   3.700
 8484TIP3   OH225415   6.653   6.017   4.475
 8484TIP3    H125416   6.568   5.979   4.494
 8484TIP3    H225417   6.665   6.085   4.541
 8485TIP3   OH225418   0.858   5.001   1.353
 8485TIP3    H125419   0.867   4.957   1.268
 8485TIP3    H225420   0.942   4.986   1.397
 8486TIP3   OH225421   4.668   2.888   1.603
 8486TIP3    H125422   4.754   2.866   1.568
 8486TIP3    H225423   4.680   2.889   1.698
 8487TIP3   OH225424   4.708   0.082   0.734
 8487TIP3    H125425   4.752   0.150   0.683
 8487TIP3    H225426   4.777   0.046   0.790
 8488TIP3   OH225427   1.407   5.486   1.929
 8488TIP3    H125428   1.401   5.490   2.025
 8488TIP3    H225429   1.430   5.395   1.911
 8489TIP3   OH225430   3.162   0.942   1.863
 8489TIP3    H125431   3.094   0.881   1.892
 8489TIP3    H225432   3.209   0.895   1.794
 8490TIP3   OH225433   2.968   0.858  -0.003
 8490TIP3    H125434   2.903   0.862   0.067
 8490TIP3    H225435   2.935   0.791  -0.063
 8491TIP3   OH225436   4.716   1.434   2.869
 8491TIP3    H125437   4.717   1.346   2.906
 8491TIP3    H225438   4.640   1.434   2.810
 8492TIP3   OH225439   3.753   1.157   4.477
 8492TIP3    H125440   3.732   1.182   4.567
 8492TIP3    H225441   3.790   1.069   4.485
 8493TIP3   OH225442   0.138   3.065   0.332
 8493TIP3    H125443   0.234   3.067   0.329
 8493TIP3    H225444   0.116   3.077   0.424
 8494TIP3   OH225445   4.089   4.221   4.969
 8494TIP3    H125446   4.038   4.293   4.934
 8494TIP3    H225447   4.173   4.261   4.993
 8495TIP3   OH225448   6.986   1.321   5.601
 8495TIP3    H125449   7.054   1.268   5.643
 8495TIP3    H225450   6.928   1.347   5.673
 8496TIP3   OH225451   2.006   3.951   4.753
 8496TIP3    H125452   1.976   3.980   4.667
 8496TIP3    H225453   1.933   3.971   4.812
 8497TIP3   OH225454   5.727   1.031   2.227
 8497TIP3    H125455   5.770   1.097   2.172
 8497TIP3    H225456   5.674   0.980   2.166
 8498TIP3   OH225457   5.295   3.627   1.418
 8498TIP3    H125458   5.274   3.716   1.449
 8498TIP3    H225459   5.287   3.572   1.496
 8499TIP3   OH225460   4.147   5.680   0.605
 8499TIP3    H125461   4.167   5.597   0.562
 8499TIP3    H225462   4.206   5.743   0.563
 8500TIP3   OH225463   6.326   3.037   3.587
 8500TIP3    H125464   6.377   3.089   3.524
 8500TIP3    H225465   6.282   3.102   3.642
 8501TIP3   OH225466   1.355   3.786   4.076
 8501TIP3    H125467   1.415   3.725   4.033
 8501TIP3    H225468   1.267   3.754   4.054
 8502TIP3   OH225469   3.784   4.192   0.958
 8502TIP3    H125470   3.844   4.156   1.023
 8502TIP3    H225471   3.841   4.231   0.892
 8503TIP3   OH225472   3.467   5.303   1.899
 8503TIP3    H125473   3.478   5.252   1.819
 8503TIP3    H225474   3.532   5.373   1.891
 8504TIP3   OH225475   6.612   0.992   4.583
 8504TIP3    H125476   6.533   0.956   4.623
 8504TIP3    H225477   6.580   1.063   4.528
 8505TIP3   OH225478   0.650   1.643   5.044
 8505TIP3    H125479   0.659   1.687   4.960
 8505TIP3    H225480   0.564   1.602   5.041
 8506TIP3   OH225481   3.066   4.318   5.336
 8506TIP3    H125482   3.099   4.280   5.255
 8506TIP3    H225483   3.001   4.383   5.308
 8507TIP3   OH225484   4.821   2.684   0.440
 8507TIP3    H125485   4.836   2.773   0.472
 8507TIP3    H225486   4.737   2.659   0.478
 8508TIP3   OH225487   2.861   1.920   2.276
 8508TIP3    H125488   2.954   1.939   2.288
 8508TIP3    H225489   2.849   1.835   2.318
 8509TIP3   OH225490   4.313   3.290   0.148
 8509TIP3    H125491   4.375   3.248   0.088
 8509TIP3    H225492   4.227   3.270   0.112
 8510TIP3   OH225493   7.157   4.093   1.619
 8510TIP3    H125494   7.232   4.121   1.673
 8510TIP3    H225495   7.156   4.155   1.546
 8511TIP3   OH225496   1.136   0.274   2.861
 8511TIP3    H125497   1.219   0.227   2.854
 8511TIP3    H225498   1.083   0.243   2.788
 8512TIP3   OH225499   7.063   3.751   5.698
 8512TIP3    H125500   7.076   3.690   5.626
 8512TIP3    H225501   7.037   3.833   5.655
 8513TIP3   OH225502   1.639   6.001   4.981
 8513TIP3    H125503   1.720   5.957   5.008
 8513TIP3    H225504   1.657   6.094   4.992
 8514TIP3   OH225505   7.006   2.861   2.567
 8514TIP3    H125506   7.061   2.896   2.637
 8514TIP3    H225507   6.978   2.939   2.518
 8515TIP3   OH225508   5.107   1.571   1.433
 8515TIP3    H125509   5.045   1.621   1.380
 8515TIP3    H225510   5.054   1.505   1.477
 8516TIP3   OH225511   4.787   3.583   4.169
 8516TIP3    H125512   4.787   3.541   4.255
 8516TIP3    H225513   4.839   3.524   4.114
 8517TIP3   OH225514   1.310   0.387   2.064
 8517TIP3    H125515   1.359   0.331   2.004
 8517TIP3    H225516   1.253   0.327   2.112
 8518TIP3   OH225517   3.011   1.950   1.627
 8518TIP3    H125518   2.940   1.920   1.684
 8518TIP3    H225519   2.966   1.991   1.553
 8519TIP3   OH225520   5.858   0.410   4.841
 8519TIP3    H125521   5.763   0.426   4.845
 8519TIP3    H225522   5.897   0.497   4.845
 8520TIP3   OH225523   2.512   1.661   5.513
 8520TIP3    H125524   2.453   1.675   5.440
 8520TIP3    H225525   2.458   1.674   5.591
 8521TIP3   OH225526   6.770   6.370   2.376
 8521TIP3    H125527   6.792   6.405   2.462
 8521TIP3    H225528   6.854   6.364   2.330
 8522TIP3   OH225529   2.142   2.560   2.691
 8522TIP3    H125530   2.064   2.616   2.696
 8522TIP3    H225531   2.210   2.618   2.656
 8523TIP3   OH225532   0.929   3.578   2.857
 8523TIP3    H125533   0.952   3.525   2.933
 8523TIP3    H225534   0.836   3.597   2.869
 8524TIP3   OH225535   3.972   2.279   3.815
 8524TIP3    H125536   3.886   2.319   3.805
 8524TIP3    H225537   3.960   2.189   3.787
 8525TIP3   OH225538   0.946   1.098   3.570
 8525TIP3    H125539   1.005   1.160   3.528
 8525TIP3    H225540   0.871   1.091   3.510
 8526TIP3   OH225541   2.161   5.650   1.657
 8526TIP3    H125542   2.070   5.629   1.677
 8526TIP3    H225543   2.212   5.605   1.725
 8527TIP3   OH225544   3.738   0.680   2.650
 8527TIP3    H125545   3.693   0.667   2.566
 8527TIP3    H225546   3.817   0.729   2.627
 8528TIP3   OH225547   1.137   5.441   2.949
 8528TIP3    H125548   1.162   5.444   3.041
 8528TIP3    H225549   1.166   5.355   2.918
 8529TIP3   OH225550   0.024   6.390   3.513
 8529TIP3    H125551  -0.021   6.473   3.528
 8529TIP3    H225552   0.011   6.341   3.594
 8530TIP3   OH225553   3.173   5.080   1.998
 8530TIP3    H125554   3.193   5.056   1.908
 8530TIP3    H225555   3.122   5.161   1.990
 8531TIP3   OH225556   5.906   6.407   4.035
 8531TIP3    H125557   5.907   6.498   4.064
 8531TIP3    H225558   5.911   6.411   3.940
 8532TIP3   OH225559   5.565   0.253   5.543
 8532TIP3    H125560   5.540   0.174   5.591
 8532TIP3    H225561   5.501   0.258   5.472
 8533TIP3   OH225562   4.390   3.155   5.349
 8533TIP3    H125563   4.339   3.075   5.362
 8533TIP3    H225564   4.473   3.138   5.394
 8534TIP3   OH225565   6.916   0.965   3.841
 8534TIP3    H125566   6.993   0.911   3.853
 8534TIP3    H225567   6.900   1.004   3.927
 8535TIP3   OH225568   1.009   3.700   2.620
 8535TIP3    H125569   1.088   3.755   2.626
 8535TIP3    H225570   0.966   3.710   2.705
 8536TIP3   OH225571   3.906   4.175   0.428
 8536TIP3    H125572   3.959   4.117   0.483
 8536TIP3    H225573   3.858   4.230   0.490
 8537TIP3   OH225574   6.581   3.104   5.038
 8537TIP3    H125575   6.519   3.040   5.003
 8537TIP3    H225576   6.596   3.165   4.965
 8538TIP3   OH225577   6.096   5.614   5.856
 8538TIP3    H125578   6.140   5.609   5.772
 8538TIP3    H225579   6.030   5.545   5.853
 8539TIP3   OH225580   3.990   4.187   3.433
 8539TIP3    H125581   3.929   4.130   3.386
 8539TIP3    H225582   3.944   4.209   3.514
 8540TIP3   OH225583   6.426   6.677   2.832
 8540TIP3    H125584   6.339   6.642   2.849
 8540TIP3    H225585   6.417   6.728   2.751
 8541TIP3   OH225586   3.481   0.623   4.662
 8541TIP3    H125587   3.557   0.630   4.720
 8541TIP3    H225588   3.505   0.672   4.584
 8542TIP3   OH225589   6.911   5.052   4.489
 8542TIP3    H125590   6.964   5.131   4.494
 8542TIP3    H225591   6.916   5.026   4.397
 8543TIP3   OH225592   3.648   0.582   3.724
 8543TIP3    H125593   3.680   0.582   3.634
 8543TIP3    H225594   3.691   0.658   3.764
 8544TIP3   OH225595   6.886   2.366   1.659
 8544TIP3    H125596   6.942   2.314   1.716
 8544TIP3    H225597   6.901   2.456   1.686
 8545TIP3   OH225598   3.276   2.301   2.269
 8545TIP3    H125599   3.239   2.313   2.356
 8545TIP3    H225600   3.335   2.375   2.258
 8546TIP3   OH225601   0.655   3.795   1.486
 8546TIP3    H125602   0.595   3.768   1.556
 8546TIP3    H225603   0.615   3.874   1.450
 8547TIP3   OH225604   0.989   0.654   3.783
 8547TIP3    H125605   0.937   0.642   3.703
 8547TIP3    H225606   1.037   0.736   3.769
 8548TIP3   OH225607   3.825   1.489   0.188
 8548TIP3    H125608   3.876   1.414   0.156
 8548TIP3    H225609   3.749   1.492   0.130
 8549TIP3   OH225610   1.527   4.641   1.234
 8549TIP3    H125611   1.598   4.630   1.298
 8549TIP3    H225612   1.570   4.630   1.149
 8550TIP3   OH225613   5.871   4.124   0.897
 8550TIP3    H125614   5.921   4.091   0.823
 8550TIP3    H225615   5.780   4.103   0.875
 8551TIP3   OH225616   3.118   4.554   2.303
 8551TIP3    H125617   3.046   4.494   2.323
 8551TIP3    H225618   3.090   4.637   2.342
 8552TIP3   OH225619   7.152   6.624   2.406
 8552TIP3    H125620   7.235   6.617   2.453
 8552TIP3    H225621   7.094   6.672   2.466
 8553TIP3   OH225622   0.329   6.041   3.282
 8553TIP3    H125623   0.249   6.049   3.230
 8553TIP3    H225624   0.308   5.977   3.349
 8554TIP3   OH225625   2.910   5.721   3.518
 8554TIP3    H125626   2.961   5.801   3.510
 8554TIP3    H225627   2.833   5.747   3.569
 8555TIP3   OH225628   5.001   5.519   4.119
 8555TIP3    H125629   4.946   5.479   4.186
 8555TIP3    H225630   5.072   5.456   4.106
 8556TIP3   OH225631   4.230   4.314   0.778
 8556TIP3    H125632   4.272   4.376   0.720
 8556TIP3    H225633   4.298   4.289   0.840
 8557TIP3   OH225634   3.321   0.613   0.030
 8557TIP3    H125635   3.277   0.698   0.034
 8557TIP3    H225636   3.344   0.593   0.121
 8558TIP3   OH225637   4.177   4.501   1.528
 8558TIP3    H125638   4.191   4.461   1.442
 8558TIP3    H225639   4.158   4.427   1.586
 8559TIP3   OH225640   1.824   0.887   3.143
 8559TIP3    H125641   1.845   0.885   3.050
 8559TIP3    H225642   1.909   0.883   3.186
 8560TIP3   OH225643   3.462   5.928   5.312
 8560TIP3    H125644   3.372   5.956   5.297
 8560TIP3    H225645   3.480   5.867   5.241
 8561TIP3   OH225646   3.946   5.688   3.637
 8561TIP3    H125647   3.882   5.749   3.601
 8561TIP3    H225648   4.005   5.669   3.565
 8562TIP3   OH225649   3.702   4.743   2.070
 8562TIP3    H125650   3.690   4.649   2.083
 8562TIP3    H225651   3.794   4.759   2.092
 8563TIP3   OH225652   5.238   4.718   0.865
 8563TIP3    H125653   5.239   4.791   0.927
 8563TIP3    H225654   5.220   4.641   0.920
 8564TIP3   OH225655   4.156   4.388   2.142
 8564TIP3    H125656   4.143   4.353   2.230
 8564TIP3    H225657   4.249   4.376   2.125
 8565TIP3   OH225658   2.318   5.746   3.448
 8565TIP3    H125659   2.324   5.769   3.541
 8565TIP3    H225660   2.408   5.724   3.423
 8566TIP3   OH225661   5.760   2.905   5.690
 8566TIP3    H125662   5.748   2.920   5.596
 8566TIP3    H225663   5.783   2.812   5.696
 8567TIP3   OH225664   1.082   3.650   5.605
 8567TIP3    H125665   1.037   3.702   5.538
 8567TIP3    H225666   1.014   3.632   5.670
 8568TIP3   OH225667   4.864   6.555   3.499
 8568TIP3    H125668   4.840   6.646   3.482
 8568TIP3    H225669   4.831   6.537   3.586
 8569TIP3   OH225670   4.564   2.154   3.564
 8569TIP3    H125671   4.531   2.222   3.624
 8569TIP3    H225672   4.533   2.072   3.602
 8570TIP3   OH225673   1.110   5.414   3.227
 8570TIP3    H125674   1.172   5.417   3.299
 8570TIP3    H225675   1.034   5.463   3.258
 8571TIP3   OH225676   5.900   1.203   5.194
 8571TIP3    H125677   5.855   1.166   5.270
 8571TIP3    H225678   5.914   1.128   5.136
 8572TIP3   OH225679   0.968   2.492   4.821
 8572TIP3    H125680   0.929   2.405   4.818
 8572TIP3    H225681   0.978   2.517   4.730
 8573TIP3   OH225682   3.413   5.992   4.909
 8573TIP3    H125683   3.336   6.049   4.908
 8573TIP3    H225684   3.487   6.051   4.926
 8574TIP3   OH225685   4.418   2.976   4.585
 8574TIP3    H125686   4.328   2.957   4.610
 8574TIP3    H225687   4.471   2.944   4.658
 8575TIP3   OH225688   3.349   0.772   5.107
 8575TIP3    H125689   3.337   0.811   5.021
 8575TIP3    H225690   3.260   0.754   5.137
 8576TIP3   OH225691   1.180   1.500   4.237
 8576TIP3    H125692   1.233   1.425   4.209
 8576TIP3    H225693   1.119   1.515   4.165
 8577TIP3   OH225694   4.825   1.236   1.538
 8577TIP3    H125695   4.779   1.178   1.477
 8577TIP3    H225696   4.876   1.177   1.593
 8578TIP3   OH225697   5.666   0.747   0.507
 8578TIP3    H125698   5.655   0.810   0.578
 8578TIP3    H225699   5.610   0.673   0.532
 8579TIP3   OH225700   1.795   3.137   0.354
 8579TIP3    H125701   1.797   3.226   0.319
 8579TIP3    H225702   1.729   3.092   0.303
 8580TIP3   OH225703   3.879   6.548   0.769
 8580TIP3    H125704   3.808   6.555   0.706
 8580TIP3    H225705   3.845   6.490   0.837
 8581TIP3   OH225706   2.028   6.394   3.421
 8581TIP3    H125707   2.089   6.338   3.373
 8581TIP3    H225708   1.968   6.333   3.464
 8582TIP3   OH225709   3.543   3.881   4.939
 8582TIP3    H125710   3.579   3.958   4.894
 8582TIP3    H225711   3.594   3.807   4.904
 8583TIP3   OH225712   0.798   5.123   0.290
 8583TIP3    H125713   0.751   5.205   0.304
 8583TIP3    H225714   0.871   5.126   0.352
 8584TIP3   OH225715   0.466   5.727   2.732
 8584TIP3    H125716   0.542   5.770   2.694
 8584TIP3    H225717   0.391   5.759   2.682
 8585TIP3   OH225718   5.919   5.835   2.858
 8585TIP3    H125719   5.921   5.892   2.781
 8585TIP3    H225720   5.885   5.890   2.928
 8586TIP3   OH225721   4.972   3.593   2.352
 8586TIP3    H125722   5.056   3.552   2.371
 8586TIP3    H225723   4.974   3.677   2.398
 8587TIP3   OH225724   4.009   3.184   2.303
 8587TIP3    H125725   4.029   3.127   2.377
 8587TIP3    H225726   3.993   3.123   2.230
 8588TIP3   OH225727   0.359   5.994   1.817
 8588TIP3    H125728   0.361   5.935   1.893
 8588TIP3    H225729   0.413   5.949   1.752
 8589TIP3   OH225730   6.693   5.800   5.849
 8589TIP3    H125731   6.668   5.720   5.803
 8589TIP3    H225732   6.696   5.774   5.941
 8590TIP3   OH225733   1.817   6.490   4.091
 8590TIP3    H125734   1.896   6.543   4.105
 8590TIP3    H225735   1.746   6.554   4.088
 8591TIP3   OH225736   6.802   0.010   4.341
 8591TIP3    H125737   6.794   0.081   4.405
 8591TIP3    H225738   6.763   0.045   4.261
 8592TIP3   OH225739   4.265   3.795   1.705
 8592TIP3    H125740   4.277   3.868   1.644
 8592TIP3    H225741   4.171   3.779   1.706
 8593TIP3   OH225742   6.726   5.594   3.331
 8593TIP3    H125743   6.742   5.582   3.237
 8593TIP3    H225744   6.813   5.600   3.370
 8594TIP3   OH225745   2.613   2.063   0.798
 8594TIP3    H125746   2.528   2.035   0.765
 8594TIP3    H225747   2.600   2.154   0.825
 8595TIP3   OH225748   3.428   5.409   2.802
 8595TIP3    H125749   3.435   5.484   2.744
 8595TIP3    H225750   3.335   5.389   2.806
 8596TIP3   OH225751   4.612   3.998   0.638
 8596TIP3    H125752   4.689   3.960   0.594
 8596TIP3    H225753   4.537   3.961   0.591
 8597TIP3   OH225754   0.494   5.239   2.003
 8597TIP3    H125755   0.585   5.211   2.008
 8597TIP3    H225756   0.471   5.263   2.093
 8598TIP3   OH225757   5.684   4.778   2.657
 8598TIP3    H125758   5.605   4.808   2.612
 8598TIP3    H225759   5.707   4.696   2.614
 8599TIP3   OH225760   5.579   4.449   3.504
 8599TIP3    H125761   5.604   4.381   3.442
 8599TIP3    H225762   5.662   4.486   3.535
 8600TIP3   OH225763   4.617   1.372   5.759
 8600TIP3    H125764   4.711   1.360   5.745
 8600TIP3    H225765   4.589   1.429   5.688
 8601TIP3   OH225766   2.236   0.886   1.386
 8601TIP3    H125767   2.256   0.956   1.324
 8601TIP3    H225768   2.313   0.829   1.385
 8602TIP3   OH225769   6.565   5.393   0.403
 8602TIP3    H125770   6.498   5.446   0.359
 8602TIP3    H225771   6.524   5.307   0.415
 8603TIP3   OH225772   1.569   5.613   2.513
 8603TIP3    H125773   1.624   5.682   2.477
 8603TIP3    H225774   1.507   5.591   2.443
 8604TIP3   OH225775   1.891   2.112   5.239
 8604TIP3    H125776   1.798   2.134   5.240
 8604TIP3    H225777   1.905   2.060   5.318
 8605TIP3   OH225778   5.124   6.325   1.951
 8605TIP3    H125779   5.144   6.277   1.870
 8605TIP3    H225780   5.035   6.298   1.973
 8606TIP3   OH225781   2.487   6.588   5.250
 8606TIP3    H125782   2.493   6.675   5.291
 8606TIP3    H225783   2.394   6.579   5.229
 8607TIP3   OH225784   0.148   3.740   1.447
 8607TIP3    H125785   0.110   3.820   1.411
 8607TIP3    H225786   0.189   3.698   1.372
 8608TIP3   OH225787   3.426   4.011   3.278
 8608TIP3    H125788   3.441   4.052   3.193
 8608TIP3    H225789   3.345   3.961   3.267
 8609TIP3   OH225790   1.106   0.879   3.665
 8609TIP3    H125791   1.054   0.956   3.641
 8609TIP3    H225792   1.194   0.912   3.678
 8610TIP3   OH225793   6.580   0.594   5.279
 8610TIP3    H125794   6.559   0.521   5.221
 8610TIP3    H225795   6.676   0.598   5.280
 8611TIP3   OH225796   4.556   1.212   3.638
 8611TIP3    H125797   4.492   1.208   3.709
 8611TIP3    H225798   4.640   1.225   3.682
 8612TIP3   OH225799   4.381   1.586   1.575
 8612TIP3    H125800   4.370   1.672   1.616
 8612TIP3    H225801   4.446   1.542   1.629
 8613TIP3   OH225802   4.099   4.627   0.917
 8613TIP3    H125803   4.020   4.578   0.938
 8613TIP3    H225804   4.124   4.671   0.999
 8614TIP3   OH225805   5.880   1.622   2.722
 8614TIP3    H125806   5.930   1.644   2.801
 8614TIP3    H225807   5.943   1.576   2.666
 8615TIP3   OH225808   4.997   0.792   0.398
 8615TIP3    H125809   4.933   0.726   0.427
 8615TIP3    H225810   4.973   0.871   0.445
 8616TIP3   OH225811   1.368   0.344   0.709
 8616TIP3    H125812   1.331   0.361   0.622
 8616TIP3    H225813   1.463   0.345   0.695
 8617TIP3   OH225814   6.939   1.250   4.964
 8617TIP3    H125815   6.969   1.269   5.054
 8617TIP3    H225816   7.017   1.265   4.910
 8618TIP3   OH225817   2.460   6.199   1.431
 8618TIP3    H125818   2.524   6.253   1.476
 8618TIP3    H225819   2.506   6.168   1.353
 8619TIP3   OH225820   3.876  -0.033   0.856
 8619TIP3    H125821   3.871   0.012   0.772
 8619TIP3    H225822   3.785  -0.057   0.875
 8620TIP3   OH225823   4.490   1.425   4.342
 8620TIP3    H125824   4.412   1.405   4.393
 8620TIP3    H225825   4.472   1.390   4.255
 8621TIP3   OH225826   3.442   3.331   2.741
 8621TIP3    H125827   3.377   3.389   2.701
 8621TIP3    H225828   3.498   3.389   2.793
 8622TIP3   OH225829   5.997   3.445   4.328
 8622TIP3    H125830   5.910   3.477   4.353
 8622TIP3    H225831   6.000   3.454   4.233
 8623TIP3   OH225832   2.684   6.072   4.557
 8623TIP3    H125833   2.636   6.061   4.474
 8623TIP3    H225834   2.615   6.079   4.623
 8624TIP3   OH225835   5.097   6.783   3.246
 8624TIP3    H125836   5.106   6.688   3.254
 8624TIP3    H225837   5.128   6.817   3.330
 8625TIP3   OH225838   1.633   3.053   4.907
 8625TIP3    H125839   1.567   3.120   4.926
 8625TIP3    H225840   1.604   3.014   4.824
 8626TIP3   OH225841   0.918   3.672   1.530
 8626TIP3    H125842   0.825   3.694   1.539
 8626TIP3    H225843   0.927   3.643   1.439
 8627TIP3   OH225844   0.372   4.962   4.950
 8627TIP3    H125845   0.332   4.943   5.035
 8627TIP3    H225846   0.370   5.058   4.943
 8628TIP3   OH225847   6.586   0.103   2.399
 8628TIP3    H125848   6.518   0.035   2.406
 8628TIP3    H225849   6.541   0.179   2.363
 8629TIP3   OH225850   1.960   3.405   2.403
 8629TIP3    H125851   2.039   3.353   2.417
 8629TIP3    H225852   1.926   3.375   2.318
 8630TIP3   OH225853   5.546   2.831   4.464
 8630TIP3    H125854   5.465   2.873   4.433
 8630TIP3    H225855   5.517   2.745   4.496
 8631TIP3   OH225856   6.034   5.629   0.151
 8631TIP3    H125857   6.024   5.563   0.083
 8631TIP3    H225858   6.120   5.669   0.134
 8632TIP3   OH225859   2.800   4.820   3.480
 8632TIP3    H125860   2.817   4.905   3.440
 8632TIP3    H225861   2.886   4.790   3.510
 8633TIP3   OH225862   2.682   2.762   4.343
 8633TIP3    H125863   2.597   2.718   4.342
 8633TIP3    H225864   2.662   2.854   4.327
 8634TIP3   OH225865   4.376   4.787   4.427
 8634TIP3    H125866   4.327   4.713   4.464
 8634TIP3    H225867   4.382   4.767   4.333
 8635TIP3   OH225868   6.796   5.246   2.941
 8635TIP3    H125869   6.708   5.274   2.966
 8635TIP3    H225870   6.787   5.218   2.850
 8636TIP3   OH225871   0.441   3.085   3.482
 8636TIP3    H125872   0.369   3.022   3.478
 8636TIP3    H225873   0.481   3.071   3.567
 8637TIP3   OH225874   1.910   3.517   1.783
 8637TIP3    H125875   1.820   3.549   1.792
 8637TIP3    H225876   1.904   3.423   1.797
 8638TIP3   OH225877   5.656   1.110   2.756
 8638TIP3    H125878   5.673   1.178   2.821
 8638TIP3    H225879   5.677   1.152   2.672
 8639TIP3   OH225880   0.503   0.732   2.785
 8639TIP3    H125881   0.548   0.709   2.866
 8639TIP3    H225882   0.420   0.684   2.790
 8640TIP3   OH225883   0.061   4.277   4.741
 8640TIP3    H125884  -0.014   4.219   4.727
 8640TIP3    H225885   0.131   4.219   4.772
 8641TIP3   OH225886   6.760   1.632   5.517
 8641TIP3    H125887   6.725   1.546   5.537
 8641TIP3    H225888   6.823   1.649   5.587
 8642TIP3   OH225889   2.760   0.896   0.947
 8642TIP3    H125890   2.668   0.921   0.933
 8642TIP3    H225891   2.810   0.959   0.895
 8643TIP3   OH225892   4.758   0.764   5.143
 8643TIP3    H125893   4.719   0.720   5.067
 8643TIP3    H225894   4.836   0.712   5.163
 8644TIP3   OH225895   2.452   2.159   4.473
 8644TIP3    H125896   2.544   2.174   4.450
 8644TIP3    H225897   2.405   2.166   4.391
 8645TIP3   OH225898   5.315   0.499   2.867
 8645TIP3    H125899   5.313   0.420   2.921
 8645TIP3    H225900   5.297   0.468   2.778
 8646TIP3   OH225901   6.365   4.688   0.376
 8646TIP3    H125902   6.442   4.671   0.322
 8646TIP3    H225903   6.316   4.754   0.327
 8647TIP3   OH225904   4.895   3.470   0.944
 8647TIP3    H125905   4.839   3.485   1.020
 8647TIP3    H225906   4.957   3.403   0.973
 8648TIP3   OH225907   1.889   2.142   5.602
 8648TIP3    H125908   1.979   2.166   5.624
 8648TIP3    H225909   1.861   2.085   5.674
 8649TIP3   OH225910   6.839   4.295   1.935
 8649TIP3    H125911   6.869   4.322   2.022
 8649TIP3    H225912   6.881   4.357   1.875
 8650TIP3   OH225913   5.544   0.069   0.145
 8650TIP3    H125914   5.478   0.059   0.213
 8650TIP3    H225915   5.532  -0.008   0.089
 8651TIP3   OH225916   4.647   4.674   4.912
 8651TIP3    H125917   4.661   4.753   4.964
 8651TIP3    H225918   4.653   4.703   4.821
 8652TIP3   OH225919   6.411   1.897   1.694
 8652TIP3    H125920   6.426   1.803   1.693
 8652TIP3    H225921   6.318   1.908   1.673
 8653TIP3   OH225922   3.286   6.640   4.828
 8653TIP3    H125923   3.303   6.672   4.740
 8653TIP3    H225924   3.220   6.571   4.817
 8654TIP3   OH225925   0.306   3.177   3.191
 8654TIP3    H125926   0.215   3.196   3.210
 8654TIP3    H225927   0.303   3.120   3.114
 8655TIP3   OH225928   1.290   3.970   4.514
 8655TIP3    H125929   1.382   3.948   4.531
 8655TIP3    H225930   1.262   3.906   4.448
 8656TIP3   OH225931   2.250   2.335   5.752
 8656TIP3    H125932   2.302   2.330   5.672
 8656TIP3    H225933   2.199   2.254   5.752
 8657TIP3   OH225934   6.711   5.790   4.699
 8657TIP3    H125935   6.774   5.857   4.725
 8657TIP3    H225936   6.703   5.733   4.776
 8658TIP3   OH225937   2.581   4.206   0.540
 8658TIP3    H125938   2.602   4.270   0.472
 8658TIP3    H225939   2.641   4.225   0.611
 8659TIP3   OH225940   6.309   0.030   2.163
 8659TIP3    H125941   6.271   0.099   2.217
 8659TIP3    H225942   6.295   0.060   2.073
 8660TIP3   OH225943   2.518   5.149   3.739
 8660TIP3    H125944   2.487   5.238   3.756
 8660TIP3    H225945   2.594   5.138   3.795
 8661TIP3   OH225946   5.548   1.791   3.532
 8661TIP3    H125947   5.528   1.820   3.621
 8661TIP3    H225948   5.558   1.696   3.538
 8662TIP3   OH225949   0.904   3.966   3.546
 8662TIP3    H125950   0.951   3.955   3.629
 8662TIP3    H225951   0.828   3.908   3.554
 8663TIP3   OH225952   5.488   0.648   1.701
 8663TIP3    H125953   5.428   0.693   1.642
 8663TIP3    H225954   5.575   0.670   1.667
 8664TIP3   OH225955   6.488   0.606   0.949
 8664TIP3    H125956   6.563   0.641   0.998
 8664TIP3    H225957   6.488   0.655   0.867
 8665TIP3   OH225958   0.336   4.533   5.774
 8665TIP3    H125959   0.386   4.532   5.693
 8665TIP3    H225960   0.247   4.557   5.747
 8666TIP3   OH225961   5.141   1.412   0.608
 8666TIP3    H125962   5.136   1.417   0.703
 8666TIP3    H225963   5.082   1.480   0.576
 8667TIP3   OH225964   4.672   1.335   3.405
 8667TIP3    H125965   4.628   1.277   3.467
 8667TIP3    H225966   4.685   1.416   3.454
 8668TIP3   OH225967   5.641   1.434   1.082
 8668TIP3    H125968   5.653   1.487   1.004
 8668TIP3    H225969   5.720   1.380   1.086
 8669TIP3   OH225970   4.698   5.898   5.059
 8669TIP3    H125971   4.688   5.823   5.000
 8669TIP3    H225972   4.687   5.862   5.147
 8670TIP3   OH225973   1.389   4.581   4.944
 8670TIP3    H125974   1.385   4.504   5.001
 8670TIP3    H225975   1.475   4.619   4.962
 8671TIP3   OH225976   6.778   3.434   3.220
 8671TIP3    H125977   6.762   3.344   3.193
 8671TIP3    H225978   6.740   3.487   3.150
 8672TIP3   OH225979   3.491   4.631   1.421
 8672TIP3    H125980   3.575   4.670   1.397
 8672TIP3    H225981   3.448   4.697   1.475
 8673TIP3   OH225982   6.306   5.312   3.181
 8673TIP3    H125983   6.235   5.353   3.132
 8673TIP3    H225984   6.297   5.346   3.270
 8674TIP3   OH225985   4.752   1.983   1.892
 8674TIP3    H125986   4.721   2.063   1.933
 8674TIP3    H225987   4.847   1.987   1.897
 8675TIP3   OH225988   1.510   0.680   4.192
 8675TIP3    H125989   1.554   0.732   4.125
 8675TIP3    H225990   1.524   0.728   4.274
 8676TIP3   OH225991   2.081   3.810   5.622
 8676TIP3    H125992   2.123   3.884   5.579
 8676TIP3    H225993   2.063   3.748   5.552
 8677TIP3   OH225994   6.881   0.018   0.121
 8677TIP3    H125995   6.919  -0.069   0.131
 8677TIP3    H225996   6.956   0.076   0.111
 8678TIP3   OH225997   4.850   0.691   3.000
 8678TIP3    H125998   4.821   0.739   2.922
 8678TIP3    H225999   4.814   0.740   3.074
 8679TIP3   OH226000   4.640   0.919   4.631
 8679TIP3    H126001   4.668   0.995   4.581
 8679TIP3    H226002   4.713   0.900   4.690
 8680TIP3   OH226003   5.200   1.798   0.779
 8680TIP3    H126004   5.210   1.885   0.741
 8680TIP3    H226005   5.138   1.753   0.721
 8681TIP3   OH226006   5.291   4.820   1.771
 8681TIP3    H126007   5.264   4.877   1.699
 8681TIP3    H226008   5.262   4.733   1.745
 8682TIP3   OH226009   0.214   5.029   2.274
 8682TIP3    H126010   0.281   4.962   2.264
 8682TIP3    H226011   0.258   5.111   2.250
 8683TIP3   OH226012   5.703   0.166   0.844
 8683TIP3    H126013   5.729   0.129   0.760
 8683TIP3    H226014   5.783   0.162   0.897
 8684TIP3   OH226015   3.009   4.146   2.234
 8684TIP3    H126016   3.090   4.095   2.240
 8684TIP3    H226017   3.028   4.227   2.283
 8685TIP3   OH226018   6.205   3.746   3.676
 8685TIP3    H126019   6.115   3.771   3.656
 8685TIP3    H226020   6.240   3.715   3.592
 8686TIP3   OH226021   2.031   6.125   2.662
 8686TIP3    H126022   1.967   6.086   2.723
 8686TIP3    H226023   1.978   6.180   2.604
 8687TIP3   OH226024   4.555   2.608   0.540
 8687TIP3    H126025   4.482   2.659   0.575
 8687TIP3    H226026   4.521   2.569   0.460
 8688TIP3   OH226027   3.237   0.283   4.272
 8688TIP3    H126028   3.252   0.323   4.358
 8688TIP3    H226029   3.172   0.339   4.230
 8689TIP3   OH226030   0.171   3.621   5.341
 8689TIP3    H126031   0.239   3.687   5.350
 8689TIP3    H226032   0.111   3.657   5.276
 8690TIP3   OH226033   0.197   5.149   4.029
 8690TIP3    H126034   0.287   5.182   4.030
 8690TIP3    H226035   0.167   5.162   3.939
 8691TIP3   OH226036   2.862   2.281   2.484
 8691TIP3    H126037   2.860   2.236   2.568
 8691TIP3    H226038   2.951   2.313   2.476
 8692TIP3   OH226039   5.914   2.780   2.186
 8692TIP3    H126040   5.873   2.861   2.155
 8692TIP3    H226041   5.954   2.804   2.270
 8693TIP3   OH226042   1.657   5.821   2.354
 8693TIP3    H126043   1.639   5.863   2.270
 8693TIP3    H226044   1.722   5.878   2.395
 8694TIP3   OH226045   5.890   5.430   5.819
 8694TIP3    H126046   5.803   5.423   5.780
 8694TIP3    H226047   5.875   5.412   5.912
 8695TIP3   OH226048   5.622   2.234   0.943
 8695TIP3    H126049   5.607   2.142   0.966
 8695TIP3    H226050   5.687   2.230   0.873
 8696TIP3   OH226051   6.093   0.456   0.896
 8696TIP3    H126052   6.017   0.402   0.875
 8696TIP3    H226053   6.066   0.508   0.971
 8697TIP3   OH226054   4.391   6.555   2.896
 8697TIP3    H126055   4.338   6.514   2.828
 8697TIP3    H226056   4.356   6.520   2.978
 8698TIP3   OH226057   1.175   2.628   2.558
 8698TIP3    H126058   1.153   2.626   2.465
 8698TIP3    H226059   1.192   2.537   2.582
 8699TIP3   OH226060   6.341   4.052   3.033
 8699TIP3    H126061   6.427   4.029   2.996
 8699TIP3    H226062   6.359   4.125   3.092
 8700TIP3   OH226063   2.630   5.328   1.522
 8700TIP3    H126064   2.590   5.414   1.518
 8700TIP3    H226065   2.638   5.300   1.430
 8701TIP3   OH226066   0.150   2.368   0.437
 8701TIP3    H126067   0.232   2.396   0.397
 8701TIP3    H226068   0.084   2.381   0.368
 8702TIP3   OH226069   5.851   4.868   0.347
 8702TIP3    H126070   5.896   4.803   0.293
 8702TIP3    H226071   5.896   4.951   0.329
 8703TIP3   OH226072   1.844   6.335   0.685
 8703TIP3    H126073   1.860   6.275   0.758
 8703TIP3    H226074   1.885   6.417   0.711
 8704TIP3   OH226075   3.974   5.060   2.229
 8704TIP3    H126076   4.015   5.141   2.259
 8704TIP3    H226077   3.881   5.071   2.247
 8705TIP3   OH226078   1.716   2.686   2.440
 8705TIP3    H126079   1.712   2.601   2.396
 8705TIP3    H226080   1.693   2.750   2.373
 8706TIP3   OH226081   0.457   3.247   1.618
 8706TIP3    H126082   0.526   3.199   1.664
 8706TIP3    H226083   0.376   3.220   1.661
 8707TIP3   OH226084   6.738   0.384   1.024
 8707TIP3    H126085   6.733   0.447   1.096
 8707TIP3    H226086   6.757   0.301   1.066
 8708TIP3   OH226087   6.125   5.540   1.119
 8708TIP3    H126088   6.054   5.506   1.174
 8708TIP3    H226089   6.148   5.624   1.157
 8709TIP3   OH226090   3.532   4.891   3.675
 8709TIP3    H126091   3.573   4.970   3.712
 8709TIP3    H226092   3.601   4.853   3.620
 8710TIP3   OH226093   2.090   6.023   3.087
 8710TIP3    H126094   2.098   5.984   3.174
 8710TIP3    H226095   2.157   5.979   3.034
 8711TIP3   OH226096   6.913   4.042   3.389
 8711TIP3    H126097   6.940   4.083   3.471
 8711TIP3    H226098   6.995   4.010   3.350
 8712TIP3   OH226099   2.726   3.835   0.768
 8712TIP3    H126100   2.785   3.910   0.775
 8712TIP3    H226101   2.711   3.826   0.674
 8713TIP3   OH226102   6.149   4.731   5.646
 8713TIP3    H126103   6.205   4.773   5.581
 8713TIP3    H226104   6.092   4.801   5.678
 8714TIP3   OH226105   0.133   3.955   0.831
 8714TIP3    H126106   0.093   3.869   0.838
 8714TIP3    H226107   0.196   3.947   0.760
 8715TIP3   OH226108   5.967   3.932   5.589
 8715TIP3    H126109   5.981   3.957   5.680
 8715TIP3    H226110   6.010   3.847   5.581
 8716TIP3   OH226111   2.976   2.750   4.348
 8716TIP3    H126112   3.007   2.806   4.419
 8716TIP3    H226113   2.881   2.762   4.347
 8717TIP3   OH226114   2.878   1.005   3.263
 8717TIP3    H126115   2.945   0.951   3.305
 8717TIP3    H226116   2.816   1.025   3.333
 8718TIP3   OH226117   4.817   0.807   1.567
 8718TIP3    H126118   4.884   0.814   1.636
 8718TIP3    H226119   4.734   0.811   1.614
 8719TIP3   OH226120   4.068   1.511   2.810
 8719TIP3    H126121   4.065   1.606   2.807
 8719TIP3    H226122   4.113   1.490   2.891
 8720TIP3   OH226123   5.147   0.519   1.982
 8720TIP3    H126124   5.130   0.458   2.055
 8720TIP3    H226125   5.157   0.462   1.906
 8721TIP3   OH226126   5.830   5.804   0.539
 8721TIP3    H126127   5.875   5.816   0.455
 8721TIP3    H226128   5.868   5.870   0.596
 8722TIP3   OH226129   3.861   0.761   3.162
 8722TIP3    H126130   3.896   0.719   3.083
 8722TIP3    H226131   3.767   0.768   3.146
 8723TIP3   OH226132   5.291   5.369   2.890
 8723TIP3    H126133   5.208   5.382   2.936
 8723TIP3    H226134   5.358   5.396   2.952
 8724TIP3   OH226135   2.254   2.585   3.406
 8724TIP3    H126136   2.275   2.565   3.314
 8724TIP3    H226137   2.339   2.606   3.445
 8725TIP3   OH226138   7.053   0.987   4.923
 8725TIP3    H126139   7.021   0.939   4.847
 8725TIP3    H226140   7.070   1.075   4.891
 8726TIP3   OH226141   0.542   6.579   5.492
 8726TIP3    H126142   0.462   6.550   5.449
 8726TIP3    H226143   0.613   6.545   5.437
 8727TIP3   OH226144   5.141   0.179   0.526
 8727TIP3    H126145   5.234   0.195   0.544
 8727TIP3    H226146   5.118   0.107   0.585
 8728TIP3   OH226147   7.140   6.112   3.413
 8728TIP3    H126148   7.230   6.080   3.420
 8728TIP3    H226149   7.145   6.187   3.354
 8729TIP3   OH226150   7.105   4.100   4.659
 8729TIP3    H126151   7.162   4.031   4.627
 8729TIP3    H226152   7.016   4.067   4.644
 8730TIP3   OH226153   4.289   3.880   4.310
 8730TIP3    H126154   4.227   3.853   4.243
 8730TIP3    H226155   4.353   3.809   4.314
 8731TIP3   OH226156   1.923   2.894   3.427
 8731TIP3    H126157   1.873   2.847   3.494
 8731TIP3    H226158   1.969   2.826   3.378
 8732TIP3   OH226159   3.497   4.771   2.945
 8732TIP3    H126160   3.483   4.679   2.967
 8732TIP3    H226161   3.577   4.795   2.993
 8733TIP3   OH226162   1.112   0.137   5.738
 8733TIP3    H126163   1.090   0.050   5.769
 8733TIP3    H226164   1.124   0.127   5.644
 8734TIP3   OH226165   5.499   0.299   1.156
 8734TIP3    H126166   5.478   0.392   1.149
 8734TIP3    H226167   5.511   0.270   1.066
 8735TIP3   OH226168   0.480   1.786   3.504
 8735TIP3    H126169   0.389   1.789   3.475
 8735TIP3    H226170   0.490   1.698   3.541
 8736TIP3   OH226171   3.986   1.247   5.420
 8736TIP3    H126172   4.033   1.315   5.370
 8736TIP3    H226173   4.023   1.252   5.508
 8737TIP3   OH226174   0.341   5.987   4.143
 8737TIP3    H126175   0.264   5.974   4.197
 8737TIP3    H226176   0.306   6.019   4.059
 8738TIP3   OH226177   5.177   3.454   3.417
 8738TIP3    H126178   5.099   3.497   3.380
 8738TIP3    H226179   5.250   3.507   3.387
 8739TIP3   OH226180   3.024   3.476   2.550
 8739TIP3    H126181   2.971   3.397   2.547
 8739TIP3    H226182   2.976   3.539   2.496
 8740TIP3   OH226183   4.756   1.203   2.163
 8740TIP3    H126184   4.707   1.201   2.081
 8740TIP3    H226185   4.740   1.290   2.199
 8741TIP3   OH226186   3.797   1.864   2.361
 8741TIP3    H126187   3.868   1.921   2.390
 8741TIP3    H226188   3.717   1.915   2.378
 8742TIP3   OH226189   6.511   3.719   3.171
 8742TIP3    H126190   6.559   3.656   3.118
 8742TIP3    H226191   6.567   3.797   3.172
 8743TIP3   OH226192   5.100   2.154   2.390
 8743TIP3    H126193   5.034   2.114   2.447
 8743TIP3    H226194   5.118   2.087   2.324
 8744TIP3   OH226195   2.052   4.089   5.174
 8744TIP3    H126196   2.075   4.046   5.256
 8744TIP3    H226197   1.959   4.110   5.183
 8745TIP3   OH226198   3.855   4.332   1.677
 8745TIP3    H126199   3.812   4.395   1.620
 8745TIP3    H226200   3.889   4.264   1.618
 8746TIP3   OH226201   6.542   4.364   2.094
 8746TIP3    H126202   6.506   4.361   2.183
 8746TIP3    H226203   6.601   4.289   2.089
 8747TIP3   OH226204   5.432   1.050   3.519
 8747TIP3    H126205   5.449   1.022   3.429
 8747TIP3    H226206   5.508   1.018   3.569
 8748TIP3   OH226207   3.967   0.847   1.028
 8748TIP3    H126208   3.929   0.894   0.954
 8748TIP3    H226209   3.928   0.888   1.105
 8749TIP3   OH226210   5.688   0.892   3.434
 8749TIP3    H126211   5.722   0.805   3.458
 8749TIP3    H226212   5.720   0.906   3.345
 8750TIP3   OH226213   4.528   0.590   2.176
 8750TIP3    H126214   4.576   0.507   2.173
 8750TIP3    H226215   4.591   0.654   2.207
 8751TIP3   OH226216   1.791   1.228   1.504
 8751TIP3    H126217   1.823   1.226   1.594
 8751TIP3    H226218   1.867   1.202   1.451
 8752TIP3   OH226219   5.545   0.199   1.438
 8752TIP3    H126220   5.509   0.265   1.497
 8752TIP3    H226221   5.509   0.220   1.352
 8753TIP3   OH226222   1.982   6.584   2.278
 8753TIP3    H126223   1.902   6.592   2.329
 8753TIP3    H226224   2.025   6.506   2.312
 8754TIP3   OH226225   2.389   0.946   4.012
 8754TIP3    H126226   2.363   0.978   4.098
 8754TIP3    H226227   2.446   0.871   4.031
 8755TIP3   OH226228   4.189   2.557   1.252
 8755TIP3    H126229   4.284   2.547   1.264
 8755TIP3    H226230   4.158   2.469   1.233
 8756TIP3   OH226231   3.722   2.958   2.226
 8756TIP3    H126232   3.799   2.982   2.174
 8756TIP3    H226233   3.756   2.943   2.314
 8757TIP3   OH226234   3.922   5.768   1.190
 8757TIP3    H126235   3.910   5.698   1.126
 8757TIP3    H226236   3.843   5.821   1.184
 8758TIP3   OH226237   3.872   5.768   5.272
 8758TIP3    H126238   3.925   5.841   5.305
 8758TIP3    H226239   3.806   5.753   5.339
 8759TIP3   OH226240   3.544   2.310   2.020
 8759TIP3    H126241   3.499   2.303   1.935
 8759TIP3    H226242   3.519   2.396   2.053
 8760TIP3   OH226243   0.164   0.928   3.445
 8760TIP3    H126244   0.098   0.860   3.442
 8760TIP3    H226245   0.167   0.955   3.537
 8761TIP3   OH226246   1.692   5.874   4.608
 8761TIP3    H126247   1.618   5.911   4.656
 8761TIP3    H226248   1.655   5.848   4.523
 8762TIP3   OH226249   6.056   3.813   1.965
 8762TIP3    H126250   6.112   3.880   1.925
 8762TIP3    H226251   5.991   3.862   2.014
 8763TIP3   OH226252   3.311   0.120   5.515
 8763TIP3    H126253   3.266   0.119   5.599
 8763TIP3    H226254   3.385   0.059   5.527
 8764TIP3   OH226255   1.619   3.178   3.583
 8764TIP3    H126256   1.565   3.256   3.570
 8764TIP3    H226257   1.704   3.201   3.546
 8765TIP3   OH226258   0.801   2.298   5.079
 8765TIP3    H126259   0.875   2.355   5.101
 8765TIP3    H226260   0.842   2.214   5.059
 8766TIP3   OH226261   6.775   4.173   0.041
 8766TIP3    H126262   6.759   4.083   0.068
 8766TIP3    H226263   6.762   4.173  -0.053
 8767TIP3   OH226264   2.910   5.593   2.076
 8767TIP3    H126265   2.829   5.631   2.110
 8767TIP3    H226266   2.944   5.659   2.015
 8768TIP3   OH226267   0.316   3.785   2.222
 8768TIP3    H126268   0.233   3.796   2.175
 8768TIP3    H226269   0.329   3.867   2.268
 8769TIP3   OH226270   4.740   4.524   5.776
 8769TIP3    H126271   4.833   4.542   5.759
 8769TIP3    H226272   4.709   4.600   5.825
 8770TIP3   OH226273   5.535   0.071   4.541
 8770TIP3    H126274   5.445   0.103   4.552
 8770TIP3    H226275   5.580   0.139   4.492
 8771TIP3   OH226276   3.242   5.758   4.805
 8771TIP3    H126277   3.335   5.752   4.784
 8771TIP3    H226278   3.222   5.852   4.799
 8772TIP3   OH226279   0.718   5.778   2.603
 8772TIP3    H126280   0.724   5.706   2.541
 8772TIP3    H226281   0.750   5.742   2.686
 8773TIP3   OH226282   5.076   6.416   4.290
 8773TIP3    H126283   5.047   6.468   4.365
 8773TIP3    H226284   5.171   6.414   4.298
 8774TIP3   OH226285   2.710   4.361   3.343
 8774TIP3    H126286   2.654   4.283   3.350
 8774TIP3    H226287   2.728   4.368   3.249
 8775TIP3   OH226288   4.795   2.434   1.599
 8775TIP3    H126289   4.866   2.410   1.659
 8775TIP3    H226290   4.733   2.483   1.653
 8776TIP3   OH226291   4.152   2.160   2.096
 8776TIP3    H126292   4.171   2.083   2.043
 8776TIP3    H226293   4.220   2.161   2.163
 8777TIP3   OH226294   1.045   4.261   2.694
 8777TIP3    H126295   1.059   4.243   2.601
 8777TIP3    H226296   1.069   4.353   2.705
 8778TIP3   OH226297   2.337   4.285   3.510
 8778TIP3    H126298   2.257   4.233   3.497
 8778TIP3    H226299   2.307   4.376   3.505
 8779TIP3   OH226300   5.530   1.440   3.223
 8779TIP3    H126301   5.601   1.491   3.183
 8779TIP3    H226302   5.466   1.506   3.250
 8780TIP3   OH226303   0.952   4.932   4.750
 8780TIP3    H126304   0.941   4.953   4.843
 8780TIP3    H226305   1.013   4.998   4.717
 8781TIP3   OH226306   1.911   3.982   0.602
 8781TIP3    H126307   1.913   3.887   0.617
 8781TIP3    H226308   1.819   4.006   0.612
 8782TIP3   OH226309   3.481   0.876   3.563
 8782TIP3    H126310   3.445   0.904   3.647
 8782TIP3    H226311   3.404   0.847   3.513
 8783TIP3   OH226312   0.504   5.195   4.071
 8783TIP3    H126313   0.544   5.174   4.155
 8783TIP3    H226314   0.513   5.290   4.062
 8784TIP3   OH226315   1.818   6.674   0.301
 8784TIP3    H126316   1.734   6.634   0.325
 8784TIP3    H226317   1.844   6.628   0.221
 8785TIP3   OH226318   6.208   5.643   2.712
 8785TIP3    H126319   6.144   5.710   2.687
 8785TIP3    H226320   6.282   5.659   2.653
 8786TIP3   OH226321   7.155   6.630   5.704
 8786TIP3    H126322   7.172   6.720   5.677
 8786TIP3    H226323   7.133   6.584   5.622
 8787TIP3   OH226324   3.296   5.228   0.987
 8787TIP3    H126325   3.270   5.177   0.910
 8787TIP3    H226326   3.289   5.166   1.060
 8788TIP3   OH226327   4.902   1.200   4.626
 8788TIP3    H126328   4.892   1.278   4.680
 8788TIP3    H226329   4.975   1.152   4.665
 8789TIP3   OH226330   6.336   0.627   1.619
 8789TIP3    H126331   6.316   0.715   1.653
 8789TIP3    H226332   6.404   0.593   1.677
 8790TIP3   OH226333   5.190   6.635   4.607
 8790TIP3    H126334   5.174   6.636   4.702
 8790TIP3    H226335   5.174   6.725   4.579
 8791TIP3   OH226336   1.321   2.322   2.869
 8791TIP3    H126337   1.262   2.321   2.944
 8791TIP3    H226338   1.385   2.390   2.890
 8792TIP3   OH226339   0.393   2.061   3.788
 8792TIP3    H126340   0.439   2.053   3.705
 8792TIP3    H226341   0.443   2.005   3.848
 8793TIP3   OH226342   5.551   3.047   3.607
 8793TIP3    H126343   5.566   3.138   3.582
 8793TIP3    H226344   5.607   2.996   3.548
 8794TIP3   OH226345   1.278   3.547   4.690
 8794TIP3    H126346   1.200   3.508   4.649
 8794TIP3    H226347   1.350   3.521   4.634
 8795TIP3   OH226348   1.888   0.848   4.549
 8795TIP3    H126349   1.879   0.810   4.636
 8795TIP3    H226350   1.891   0.773   4.490
 8796TIP3   OH226351   4.686   5.212   4.474
 8796TIP3    H126352   4.755   5.198   4.539
 8796TIP3    H226353   4.649   5.125   4.458
 8797TIP3   OH226354   1.776   3.682   3.772
 8797TIP3    H126355   1.726   3.615   3.727
 8797TIP3    H226356   1.851   3.636   3.808
 8798TIP3   OH226357   0.784   4.464   4.976
 8798TIP3    H126358   0.800   4.378   5.014
 8798TIP3    H226359   0.713   4.451   4.913
 8799TIP3   OH226360   5.502   6.690   5.542
 8799TIP3    H126361   5.513   6.758   5.610
 8799TIP3    H226362   5.516   6.737   5.460
 8800TIP3   OH226363   1.243   6.146   2.064
 8800TIP3    H126364   1.158   6.190   2.066
 8800TIP3    H226365   1.232   6.076   2.000
 8801TIP3   OH226366   3.807   2.010   2.865
 8801TIP3    H126367   3.855   1.978   2.788
 8801TIP3    H226368   3.778   2.097   2.840
 8802TIP3   OH226369   4.123   0.330   3.301
 8802TIP3    H126370   4.109   0.380   3.381
 8802TIP3    H226371   4.196   0.374   3.258
 8803TIP3   OH226372   1.054   0.526   4.507
 8803TIP3    H126373   1.076   0.522   4.600
 8803TIP3    H226374   1.083   0.612   4.478
 8804TIP3   OH226375   0.358   3.677   2.546
 8804TIP3    H126376   0.392   3.766   2.553
 8804TIP3    H226377   0.428   3.627   2.504
 8805TIP3   OH226378   6.813   5.626   5.458
 8805TIP3    H126379   6.850   5.691   5.517
 8805TIP3    H226380   6.880   5.558   5.451
 8806TIP3   OH226381   1.169   5.844   2.434
 8806TIP3    H126382   1.239   5.879   2.379
 8806TIP3    H226383   1.189   5.876   2.522
 8807TIP3   OH226384   0.897   3.916   2.975
 8807TIP3    H126385   0.976   3.862   2.983
 8807TIP3    H226386   0.868   3.929   3.065
 8808TIP3   OH226387   4.521   0.582   3.474
 8808TIP3    H126388   4.561   0.667   3.491
 8808TIP3    H226389   4.575   0.520   3.523
 8809TIP3   OH226390   6.758   0.139   0.412
 8809TIP3    H126391   6.700   0.207   0.375
 8809TIP3    H226392   6.698   0.072   0.443
 8810TIP3   OH226393   1.873   6.539   3.604
 8810TIP3    H126394   1.912   6.526   3.517
 8810TIP3    H226395   1.786   6.573   3.586
 8811TIP3   OH226396   4.911   2.787   1.463
 8811TIP3    H126397   5.002   2.784   1.434
 8811TIP3    H226398   4.916   2.784   1.559
 8812TIP3   OH226399   3.680   3.988   3.154
 8812TIP3    H126400   3.646   3.930   3.086
 8812TIP3    H226401   3.614   3.984   3.223
 8813TIP3   OH226402   1.510   2.935   1.998
 8813TIP3    H126403   1.491   2.925   1.905
 8813TIP3    H226404   1.444   2.997   2.029
 8814TIP3   OH226405   5.774   2.651   4.667
 8814TIP3    H126406   5.793   2.645   4.760
 8814TIP3    H226407   5.759   2.561   4.640
 8815TIP3   OH226408   2.733   5.715   4.767
 8815TIP3    H126409   2.768   5.702   4.679
 8815TIP3    H226410   2.738   5.810   4.781
 8816TIP3   OH226411   3.122   0.771   2.688
 8816TIP3    H126412   3.182   0.842   2.664
 8816TIP3    H226413   3.035   0.808   2.676
 8817TIP3   OH226414   3.262  -0.008   0.631
 8817TIP3    H126415   3.242   0.077   0.592
 8817TIP3    H226416   3.236  -0.072   0.564
 8818TIP3   OH226417   0.512   5.866   1.613
 8818TIP3    H126418   0.602   5.901   1.612
 8818TIP3    H226419   0.522   5.776   1.583
 8819TIP3   OH226420   5.525   5.549   1.076
 8819TIP3    H126421   5.430   5.559   1.066
 8819TIP3    H226422   5.537   5.457   1.099
 8820TIP3   OH226423   6.098   5.785   4.130
 8820TIP3    H126424   6.078   5.725   4.202
 8820TIP3    H226425   6.063   5.869   4.160
 8821TIP3   OH226426   1.460   0.879   2.121
 8821TIP3    H126427   1.554   0.871   2.106
 8821TIP3    H226428   1.431   0.789   2.138
 8822TIP3   OH226429   5.329   0.693   2.128
 8822TIP3    H126430   5.287   0.655   2.051
 8822TIP3    H226431   5.416   0.718   2.097
 8823TIP3   OH226432   2.250   3.245   4.034
 8823TIP3    H126433   2.321   3.294   3.994
 8823TIP3    H226434   2.202   3.310   4.085
 8824TIP3   OH226435   2.165   5.160   5.546
 8824TIP3    H126436   2.116   5.078   5.554
 8824TIP3    H226437   2.244   5.136   5.497
 8825TIP3   OH226438   2.367   5.389   5.330
 8825TIP3    H126439   2.400   5.309   5.370
 8825TIP3    H226440   2.429   5.408   5.259
 8826TIP3   OH226441   6.480   6.041   1.003
 8826TIP3    H126442   6.478   6.061   0.910
 8826TIP3    H226443   6.425   6.110   1.043
 8827TIP3   OH226444   3.417   2.542   2.143
 8827TIP3    H126445   3.352   2.553   2.073
 8827TIP3    H226446   3.477   2.615   2.131
 8828TIP3   OH226447   6.784   2.610   4.806
 8828TIP3    H126448   6.765   2.609   4.712
 8828TIP3    H226449   6.776   2.702   4.831
 8829TIP3   OH226450   6.988   6.466   5.241
 8829TIP3    H126451   6.924   6.396   5.234
 8829TIP3    H226452   7.032   6.466   5.156
 8830TIP3   OH226453   6.565   5.264   1.691
 8830TIP3    H126454   6.546   5.316   1.613
 8830TIP3    H226455   6.575   5.328   1.761
 8831TIP3   OH226456   2.759   6.358   3.682
 8831TIP3    H126457   2.785   6.448   3.665
 8831TIP3    H226458   2.665   6.363   3.702
 8832TIP3   OH226459   0.644   3.992   5.795
 8832TIP3    H126460   0.633   4.084   5.772
 8832TIP3    H226461   0.619   3.944   5.716
 8833TIP3   OH226462   6.342   4.237   3.289
 8833TIP3    H126463   6.309   4.243   3.379
 8833TIP3    H226464   6.432   4.270   3.296
 8834TIP3   OH226465   2.952   5.970   3.686
 8834TIP3    H126466   2.942   5.926   3.770
 8834TIP3    H226467   2.992   6.054   3.707
 8835TIP3   OH226468   3.605   5.259   1.608
 8835TIP3    H126469   3.629   5.275   1.516
 8835TIP3    H226470   3.636   5.337   1.654
 8836TIP3   OH226471   5.866   3.581   5.388
 8836TIP3    H126472   5.798   3.601   5.452
 8836TIP3    H226473   5.946   3.620   5.425
 8837TIP3   OH226474   3.377   5.578   5.793
 8837TIP3    H126475   3.322   5.629   5.733
 8837TIP3    H226476   3.386   5.633   5.871
 8838TIP3   OH226477   2.663   5.146   4.907
 8838TIP3    H126478   2.586   5.178   4.859
 8838TIP3    H226479   2.728   5.130   4.838
 8839TIP3   OH226480   5.135   1.304   5.462
 8839TIP3    H126481   5.196   1.350   5.406
 8839TIP3    H226482   5.191   1.256   5.523
 8840TIP3   OH226483   2.941   0.795   4.195
 8840TIP3    H126484   2.996   0.743   4.254
 8840TIP3    H226485   2.948   0.884   4.228
 8841TIP3   OH226486   0.385   2.512   5.622
 8841TIP3    H126487   0.322   2.558   5.567
 8841TIP3    H226488   0.462   2.569   5.622
 8842TIP3   OH226489   4.022   6.222   3.183
 8842TIP3    H126490   4.004   6.146   3.238
 8842TIP3    H226491   4.058   6.186   3.102
 8843TIP3   OH226492   2.787   2.451   0.019
 8843TIP3    H126493   2.844   2.518  -0.018
 8843TIP3    H226494   2.702   2.466  -0.023
 8844TIP3   OH226495   5.458   2.431   2.870
 8844TIP3    H126496   5.542   2.385   2.871
 8844TIP3    H226497   5.434   2.439   2.962
 8845TIP3   OH226498   3.145   0.011   4.241
 8845TIP3    H126499   3.103   0.014   4.327
 8845TIP3    H226500   3.193   0.093   4.235
 8846TIP3   OH226501   6.366   3.531   2.574
 8846TIP3    H126502   6.433   3.524   2.642
 8846TIP3    H226503   6.411   3.574   2.501
 8847TIP3   OH226504   4.818   4.654   2.174
 8847TIP3    H126505   4.862   4.601   2.240
 8847TIP3    H226506   4.890   4.696   2.126
 8848TIP3   OH226507   4.659   2.749   3.220
 8848TIP3    H126508   4.636   2.694   3.295
 8848TIP3    H226509   4.682   2.833   3.259
 8849TIP3   OH226510   4.059   1.203   4.665
 8849TIP3    H126511   4.092   1.114   4.653
 8849TIP3    H226512   4.056   1.215   4.760
 8850TIP3   OH226513   6.382   4.134   0.307
 8850TIP3    H126514   6.360   4.142   0.214
 8850TIP3    H226515   6.358   4.219   0.345
 8851TIP3   OH226516   0.837   3.782   5.339
 8851TIP3    H126517   0.888   3.838   5.397
 8851TIP3    H226518   0.902   3.737   5.285
 8852TIP3   OH226519   6.443   2.452   3.616
 8852TIP3    H126520   6.448   2.358   3.633
 8852TIP3    H226521   6.395   2.459   3.533
 8853TIP3   OH226522   2.342   0.507   3.088
 8853TIP3    H126523   2.418   0.462   3.052
 8853TIP3    H226524   2.333   0.473   3.177
 8854TIP3   OH226525   1.299   4.716   1.383
 8854TIP3    H126526   1.336   4.667   1.309
 8854TIP3    H226527   1.371   4.723   1.445
 8855TIP3   OH226528   4.449   2.012   4.906
 8855TIP3    H126529   4.394   2.016   4.828
 8855TIP3    H226530   4.535   1.989   4.874
 8856TIP3   OH226531   1.490   4.578   5.259
 8856TIP3    H126532   1.539   4.611   5.185
 8856TIP3    H226533   1.406   4.624   5.254
 8857TIP3   OH226534   5.814   2.740   1.158
 8857TIP3    H126535   5.786   2.659   1.117
 8857TIP3    H226536   5.859   2.788   1.089
 8858TIP3   OH226537   2.085   3.719   2.309
 8858TIP3    H126538   1.998   3.758   2.319
 8858TIP3    H226539   2.070   3.625   2.306
 8859TIP3   OH226540   2.978   2.566   3.658
 8859TIP3    H126541   2.986   2.472   3.646
 8859TIP3    H226542   2.986   2.580   3.752
 8860TIP3   OH226543   3.430   1.403   2.748
 8860TIP3    H126544   3.394   1.472   2.692
 8860TIP3    H226545   3.358   1.379   2.806
 8861TIP3   OH226546   1.706   0.331   4.651
 8861TIP3    H126547   1.746   0.265   4.594
 8861TIP3    H226548   1.780   0.377   4.690
 8862TIP3   OH226549   4.074   3.529   2.696
 8862TIP3    H126550   4.061   3.543   2.790
 8862TIP3    H226551   4.135   3.598   2.669
 8863TIP3   OH226552   6.652   2.998   4.620
 8863TIP3    H126553   6.628   3.072   4.565
 8863TIP3    H226554   6.574   2.943   4.621
 8864TIP3   OH226555   6.278   4.875   5.452
 8864TIP3    H126556   6.272   4.970   5.451
 8864TIP3    H226557   6.362   4.857   5.494
 8865TIP3   OH226558   0.239   5.715   2.293
 8865TIP3    H126559   0.269   5.647   2.232
 8865TIP3    H226560   0.232   5.794   2.239
 8866TIP3   OH226561   3.142   4.997   4.799
 8866TIP3    H126562   3.177   4.926   4.745
 8866TIP3    H226563   3.212   5.016   4.862
 8867TIP3   OH226564   4.159   1.738   3.573
 8867TIP3    H126565   4.168   1.670   3.506
 8867TIP3    H226566   4.155   1.689   3.655
 8868TIP3   OH226567   1.799   3.867   5.342
 8868TIP3    H126568   1.874   3.927   5.341
 8868TIP3    H226569   1.820   3.805   5.412
 8869TIP3   OH226570   5.260   1.520   3.769
 8869TIP3    H126571   5.259   1.610   3.737
 8869TIP3    H226572   5.284   1.468   3.692
 8870TIP3   OH226573   4.510   4.947   1.774
 8870TIP3    H126574   4.526   4.963   1.867
 8870TIP3    H226575   4.569   5.008   1.728
 8871TIP3   OH226576   3.995   3.252   2.800
 8871TIP3    H126577   3.920   3.310   2.785
 8871TIP3    H226578   3.984   3.182   2.736
 8872TIP3   OH226579   6.821   4.331   3.818
 8872TIP3    H126580   6.747   4.290   3.774
 8872TIP3    H226581   6.789   4.417   3.845
 8873TIP3   OH226582   1.562   2.895   3.490
 8873TIP3    H126583   1.585   2.976   3.536
 8873TIP3    H226584   1.470   2.881   3.513
 8874TIP3   OH226585   4.700   2.300   3.157
 8874TIP3    H126586   4.663   2.368   3.100
 8874TIP3    H226587   4.792   2.324   3.166
 8875TIP3   OH226588   0.642   0.664   4.593
 8875TIP3    H126589   0.648   0.619   4.678
 8875TIP3    H226590   0.654   0.756   4.614
 8876TIP3   OH226591   1.240   4.485   2.541
 8876TIP3    H126592   1.145   4.494   2.546
 8876TIP3    H226593   1.261   4.414   2.602
 8877TIP3   OH226594   2.438   6.431   0.340
 8877TIP3    H126595   2.494   6.372   0.290
 8877TIP3    H226596   2.440   6.514   0.293
 8878TIP3   OH226597   4.529   5.468   1.082
 8878TIP3    H126598   4.623   5.470   1.065
 8878TIP3    H226599   4.516   5.387   1.132
 8879TIP3   OH226600   0.936   3.279   5.614
 8879TIP3    H126601   0.928   3.331   5.534
 8879TIP3    H226602   0.882   3.324   5.678
 8880TIP3   OH226603   5.017   2.502   4.171
 8880TIP3    H126604   5.112   2.494   4.170
 8880TIP3    H226605   5.000   2.593   4.195
 8881TIP3   OH226606   5.860   4.097   3.790
 8881TIP3    H126607   5.937   4.093   3.848
 8881TIP3    H226608   5.896   4.118   3.704
 8882TIP3   OH226609   3.866   1.418   4.541
 8882TIP3    H126610   3.947   1.430   4.491
 8882TIP3    H226611   3.895   1.373   4.621
 8883TIP3   OH226612   6.234   5.203   2.259
 8883TIP3    H126613   6.317   5.214   2.215
 8883TIP3    H226614   6.168   5.206   2.189
 8884TIP3   OH226615   1.234   0.281   1.643
 8884TIP3    H126616   1.146   0.252   1.667
 8884TIP3    H226617   1.264   0.331   1.719
 8885TIP3   OH226618   6.484   6.451   1.905
 8885TIP3    H126619   6.411   6.391   1.894
 8885TIP3    H226620   6.562   6.395   1.911
 8886TIP3   OH226621   2.689   5.686   5.186
 8886TIP3    H126622   2.749   5.736   5.131
 8886TIP3    H226623   2.744   5.624   5.233
 8887TIP3   OH226624   5.654   1.327   4.543
 8887TIP3    H126625   5.621   1.385   4.612
 8887TIP3    H226626   5.700   1.385   4.482
 8888TIP3   OH226627   3.846   3.405   2.114
 8888TIP3    H126628   3.877   3.446   2.033
 8888TIP3    H226629   3.761   3.366   2.090
 8889TIP3   OH226630   1.878   6.181   3.562
 8889TIP3    H126631   1.868   6.092   3.527
 8889TIP3    H226632   1.938   6.171   3.636
 8890TIP3   OH226633   3.898   5.041   4.166
 8890TIP3    H126634   3.900   4.976   4.096
 8890TIP3    H226635   3.935   4.997   4.242
 8891TIP3   OH226636   5.502   4.118   2.191
 8891TIP3    H126637   5.532   4.167   2.115
 8891TIP3    H226638   5.438   4.175   2.233
 8892TIP3   OH226639   2.895   0.589   0.216
 8892TIP3    H126640   2.849   0.673   0.205
 8892TIP3    H226641   2.986   0.614   0.230
 8893TIP3   OH226642   3.834   0.396   0.562
 8893TIP3    H126643   3.805   0.455   0.632
 8893TIP3    H226644   3.909   0.441   0.523
 8894TIP3   OH226645   1.045   4.886   2.877
 8894TIP3    H126646   1.009   4.948   2.813
 8894TIP3    H226647   1.087   4.941   2.943
 8895TIP3   OH226648   2.329   6.512   1.337
 8895TIP3    H126649   2.248   6.462   1.333
 8895TIP3    H226650   2.367   6.504   1.249
 8896TIP3   OH226651   6.199   5.968   2.717
 8896TIP3    H126652   6.169   6.023   2.789
 8896TIP3    H226653   6.280   5.929   2.748
 8897TIP3   OH226654   0.132   1.638   2.400
 8897TIP3    H126655   0.140   1.555   2.447
 8897TIP3    H226656   0.109   1.701   2.468
 8898TIP3   OH226657   3.528   5.272   4.715
 8898TIP3    H126658   3.555   5.198   4.770
 8898TIP3    H226659   3.444   5.244   4.678
 8899TIP3   OH226660   1.116   3.939   1.638
 8899TIP3    H126661   1.095   3.947   1.545
 8899TIP3    H226662   1.195   3.992   1.650
 8900TIP3   OH226663   6.646   6.481   4.386
 8900TIP3    H126664   6.588   6.557   4.374
 8900TIP3    H226665   6.717   6.496   4.323
 8901TIP3   OH226666   3.827   6.360   0.246
 8901TIP3    H126667   3.818   6.308   0.166
 8901TIP3    H226668   3.899   6.319   0.294
 8902TIP3   OH226669   4.503   5.959   2.576
 8902TIP3    H126670   4.448   5.950   2.498
 8902TIP3    H226671   4.482   5.882   2.629
 8903TIP3   OH226672   2.146   2.821   1.337
 8903TIP3    H126673   2.069   2.766   1.324
 8903TIP3    H226674   2.189   2.822   1.252
 8904TIP3   OH226675   4.934   1.279   4.332
 8904TIP3    H126676   4.894   1.211   4.279
 8904TIP3    H226677   4.996   1.233   4.388
 8905TIP3   OH226678   5.586   5.699   0.576
 8905TIP3    H126679   5.595   5.630   0.641
 8905TIP3    H226680   5.676   5.731   0.562
 8906TIP3   OH226681   6.872   2.931   1.582
 8906TIP3    H126682   6.812   3.006   1.582
 8906TIP3    H226683   6.821   2.859   1.545
 8907TIP3   OH226684   3.411   1.269   4.153
 8907TIP3    H126685   3.463   1.248   4.230
 8907TIP3    H226686   3.453   1.347   4.116
 8908TIP3   OH226687   4.732   5.950   0.904
 8908TIP3    H126688   4.708   6.020   0.844
 8908TIP3    H226689   4.797   5.989   0.962
 8909TIP3   OH226690   2.535   6.555   3.431
 8909TIP3    H126691   2.547   6.483   3.368
 8909TIP3    H226692   2.557   6.634   3.381
 8910TIP3   OH226693   2.678   1.194   1.562
 8910TIP3    H126694   2.585   1.204   1.584
 8910TIP3    H226695   2.683   1.109   1.516
 8911TIP3   OH226696   1.186   0.050   3.491
 8911TIP3    H126697   1.132   0.111   3.542
 8911TIP3    H226698   1.275   0.064   3.523
 8912TIP3   OH226699   2.253   5.282   2.839
 8912TIP3    H126700   2.280   5.209   2.894
 8912TIP3    H226701   2.239   5.354   2.901
 8913TIP3   OH226702   1.088   6.074   5.238
 8913TIP3    H126703   1.136   6.046   5.316
 8913TIP3    H226704   1.021   6.007   5.226
 8914TIP3   OH226705   5.946   1.288   3.799
 8914TIP3    H126706   5.957   1.198   3.829
 8914TIP3    H226707   5.969   1.285   3.706
 8915TIP3   OH226708   4.305   2.243   0.164
 8915TIP3    H126709   4.300   2.149   0.181
 8915TIP3    H226710   4.260   2.284   0.238
 8916TIP3   OH226711   0.910   3.282   4.585
 8916TIP3    H126712   0.941   3.373   4.580
 8916TIP3    H226713   0.980   3.231   4.545
 8917TIP3   OH226714   0.011   3.016   2.169
 8917TIP3    H126715   0.008   3.065   2.087
 8917TIP3    H226716   0.069   2.942   2.150
 8918TIP3   OH226717   5.308   6.158   2.871
 8918TIP3    H126718   5.314   6.223   2.801
 8918TIP3    H226719   5.363   6.193   2.941
 8919TIP3   OH226720   5.537   5.991   3.371
 8919TIP3    H126721   5.550   5.921   3.306
 8919TIP3    H226722   5.509   6.066   3.319
 8920TIP3   OH226723   7.202   5.285   1.646
 8920TIP3    H126724   7.131   5.343   1.672
 8920TIP3    H226725   7.178   5.256   1.558
 8921TIP3   OH226726   5.983   4.981   2.006
 8921TIP3    H126727   6.063   5.030   2.022
 8921TIP3    H226728   5.916   5.048   1.993
 8922TIP3   OH226729   1.129   3.998   0.291
 8922TIP3    H126730   1.171   3.923   0.248
 8922TIP3    H226731   1.167   4.000   0.378
 8923TIP3   OH226732   3.066   3.835   1.685
 8923TIP3    H126733   3.009   3.859   1.758
 8923TIP3    H226734   3.050   3.741   1.672
 8924TIP3   OH226735   4.186   6.491   4.911
 8924TIP3    H126736   4.218   6.560   4.969
 8924TIP3    H226737   4.095   6.476   4.938
 8925TIP3   OH226738   2.491   3.637   1.205
 8925TIP3    H126739   2.415   3.650   1.149
 8925TIP3    H226740   2.462   3.576   1.273
 8926TIP3   OH226741   5.906   2.128   0.971
 8926TIP3    H126742   5.830   2.172   1.008
 8926TIP3    H226743   5.967   2.119   1.044
 8927TIP3   OH226744   4.084   2.028   4.495
 8927TIP3    H126745   4.048   1.941   4.512
 8927TIP3    H226746   4.008   2.083   4.479
 8928TIP3   OH226747   6.018   3.118   0.558
 8928TIP3    H126748   5.941   3.069   0.587
 8928TIP3    H226749   5.987   3.208   0.548
 8929TIP3   OH226750   1.308   4.067   2.895
 8929TIP3    H126751   1.257   4.131   2.944
 8929TIP3    H226752   1.330   4.000   2.960
 8930TIP3   OH226753   4.684   6.666   5.417
 8930TIP3    H126754   4.703   6.614   5.496
 8930TIP3    H226755   4.714   6.611   5.345
 8931TIP3   OH226756   5.622   2.990   1.930
 8931TIP3    H126757   5.578   2.916   1.972
 8931TIP3    H226758   5.643   2.959   1.842
 8932TIP3   OH226759   5.939   0.529   2.936
 8932TIP3    H126760   5.865   0.484   2.975
 8932TIP3    H226761   5.936   0.618   2.973
 8933TIP3   OH226762   5.579   5.825   3.888
 8933TIP3    H126763   5.567   5.833   3.794
 8933TIP3    H226764   5.649   5.761   3.898
 8934TIP3   OH226765   3.549   1.372   5.657
 8934TIP3    H126766   3.603   1.371   5.736
 8934TIP3    H226767   3.529   1.280   5.641
 8935TIP3   OH226768   6.689   1.815   4.160
 8935TIP3    H126769   6.626   1.759   4.206
 8935TIP3    H226770   6.712   1.883   4.223
 8936TIP3   OH226771   1.685   2.343   5.479
 8936TIP3    H126772   1.640   2.291   5.412
 8936TIP3    H226773   1.743   2.281   5.523
 8937TIP3   OH226774   1.328   0.436   0.171
 8937TIP3    H126775   1.381   0.484   0.234
 8937TIP3    H226776   1.243   0.426   0.214
 8938TIP3   OH226777   3.016   3.607   4.038
 8938TIP3    H126778   3.093   3.551   4.042
 8938TIP3    H226779   3.050   3.696   4.052
 8939TIP3   OH226780   0.421   5.989   4.716
 8939TIP3    H126781   0.510   5.963   4.693
 8939TIP3    H226782   0.373   5.906   4.720
 8940TIP3   OH226783   3.809   6.141   0.968
 8940TIP3    H126784   3.775   6.139   1.057
 8940TIP3    H226785   3.821   6.049   0.945
 8941TIP3   OH226786   2.873   2.815   2.291
 8941TIP3    H126787   2.941   2.748   2.297
 8941TIP3    H226788   2.882   2.851   2.203
 8942TIP3   OH226789   0.183   5.228   0.118
 8942TIP3    H126790   0.169   5.302   0.059
 8942TIP3    H226791   0.104   5.175   0.110
 8943TIP3   OH226792   2.949   3.017   5.552
 8943TIP3    H126793   2.947   2.952   5.622
 8943TIP3    H226794   2.877   2.991   5.493
 8944TIP3   OH226795   6.973   3.895   1.757
 8944TIP3    H126796   6.888   3.911   1.715
 8944TIP3    H226797   7.034   3.953   1.711
 8945TIP3   OH226798   4.720   3.534   2.712
 8945TIP3    H126799   4.686   3.529   2.623
 8945TIP3    H226800   4.706   3.446   2.748
 8946TIP3   OH226801   1.681   2.542   4.654
 8946TIP3    H126802   1.677   2.635   4.676
 8946TIP3    H226803   1.665   2.497   4.736
 8947TIP3   OH226804   0.121   2.263   0.875
 8947TIP3    H126805   0.189   2.292   0.935
 8947TIP3    H226806   0.093   2.343   0.830
 8948TIP3   OH226807   3.711   5.581   2.266
 8948TIP3    H126808   3.777   5.622   2.210
 8948TIP3    H226809   3.700   5.493   2.229
 8949TIP3   OH226810   4.148   5.238   4.373
 8949TIP3    H126811   4.056   5.256   4.353
 8949TIP3    H226812   4.147   5.153   4.418
 8950TIP3   OH226813   3.414   3.323   1.418
 8950TIP3    H126814   3.462   3.351   1.496
 8950TIP3    H226815   3.473   3.342   1.345
 8951TIP3   OH226816   0.737   3.180   0.579
 8951TIP3    H126817   0.741   3.147   0.489
 8951TIP3    H226818   0.824   3.217   0.595
 8952TIP3   OH226819   6.537   4.907   3.784
 8952TIP3    H126820   6.588   4.934   3.860
 8952TIP3    H226821   6.458   4.868   3.820
 8953TIP3   OH226822   6.093   1.224   0.145
 8953TIP3    H126823   6.107   1.313   0.110
 8953TIP3    H226824   6.010   1.230   0.192
 8954TIP3   OH226825   3.152   3.956   3.233
 8954TIP3    H126826   3.111   4.042   3.242
 8954TIP3    H226827   3.100   3.899   3.289
 8955TIP3   OH226828   3.299   1.911   0.709
 8955TIP3    H126829   3.367   1.914   0.776
 8955TIP3    H226830   3.291   2.002   0.679
 8956TIP3   OH226831   7.125   0.352   3.647
 8956TIP3    H126832   7.206   0.311   3.679
 8956TIP3    H226833   7.108   0.309   3.563
 8957TIP3   OH226834   5.299   1.279   1.876
 8957TIP3    H126835   5.385   1.271   1.918
 8957TIP3    H226836   5.242   1.314   1.944
 8958TIP3   OH226837   0.223   1.634   1.072
 8958TIP3    H126838   0.291   1.591   1.020
 8958TIP3    H226839   0.200   1.569   1.139
 8959TIP3   OH226840   3.123   6.045   2.596
 8959TIP3    H126841   3.171   6.119   2.634
 8959TIP3    H226842   3.032   6.058   2.623
 8960TIP3   OH226843   7.113   4.023   4.345
 8960TIP3    H126844   7.030   4.067   4.360
 8960TIP3    H226845   7.092   3.951   4.286
 8961TIP3   OH226846   1.530   5.792   5.136
 8961TIP3    H126847   1.531   5.871   5.082
 8961TIP3    H226848   1.622   5.767   5.144
 8962TIP3   OH226849   4.947   4.080   4.186
 8962TIP3    H126850   4.954   4.167   4.226
 8962TIP3    H226851   4.853   4.067   4.173
 8963TIP3   OH226852   2.268   5.193   0.691
 8963TIP3    H126853   2.208   5.259   0.726
 8963TIP3    H226854   2.325   5.171   0.765
 8964TIP3   OH226855   4.755   0.174   2.567
 8964TIP3    H126856   4.787   0.133   2.647
 8964TIP3    H226857   4.684   0.117   2.537
 8965TIP3   OH226858   2.592   6.356   5.855
 8965TIP3    H126859   2.512   6.364   5.804
 8965TIP3    H226860   2.569   6.296   5.927
 8966TIP3   OH226861   4.466   2.361   3.683
 8966TIP3    H126862   4.461   2.414   3.604
 8966TIP3    H226863   4.377   2.362   3.719
 8967TIP3   OH226864   4.852   6.083   1.307
 8967TIP3    H126865   4.791   6.014   1.334
 8967TIP3    H226866   4.884   6.120   1.389
 8968TIP3   OH226867   5.954   3.077   3.195
 8968TIP3    H126868   5.959   3.091   3.290
 8968TIP3    H226869   6.006   3.149   3.158
 8969TIP3   OH226870   3.000   5.382   1.022
 8969TIP3    H126871   3.061   5.423   1.084
 8969TIP3    H226872   2.917   5.380   1.070
 8970TIP3   OH226873   3.940   3.468   3.993
 8970TIP3    H126874   3.931   3.374   3.982
 8970TIP3    H226875   4.035   3.483   3.996
 8971TIP3   OH226876   1.518   3.866   5.864
 8971TIP3    H126877   1.463   3.813   5.807
 8971TIP3    H226878   1.459   3.931   5.901
 8972TIP3   OH226879   2.402   6.206   5.290
 8972TIP3    H126880   2.335   6.138   5.276
 8972TIP3    H226881   2.372   6.254   5.367
 8973TIP3   OH226882   4.908   4.906   5.466
 8973TIP3    H126883   4.836   4.967   5.447
 8973TIP3    H226884   4.925   4.918   5.559
 8974TIP3   OH226885   2.222   2.590   5.465
 8974TIP3    H126886   2.199   2.642   5.543
 8974TIP3    H226887   2.298   2.635   5.428
 8975TIP3   OH226888   1.035   5.114   4.395
 8975TIP3    H126889   1.023   5.031   4.441
 8975TIP3    H226890   0.996   5.179   4.453
 8976TIP3   OH226891   5.868   0.778   5.061
 8976TIP3    H126892   5.890   0.865   5.027
 8976TIP3    H226893   5.903   0.778   5.150
 8977TIP3   OH226894   3.998   1.478   3.297
 8977TIP3    H126895   3.987   1.385   3.277
 8977TIP3    H226896   3.915   1.518   3.274
 8978TIP3   OH226897   6.652   5.376   3.953
 8978TIP3    H126898   6.628   5.436   4.024
 8978TIP3    H226899   6.641   5.428   3.873
 8979TIP3   OH226900   2.734   4.302   0.755
 8979TIP3    H126901   2.818   4.342   0.777
 8979TIP3    H226902   2.732   4.222   0.808
 8980TIP3   OH226903   2.130   2.289   3.961
 8980TIP3    H126904   2.145   2.262   3.870
 8980TIP3    H226905   2.078   2.369   3.954
 8981TIP3   OH226906   5.254   4.371   3.337
 8981TIP3    H126907   5.173   4.325   3.359
 8981TIP3    H226908   5.254   4.375   3.241
 8982TIP3   OH226909   6.428   2.188   3.631
 8982TIP3    H126910   6.379   2.105   3.638
 8982TIP3    H226911   6.501   2.167   3.573
 8983TIP3   OH226912   7.104   2.919   0.245
 8983TIP3    H126913   7.018   2.888   0.275
 8983TIP3    H226914   7.126   2.989   0.306
 8984TIP3   OH226915   2.636   3.325   5.578
 8984TIP3    H126916   2.670   3.406   5.540
 8984TIP3    H226917   2.543   3.342   5.593
 8985TIP3   OH226918   6.523   4.372   1.751
 8985TIP3    H126919   6.565   4.425   1.682
 8985TIP3    H226920   6.529   4.426   1.829
 8986TIP3   OH226921   1.252   2.851   2.296
 8986TIP3    H126922   1.282   2.759   2.298
 8986TIP3    H226923   1.308   2.895   2.360
 8987TIP3   OH226924   6.094   6.816   4.312
 8987TIP3    H126925   6.186   6.810   4.339
 8987TIP3    H226926   6.080   6.738   4.258
 8988TIP3   OH226927   6.832   4.468   3.107
 8988TIP3    H126928   6.860   4.427   3.189
 8988TIP3    H226929   6.841   4.562   3.122
 8989TIP3   OH226930   5.051   2.004   3.601
 8989TIP3    H126931   4.998   2.083   3.589
 8989TIP3    H226932   4.987   1.933   3.606
 8990TIP3   OH226933   5.555   4.416   4.005
 8990TIP3    H126934   5.634   4.370   3.977
 8990TIP3    H226935   5.584   4.474   4.075
 8991TIP3   OH226936   7.142   4.413   4.444
 8991TIP3    H126937   7.048   4.432   4.441
 8991TIP3    H226938   7.160   4.371   4.360
 8992TIP3   OH226939   4.327   4.221   3.107
 8992TIP3    H126940   4.310   4.258   3.194
 8992TIP3    H226941   4.312   4.127   3.118
 8993TIP3   OH226942   3.774   5.311   5.327
 8993TIP3    H126943   3.691   5.273   5.298
 8993TIP3    H226944   3.764   5.323   5.421
 8994TIP3   OH226945   3.551   3.324   2.418
 8994TIP3    H126946   3.460   3.340   2.392
 8994TIP3    H226947   3.547   3.240   2.465
 8995TIP3   OH226948   1.560   3.358   2.003
 8995TIP3    H126949   1.486   3.359   1.942
 8995TIP3    H226950   1.534   3.297   2.071
 8996TIP3   OH226951   4.549   4.215   3.796
 8996TIP3    H126952   4.463   4.182   3.771
 8996TIP3    H226953   4.598   4.137   3.822
 8997TIP3   OH226954   2.890   1.958   3.576
 8997TIP3    H126955   2.985   1.968   3.579
 8997TIP3    H226956   2.857   2.025   3.637
 8998TIP3   OH226957   0.659   5.188   2.867
 8998TIP3    H126958   0.719   5.209   2.938
 8998TIP3    H226959   0.656   5.267   2.813
 8999TIP3   OH226960   6.029   0.283   0.293
 8999TIP3    H126961   6.007   0.198   0.332
 8999TIP3    H226962   6.068   0.333   0.364
 9000TIP3   OH226963   5.456   6.137   5.565
 9000TIP3    H126964   5.522   6.205   5.579
 9000TIP3    H226965   5.483   6.065   5.622
 9001TIP3   OH226966   5.370   4.861   3.855
 9001TIP3    H126967   5.400   4.926   3.791
 9001TIP3    H226968   5.439   4.860   3.921
 9002TIP3   OH226969   4.873   0.845   4.754
 9002TIP3    H126970   4.918   0.794   4.687
 9002TIP3    H226971   4.943   0.894   4.798
 9003TIP3   OH226972   0.099   0.451   5.689
 9003TIP3    H126973   0.147   0.452   5.772
 9003TIP3    H226974   0.152   0.398   5.630
 9004TIP3   OH226975   2.124   4.643   4.920
 9004TIP3    H126976   2.105   4.552   4.896
 9004TIP3    H226977   2.162   4.681   4.841
 9005TIP3   OH226978   3.699   0.458   1.145
 9005TIP3    H126979   3.777   0.511   1.160
 9005TIP3    H226980   3.685   0.413   1.228
 9006TIP3   OH226981   1.044   3.166   0.279
 9006TIP3    H126982   1.011   3.237   0.334
 9006TIP3    H226983   1.070   3.098   0.342
 9007TIP3   OH226984   0.264   1.080   3.233
 9007TIP3    H126985   0.239   1.019   3.302
 9007TIP3    H226986   0.340   1.127   3.268
 9008TIP3   OH226987   1.863   0.234   0.507
 9008TIP3    H126988   1.924   0.205   0.574
 9008TIP3    H226989   1.779   0.244   0.552
 9009TIP3   OH226990   4.456   0.915   2.970
 9009TIP3    H126991   4.425   0.978   3.035
 9009TIP3    H226992   4.551   0.915   2.981
 9010TIP3   OH226993   6.084   3.675   5.564
 9010TIP3    H126994   6.049   3.633   5.642
 9010TIP3    H226995   6.174   3.643   5.557
 9011TIP3   OH226996   6.485   4.099   5.467
 9011TIP3    H126997   6.559   4.068   5.519
 9011TIP3    H226998   6.522   4.167   5.411
 9012TIP3   OH226999   4.670   0.367   4.077
 9012TIP3    H127000   4.641   0.452   4.110
 9012TIP3    H227001   4.761   0.382   4.050
 9013TIP3   OH227002   5.712   2.069   5.527
 9013TIP3    H127003   5.652   2.020   5.471
 9013TIP3    H227004   5.735   2.146   5.475
 9014TIP3   OH227005   1.018   0.113   4.865
 9014TIP3    H127006   0.972   0.035   4.897
 9014TIP3    H227007   0.952   0.182   4.865
 9015TIP3   OH227008   6.927   6.014   2.463
 9015TIP3    H127009   6.939   5.967   2.381
 9015TIP3    H227010   6.901   6.102   2.437
 9016TIP3   OH227011   2.825   4.467   2.656
 9016TIP3    H127012   2.782   4.382   2.654
 9016TIP3    H227013   2.754   4.530   2.647
 9017TIP3   OH227014   6.974   0.860   2.268
 9017TIP3    H127015   7.023   0.941   2.258
 9017TIP3    H227016   6.891   0.886   2.308
 9018TIP3   OH227017   3.921   3.919   4.539
 9018TIP3    H127018   3.936   3.844   4.598
 9018TIP3    H227019   3.918   3.995   4.598
 9019TIP3   OH227020   1.093   6.305   0.018
 9019TIP3    H127021   1.049   6.300  -0.067
 9019TIP3    H227022   1.029   6.271   0.080
 9020TIP3   OH227023   4.701   5.315   0.624
 9020TIP3    H127024   4.625   5.267   0.657
 9020TIP3    H227025   4.761   5.318   0.698
 9021TIP3   OH227026   2.229   5.603   1.931
 9021TIP3    H127027   2.284   5.533   1.965
 9021TIP3    H227028   2.217   5.662   2.006
 9022TIP3   OH227029   0.445   4.123   2.132
 9022TIP3    H127030   0.518   4.129   2.194
 9022TIP3    H227031   0.379   4.183   2.168
 9023TIP3   OH227032   1.099   5.652   3.504
 9023TIP3    H127033   1.189   5.621   3.490
 9023TIP3    H227034   1.107   5.747   3.512
 9024TIP3   OH227035   3.866   1.878   3.366
 9024TIP3    H127036   3.881   1.862   3.273
 9024TIP3    H227037   3.953   1.887   3.404
 9025TIP3   OH227038   2.275   0.767   5.039
 9025TIP3    H127039   2.333   0.742   4.967
 9025TIP3    H227040   2.291   0.860   5.051
 9026TIP3   OH227041   2.154   1.069   0.141
 9026TIP3    H127042   2.168   0.983   0.102
 9026TIP3    H227043   2.205   1.067   0.222
 9027TIP3   OH227044   5.760   5.767   0.120
 9027TIP3    H127045   5.825   5.822   0.076
 9027TIP3    H227046   5.801   5.681   0.125
 9028TIP3   OH227047   1.105   0.344   4.308
 9028TIP3    H127048   1.186   0.312   4.347
 9028TIP3    H227049   1.087   0.426   4.353
 9029TIP3   OH227050   3.947   2.798   1.591
 9029TIP3    H127051   3.914   2.888   1.587
 9029TIP3    H227052   4.029   2.805   1.641
 9030TIP3   OH227053   5.208   5.855   0.889
 9030TIP3    H127054   5.237   5.789   0.951
 9030TIP3    H227055   5.127   5.819   0.851
 9031TIP3   OH227056   7.131   3.627   1.520
 9031TIP3    H127057   7.210   3.672   1.490
 9031TIP3    H227058   7.064   3.695   1.520
 9032TIP3   OH227059   2.727   0.194   3.951
 9032TIP3    H127060   2.667   0.169   3.881
 9032TIP3    H227061   2.743   0.287   3.937
 9033TIP3   OH227062   3.869   2.471   3.499
 9033TIP3    H127063   3.833   2.559   3.502
 9033TIP3    H227064   3.963   2.483   3.516
 9034TIP3   OH227065   2.340   5.365   5.710
 9034TIP3    H127066   2.373   5.275   5.711
 9034TIP3    H227067   2.259   5.361   5.659
 9035TIP3   OH227068   1.305   2.895   4.734
 9035TIP3    H127069   1.246   2.893   4.658
 9035TIP3    H227070   1.377   2.950   4.707
 9036TIP3   OH227071   1.878   5.646   3.567
 9036TIP3    H127072   1.936   5.596   3.509
 9036TIP3    H227073   1.937   5.680   3.635
 9037TIP3   OH227074   3.533   1.379   0.317
 9037TIP3    H127075   3.595   1.425   0.374
 9037TIP3    H227076   3.447   1.396   0.356
 9038TIP3   OH227077   2.487   2.360   1.410
 9038TIP3    H127078   2.484   2.451   1.439
 9038TIP3    H227079   2.395   2.333   1.406
 9039TIP3   OH227080   4.661   1.641   0.566
 9039TIP3    H127081   4.729   1.688   0.615
 9039TIP3    H227082   4.579   1.666   0.610
 9040TIP3   OH227083   4.507   4.044   4.325
 9040TIP3    H127084   4.429   3.991   4.343
 9040TIP3    H227085   4.488   4.129   4.364
 9041TIP3   OH227086   5.500   1.892   3.781
 9041TIP3    H127087   5.551   1.913   3.860
 9041TIP3    H227088   5.414   1.867   3.814
 9042TIP3   OH227089   6.619   3.264   0.761
 9042TIP3    H127090   6.563   3.205   0.711
 9042TIP3    H227091   6.569   3.345   0.768
 9043TIP3   OH227092   2.540   2.082   5.481
 9043TIP3    H127093   2.597   2.012   5.449
 9043TIP3    H227094   2.509   2.126   5.402
 9044TIP3   OH227095   3.832   6.606   5.604
 9044TIP3    H127096   3.907   6.560   5.565
 9044TIP3    H227097   3.771   6.536   5.629
 9045TIP3   OH227098   4.927   4.014   1.741
 9045TIP3    H127099   4.937   4.099   1.697
 9045TIP3    H227100   4.920   3.951   1.670
 9046TIP3   OH227101   1.166   1.428   2.327
 9046TIP3    H127102   1.202   1.447   2.241
 9046TIP3    H227103   1.173   1.511   2.375
 9047TIP3   OH227104   0.420   2.816   0.626
 9047TIP3    H127105   0.477   2.872   0.680
 9047TIP3    H227106   0.479   2.784   0.557
 9048TIP3   OH227107   3.150   1.637   2.862
 9048TIP3    H127108   3.183   1.548   2.872
 9048TIP3    H227109   3.061   1.633   2.899
 9049TIP3   OH227110   1.329   5.742   1.856
 9049TIP3    H127111   1.294   5.711   1.773
 9049TIP3    H227112   1.330   5.664   1.912
 9050TIP3   OH227113   6.716   4.015   3.664
 9050TIP3    H127114   6.641   3.960   3.640
 9050TIP3    H227115   6.752   3.973   3.742
 9051TIP3   OH227116   0.561   2.528   0.178
 9051TIP3    H127117   0.476   2.496   0.208
 9051TIP3    H227118   0.541   2.577   0.098
 9052TIP3   OH227119   3.772   2.458   5.007
 9052TIP3    H127120   3.690   2.493   4.971
 9052TIP3    H227121   3.744   2.399   5.077
 9053TIP3   OH227122   1.498   3.536   3.297
 9053TIP3    H127123   1.468   3.589   3.370
 9053TIP3    H227124   1.493   3.594   3.221
 9054TIP3   OH227125   4.626   2.390   0.680
 9054TIP3    H127126   4.598   2.480   0.661
 9054TIP3    H227127   4.585   2.337   0.612
 9055TIP3   OH227128   0.775   1.327   4.431
 9055TIP3    H127129   0.815   1.247   4.396
 9055TIP3    H227130   0.685   1.302   4.451
 9056TIP3   OH227131   7.001   0.133   3.145
 9056TIP3    H127132   6.907   0.125   3.131
 9056TIP3    H227133   7.038   0.055   3.103
 9057TIP3   OH227134   3.742   0.469   2.294
 9057TIP3    H127135   3.826   0.516   2.294
 9057TIP3    H227136   3.747   0.411   2.218
 9058TIP3   OH227137   3.808   5.021   5.430
 9058TIP3    H127138   3.902   5.014   5.413
 9058TIP3    H227139   3.796   5.108   5.468
 9059TIP3   OH227140   3.531   1.953   2.449
 9059TIP3    H127141   3.511   2.015   2.519
 9059TIP3    H227142   3.479   1.982   2.375
 9060TIP3   OH227143   5.909   6.395   5.308
 9060TIP3    H127144   5.970   6.321   5.307
 9060TIP3    H227145   5.954   6.464   5.259
 9061TIP3   OH227146   4.718   5.702   0.808
 9061TIP3    H127147   4.631   5.723   0.773
 9061TIP3    H227148   4.757   5.788   0.828
 9062TIP3   OH227149   2.653   3.916   2.617
 9062TIP3    H127150   2.660   3.822   2.603
 9062TIP3    H227151   2.707   3.955   2.548
 9063TIP3   OH227152   0.368   3.030   3.811
 9063TIP3    H127153   0.381   2.937   3.792
 9063TIP3    H227154   0.296   3.057   3.755
 9064TIP3   OH227155   4.451   2.040   5.227
 9064TIP3    H127156   4.496   1.981   5.288
 9064TIP3    H227157   4.518   2.103   5.201
 9065TIP3   OH227158   0.802   4.141   4.004
 9065TIP3    H127159   0.747   4.192   3.943
 9065TIP3    H227160   0.746   4.128   4.080
 9066TIP3   OH227161   3.681   5.711   5.504
 9066TIP3    H127162   3.755   5.707   5.565
 9066TIP3    H227163   3.639   5.625   5.511
 9067TIP3   OH227164   2.374   0.081   5.600
 9067TIP3    H127165   2.329   0.111   5.521
 9067TIP3    H227166   2.466   0.081   5.576
 9068TIP3   OH227167   5.611   5.587   3.415
 9068TIP3    H127168   5.612   5.492   3.419
 9068TIP3    H227169   5.672   5.615   3.483
 9069TIP3   OH227170   2.257   2.319   2.713
 9069TIP3    H127171   2.227   2.410   2.722
 9069TIP3    H227172   2.243   2.298   2.621
 9070TIP3   OH227173   1.867   1.105   2.178
 9070TIP3    H127174   1.869   1.200   2.169
 9070TIP3    H227175   1.789   1.088   2.231
 9071TIP3   OH227176   6.122   4.091   2.128
 9071TIP3    H127177   6.056   4.143   2.172
 9071TIP3    H227178   6.119   4.119   2.037
 9072TIP3   OH227179   0.259   6.139   0.662
 9072TIP3    H127180   0.179   6.119   0.710
 9072TIP3    H227181   0.288   6.223   0.697
 9073TIP3   OH227182   0.656   3.523   0.491
 9073TIP3    H127183   0.700   3.594   0.444
 9073TIP3    H227184   0.708   3.510   0.570
 9074TIP3   OH227185   4.533   4.681   1.299
 9074TIP3    H127186   4.602   4.615   1.310
 9074TIP3    H227187   4.474   4.667   1.373
 9075TIP3   OH227188   4.871   1.581   1.232
 9075TIP3    H127189   4.835   1.604   1.146
 9075TIP3    H227190   4.911   1.661   1.264
 9076TIP3   OH227191   0.133   4.769   4.636
 9076TIP3    H127192   0.197   4.706   4.670
 9076TIP3    H227193   0.123   4.834   4.705
 9077TIP3   OH227194   7.022   4.428   0.721
 9077TIP3    H127195   6.996   4.375   0.646
 9077TIP3    H227196   7.067   4.367   0.780
 9078TIP3   OH227197   3.860   4.587   1.035
 9078TIP3    H127198   3.779   4.541   1.012
 9078TIP3    H227199   3.860   4.591   1.130
 9079TIP3   OH227200   2.605   1.502   5.221
 9079TIP3    H127201   2.658   1.582   5.218
 9079TIP3    H227202   2.520   1.530   5.255
 9080TIP3   OH227203   1.916   1.290   0.358
 9080TIP3    H127204   1.917   1.352   0.285
 9080TIP3    H227205   1.988   1.318   0.414
 9081TIP3   OH227206   4.121   2.838   4.887
 9081TIP3    H127207   4.173   2.758   4.883
 9081TIP3    H227208   4.031   2.807   4.902
 9082TIP3   OH227209   4.548   2.002   2.518
 9082TIP3    H127210   4.614   2.061   2.482
 9082TIP3    H227211   4.545   1.929   2.457
 9083TIP3   OH227212   5.624   2.180   4.387
 9083TIP3    H127213   5.655   2.097   4.423
 9083TIP3    H227214   5.565   2.155   4.316
 9084TIP3   OH227215   1.251   0.390   5.405
 9084TIP3    H127216   1.342   0.374   5.380
 9084TIP3    H227217   1.257   0.426   5.494
 9085TIP3   OH227218   2.009   1.721   1.799
 9085TIP3    H127219   2.021   1.629   1.775
 9085TIP3    H227220   1.923   1.743   1.762
 9086TIP3   OH227221   5.085   0.937   3.392
 9086TIP3    H127222   5.001   0.915   3.354
 9086TIP3    H227223   5.132   0.981   3.321
 9087TIP3   OH227224   2.729   3.387   5.881
 9087TIP3    H127225   2.732   3.476   5.845
 9087TIP3    H227226   2.722   3.330   5.804
 9088TIP3   OH227227   4.163   1.835   2.537
 9088TIP3    H127228   4.111   1.867   2.464
 9088TIP3    H227229   4.120   1.870   2.615
 9089TIP3   OH227230   5.092   3.364   4.481
 9089TIP3    H127231   5.151   3.352   4.555
 9089TIP3    H227232   5.109   3.453   4.451
 9090TIP3   OH227233   4.045   5.811   1.897
 9090TIP3    H127234   3.989   5.865   1.842
 9090TIP3    H227235   4.080   5.744   1.839
 9091TIP3   OH227236   1.562   4.478   0.608
 9091TIP3    H127237   1.580   4.444   0.695
 9091TIP3    H227238   1.476   4.443   0.586
 9092TIP3   OH227239   0.734   6.383   1.313
 9092TIP3    H127240   0.715   6.374   1.406
 9092TIP3    H227241   0.715   6.475   1.293
 9093TIP3   OH227242   5.783   0.639   5.712
 9093TIP3    H127243   5.835   0.559   5.716
 9093TIP3    H227244   5.816   0.692   5.784
 9094TIP3   OH227245   3.151   6.755   1.525
 9094TIP3    H127246   3.074   6.723   1.479
 9094TIP3    H227247   3.162   6.845   1.493
 9095TIP3   OH227248   1.945   1.178   2.613
 9095TIP3    H127249   1.951   1.271   2.594
 9095TIP3    H227250   2.024   1.140   2.575
 9096TIP3   OH227251   3.343   5.552   5.350
 9096TIP3    H127252   3.307   5.522   5.267
 9096TIP3    H227253   3.343   5.647   5.344
 9097TIP3   OH227254   0.580   4.038   0.433
 9097TIP3    H127255   0.533   4.121   0.428
 9097TIP3    H227256   0.652   4.048   0.371
 9098TIP3   OH227257   0.228   5.682   0.564
 9098TIP3    H127258   0.198   5.654   0.650
 9098TIP3    H227259   0.287   5.755   0.581
 9099TIP3   OH227260   7.094   1.113   0.793
 9099TIP3    H127261   7.168   1.166   0.764
 9099TIP3    H227262   7.102   1.031   0.744
 9100TIP3   OH227263   5.490   2.140   4.163
 9100TIP3    H127264   5.499   2.046   4.150
 9100TIP3    H227265   5.448   2.172   4.083
 9101TIP3   OH227266   4.668   5.450   2.847
 9101TIP3    H127267   4.762   5.468   2.841
 9101TIP3    H227268   4.643   5.429   2.757
 9102TIP3   OH227269   4.725   1.776   2.896
 9102TIP3    H127270   4.818   1.794   2.911
 9102TIP3    H227271   4.705   1.822   2.815
 9103TIP3   OH227272   6.348   6.391   0.434
 9103TIP3    H127273   6.399   6.324   0.389
 9103TIP3    H227274   6.385   6.474   0.404
 9104TIP3   OH227275   1.319   3.863   3.255
 9104TIP3    H127276   1.332   3.825   3.342
 9104TIP3    H227277   1.406   3.890   3.226
 9105TIP3   OH227278   3.421   2.257   1.489
 9105TIP3    H127279   3.447   2.164   1.489
 9105TIP3    H227280   3.360   2.265   1.562
 9106TIP3   OH227281   6.140   1.179   0.792
 9106TIP3    H127282   6.177   1.267   0.784
 9106TIP3    H227283   6.213   1.124   0.820
 9107TIP3   OH227284   6.544   3.801   5.318
 9107TIP3    H127285   6.569   3.777   5.229
 9107TIP3    H227286   6.618   3.773   5.372
 9108TIP3   OH227287   0.918  -0.011   0.050
 9108TIP3    H127288   0.851  -0.039  -0.012
 9108TIP3    H227289   0.870   0.015   0.128
 9109TIP3   OH227290   0.444   2.089   1.664
 9109TIP3    H127291   0.376   2.151   1.638
 9109TIP3    H227292   0.500   2.138   1.724
 9110TIP3   OH227293   1.797   5.388   1.769
 9110TIP3    H127294   1.741   5.466   1.778
 9110TIP3    H227295   1.807   5.356   1.859
 9111TIP3   OH227296   6.484   6.787   3.886
 9111TIP3    H127297   6.486   6.766   3.793
 9111TIP3    H227298   6.502   6.881   3.891
 9112TIP3   OH227299   3.891   4.800   3.995
 9112TIP3    H127300   3.943   4.749   4.056
 9112TIP3    H227301   3.864   4.738   3.927
 9113TIP3   OH227302   3.660   5.175   2.893
 9113TIP3    H127303   3.654   5.145   2.984
 9113TIP3    H227304   3.590   5.129   2.848
 9114TIP3   OH227305   1.385   1.276   1.263
 9114TIP3    H127306   1.446   1.268   1.337
 9114TIP3    H227307   1.429   1.334   1.201
 9115TIP3   OH227308   5.391   0.585   5.272
 9115TIP3    H127309   5.460   0.550   5.328
 9115TIP3    H227310   5.437   0.616   5.194
 9116TIP3   OH227311   4.975   6.379   4.951
 9116TIP3    H127312   4.935   6.454   4.907
 9116TIP3    H227313   4.902   6.320   4.969
 9117TIP3   OH227314   3.774   0.416   5.651
 9117TIP3    H127315   3.715   0.467   5.596
 9117TIP3    H227316   3.756   0.325   5.629
 9118TIP3   OH227317   6.238   5.833   2.213
 9118TIP3    H127318   6.316   5.867   2.255
 9118TIP3    H227319   6.178   5.812   2.285
 9119TIP3   OH227320   1.713   5.088   0.797
 9119TIP3    H127321   1.799   5.096   0.839
 9119TIP3    H227322   1.724   5.016   0.734
 9120TIP3   OH227323   3.290   0.308   2.170
 9120TIP3    H127324   3.297   0.275   2.260
 9120TIP3    H227325   3.340   0.389   2.170
 9121TIP3   OH227326   1.394   5.638   3.508
 9121TIP3    H127327   1.423   5.707   3.448
 9121TIP3    H227328   1.473   5.588   3.527
 9122TIP3   OH227329   0.040   4.989   4.847
 9122TIP3    H127330   0.126   5.025   4.824
 9122TIP3    H227331  -0.022   5.051   4.808
 9123TIP3   OH227332   4.005   6.193   0.372
 9123TIP3    H127333   3.943   6.120   0.371
 9123TIP3    H227334   4.089   6.153   0.349
 9124TIP3   OH227335   3.200   0.072   2.660
 9124TIP3    H127336   3.141   0.000   2.637
 9124TIP3    H227337   3.243   0.044   2.740
 9125TIP3   OH227338   6.570   1.220   2.227
 9125TIP3    H127339   6.646   1.166   2.206
 9125TIP3    H227340   6.544   1.258   2.143
 9126TIP3   OH227341   5.218   5.439   3.776
 9126TIP3    H127342   5.127   5.427   3.805
 9126TIP3    H227343   5.241   5.526   3.807
 9127TIP3   OH227344   4.139   2.601   2.477
 9127TIP3    H127345   4.066   2.592   2.416
 9127TIP3    H227346   4.102   2.582   2.563
 9128TIP3   OH227347   2.079   1.471   3.011
 9128TIP3    H127348   2.174   1.477   3.003
 9128TIP3    H227349   2.053   1.552   3.055
 9129TIP3   OH227350   0.797   6.042   1.953
 9129TIP3    H127351   0.846   5.964   1.977
 9129TIP3    H227352   0.819   6.058   1.862
 9130TIP3   OH227353   1.788   6.775   4.571
 9130TIP3    H127354   1.835   6.705   4.618
 9130TIP3    H227355   1.833   6.780   4.486
 9131TIP3   OH227356   2.788   5.598   0.600
 9131TIP3    H127357   2.749   5.680   0.570
 9131TIP3    H227358   2.781   5.602   0.696
 9132TIP3   OH227359   2.518   6.485   4.243
 9132TIP3    H127360   2.495   6.546   4.312
 9132TIP3    H227361   2.592   6.526   4.198
 9133TIP3   OH227362   1.891   4.604   1.227
 9133TIP3    H127363   1.889   4.599   1.322
 9133TIP3    H227364   1.896   4.513   1.198
 9134TIP3   OH227365   4.224   2.614   2.179
 9134TIP3    H127366   4.299   2.672   2.166
 9134TIP3    H227367   4.227   2.554   2.104
 9135TIP3   OH227368   5.543   6.224   3.663
 9135TIP3    H127369   5.560   6.144   3.714
 9135TIP3    H227370   5.522   6.193   3.575
 9136TIP3   OH227371   0.955   6.098   4.597
 9136TIP3    H127372   0.994   6.021   4.556
 9136TIP3    H227373   0.957   6.079   4.691
 9137TIP3   OH227374   2.769   6.745   4.148
 9137TIP3    H127375   2.860   6.733   4.120
 9137TIP3    H227376   2.771   6.730   4.242
 9138TIP3   OH227377   3.582   0.808   4.485
 9138TIP3    H127378   3.521   0.870   4.445
 9138TIP3    H227379   3.648   0.863   4.526
 9139TIP3   OH227380   4.956   3.691   0.275
 9139TIP3    H127381   5.004   3.773   0.263
 9139TIP3    H227382   5.000   3.649   0.349
 9140TIP3   OH227383   1.999   2.547   0.017
 9140TIP3    H127384   2.076   2.518   0.066
 9140TIP3    H227385   1.925   2.527   0.075
 9141TIP3   OH227386   3.268   1.606   1.957
 9141TIP3    H127387   3.348   1.575   1.915
 9141TIP3    H227388   3.200   1.548   1.923
 9142TIP3   OH227389   3.673   2.814   1.373
 9142TIP3    H127390   3.745   2.751   1.371
 9142TIP3    H227391   3.710   2.894   1.336
 9143TIP3   OH227392   2.123   4.479   2.600
 9143TIP3    H127393   2.189   4.502   2.534
 9143TIP3    H227394   2.045   4.458   2.548
 9144TIP3   OH227395   4.649   5.459   1.762
 9144TIP3    H127396   4.685   5.372   1.778
 9144TIP3    H227397   4.726   5.517   1.760
 9145TIP3   OH227398   1.120   3.335   3.391
 9145TIP3    H127399   1.147   3.367   3.305
 9145TIP3    H227400   1.074   3.409   3.431
 9146TIP3   OH227401   2.263   4.618   5.168
 9146TIP3    H127402   2.250   4.525   5.186
 9146TIP3    H227403   2.245   4.628   5.075
 9147TIP3   OH227404   3.278   1.120   3.193
 9147TIP3    H127405   3.259   1.102   3.101
 9147TIP3    H227406   3.371   1.100   3.202
 9148TIP3   OH227407   4.014   4.491   4.934
 9148TIP3    H127408   4.099   4.533   4.923
 9148TIP3    H227409   3.960   4.558   4.977
 9149TIP3   OH227410   5.258   4.433   2.539
 9149TIP3    H127411   5.314   4.446   2.615
 9149TIP3    H227412   5.189   4.498   2.549
 9150TIP3   OH227413   3.229   0.204   1.937
 9150TIP3    H127414   3.254   0.246   2.020
 9150TIP3    H227415   3.177   0.128   1.963
 9151TIP3   OH227416   0.789   5.814   0.445
 9151TIP3    H127417   0.827   5.737   0.402
 9151TIP3    H227418   0.863   5.875   0.453
 9152TIP3   OH227419   5.650   6.365   2.659
 9152TIP3    H127420   5.683   6.448   2.694
 9152TIP3    H227421   5.568   6.388   2.616
 9153TIP3   OH227422   2.859   2.404   3.004
 9153TIP3    H127423   2.875   2.459   3.081
 9153TIP3    H227424   2.797   2.454   2.951
 9154TIP3   OH227425   3.738   3.095   0.677
 9154TIP3    H127426   3.671   3.159   0.701
 9154TIP3    H227427   3.706   3.055   0.596
 9155TIP3   OH227428   4.227   0.574   4.774
 9155TIP3    H127429   4.319   0.560   4.751
 9155TIP3    H227430   4.223   0.559   4.868
 9156TIP3   OH227431   0.150   3.952   4.065
 9156TIP3    H127432   0.072   3.995   4.031
 9156TIP3    H227433   0.159   3.985   4.155
 9157TIP3   OH227434   4.283   1.603   5.253
 9157TIP3    H127435   4.371   1.622   5.220
 9157TIP3    H227436   4.227   1.668   5.212
 9158TIP3   OH227437   4.296   6.355   5.719
 9158TIP3    H127438   4.232   6.408   5.767
 9158TIP3    H227439   4.272   6.367   5.627
 9159TIP3   OH227440   4.603   1.879   0.374
 9159TIP3    H127441   4.596   1.786   0.397
 9159TIP3    H227442   4.636   1.878   0.284
 9160TIP3   OH227443   0.598   2.984   0.194
 9160TIP3    H127444   0.680   2.969   0.148
 9160TIP3    H227445   0.532   2.941   0.141
 9161TIP3   OH227446   5.353   3.060   5.010
 9161TIP3    H127447   5.391   2.974   4.997
 9161TIP3    H227448   5.259   3.048   4.994
 9162TIP3   OH227449   6.379   2.015   4.273
 9162TIP3    H127450   6.323   1.951   4.316
 9162TIP3    H227451   6.380   1.989   4.181
 9163TIP3   OH227452   4.202   0.451   5.025
 9163TIP3    H127453   4.234   0.532   5.064
 9163TIP3    H227454   4.118   0.434   5.068
 9164TIP3   OH227455   0.551   0.166   1.632
 9164TIP3    H127456   0.499   0.244   1.611
 9164TIP3    H227457   0.498   0.118   1.695
 9165TIP3   OH227458   2.893   0.228   2.326
 9165TIP3    H127459   2.801   0.232   2.301
 9165TIP3    H227460   2.936   0.292   2.270
 9166TIP3   OH227461   6.852   5.298   5.702
 9166TIP3    H127462   6.884   5.263   5.785
 9166TIP3    H227463   6.916   5.366   5.679
 9167TIP3   OH227464   0.118   1.867   3.962
 9167TIP3    H127465   0.174   1.857   3.885
 9167TIP3    H227466   0.072   1.784   3.970
 9168TIP3   OH227467   2.645   5.978   5.461
 9168TIP3    H127468   2.587   5.904   5.444
 9168TIP3    H227469   2.716   5.941   5.513
 9169TIP3   OH227470   4.573   3.462   3.873
 9169TIP3    H127471   4.567   3.476   3.778
 9169TIP3    H227472   4.488   3.423   3.897
 9170TIP3   OH227473   2.482   1.404   3.219
 9170TIP3    H127474   2.541   1.330   3.234
 9170TIP3    H227475   2.516   1.474   3.276
 9171TIP3   OH227476   6.926   3.115   4.710
 9171TIP3    H127477   6.852   3.060   4.684
 9171TIP3    H227478   6.978   3.061   4.769
 9172TIP3   OH227479   7.030   3.089   0.840
 9172TIP3    H127480   6.995   3.029   0.906
 9172TIP3    H227481   7.109   3.046   0.807
 9173TIP3   OH227482   0.374   0.507   5.005
 9173TIP3    H127483   0.406   0.596   4.995
 9173TIP3    H227484   0.331   0.487   4.922
 9174TIP3   OH227485   0.155   0.858   1.205
 9174TIP3    H127486   0.197   0.942   1.221
 9174TIP3    H227487   0.159   0.846   1.110
 9175TIP3   OH227488   3.397   2.697   5.223
 9175TIP3    H127489   3.409   2.776   5.276
 9175TIP3    H227490   3.307   2.704   5.190
 9176TIP3   OH227491   3.190   4.714   1.607
 9176TIP3    H127492   3.118   4.656   1.585
 9176TIP3    H227493   3.182   4.727   1.702
 9177TIP3   OH227494   0.234   4.310   3.519
 9177TIP3    H127495   0.197   4.356   3.444
 9177TIP3    H227496   0.189   4.347   3.595
 9178TIP3   OH227497   2.598   5.730   4.311
 9178TIP3    H127498   2.536   5.767   4.374
 9178TIP3    H227499   2.668   5.694   4.365
 9179TIP3   OH227500   7.150   6.798   1.886
 9179TIP3    H127501   7.224   6.812   1.826
 9179TIP3    H227502   7.191   6.787   1.972
 9180TIP3   OH227503   4.459   2.383   2.781
 9180TIP3    H127504   4.434   2.291   2.774
 9180TIP3    H227505   4.488   2.393   2.872
 9181TIP3   OH227506   0.366   2.229   2.288
 9181TIP3    H127507   0.422   2.220   2.366
 9181TIP3    H227508   0.390   2.315   2.253
 9182TIP3   OH227509   5.712   6.316   5.790
 9182TIP3    H127510   5.680   6.386   5.846
 9182TIP3    H227511   5.745   6.361   5.712
 9183TIP3   OH227512   3.641   4.258   5.897
 9183TIP3    H127513   3.684   4.219   5.820
 9183TIP3    H227514   3.707   4.318   5.932
 9184TIP3   OH227515   1.659   4.403   2.733
 9184TIP3    H127516   1.736   4.449   2.766
 9184TIP3    H227517   1.631   4.454   2.657
 9185TIP3   OH227518   3.124   3.041   1.849
 9185TIP3    H127519   3.188   3.084   1.906
 9185TIP3    H227520   3.131   3.090   1.766
 9186TIP3   OH227521   2.783   3.817   3.014
 9186TIP3    H127522   2.802   3.763   2.938
 9186TIP3    H227523   2.825   3.772   3.087
 9187TIP3   OH227524   2.013   0.791   1.981
 9187TIP3    H127525   2.064   0.852   2.034
 9187TIP3    H227526   2.019   0.827   1.892
 9188TIP3   OH227527   1.794   1.226   1.789
 9188TIP3    H127528   1.792   1.317   1.819
 9188TIP3    H227529   1.786   1.174   1.869
 9189TIP3   OH227530   1.955   3.352   4.099
 9189TIP3    H127531   1.981   3.405   4.174
 9189TIP3    H227532   1.869   3.317   4.123
 9190TIP3   OH227533   3.693   1.762   4.838
 9190TIP3    H127534   3.648   1.684   4.870
 9190TIP3    H227535   3.627   1.831   4.839
 9191TIP3   OH227536   4.438   0.134   5.200
 9191TIP3    H127537   4.478   0.193   5.135
 9191TIP3    H227538   4.475   0.162   5.284
 9192TIP3   OH227539   4.742   5.279   3.995
 9192TIP3    H127540   4.726   5.321   4.079
 9192TIP3    H227541   4.777   5.193   4.017
 9193TIP3   OH227542   2.116   5.525   3.482
 9193TIP3    H127543   2.171   5.602   3.470
 9193TIP3    H227544   2.113   5.482   3.396
 9194TIP3   OH227545   0.274   6.793   2.362
 9194TIP3    H127546   0.301   6.802   2.453
 9194TIP3    H227547   0.211   6.864   2.349
 9195TIP3   OH227548   7.049   0.270   1.805
 9195TIP3    H127549   7.042   0.364   1.785
 9195TIP3    H227550   7.042   0.265   1.900
 9196TIP3   OH227551   6.494   5.394   2.937
 9196TIP3    H127552   6.411   5.399   2.985
 9196TIP3    H227553   6.531   5.482   2.944
 9197TIP3   OH227554   5.576   0.722   1.968
 9197TIP3    H127555   5.669   0.729   1.991
 9197TIP3    H227556   5.576   0.713   1.873
 9198TIP3   OH227557   1.457   4.184   4.842
 9198TIP3    H127558   1.370   4.178   4.802
 9198TIP3    H227559   1.502   4.251   4.791
 9199TIP3   OH227560   0.256   1.539   0.376
 9199TIP3    H127561   0.335   1.578   0.337
 9199TIP3    H227562   0.267   1.445   0.362
 9200TIP3   OH227563   4.765   4.434   0.689
 9200TIP3    H127564   4.728   4.354   0.652
 9200TIP3    H227565   4.781   4.413   0.781
 9201TIP3   OH227566   2.309   0.722   2.625
 9201TIP3    H127567   2.294   0.767   2.708
 9201TIP3    H227568   2.227   0.676   2.607
 9202TIP3   OH227569   6.546   6.435   3.535
 9202TIP3    H127570   6.561   6.405   3.445
 9202TIP3    H227571   6.525   6.355   3.584
 9203TIP3   OH227572   3.743   4.383   2.898
 9203TIP3    H127573   3.761   4.355   2.987
 9203TIP3    H227574   3.726   4.302   2.850
 9204TIP3   OH227575   7.041   1.060   1.082
 9204TIP3    H127576   6.960   1.112   1.080
 9204TIP3    H227577   7.080   1.072   0.996
 9205TIP3   OH227578   4.056   6.534   3.472
 9205TIP3    H127579   3.972   6.528   3.428
 9205TIP3    H227580   4.037   6.576   3.556
 9206TIP3   OH227581   2.351   2.725   3.686
 9206TIP3    H127582   2.436   2.761   3.709
 9206TIP3    H227583   2.294   2.802   3.678
 9207TIP3   OH227584   1.806   3.412   5.484
 9207TIP3    H127585   1.741   3.447   5.423
 9207TIP3    H227586   1.756   3.391   5.563
 9208TIP3   OH227587   7.158   4.564   4.674
 9208TIP3    H127588   7.162   4.505   4.599
 9208TIP3    H227589   7.233   4.623   4.663
 9209TIP3   OH227590   1.495   3.969   5.617
 9209TIP3    H127591   1.538   3.986   5.701
 9209TIP3    H227592   1.534   3.887   5.587
 9210TIP3   OH227593   3.274   0.552   0.299
 9210TIP3    H127594   3.319   0.533   0.382
 9210TIP3    H227595   3.196   0.600   0.325
 9211TIP3   OH227596   4.061   4.112   4.319
 9211TIP3    H127597   4.151   4.079   4.314
 9211TIP3    H227598   4.017   4.052   4.378
 9212TIP3   OH227599   5.853   6.115   4.449
 9212TIP3    H127600   5.781   6.053   4.431
 9212TIP3    H227601   5.809   6.195   4.477
 9213TIP3   OH227602   0.980   2.908   2.471
 9213TIP3    H127603   1.035   2.939   2.399
 9213TIP3    H227604   0.965   2.816   2.452
 9214TIP3   OH227605   2.514   3.052   3.298
 9214TIP3    H127606   2.521   2.958   3.282
 9214TIP3    H227607   2.448   3.082   3.236
 9215TIP3   OH227608   1.215   1.456   5.918
 9215TIP3    H127609   1.127   1.446   5.954
 9215TIP3    H227610   1.202   1.459   5.823
 9216TIP3   OH227611   7.261   3.653   0.961
 9216TIP3    H127612   7.216   3.573   0.988
 9216TIP3    H227613   7.221   3.722   1.013
 9217TIP3   OH227614   4.809   6.162   1.560
 9217TIP3    H127615   4.755   6.233   1.525
 9217TIP3    H227616   4.746   6.092   1.579
 9218TIP3   OH227617   5.220   0.853   2.334
 9218TIP3    H127618   5.242   0.786   2.270
 9218TIP3    H227619   5.182   0.924   2.283
 9219TIP3   OH227620   0.798   5.542   2.472
 9219TIP3    H127621   0.836   5.541   2.385
 9219TIP3    H227622   0.716   5.492   2.463
 9220TIP3   OH227623   6.212   5.654   1.635
 9220TIP3    H127624   6.244   5.744   1.631
 9220TIP3    H227625   6.255   5.610   1.562
 9221TIP3   OH227626   2.364   3.316   2.834
 9221TIP3    H127627   2.305   3.366   2.891
 9221TIP3    H227628   2.309   3.288   2.761
 9222TIP3   OH227629   4.957   2.599   2.736
 9222TIP3    H127630   5.038   2.575   2.782
 9222TIP3    H227631   4.979   2.593   2.643
 9223TIP3   OH227632   3.903   1.914   3.098
 9223TIP3    H127633   3.886   1.945   3.009
 9223TIP3    H227634   3.949   1.987   3.140
 9224TIP3   OH227635   1.926   5.253   3.670
 9224TIP3    H127636   1.962   5.164   3.668
 9224TIP3    H227637   1.878   5.261   3.588
 9225TIP3   OH227638   0.504   2.478   0.603
 9225TIP3    H127639   0.593   2.443   0.605
 9225TIP3    H227640   0.513   2.565   0.565
 9226TIP3   OH227641   0.647   0.284   3.750
 9226TIP3    H127642   0.573   0.235   3.787
 9226TIP3    H227643   0.613   0.373   3.738
 9227TIP3   OH227644   3.193   6.404   5.073
 9227TIP3    H127645   3.186   6.396   5.168
 9227TIP3    H227646   3.287   6.403   5.055
 9228TIP3   OH227647   5.727   1.522   0.611
 9228TIP3    H127648   5.676   1.601   0.630
 9228TIP3    H227649   5.714   1.508   0.517
 9229TIP3   OH227650   6.775   5.926   1.361
 9229TIP3    H127651   6.707   5.866   1.392
 9229TIP3    H227652   6.855   5.894   1.402
 9230TIP3   OH227653   4.117   0.609   2.802
 9230TIP3    H127654   4.146   0.699   2.789
 9230TIP3    H227655   4.092   0.579   2.715
 9231TIP3   OH227656   5.736   2.431   2.912
 9231TIP3    H127657   5.776   2.424   2.825
 9231TIP3    H227658   5.762   2.518   2.943
 9232TIP3   OH227659   0.530   6.762   2.197
 9232TIP3    H127660   0.509   6.675   2.231
 9232TIP3    H227661   0.509   6.822   2.269
 9233TIP3   OH227662   4.678   4.826   3.029
 9233TIP3    H127663   4.651   4.913   2.999
 9233TIP3    H227664   4.771   4.822   3.010
 9234TIP3   OH227665   3.758   6.213   4.057
 9234TIP3    H127666   3.808   6.249   4.131
 9234TIP3    H227667   3.809   6.137   4.029
 9235TIP3   OH227668   3.822   6.632   0.325
 9235TIP3    H127669   3.833   6.544   0.287
 9235TIP3    H227670   3.906   6.675   0.307
 9236TIP3   OH227671   3.973   3.213   1.330
 9236TIP3    H127672   4.031   3.164   1.388
 9236TIP3    H227673   3.915   3.261   1.389
 9237TIP3   OH227674   0.943   4.210   3.397
 9237TIP3    H127675   1.019   4.188   3.343
 9237TIP3    H227676   0.939   4.140   3.462
 9238TIP3   OH227677   0.539   0.429   3.524
 9238TIP3    H127678   0.591   0.442   3.444
 9238TIP3    H227679   0.482   0.506   3.528
 9239TIP3   OH227680   6.640   1.494   1.298
 9239TIP3    H127681   6.655   1.481   1.204
 9239TIP3    H227682   6.697   1.430   1.340
 9240TIP3   OH227683   6.122   1.991   0.133
 9240TIP3    H127684   6.081   1.982   0.047
 9240TIP3    H227685   6.142   2.084   0.141
 9241TIP3   OH227686   3.069   1.942   4.218
 9241TIP3    H127687   3.029   2.006   4.160
 9241TIP3    H227688   3.094   1.992   4.296
 9242TIP3   OH227689   0.743   5.798   0.755
 9242TIP3    H127690   0.669   5.747   0.721
 9242TIP3    H227691   0.751   5.872   0.695
 9243TIP3   OH227692   5.124   2.538   0.612
 9243TIP3    H127693   5.057   2.501   0.554
 9243TIP3    H227694   5.134   2.473   0.681
 9244TIP3   OH227695   2.993   0.972   5.086
 9244TIP3    H127696   3.012   1.046   5.029
 9244TIP3    H227697   2.901   0.983   5.110
 9245TIP3   OH227698   2.180   0.789   0.092
 9245TIP3    H127699   2.228   0.727   0.146
 9245TIP3    H227700   2.098   0.745   0.072
 9246TIP3   OH227701   6.014   2.393   4.402
 9246TIP3    H127702   6.046   2.413   4.490
 9246TIP3    H227703   6.090   2.356   4.357
 9247TIP3   OH227704   0.063   4.868   0.600
 9247TIP3    H127705   0.042   4.780   0.568
 9247TIP3    H227706   0.119   4.906   0.532
 9248TIP3   OH227707   7.169   4.123   0.599
 9248TIP3    H127708   7.238   4.152   0.658
 9248TIP3    H227709   7.135   4.043   0.638
 9249TIP3   OH227710   6.364   3.683   5.627
 9249TIP3    H127711   6.307   3.759   5.640
 9249TIP3    H227712   6.438   3.717   5.577
 9250TIP3   OH227713   2.533   1.181   4.348
 9250TIP3    H127714   2.520   1.102   4.295
 9250TIP3    H227715   2.552   1.249   4.284
 9251TIP3   OH227716   3.010   3.614   4.486
 9251TIP3    H127717   3.046   3.615   4.575
 9251TIP3    H227718   3.050   3.691   4.444
 9252TIP3   OH227719   1.871   2.899   0.114
 9252TIP3    H127720   1.948   2.855   0.148
 9252TIP3    H227721   1.878   2.891   0.019
 9253TIP3   OH227722   0.766   2.413   0.585
 9253TIP3    H127723   0.856   2.381   0.596
 9253TIP3    H227724   0.765   2.497   0.631
 9254TIP3   OH227725   1.413   1.879   0.359
 9254TIP3    H127726   1.376   1.794   0.336
 9254TIP3    H227727   1.404   1.884   0.455
 9255TIP3   OH227728   6.867   2.334   5.132
 9255TIP3    H127729   6.915   2.299   5.207
 9255TIP3    H227730   6.811   2.402   5.169
 9256TIP3   OH227731   4.161   5.932   2.119
 9256TIP3    H127732   4.140   5.899   2.031
 9256TIP3    H227733   4.211   5.860   2.159
 9257TIP3   OH227734   2.695   5.112   3.926
 9257TIP3    H127735   2.743   5.045   3.975
 9257TIP3    H227736   2.756   5.185   3.918
 9258TIP3   OH227737   6.312   2.501   5.054
 9258TIP3    H127738   6.332   2.443   5.127
 9258TIP3    H227739   6.373   2.575   5.064
 9259TIP3   OH227740   7.111   3.105   0.489
 9259TIP3    H127741   7.051   3.128   0.559
 9259TIP3    H227742   7.157   3.187   0.469
 9260TIP3   OH227743   2.305   6.038   4.455
 9260TIP3    H127744   2.386   6.088   4.440
 9260TIP3    H227745   2.269   6.025   4.367
 9261TIP3   OH227746   5.465   3.234   0.153
 9261TIP3    H127747   5.422   3.159   0.194
 9261TIP3    H227748   5.455   3.305   0.217
 9262TIP3   OH227749   5.759   5.332   0.529
 9262TIP3    H127750   5.747   5.397   0.599
 9262TIP3    H227751   5.819   5.373   0.468
 9263TIP3   OH227752   7.129   4.276   3.481
 9263TIP3    H127753   7.175   4.197   3.452
 9263TIP3    H227754   7.089   4.250   3.564
 9264TIP3   OH227755   4.600   6.171   5.137
 9264TIP3    H127756   4.644   6.114   5.074
 9264TIP3    H227757   4.600   6.121   5.219
 9265TIP3   OH227758   2.087   5.943   0.754
 9265TIP3    H127759   2.073   5.984   0.668
 9265TIP3    H227760   2.065   5.851   0.739
 9266TIP3   OH227761   4.043   0.502   3.527
 9266TIP3    H127762   4.127   0.497   3.573
 9266TIP3    H227763   4.046   0.585   3.480
 9267TIP3   OH227764   0.372   1.602   5.038
 9267TIP3    H127765   0.353   1.657   5.114
 9267TIP3    H227766   0.334   1.517   5.059
 9268TIP3   OH227767   2.888   2.304   0.827
 9268TIP3    H127768   2.819   2.300   0.893
 9268TIP3    H227769   2.845   2.338   0.749
 9269TIP3   OH227770   5.470   4.815   4.843
 9269TIP3    H127771   5.385   4.774   4.857
 9269TIP3    H227772   5.531   4.741   4.837
 9270TIP3   OH227773   0.656   3.006   1.670
 9270TIP3    H127774   0.608   2.954   1.605
 9270TIP3    H227775   0.731   3.040   1.621
 9271TIP3   OH227776   5.218   3.848   5.439
 9271TIP3    H127777   5.295   3.797   5.415
 9271TIP3    H227778   5.144   3.792   5.414
 9272TIP3   OH227779   0.563   1.247   0.535
 9272TIP3    H127780   0.636   1.205   0.580
 9272TIP3    H227781   0.486   1.197   0.563
 9273TIP3   OH227782   5.277   0.788   5.386
 9273TIP3    H127783   5.225   0.747   5.455
 9273TIP3    H227784   5.336   0.718   5.357
 9274TIP3   OH227785   0.938   5.846   4.109
 9274TIP3    H127786   0.886   5.785   4.162
 9274TIP3    H227787   0.954   5.799   4.027
 9275TIP3   OH227788   1.026   2.580   4.526
 9275TIP3    H127789   0.973   2.628   4.463
 9275TIP3    H227790   1.036   2.493   4.487
 9276TIP3   OH227791   5.952   3.094   4.482
 9276TIP3    H127792   6.019   3.162   4.489
 9276TIP3    H227793   5.980   3.040   4.408
 9277TIP3   OH227794   4.840   0.480   2.127
 9277TIP3    H127795   4.766   0.436   2.170
 9277TIP3    H227796   4.913   0.420   2.139
 9278TIP3   OH227797   3.838   4.601   3.817
 9278TIP3    H127798   3.803   4.641   3.738
 9278TIP3    H227799   3.840   4.507   3.799
 9279TIP3   OH227800   4.352   6.211   2.758
 9279TIP3    H127801   4.362   6.128   2.713
 9279TIP3    H227802   4.424   6.214   2.821
 9280TIP3   OH227803   4.962   5.152   4.541
 9280TIP3    H127804   5.035   5.105   4.581
 9280TIP3    H227805   4.950   5.229   4.596
 9281TIP3   OH227806   2.805   6.315   5.141
 9281TIP3    H127807   2.731   6.308   5.201
 9281TIP3    H227808   2.765   6.331   5.055
 9282TIP3   OH227809   3.669   5.019   2.038
 9282TIP3    H127810   3.652   5.045   1.947
 9282TIP3    H227811   3.681   4.924   2.034
 9283TIP3   OH227812   6.831   0.558   4.673
 9283TIP3    H127813   6.848   0.465   4.688
 9283TIP3    H227814   6.795   0.589   4.756
 9284TIP3   OH227815   7.181   1.710   0.874
 9284TIP3    H127816   7.165   1.627   0.828
 9284TIP3    H227817   7.272   1.732   0.852
 9285TIP3   OH227818   0.223   2.448   2.699
 9285TIP3    H127819   0.300   2.457   2.642
 9285TIP3    H227820   0.218   2.354   2.716
 9286TIP3   OH227821   3.588   6.336   3.170
 9286TIP3    H127822   3.596   6.265   3.234
 9286TIP3    H227823   3.499   6.370   3.182
 9287TIP3   OH227824   0.138   6.284   4.894
 9287TIP3    H127825   0.100   6.282   4.807
 9287TIP3    H227826   0.163   6.375   4.907
 9288TIP3   OH227827   6.966   3.443   3.889
 9288TIP3    H127828   7.032   3.384   3.925
 9288TIP3    H227829   6.893   3.386   3.864
 9289TIP3   OH227830   0.625   2.669   4.071
 9289TIP3    H127831   0.608   2.656   4.165
 9289TIP3    H227832   0.541   2.654   4.029
 9290TIP3   OH227833   6.181   5.084   3.566
 9290TIP3    H127834   6.224   5.163   3.533
 9290TIP3    H227835   6.232   5.012   3.528
 9291TIP3   OH227836   2.210   3.993   4.961
 9291TIP3    H127837   2.144   3.996   4.892
 9291TIP3    H227838   2.168   4.034   5.036
 9292TIP3   OH227839   4.018   0.965   2.910
 9292TIP3    H127840   4.106   0.999   2.891
 9292TIP3    H227841   4.034   0.873   2.935
 9293TIP3   OH227842   5.135   0.298   3.309
 9293TIP3    H127843   5.082   0.307   3.388
 9293TIP3    H227844   5.107   0.370   3.252
 9294TIP3   OH227845   6.511   1.574   5.039
 9294TIP3    H127846   6.509   1.653   4.985
 9294TIP3    H227847   6.526   1.606   5.128
 9295TIP3   OH227848   4.623   3.261   2.797
 9295TIP3    H127849   4.664   3.188   2.751
 9295TIP3    H227850   4.685   3.283   2.867
 9296TIP3   OH227851   2.165   1.487   1.057
 9296TIP3    H127852   2.194   1.578   1.061
 9296TIP3    H227853   2.139   1.466   1.147
 9297TIP3   OH227854   2.655   4.793   0.168
 9297TIP3    H127855   2.723   4.790   0.234
 9297TIP3    H227856   2.639   4.702   0.145
 9298TIP3   OH227857   4.527   0.482   1.450
 9298TIP3    H127858   4.552   0.565   1.490
 9298TIP3    H227859   4.434   0.471   1.473
 9299TIP3   OH227860   5.657   6.454   3.526
 9299TIP3    H127861   5.650   6.538   3.571
 9299TIP3    H227862   5.612   6.392   3.584
 9300TIP3   OH227863   6.838   0.849   2.930
 9300TIP3    H127864   6.803   0.916   2.988
 9300TIP3    H227865   6.767   0.832   2.867
 9301TIP3   OH227866   1.947   1.638   0.755
 9301TIP3    H127867   1.861   1.656   0.793
 9301TIP3    H227868   1.928   1.600   0.669
 9302TIP3   OH227869   2.168   4.590   2.052
 9302TIP3    H127870   2.089   4.568   2.004
 9302TIP3    H227871   2.147   4.672   2.097
 9303TIP3   OH227872   5.979   4.816   5.138
 9303TIP3    H127873   5.966   4.825   5.233
 9303TIP3    H227874   5.943   4.730   5.117
 9304TIP3   OH227875   0.482   5.560   2.228
 9304TIP3    H127876   0.540   5.521   2.293
 9304TIP3    H227877   0.524   5.643   2.206
 9305TIP3   OH227878   2.647   0.668   2.486
 9305TIP3    H127879   2.723   0.612   2.470
 9305TIP3    H227880   2.610   0.634   2.568
 9306TIP3   OH227881   5.674   4.372   1.095
 9306TIP3    H127882   5.742   4.432   1.125
 9306TIP3    H227883   5.662   4.396   1.003
 9307TIP3   OH227884   3.509   3.068   4.933
 9307TIP3    H127885   3.516   2.985   4.887
 9307TIP3    H227886   3.590   3.114   4.912
 9308TIP3   OH227887   6.960   2.993   5.826
 9308TIP3    H127888   6.953   3.087   5.838
 9308TIP3    H227889   6.901   2.956   5.892
 9309TIP3   OH227890   1.829   6.547   0.053
 9309TIP3    H127891   1.878   6.584  -0.021
 9309TIP3    H227892   1.881   6.471   0.080
 9310TIP3   OH227893   1.373   1.274   1.938
 9310TIP3    H127894   1.390   1.226   2.019
 9310TIP3    H227895   1.280   1.296   1.943
 9311TIP3   OH227896   1.368   6.315   0.088
 9311TIP3    H127897   1.276   6.303   0.066
 9311TIP3    H227898   1.369   6.392   0.145
 9312TIP3   OH227899   1.076   6.371   0.929
 9312TIP3    H127900   1.122   6.307   0.875
 9312TIP3    H227901   1.022   6.318   0.988
 9313TIP3   OH227902   2.900   3.230   4.598
 9313TIP3    H127903   2.939   3.143   4.607
 9313TIP3    H227904   2.976   3.290   4.595
 9314TIP3   OH227905   6.052   4.850   4.702
 9314TIP3    H127906   6.125   4.892   4.657
 9314TIP3    H227907   6.070   4.756   4.694
 9315TIP3   OH227908   4.614   5.959   3.738
 9315TIP3    H127909   4.618   6.029   3.673
 9315TIP3    H227910   4.703   5.924   3.742
 9316TIP3   OH227911   4.221   0.542   5.608
 9316TIP3    H127912   4.281   0.617   5.622
 9316TIP3    H227913   4.183   0.558   5.522
 9317TIP3   OH227914   5.515   0.201   5.233
 9317TIP3    H127915   5.592   0.253   5.258
 9317TIP3    H227916   5.551   0.132   5.177
 9318TIP3   OH227917   4.452   4.794   3.728
 9318TIP3    H127918   4.387   4.786   3.797
 9318TIP3    H227919   4.435   4.879   3.687
 9319TIP3   OH227920   0.965   3.943   5.775
 9319TIP3    H127921   0.999   4.012   5.718
 9319TIP3    H227922   1.038   3.922   5.834
 9320TIP3   OH227923   5.978   1.451   1.208
 9320TIP3    H127924   6.003   1.403   1.287
 9320TIP3    H227925   5.952   1.383   1.146
 9321TIP3   OH227926   7.014   2.105   2.285
 9321TIP3    H127927   7.099   2.061   2.291
 9321TIP3    H227928   6.965   2.053   2.222
 9322TIP3   OH227929   2.933   6.209   1.684
 9322TIP3    H127930   2.948   6.299   1.655
 9322TIP3    H227931   2.862   6.215   1.747
 9323TIP3   OH227932   3.537   3.628   1.270
 9323TIP3    H127933   3.463   3.633   1.330
 9323TIP3    H227934   3.521   3.547   1.220
 9324TIP3   OH227935   4.521   2.174  -0.007
 9324TIP3    H127936   4.537   2.090   0.035
 9324TIP3    H227937   4.439   2.205   0.031
 9325TIP3   OH227938   6.086   3.123   2.075
 9325TIP3    H127939   6.143   3.058   2.033
 9325TIP3    H227940   6.136   3.205   2.071
 9326TIP3   OH227941   4.818   4.189   0.875
 9326TIP3    H127942   4.775   4.104   0.866
 9326TIP3    H227943   4.896   4.170   0.927
 9327TIP3   OH227944   0.470   1.942   4.960
 9327TIP3    H127945   0.429   2.004   5.021
 9327TIP3    H227946   0.464   1.857   5.004
 9328TIP3   OH227947   5.096   1.632   5.485
 9328TIP3    H127948   5.094   1.544   5.523
 9328TIP3    H227949   5.062   1.620   5.397
 9329TIP3   OH227950   6.424   2.608   5.731
 9329TIP3    H127951   6.402   2.549   5.803
 9329TIP3    H227952   6.460   2.686   5.774
 9330TIP3   OH227953   3.330   1.424   0.492
 9330TIP3    H127954   3.378   1.369   0.554
 9330TIP3    H227955   3.346   1.514   0.521
 9331TIP3   OH227956   4.443   6.068   0.160
 9331TIP3    H127957   4.409   6.037   0.075
 9331TIP3    H227958   4.524   6.020   0.171
 9332TIP3   OH227959   2.411   5.298   4.772
 9332TIP3    H127960   2.386   5.333   4.857
 9332TIP3    H227961   2.352   5.340   4.710
 9333TIP3   OH227962   4.296   5.209   1.285
 9333TIP3    H127963   4.278   5.301   1.302
 9333TIP3    H227964   4.388   5.207   1.259
 9334TIP3   OH227965   2.169   0.448   4.508
 9334TIP3    H127966   2.259   0.434   4.536
 9334TIP3    H227967   2.129   0.361   4.513
 9335TIP3   OH227968   0.353   5.832   5.174
 9335TIP3    H127969   0.292   5.897   5.140
 9335TIP3    H227970   0.336   5.754   5.121
 9336TIP3   OH227971   5.350   1.243   4.937
 9336TIP3    H127972   5.282   1.194   4.984
 9336TIP3    H227973   5.403   1.281   5.007
 9337TIP3   OH227974   4.490   4.323   1.483
 9337TIP3    H127975   4.565   4.382   1.493
 9337TIP3    H227976   4.479   4.284   1.570
 9338TIP3   OH227977   1.213   5.847   2.692
 9338TIP3    H127978   1.174   5.761   2.706
 9338TIP3    H227979   1.304   5.836   2.721
 9339TIP3   OH227980   6.645   4.527   4.634
 9339TIP3    H127981   6.652   4.444   4.680
 9339TIP3    H227982   6.551   4.545   4.629
 9340TIP3   OH227983   4.885   1.588   5.717
 9340TIP3    H127984   4.871   1.573   5.810
 9340TIP3    H227985   4.980   1.585   5.706
 9341TIP3   OH227986   2.793   3.240   3.453
 9341TIP3    H127987   2.766   3.321   3.497
 9341TIP3    H227988   2.717   3.183   3.457
 9342TIP3   OH227989   6.500   1.674   0.638
 9342TIP3    H127990   6.457   1.588   0.640
 9342TIP3    H227991   6.572   1.667   0.700
 9343TIP3   OH227992   3.111   0.461   2.998
 9343TIP3    H127993   3.124   0.384   3.053
 9343TIP3    H227994   3.120   0.428   2.908
 9344TIP3   OH227995   5.906   1.902   4.033
 9344TIP3    H127996   5.904   1.895   4.128
 9344TIP3    H227997   5.816   1.922   4.008
 9345TIP3   OH227998   6.162   0.885   1.030
 9345TIP3    H127999   6.109   0.809   1.055
 9345TIP3    H228000   6.194   0.863   0.942
 9346TIP3   OH228001   1.017   4.298   3.972
 9346TIP3    H128002   0.932   4.256   3.959
 9346TIP3    H228003   1.040   4.278   4.063
 9347TIP3   OH228004   2.457   4.150   4.048
 9347TIP3    H128005   2.403   4.123   3.974
 9347TIP3    H228006   2.512   4.220   4.014
 9348TIP3   OH228007   0.319   5.704   3.085
 9348TIP3    H128008   0.334   5.610   3.086
 9348TIP3    H228009   0.244   5.717   3.142
 9349TIP3   OH228010   2.460   4.859   1.044
 9349TIP3    H128011   2.520   4.848   0.971
 9349TIP3    H228012   2.475   4.784   1.100
 9350TIP3   OH228013   2.035   0.738   3.661
 9350TIP3    H128014   2.096   0.731   3.735
 9350TIP3    H228015   1.950   0.716   3.698
 9351TIP3   OH228016   3.732   3.987   2.452
 9351TIP3    H128017   3.675   4.025   2.386
 9351TIP3    H228018   3.810   3.960   2.404
 9352TIP3   OH228019   3.882   6.081   2.355
 9352TIP3    H128020   3.808   6.102   2.298
 9352TIP3    H228021   3.878   6.146   2.425
 9353TIP3   OH228022   1.829   4.938   3.646
 9353TIP3    H128023   1.837   4.844   3.628
 9353TIP3    H228024   1.776   4.943   3.725
 9354TIP3   OH228025   2.722   3.137   1.134
 9354TIP3    H128026   2.677   3.095   1.060
 9354TIP3    H228027   2.677   3.103   1.212
 9355TIP3   OH228028   5.993   4.147   1.618
 9355TIP3    H128029   6.081   4.185   1.627
 9355TIP3    H228030   6.005   4.056   1.646
 9356TIP3   OH228031   6.520   1.240   3.364
 9356TIP3    H128032   6.600   1.190   3.380
 9356TIP3    H228033   6.449   1.178   3.380
 9357TIP3   OH228034   5.434   2.697   4.782
 9357TIP3    H128035   5.482   2.615   4.771
 9357TIP3    H228036   5.482   2.760   4.729
 9358TIP3   OH228037   1.598   3.594   2.116
 9358TIP3    H128038   1.631   3.651   2.046
 9358TIP3    H228039   1.594   3.507   2.076
 9359TIP3   OH228040   2.530   3.280   5.018
 9359TIP3    H128041   2.537   3.370   4.986
 9359TIP3    H228042   2.564   3.283   5.107
 9360TIP3   OH228043   3.971   1.087   4.287
 9360TIP3    H128044   3.930   1.148   4.227
 9360TIP3    H228045   3.922   1.097   4.369
 9361TIP3   OH228046   5.804   5.679   3.590
 9361TIP3    H128047   5.889   5.635   3.580
 9361TIP3    H228048   5.825   5.760   3.637
 9362TIP3   OH228049   4.801   3.119   2.323
 9362TIP3    H128050   4.805   3.210   2.353
 9362TIP3    H228051   4.881   3.079   2.356
 9363TIP3   OH228052   6.347   1.543   1.259
 9363TIP3    H128053   6.440   1.533   1.281
 9363TIP3    H228054   6.322   1.626   1.301
 9364TIP3   OH228055   3.388   4.374   4.452
 9364TIP3    H128056   3.313   4.316   4.449
 9364TIP3    H228057   3.412   4.377   4.545
 9365TIP3   OH228058   5.369   6.562   1.783
 9365TIP3    H128059   5.368   6.467   1.781
 9365TIP3    H228060   5.319   6.585   1.861
 9366TIP3   OH228061   3.662   0.837   1.137
 9366TIP3    H128062   3.668   0.838   1.042
 9366TIP3    H228063   3.602   0.765   1.156
 9367TIP3   OH228064   4.017   3.016   1.058
 9367TIP3    H128065   4.017   3.052   0.970
 9367TIP3    H228066   4.098   3.049   1.098
 9368TIP3   OH228067   4.986   4.443   1.193
 9368TIP3    H128068   5.013   4.390   1.268
 9368TIP3    H228069   5.063   4.445   1.136
 9369TIP3   OH228070   0.649   6.034   2.522
 9369TIP3    H128071   0.724   6.041   2.463
 9369TIP3    H228072   0.648   5.943   2.550
 9370TIP3   OH228073   5.144   1.112   5.060
 9370TIP3    H128074   5.082   1.167   5.107
 9370TIP3    H228075   5.123   1.023   5.087
 9371TIP3   OH228076   0.300   5.466   4.919
 9371TIP3    H128077   0.374   5.523   4.897
 9371TIP3    H228078   0.243   5.519   4.974
 9372TIP3   OH228079   5.674   2.784   4.115
 9372TIP3    H128080   5.701   2.706   4.164
 9372TIP3    H228081   5.719   2.776   4.031
 9373TIP3   OH228082   3.249   3.131   4.172
 9373TIP3    H128083   3.263   3.223   4.150
 9373TIP3    H228084   3.336   3.097   4.193
 9374TIP3   OH228085   2.765   0.255   4.341
 9374TIP3    H128086   2.725   0.315   4.278
 9374TIP3    H228087   2.755   0.169   4.301
 9375TIP3   OH228088   1.634   4.385   3.585
 9375TIP3    H128089   1.656   4.293   3.573
 9375TIP3    H228090   1.683   4.430   3.517
 9376TIP3   OH228091   0.642   4.121   2.549
 9376TIP3    H128092   0.728   4.152   2.576
 9376TIP3    H228093   0.639   4.136   2.455
 9377TIP3   OH228094   5.076   5.896   3.168
 9377TIP3    H128095   5.107   5.811   3.198
 9377TIP3    H228096   5.009   5.922   3.231
 9378TIP3   OH228097   2.302   1.649   4.820
 9378TIP3    H128098   2.230   1.672   4.762
 9378TIP3    H228099   2.323   1.731   4.866
 9379TIP3   OH228100   0.254   4.455   3.243
 9379TIP3    H128101   0.270   4.397   3.169
 9379TIP3    H228102   0.299   4.536   3.220
 9380TIP3   OH228103   6.606   5.409   0.029
 9380TIP3    H128104   6.653   5.493   0.024
 9380TIP3    H228105   6.521   5.432   0.068
 9381TIP3   OH228106   2.776   3.651   5.804
 9381TIP3    H128107   2.863   3.622   5.832
 9381TIP3    H228108   2.786   3.746   5.793
 9382TIP3   OH228109   3.366   0.094   4.870
 9382TIP3    H128110   3.377   0.168   4.811
 9382TIP3    H228111   3.311   0.032   4.820
 9383TIP3   OH228112   2.044   5.330   0.427
 9383TIP3    H128113   2.092   5.392   0.482
 9383TIP3    H228114   2.030   5.255   0.483
 9384TIP3   OH228115   5.605   0.998   3.759
 9384TIP3    H128116   5.568   1.052   3.829
 9384TIP3    H228117   5.559   0.915   3.766
 9385TIP3   OH228118   6.964   1.668   0.330
 9385TIP3    H128119   6.908   1.703   0.399
 9385TIP3    H228120   7.050   1.656   0.372
 9386TIP3   OH228121   4.182   5.367   5.881
 9386TIP3    H128122   4.203   5.289   5.830
 9386TIP3    H228123   4.143   5.427   5.818
 9387TIP3   OH228124   2.530   4.980   3.212
 9387TIP3    H128125   2.576   5.003   3.292
 9387TIP3    H228126   2.594   4.931   3.160
 9388TIP3   OH228127   2.921   3.021   0.804
 9388TIP3    H128128   2.838   3.063   0.780
 9388TIP3    H228129   2.904   2.927   0.795
 9389TIP3   OH228130   2.916   5.168   5.783
 9389TIP3    H128131   2.987   5.232   5.788
 9389TIP3    H228132   2.957   5.085   5.805
 9390TIP3   OH228133   4.788   2.150   2.459
 9390TIP3    H128134   4.837   2.090   2.515
 9390TIP3    H228135   4.781   2.230   2.511
 9391TIP3   OH228136   3.660   2.532   0.253
 9391TIP3    H128137   3.652   2.459   0.314
 9391TIP3    H228138   3.579   2.582   0.263
 9392TIP3   OH228139   6.345   2.586   3.837
 9392TIP3    H128140   6.318   2.673   3.809
 9392TIP3    H228141   6.362   2.538   3.756
 9393TIP3   OH228142   0.110   4.239   0.773
 9393TIP3    H128143   0.088   4.330   0.793
 9393TIP3    H228144   0.205   4.238   0.763
 9394TIP3   OH228145   7.142   2.829   1.549
 9394TIP3    H128146   7.072   2.865   1.604
 9394TIP3    H228147   7.138   2.735   1.564
 9395TIP3   OH228148   3.571   2.624   2.406
 9395TIP3    H128149   3.613   2.708   2.426
 9395TIP3    H228150   3.553   2.585   2.491
 9396TIP3   OH228151   6.100   6.432   5.767
 9396TIP3    H128152   6.169   6.381   5.725
 9396TIP3    H228153   6.112   6.521   5.732
 9397TIP3   OH228154   1.406   4.283   5.103
 9397TIP3    H128155   1.313   4.259   5.115
 9397TIP3    H228156   1.426   4.257   5.013
 9398TIP3   OH228157   2.478   4.111   1.091
 9398TIP3    H128158   2.398   4.124   1.041
 9398TIP3    H228159   2.452   4.050   1.161
 9399TIP3   OH228160   6.309   6.165   4.087
 9399TIP3    H128161   6.277   6.253   4.068
 9399TIP3    H228162   6.303   6.119   4.003
 9400TIP3   OH228163   3.724   3.739   4.777
 9400TIP3    H128164   3.785   3.712   4.709
 9400TIP3    H228165   3.734   3.674   4.846
 9401TIP3   OH228166   2.149   6.186   3.326
 9401TIP3    H128167   2.229   6.138   3.347
 9401TIP3    H228168   2.134   6.168   3.233
 9402TIP3   OH228169   0.132   4.707   2.013
 9402TIP3    H128170   0.092   4.791   2.035
 9402TIP3    H228171   0.202   4.697   2.077
 9403TIP3   OH228172   6.524   0.535   1.773
 9403TIP3    H128173   6.541   0.466   1.709
 9403TIP3    H228174   6.532   0.491   1.858
 9404TIP3   OH228175   1.238   0.400   2.596
 9404TIP3    H128176   1.182   0.405   2.674
 9404TIP3    H228177   1.239   0.307   2.573
 9405TIP3   OH228178   2.323   1.644   2.337
 9405TIP3    H128179   2.231   1.651   2.309
 9405TIP3    H228180   2.362   1.728   2.313
 9406TIP3   OH228181   5.478   6.332   2.375
 9406TIP3    H128182   5.429   6.304   2.298
 9406TIP3    H228183   5.431   6.409   2.407
 9407TIP3   OH228184   4.071   0.114   5.054
 9407TIP3    H128185   4.152   0.159   5.031
 9407TIP3    H228186   4.072   0.034   5.002
 9408TIP3   OH228187   0.766   5.327   4.192
 9408TIP3    H128188   0.857   5.296   4.196
 9408TIP3    H228189   0.714   5.255   4.226
 9409TIP3   OH228190   5.357   1.158   5.610
 9409TIP3    H128191   5.426   1.223   5.619
 9409TIP3    H228192   5.403   1.078   5.584
 9410TIP3   OH228193   4.357   0.463   3.230
 9410TIP3    H128194   4.413   0.514   3.289
 9410TIP3    H228195   4.350   0.518   3.152
 9411TIP3   OH228196   4.419   3.466   2.576
 9411TIP3    H128197   4.394   3.550   2.613
 9411TIP3    H228198   4.374   3.401   2.629
 9412TIP3   OH228199   6.563   4.048   4.881
 9412TIP3    H128200   6.575   3.966   4.831
 9412TIP3    H228201   6.468   4.056   4.891
 9413TIP3   OH228202   5.362   4.634   0.569
 9413TIP3    H128203   5.439   4.596   0.612
 9413TIP3    H228204   5.380   4.625   0.475
 9414TIP3   OH228205   0.586   4.137   0.149
 9414TIP3    H128206   0.500   4.176   0.136
 9414TIP3    H228207   0.627   4.141   0.062
 9415TIP3   OH228208   5.931   2.711   2.476
 9415TIP3    H128209   5.886   2.628   2.491
 9415TIP3    H228210   6.022   2.686   2.459
 9416TIP3   OH228211   5.363   3.411   0.345
 9416TIP3    H128212   5.419   3.479   0.383
 9416TIP3    H228213   5.332   3.360   0.420
 9417TIP3   OH228214   4.396   1.918   3.032
 9417TIP3    H128215   4.362   1.913   2.943
 9417TIP3    H228216   4.417   1.828   3.055
 9418TIP3   OH228217   2.445   3.546   2.524
 9418TIP3    H128218   2.353   3.523   2.513
 9418TIP3    H228219   2.470   3.508   2.608
 9419TIP3   OH228220   1.421   4.222   5.756
 9419TIP3    H128221   1.360   4.294   5.739
 9419TIP3    H228222   1.507   4.259   5.740
 9420TIP3   OH228223   6.017   5.880   0.331
 9420TIP3    H128224   6.030   5.807   0.271
 9420TIP3    H228225   6.034   5.958   0.278
 9421TIP3   OH228226   0.231   1.256   4.715
 9421TIP3    H128227   0.182   1.174   4.721
 9421TIP3    H228228   0.205   1.293   4.631
 9422TIP3   OH228229   3.595   1.634   0.772
 9422TIP3    H128230   3.631   1.721   0.791
 9422TIP3    H228231   3.519   1.651   0.717
 9423TIP3   OH228232   0.129   2.462   2.977
 9423TIP3    H128233   0.155   2.468   2.885
 9423TIP3    H228234   0.094   2.373   2.987
 9424TIP3   OH228235   4.299   1.583   3.306
 9424TIP3    H128236   4.340   1.663   3.340
 9424TIP3    H228237   4.223   1.615   3.257
 9425TIP3   OH228238   6.483   2.857   1.364
 9425TIP3    H128239   6.512   2.918   1.432
 9425TIP3    H228240   6.410   2.809   1.405
 9426TIP3   OH228241   1.999   2.082   0.563
 9426TIP3    H128242   1.959   2.161   0.528
 9426TIP3    H228243   1.926   2.022   0.579
 9427TIP3   OH228244   4.701   3.522   0.750
 9427TIP3    H128245   4.754   3.494   0.675
 9427TIP3    H228246   4.754   3.499   0.827
 9428TIP3   OH228247   1.054   3.811   4.580
 9428TIP3    H128248   1.064   3.888   4.524
 9428TIP3    H228249   1.127   3.817   4.643
 9429TIP3   OH228250   1.690   3.645   5.806
 9429TIP3    H128251   1.635   3.723   5.806
 9429TIP3    H228252   1.674   3.604   5.721
 9430TIP3   OH228253   5.909   0.658   3.321
 9430TIP3    H128254   5.939   0.711   3.395
 9430TIP3    H228255   5.850   0.594   3.360
 9431TIP3   OH228256   6.772   6.461   5.420
 9431TIP3    H128257   6.836   6.394   5.443
 9431TIP3    H228258   6.760   6.451   5.325
 9432TIP3   OH228259   6.534   5.837   5.047
 9432TIP3    H128260   6.486   5.812   5.126
 9432TIP3    H228261   6.478   5.809   4.975
 9433TIP3   OH228262   2.579   2.956   0.979
 9433TIP3    H128263   2.520   2.937   0.905
 9433TIP3    H228264   2.664   2.921   0.951
 9434TIP3   OH228265   5.387   5.421   5.394
 9434TIP3    H128266   5.370   5.451   5.305
 9434TIP3    H228267   5.404   5.327   5.385
 9435TIP3   OH228268   2.117   1.148   3.228
 9435TIP3    H128269   2.190   1.175   3.171
 9435TIP3    H228270   2.110   1.053   3.214
 9436TIP3   OH228271   2.266   0.048   4.169
 9436TIP3    H128272   2.269   0.124   4.112
 9436TIP3    H228273   2.303   0.079   4.252
 9437TIP3   OH228274   5.291   5.808   4.193
 9437TIP3    H128275   5.261   5.840   4.278
 9437TIP3    H228276   5.320   5.886   4.147
 9438TIP3   OH228277   0.645   0.506   2.992
 9438TIP3    H128278   0.639   0.577   3.056
 9438TIP3    H228279   0.695   0.544   2.920
 9439TIP3   OH228280   3.752   1.182   4.160
 9439TIP3    H128281   3.736   1.223   4.245
 9439TIP3    H228282   3.665   1.174   4.121
 9440TIP3   OH228283   0.547   1.005   5.916
 9440TIP3    H128284   0.581   1.092   5.892
 9440TIP3    H228285   0.582   0.947   5.848
 9441TIP3   OH228286   4.775   1.600   0.971
 9441TIP3    H128287   4.697   1.638   0.930
 9441TIP3    H228288   4.788   1.517   0.924
 9442TIP3   OH228289   2.111   5.797   4.914
 9442TIP3    H128290   2.122   5.786   5.008
 9442TIP3    H228291   2.045   5.731   4.889
 9443TIP3   OH228292   6.472   0.088   1.254
 9443TIP3    H128293   6.392   0.036   1.265
 9443TIP3    H228294   6.519   0.046   1.182
 9444TIP3   OH228295   5.172   2.990   3.498
 9444TIP3    H128296   5.225   3.023   3.571
 9444TIP3    H228297   5.212   3.027   3.420
 9445TIP3   OH228298   3.768   2.141   4.211
 9445TIP3    H128299   3.781   2.054   4.173
 9445TIP3    H228300   3.845   2.191   4.185
 9446TIP3   OH228301   5.649   4.225   0.647
 9446TIP3    H128302   5.637   4.139   0.687
 9446TIP3    H228303   5.616   4.215   0.558
 9447TIP3   OH228304   6.965   5.836   4.972
 9447TIP3    H128305   6.995   5.747   4.955
 9447TIP3    H228306   6.948   5.873   4.885
 9448TIP3   OH228307   0.645   4.808   3.152
 9448TIP3    H128308   0.638   4.877   3.218
 9448TIP3    H228309   0.724   4.759   3.176
 9449TIP3   OH228310   4.750   3.292   3.714
 9449TIP3    H128311   4.784   3.381   3.708
 9449TIP3    H228312   4.680   3.297   3.779
 9450TIP3   OH228313   0.203   2.349   4.210
 9450TIP3    H128314   0.121   2.396   4.227
 9450TIP3    H228315   0.183   2.291   4.137
 9451TIP3   OH228316   4.343   3.024   3.214
 9451TIP3    H128317   4.364   2.942   3.259
 9451TIP3    H228318   4.372   3.092   3.275
 9452TIP3   OH228319   3.382   1.555   3.408
 9452TIP3    H128320   3.442   1.481   3.413
 9452TIP3    H228321   3.439   1.632   3.401
 9453TIP3   OH228322   5.964   2.735   2.773
 9453TIP3    H128323   5.992   2.739   2.681
 9453TIP3    H228324   5.868   2.726   2.767
 9454TIP3   OH228325   0.336   3.839   4.819
 9454TIP3    H128326   0.286   3.919   4.807
 9454TIP3    H228327   0.378   3.824   4.734
 9455TIP3   OH228328   0.507   5.009   2.271
 9455TIP3    H128329   0.590   5.027   2.315
 9455TIP3    H228330   0.469   5.096   2.255
 9456TIP3   OH228331   2.693   0.701   1.167
 9456TIP3    H128332   2.693   0.779   1.222
 9456TIP3    H228333   2.735   0.728   1.086
 9457TIP3   OH228334   6.960   3.212   1.183
 9457TIP3    H128335   6.903   3.172   1.118
 9457TIP3    H228336   7.006   3.138   1.224
 9458TIP3   OH228337   3.928   0.891   2.624
 9458TIP3    H128338   3.968   0.932   2.700
 9458TIP3    H228339   3.933   0.958   2.555
 9459TIP3   OH228340   2.977   6.488   4.893
 9459TIP3    H128341   3.065   6.464   4.920
 9459TIP3    H228342   2.931   6.507   4.975
 9460TIP3   OH228343   1.968   0.643   0.049
 9460TIP3    H128344   1.931   0.590   0.120
 9460TIP3    H228345   1.902   0.640  -0.020
 9461TIP3   OH228346   5.443   5.166   0.833
 9461TIP3    H128347   5.474   5.094   0.889
 9461TIP3    H228348   5.435   5.127   0.746
 9462TIP3   OH228349   2.998   3.550   1.631
 9462TIP3    H128350   2.926   3.609   1.605
 9462TIP3    H228351   2.968   3.463   1.605
 9463TIP3   OH228352   4.957   5.984   1.057
 9463TIP3    H128353   5.041   6.026   1.040
 9463TIP3    H228354   4.937   6.006   1.148
 9464TIP3   OH228355   3.306   2.535   3.992
 9464TIP3    H128356   3.294   2.627   3.970
 9464TIP3    H228357   3.314   2.491   3.907
 9465TIP3   OH228358   0.092   1.298   1.019
 9465TIP3    H128359   0.115   1.312   1.111
 9465TIP3    H228360   0.175   1.309   0.972
 9466TIP3   OH228361   6.104   1.654   0.263
 9466TIP3    H128362   6.014   1.683   0.277
 9466TIP3    H228363   6.128   1.610   0.344
 9467TIP3   OH228364   3.223   2.800   4.114
 9467TIP3    H128365   3.145   2.830   4.161
 9467TIP3    H228366   3.189   2.768   4.031
 9468TIP3   OH228367   3.219   6.059   5.319
 9468TIP3    H128368   3.221   6.115   5.396
 9468TIP3    H228369   3.125   6.041   5.305
 9469TIP3   OH228370   6.869   6.634   1.460
 9469TIP3    H128371   6.795   6.693   1.470
 9469TIP3    H228372   6.910   6.659   1.378
 9470TIP3   OH228373   1.429   2.190   1.019
 9470TIP3    H128374   1.441   2.095   1.016
 9470TIP3    H228375   1.337   2.202   1.041
 9471TIP3   OH228376   0.088   0.153   3.702
 9471TIP3    H128377   0.150   0.081   3.687
 9471TIP3    H228378   0.028   0.119   3.769
 9472TIP3   OH228379   2.655   6.617   1.565
 9472TIP3    H128380   2.623   6.675   1.496
 9472TIP3    H228381   2.725   6.666   1.608
 9473TIP3   OH228382   0.277   3.282   2.598
 9473TIP3    H128383   0.224   3.299   2.520
 9473TIP3    H228384   0.335   3.211   2.572
 9474TIP3   OH228385   3.455   1.211   4.525
 9474TIP3    H128386   3.522   1.191   4.591
 9474TIP3    H228387   3.451   1.131   4.472
 9475TIP3   OH228388   1.323   4.189   3.587
 9475TIP3    H128389   1.293   4.258   3.527
 9475TIP3    H228390   1.273   4.204   3.667
 9476TIP3   OH228391   1.076   2.018   5.783
 9476TIP3    H128392   1.093   2.040   5.691
 9476TIP3    H228393   1.107   1.928   5.792
 9477TIP3   OH228394   2.426   3.343   5.306
 9477TIP3    H128395   2.478   3.415   5.342
 9477TIP3    H228396   2.377   3.382   5.234
 9478TIP3   OH228397   4.223   0.400   1.023
 9478TIP3    H128398   4.179   0.348   0.955
 9478TIP3    H228399   4.160   0.402   1.095
 9479TIP3   OH228400   3.198   0.304   1.470
 9479TIP3    H128401   3.220   0.223   1.425
 9479TIP3    H228402   3.116   0.332   1.431
 9480TIP3   OH228403   0.270   1.716   0.089
 9480TIP3    H128404   0.306   1.782   0.149
 9480TIP3    H228405   0.280   1.755   0.002
 9481TIP3   OH228406   6.522   4.841   4.680
 9481TIP3    H128407   6.450   4.891   4.720
 9481TIP3    H228408   6.553   4.784   4.750
 9482TIP3   OH228409   3.476   6.340   2.766
 9482TIP3    H128410   3.440   6.254   2.790
 9482TIP3    H228411   3.554   6.349   2.821
 9483TIP3   OH228412   2.778   6.668   2.569
 9483TIP3    H128413   2.813   6.593   2.617
 9483TIP3    H228414   2.687   6.645   2.552
 9484TIP3   OH228415   0.226   2.055   1.901
 9484TIP3    H128416   0.300   2.109   1.874
 9484TIP3    H228417   0.223   2.065   1.996
 9485TIP3   OH228418   2.327   3.568   0.185
 9485TIP3    H128419   2.376   3.650   0.175
 9485TIP3    H228420   2.286   3.554   0.099
 9486TIP3   OH228421   5.746   5.235   3.179
 9486TIP3    H128422   5.707   5.148   3.188
 9486TIP3    H228423   5.716   5.266   3.094
 9487TIP3   OH228424   0.496   2.857   2.845
 9487TIP3    H128425   0.454   2.773   2.864
 9487TIP3    H228426   0.588   2.835   2.828
 9488TIP3   OH228427   4.467   6.235   0.799
 9488TIP3    H128428   4.425   6.167   0.852
 9488TIP3    H228429   4.555   6.242   0.835
 9489TIP3   OH228430   1.201   3.724   0.176
 9489TIP3    H128431   1.124   3.714   0.233
 9489TIP3    H228432   1.196   3.650   0.116
 9490TIP3   OH228433   6.095   3.106   1.182
 9490TIP3    H128434   6.162   3.129   1.246
 9490TIP3    H228435   6.141   3.055   1.115
 9491TIP3   OH228436   3.089   6.677   5.680
 9491TIP3    H128437   3.142   6.692   5.758
 9491TIP3    H228438   3.045   6.761   5.664
 9492TIP3   OH228439   4.758   5.865   2.126
 9492TIP3    H128440   4.789   5.830   2.210
 9492TIP3    H228441   4.817   5.938   2.107
 9493TIP3   OH228442   4.216   1.951   0.925
 9493TIP3    H128443   4.206   2.020   0.990
 9493TIP3    H228444   4.216   1.870   0.976
 9494TIP3   OH228445   3.789   3.249   3.956
 9494TIP3    H128446   3.728   3.300   4.009
 9494TIP3    H228447   3.824   3.183   4.016
 9495TIP3   OH228448   5.973   2.351   0.813
 9495TIP3    H128449   6.034   2.277   0.815
 9495TIP3    H228450   5.892   2.314   0.779
 9496TIP3   OH228451   4.362   5.378   0.054
 9496TIP3    H128452   4.292   5.329   0.098
 9496TIP3    H228453   4.378   5.453   0.111
 9497TIP3   OH228454   6.657   2.042   1.498
 9497TIP3    H128455   6.569   2.015   1.471
 9497TIP3    H228456   6.648   2.068   1.589
 9498TIP3   OH228457   5.310   4.557   0.130
 9498TIP3    H128458   5.262   4.530   0.208
 9498TIP3    H228459   5.372   4.623   0.161
 9499TIP3   OH228460   6.271   5.786   5.555
 9499TIP3    H128461   6.230   5.703   5.578
 9499TIP3    H228462   6.235   5.849   5.617
 9500TIP3   OH228463   4.186   1.250   3.697
 9500TIP3    H128464   4.154   1.214   3.779
 9500TIP3    H228465   4.156   1.188   3.630
 9501TIP3   OH228466   1.013   1.716   4.701
 9501TIP3    H128467   0.930   1.691   4.660
 9501TIP3    H228468   1.076   1.718   4.628
 9502TIP3   OH228469   2.638   1.810   4.194
 9502TIP3    H128470   2.695   1.743   4.233
 9502TIP3    H228471   2.603   1.769   4.115
 9503TIP3   OH228472   4.938   0.158   0.342
 9503TIP3    H128473   4.891   0.084   0.382
 9503TIP3    H228474   5.022   0.160   0.386
 9504TIP3   OH228475   3.036   3.575   1.229
 9504TIP3    H128476   3.019   3.622   1.147
 9504TIP3    H228477   2.950   3.544   1.257
 9505TIP3   OH228478   0.938   6.814   3.417
 9505TIP3    H128479   0.873   6.750   3.389
 9505TIP3    H228480   0.928   6.819   3.512
 9506TIP3   OH228481   2.291   1.401   4.627
 9506TIP3    H128482   2.368   1.426   4.575
 9506TIP3    H228483   2.281   1.473   4.689
 9507TIP3   OH228484   6.248   6.152   5.100
 9507TIP3    H128485   6.241   6.246   5.112
 9507TIP3    H228486   6.208   6.135   5.015
 9508TIP3   OH228487   1.325   0.297   5.114
 9508TIP3    H128488   1.295   0.210   5.138
 9508TIP3    H228489   1.420   0.293   5.120
 9509TIP3   OH228490   0.358   0.130   1.851
 9509TIP3    H128491   0.296   0.063   1.823
 9509TIP3    H228492   0.314   0.213   1.833
 9510TIP3   OH228493   2.431   1.233   4.063
 9510TIP3    H128494   2.498   1.269   4.006
 9510TIP3    H228495   2.425   1.141   4.038
 9511TIP3   OH228496   5.373   4.539   5.020
 9511TIP3    H128497   5.340   4.453   5.044
 9511TIP3    H228498   5.314   4.569   4.951
 9512TIP3   OH228499   5.011   0.468   3.122
 9512TIP3    H128500   4.974   0.383   3.101
 9512TIP3    H228501   4.950   0.531   3.083
 9513TIP3   OH228502   5.737   3.713   2.912
 9513TIP3    H128503   5.663   3.770   2.930
 9513TIP3    H228504   5.703   3.646   2.852
 9514TIP3   OH228505   0.578   2.859   1.463
 9514TIP3    H128506   0.600   2.797   1.393
 9514TIP3    H228507   0.482   2.856   1.469
 9515TIP3   OH228508   5.658   0.668   0.999
 9515TIP3    H128509   5.747   0.677   1.030
 9515TIP3    H228510   5.659   0.588   0.946
 9516TIP3   OH228511   5.004   0.255   2.404
 9516TIP3    H128512   4.955   0.321   2.452
 9516TIP3    H228513   4.944   0.181   2.398
 9517TIP3   OH228514   4.725   5.836   2.821
 9517TIP3    H128515   4.661   5.874   2.881
 9517TIP3    H228516   4.787   5.907   2.804
 9518TIP3   OH228517   5.216   6.446   2.703
 9518TIP3    H128518   5.257   6.514   2.649
 9518TIP3    H228519   5.270   6.445   2.783
 9519TIP3   OH228520   5.045   0.479   5.750
 9519TIP3    H128521   5.125   0.456   5.796
 9519TIP3    H228522   4.975   0.467   5.814
 9520TIP3   OH228523   4.017   6.490   5.441
 9520TIP3    H128524   3.966   6.452   5.370
 9520TIP3    H228525   4.104   6.451   5.433
 9521TIP3   OH228526   6.471   5.389   2.635
 9521TIP3    H128527   6.381   5.395   2.603
 9521TIP3    H228528   6.465   5.338   2.716
 9522TIP3   OH228529   3.534   4.882   0.967
 9522TIP3    H128530   3.519   4.954   1.028
 9522TIP3    H228531   3.484   4.809   1.003
 9523TIP3   OH228532   2.479   1.261   2.847
 9523TIP3    H128533   2.562   1.284   2.807
 9523TIP3    H228534   2.419   1.251   2.773
 9524TIP3   OH228535   4.629   4.245   0.529
 9524TIP3    H128536   4.616   4.255   0.435
 9524TIP3    H228537   4.671   4.159   0.539
 9525TIP3   OH228538   2.986   5.585   1.410
 9525TIP3    H128539   2.914   5.597   1.348
 9525TIP3    H228540   3.047   5.527   1.365
 9526TIP3   OH228541   2.378   3.758   0.548
 9526TIP3    H128542   2.383   3.675   0.502
 9526TIP3    H228543   2.286   3.783   0.545
 9527TIP3   OH228544   5.665   6.401   0.556
 9527TIP3    H128545   5.650   6.437   0.469
 9527TIP3    H228546   5.685   6.478   0.610
 9528TIP3   OH228547   4.766   3.021   2.745
 9528TIP3    H128548   4.805   2.957   2.805
 9528TIP3    H228549   4.712   2.969   2.686
 9529TIP3   OH228550   6.111   0.857   1.749
 9529TIP3    H128551   6.118   0.943   1.791
 9529TIP3    H228552   6.033   0.864   1.695
 9530TIP3   OH228553   0.790   4.900   4.525
 9530TIP3    H128554   0.695   4.913   4.528
 9530TIP3    H228555   0.818   4.897   4.616
 9531TIP3   OH228556   1.039   6.551   3.591
 9531TIP3    H128557   1.059   6.469   3.546
 9531TIP3    H228558   0.946   6.544   3.614
 9532TIP3   OH228559   4.147   1.628   4.982
 9532TIP3    H128560   4.075   1.661   4.929
 9532TIP3    H228561   4.183   1.705   5.026
 9533TIP3   OH228562   1.358   0.733   3.844
 9533TIP3    H128563   1.442   0.765   3.875
 9533TIP3    H228564   1.336   0.789   3.770
 9534TIP3   OH228565   2.739   4.696   1.357
 9534TIP3    H128566   2.756   4.602   1.362
 9534TIP3    H228567   2.788   4.733   1.431
 9535TIP3   OH228568   3.443   2.941   4.319
 9535TIP3    H128569   3.531   2.952   4.354
 9535TIP3    H228570   3.445   2.856   4.276
 9536TIP3   OH228571   6.019   2.462   4.095
 9536TIP3    H128572   5.983   2.373   4.093
 9536TIP3    H228573   5.986   2.500   4.176
 9537TIP3   OH228574   5.356   0.998   0.037
 9537TIP3    H128575   5.290   0.970   0.100
 9537TIP3    H228576   5.308   1.009  -0.046
 9538TIP3   OH228577   4.602   3.695   0.534
 9538TIP3    H128578   4.631   3.675   0.623
 9538TIP3    H228579   4.673   3.747   0.496
 9539TIP3   OH228580   6.133   5.061   3.247
 9539TIP3    H128581   6.144   5.155   3.257
 9539TIP3    H228582   6.195   5.036   3.178
 9540TIP3   OH228583   3.648   0.004   2.945
 9540TIP3    H128584   3.683   0.093   2.933
 9540TIP3    H228585   3.563   0.018   2.987
 9541TIP3   OH228586   3.510   2.551   1.710
 9541TIP3    H128587   3.602   2.543   1.683
 9541TIP3    H228588   3.487   2.463   1.740
 9542TIP3   OH228589   0.397   0.384   3.872
 9542TIP3    H128590   0.371   0.381   3.964
 9542TIP3    H228591   0.371   0.471   3.843
 9543TIP3   OH228592   2.591   4.118   4.349
 9543TIP3    H128593   2.589   4.169   4.268
 9543TIP3    H228594   2.517   4.058   4.342
 9544TIP3   OH228595   6.803   1.064   0.226
 9544TIP3    H128596   6.784   1.072   0.320
 9544TIP3    H228597   6.755   0.987   0.198
 9545TIP3   OH228598   5.246   0.521   4.454
 9545TIP3    H128599   5.207   0.455   4.397
 9545TIP3    H228600   5.274   0.591   4.395
 9546TIP3   OH228601   6.844   2.786   5.325
 9546TIP3    H128602   6.885   2.748   5.247
 9546TIP3    H228603   6.755   2.808   5.297
 9547TIP3   OH228604   0.694   5.953   1.112
 9547TIP3    H128605   0.674   5.986   1.024
 9547TIP3    H228606   0.730   5.866   1.098
 9548TIP3   OH228607   3.870   6.301   5.689
 9548TIP3    H128608   3.791   6.292   5.635
 9548TIP3    H228609   3.912   6.216   5.685
 9549TIP3   OH228610   6.804   5.733   3.041
 9549TIP3    H128611   6.780   5.824   3.022
 9549TIP3    H228612   6.882   5.740   3.096
 9550TIP3   OH228613   3.407   0.983   4.366
 9550TIP3    H128614   3.354   1.020   4.297
 9550TIP3    H228615   3.345   0.941   4.425
 9551TIP3   OH228616   1.913   1.930   4.120
 9551TIP3    H128617   1.904   1.837   4.143
 9551TIP3    H228618   1.911   1.931   4.024
 9552TIP3   OH228619   1.513   2.014   3.921
 9552TIP3    H128620   1.477   2.057   3.844
 9552TIP3    H228621   1.607   2.033   3.917
 9553TIP3   OH228622   0.767   1.444   0.847
 9553TIP3    H128623   0.812   1.361   0.864
 9553TIP3    H228624   0.789   1.499   0.921
 9554TIP3   OH228625   6.747   0.642   3.179
 9554TIP3    H128626   6.827   0.601   3.210
 9554TIP3    H228627   6.760   0.735   3.196
 9555TIP3   OH228628   3.500   4.483   2.964
 9555TIP3    H128629   3.446   4.433   2.903
 9555TIP3    H228630   3.589   4.476   2.929
 9556TIP3   OH228631   5.357   2.211   0.550
 9556TIP3    H128632   5.403   2.258   0.481
 9556TIP3    H228633   5.264   2.220   0.528
 9557TIP3   OH228634   6.739   4.643   2.851
 9557TIP3    H128635   6.777   4.558   2.872
 9557TIP3    H228636   6.756   4.697   2.929
 9558TIP3   OH228637   4.506   1.415   0.418
 9558TIP3    H128638   4.583   1.469   0.399
 9558TIP3    H228639   4.537   1.325   0.408
 9559TIP3   OH228640   4.953   0.121   1.669
 9559TIP3    H128641   4.904   0.134   1.750
 9559TIP3    H228642   4.913   0.184   1.607
 9560TIP3   OH228643   4.009   1.252   1.560
 9560TIP3    H128644   3.993   1.249   1.466
 9560TIP3    H228645   4.069   1.326   1.572
 9561TIP3   OH228646   0.383   6.372   4.001
 9561TIP3    H128647   0.298   6.413   4.014
 9561TIP3    H228648   0.394   6.314   4.077
 9562TIP3   OH228649   6.199   4.213   5.529
 9562TIP3    H128650   6.112   4.220   5.568
 9562TIP3    H228651   6.206   4.291   5.473
 9563TIP3   OH228652   4.749   5.059   4.128
 9563TIP3    H128653   4.741   5.002   4.051
 9563TIP3    H228654   4.671   5.040   4.180
 9564TIP3   OH228655   0.896   5.672   0.957
 9564TIP3    H128656   0.962   5.627   0.905
 9564TIP3    H228657   0.837   5.712   0.893
 9565TIP3   OH228658   4.236   1.287   3.329
 9565TIP3    H128659   4.253   1.378   3.352
 9565TIP3    H228660   4.210   1.246   3.411
 9566TIP3   OH228661   2.524   3.045   5.312
 9566TIP3    H128662   2.476   3.006   5.385
 9566TIP3    H228663   2.499   3.137   5.313
 9567TIP3   OH228664   6.207   6.397   4.732
 9567TIP3    H128665   6.288   6.364   4.770
 9567TIP3    H228666   6.189   6.339   4.658
 9568TIP3   OH228667   2.592   5.353   0.665
 9568TIP3    H128668   2.637   5.405   0.731
 9568TIP3    H228669   2.567   5.416   0.597
 9569TIP3   OH228670   0.032   3.393   1.673
 9569TIP3    H128671   0.080   3.312   1.659
 9569TIP3    H228672   0.067   3.429   1.754
 9570TIP3   OH228673   0.929   5.136   2.695
 9570TIP3    H128674   0.839   5.138   2.729
 9570TIP3    H228675   0.962   5.225   2.711
 9571TIP3   OH228676   0.847   3.313   2.515
 9571TIP3    H128677   0.771   3.370   2.530
 9571TIP3    H228678   0.857   3.311   2.420
 9572TIP3   OH228679   4.738   5.638   3.041
 9572TIP3    H128680   4.735   5.689   2.960
 9572TIP3    H228681   4.680   5.563   3.025
 9573TIP3   OH228682   4.437   3.116   1.902
 9573TIP3    H128683   4.480   3.165   1.972
 9573TIP3    H228684   4.488   3.036   1.894
 9574TIP3   OH228685   6.299   1.563   2.467
 9574TIP3    H128686   6.302   1.468   2.478
 9574TIP3    H228687   6.205   1.584   2.467
 9575TIP3   OH228688   1.641   1.647   0.185
 9575TIP3    H128689   1.556   1.622   0.149
 9575TIP3    H228690   1.701   1.579   0.156
 9576TIP3   OH228691   3.892   6.192   1.531
 9576TIP3    H128692   3.977   6.158   1.558
 9576TIP3    H228693   3.829   6.146   1.587
 9577TIP3   OH228694   2.016   4.719   3.869
 9577TIP3    H128695   1.932   4.762   3.878
 9577TIP3    H228696   2.080   4.785   3.896
 9578TIP3   OH228697   6.840   0.195   1.266
 9578TIP3    H128698   6.812   0.104   1.270
 9578TIP3    H228699   6.854   0.220   1.358
 9579TIP3   OH228700   1.012   4.557   2.677
 9579TIP3    H128701   0.918   4.562   2.658
 9579TIP3    H228702   1.020   4.586   2.768
 9580TIP3   OH228703   4.047   4.090   0.654
 9580TIP3    H128704   4.117   4.103   0.718
 9580TIP3    H228705   4.002   4.011   0.684
 9581TIP3   OH228706   3.924   5.214   4.609
 9581TIP3    H128707   4.008   5.168   4.609
 9581TIP3    H228708   3.946   5.305   4.589
 9582TIP3   OH228709   0.049   0.042   1.953
 9582TIP3    H128710   0.103  -0.029   1.989
 9582TIP3    H228711   0.053   0.029   1.858
 9583TIP3   OH228712   3.465   0.911   2.964
 9583TIP3    H128713   3.498   0.948   3.046
 9583TIP3    H228714   3.544   0.893   2.913
 9584TIP3   OH228715   0.395   2.747   3.628
 9584TIP3    H128716   0.406   2.757   3.533
 9584TIP3    H228717   0.450   2.672   3.651
 9585TIP3   OH228718   4.272   4.115   3.747
 9585TIP3    H128719   4.211   4.189   3.750
 9585TIP3    H228720   4.261   4.072   3.832
 9586TIP3   OH228721   4.244   1.422   4.150
 9586TIP3    H128722   4.183   1.478   4.101
 9586TIP3    H228723   4.329   1.438   4.108
 9587TIP3   OH228724   2.307   0.234   5.181
 9587TIP3    H128725   2.397   0.264   5.194
 9587TIP3    H228726   2.310   0.185   5.099
 9588TIP3   OH228727   4.804   4.257   5.058
 9588TIP3    H128728   4.889   4.289   5.029
 9588TIP3    H228729   4.819   4.167   5.086
 9589TIP3   OH228730   0.590   4.671   4.420
 9589TIP3    H128731   0.684   4.682   4.429
 9589TIP3    H228732   0.570   4.591   4.469
 9590TIP3   OH228733   3.833   4.146   5.146
 9590TIP3    H128734   3.913   4.190   5.173
 9590TIP3    H228735   3.862   4.073   5.090
 9591TIP3   OH228736   4.843   4.335   1.697
 9591TIP3    H128737   4.806   4.422   1.680
 9591TIP3    H228738   4.886   4.344   1.782
 9592TIP3   OH228739   2.896   3.228   3.734
 9592TIP3    H128740   2.890   3.247   3.640
 9592TIP3    H228741   2.845   3.298   3.775
 9593TIP3   OH228742   2.724   2.946   3.494
 9593TIP3    H128743   2.683   2.871   3.538
 9593TIP3    H228744   2.814   2.946   3.527
 9594TIP3   OH228745   2.726   4.788   3.161
 9594TIP3    H128746   2.811   4.792   3.204
 9594TIP3    H228747   2.677   4.721   3.209
 9595TIP3   OH228748   2.252   4.744   1.208
 9595TIP3    H128749   2.327   4.784   1.163
 9595TIP3    H228750   2.256   4.651   1.185
 9596TIP3   OH228751   2.889   6.075   2.112
 9596TIP3    H128752   2.965   6.017   2.104
 9596TIP3    H228753   2.905   6.124   2.193
 9597TIP3   OH228754   2.552   4.416   1.039
 9597TIP3    H128755   2.533   4.324   1.023
 9597TIP3    H228756   2.645   4.425   1.019
 9598TIP3   OH228757   6.431   1.386   4.292
 9598TIP3    H128758   6.442   1.295   4.317
 9598TIP3    H228759   6.337   1.401   4.293
 9599TIP3   OH228760   4.211   2.477   4.556
 9599TIP3    H128761   4.129   2.498   4.601
 9599TIP3    H228762   4.273   2.457   4.626
 9600TIP3   OH228763   7.184   3.914   3.083
 9600TIP3    H128764   7.251   3.948   3.023
 9600TIP3    H228765   7.103   3.956   3.056
 9601TIP3   OH228766   2.971   2.071   0.388
 9601TIP3    H128767   2.926   2.005   0.441
 9601TIP3    H228768   2.940   2.155   0.423
 9602TIP3   OH228769   2.028   0.334   4.927
 9602TIP3    H128770   1.994   0.404   4.870
 9602TIP3    H228771   2.106   0.373   4.968
 9603TIP3   OH228772   3.036   1.285   1.064
 9603TIP3    H128773   2.973   1.229   1.111
 9603TIP3    H228774   3.121   1.247   1.086
 9604TIP3   OH228775   5.673   5.076   3.628
 9604TIP3    H128776   5.754   5.067   3.577
 9604TIP3    H228777   5.605   5.039   3.571
 9605TIP3   OH228778   3.961   2.350   2.030
 9605TIP3    H128779   3.881   2.306   2.058
 9605TIP3    H228780   4.030   2.285   2.041
 9606TIP3   OH228781   4.283   5.985   2.422
 9606TIP3    H128782   4.234   6.064   2.444
 9606TIP3    H228783   4.318   6.001   2.335
 9607TIP3   OH228784   4.623   6.764   0.923
 9607TIP3    H128785   4.569   6.749   1.000
 9607TIP3    H228786   4.657   6.678   0.899
 9608TIP3   OH228787   4.271   1.844   5.095
 9608TIP3    H128788   4.344   1.884   5.047
 9608TIP3    H228789   4.238   1.915   5.151
 9609TIP3   OH228790   4.665   4.298   0.248
 9609TIP3    H128791   4.741   4.335   0.293
 9609TIP3    H228792   4.699   4.224   0.198
 9610TIP3   OH228793   2.007   2.393   1.374
 9610TIP3    H128794   2.080   2.355   1.326
 9610TIP3    H228795   1.958   2.442   1.308
 9611TIP3   OH228796   3.571   6.785   0.137
 9611TIP3    H128797   3.514   6.711   0.160
 9611TIP3    H228798   3.639   6.747   0.082
 9612TIP3   OH228799   3.925   1.477   3.570
 9612TIP3    H128800   3.959   1.473   3.480
 9612TIP3    H228801   3.984   1.421   3.620
 9613TIP3   OH228802   6.039   4.085   4.449
 9613TIP3    H128803   6.113   4.145   4.439
 9613TIP3    H228804   5.964   4.142   4.465
 9614TIP3   OH228805   0.991   1.633   4.020
 9614TIP3    H128806   0.945   1.593   3.947
 9614TIP3    H228807   0.980   1.727   4.006
 9615TIP3   OH228808   0.288   4.998   2.676
 9615TIP3    H128809   0.319   5.059   2.743
 9615TIP3    H228810   0.206   4.963   2.712
 9616TIP3   OH228811   4.647   5.067   3.719
 9616TIP3    H128812   4.579   5.086   3.654
 9616TIP3    H228813   4.637   5.136   3.785
 9617TIP3   OH228814   2.939   5.879   4.379
 9617TIP3    H128815   2.864   5.936   4.359
 9617TIP3    H228816   2.949   5.885   4.474
 9618TIP3   OH228817   2.359   4.874   5.532
 9618TIP3    H128818   2.264   4.857   5.535
 9618TIP3    H228819   2.392   4.810   5.469
 9619TIP3   OH228820   0.189   5.238   5.092
 9619TIP3    H128821   0.220   5.295   5.021
 9619TIP3    H228822   0.242   5.264   5.167
 9620TIP3   OH228823   6.677   0.777   1.033
 9620TIP3    H128824   6.768   0.804   1.041
 9620TIP3    H228825   6.631   0.829   1.098
 9621TIP3   OH228826   1.620   3.007   0.176
 9621TIP3    H128827   1.620   3.045   0.088
 9621TIP3    H228828   1.695   2.948   0.177
 9622TIP3   OH228829   2.523   2.203   0.235
 9622TIP3    H128830   2.604   2.215   0.286
 9622TIP3    H228831   2.482   2.126   0.274
 9623TIP3   OH228832   6.243   1.527   5.037
 9623TIP3    H128833   6.192   1.448   5.057
 9623TIP3    H228834   6.334   1.498   5.040
 9624TIP3   OH228835   5.417   2.541   3.695
 9624TIP3    H128836   5.326   2.517   3.710
 9624TIP3    H228837   5.419   2.636   3.705
 9625TIP3   OH228838   3.439   6.606   0.855
 9625TIP3    H128839   3.397   6.521   0.866
 9625TIP3    H228840   3.527   6.595   0.891
 9626TIP3   OH228841   3.582   1.615   3.679
 9626TIP3    H128842   3.542   1.701   3.675
 9626TIP3    H228843   3.672   1.629   3.649
 9627TIP3   OH228844   4.293   5.874   1.619
 9627TIP3    H128845   4.344   5.798   1.647
 9627TIP3    H228846   4.329   5.897   1.533
 9628TIP3   OH228847   0.036   3.416   5.111
 9628TIP3    H128848   0.120   3.377   5.087
 9628TIP3    H228849   0.041   3.506   5.076
 9629TIP3   OH228850   5.239   6.678   5.737
 9629TIP3    H128851   5.280   6.592   5.742
 9629TIP3    H228852   5.257   6.709   5.649
 9630TIP3   OH228853   4.616   4.575   0.135
 9630TIP3    H128854   4.551   4.548   0.200
 9630TIP3    H228855   4.662   4.494   0.111
 9631TIP3   OH228856   0.541   6.660   1.115
 9631TIP3    H128857   0.496   6.740   1.142
 9631TIP3    H228858   0.576   6.624   1.197
 9632TIP3   OH228859   6.286   4.498   2.029
 9632TIP3    H128860   6.242   4.452   1.958
 9632TIP3    H228861   6.366   4.448   2.044
 9633TIP3   OH228862   6.862   2.378   2.458
 9633TIP3    H128863   6.808   2.452   2.486
 9633TIP3    H228864   6.952   2.405   2.476
 9634TIP3   OH228865   6.547   5.615   1.209
 9634TIP3    H128866   6.591   5.672   1.145
 9634TIP3    H228867   6.542   5.530   1.166
 9635TIP3   OH228868   5.819   2.618   4.934
 9635TIP3    H128869   5.805   2.643   5.026
 9635TIP3    H228870   5.901   2.569   4.935
 9636TIP3   OH228871   6.681   3.598   1.455
 9636TIP3    H128872   6.752   3.646   1.497
 9636TIP3    H228873   6.603   3.621   1.506
 9637TIP3   OH228874   5.111   5.975   4.857
 9637TIP3    H128875   5.115   6.066   4.830
 9637TIP3    H228876   5.183   5.966   4.920
 9638TIP3   OH228877   6.209   6.592   3.302
 9638TIP3    H128878   6.211   6.556   3.391
 9638TIP3    H228879   6.230   6.517   3.246
 9639TIP3   OH228880   1.190   4.274   1.332
 9639TIP3    H128881   1.123   4.210   1.357
 9639TIP3    H228882   1.145   4.359   1.335
 9640TIP3   OH228883   4.164   4.700   0.081
 9640TIP3    H128884   4.185   4.607   0.080
 9640TIP3    H228885   4.247   4.744   0.066
 9641TIP3   OH228886   1.755   0.628   0.522
 9641TIP3    H128887   1.799   0.688   0.583
 9641TIP3    H228888   1.662   0.633   0.547
 9642TIP3   OH228889   2.085   4.059   2.930
 9642TIP3    H128890   2.178   4.037   2.937
 9642TIP3    H228891   2.082   4.136   2.874
 9643TIP3   OH228892   3.406   3.328   4.814
 9643TIP3    H128893   3.396   3.423   4.825
 9643TIP3    H228894   3.437   3.318   4.723
 9644TIP3   OH228895   0.664   0.122   3.496
 9644TIP3    H128896   0.650   0.126   3.401
 9644TIP3    H228897   0.657   0.212   3.526
 9645TIP3   OH228898   3.393   3.175   1.166
 9645TIP3    H128899   3.374   3.153   1.074
 9645TIP3    H228900   3.328   3.125   1.216
 9646TIP3   OH228901   3.231   5.078   5.629
 9646TIP3    H128902   3.188   5.103   5.547
 9646TIP3    H228903   3.324   5.081   5.609
 9647TIP3   OH228904   5.380   6.461   3.423
 9647TIP3    H128905   5.297   6.453   3.470
 9647TIP3    H228906   5.436   6.510   3.483
 9648TIP3   OH228907   3.796   3.253   1.051
 9648TIP3    H128908   3.844   3.333   1.030
 9648TIP3    H228909   3.849   3.211   1.119
 9649TIP3   OH228910   2.360   2.120   2.916
 9649TIP3    H128911   2.405   2.196   2.951
 9649TIP3    H228912   2.296   2.156   2.854
 9650TIP3   OH228913   0.879   1.810   5.426
 9650TIP3    H128914   0.868   1.831   5.518
 9650TIP3    H228915   0.792   1.823   5.388
 9651TIP3   OH228916   3.018   3.339   5.295
 9651TIP3    H128917   2.995   3.394   5.220
 9651TIP3    H228918   2.982   3.253   5.273
 9652TIP3   OH228919   6.678   0.027   2.820
 9652TIP3    H128920   6.727   0.101   2.856
 9652TIP3    H228921   6.734  -0.049   2.836
 9653TIP3   OH228922   4.004   0.288   4.412
 9653TIP3    H128923   4.007   0.323   4.323
 9653TIP3    H228924   4.068   0.340   4.460
 9654TIP3   OH228925   6.644   1.999   0.509
 9654TIP3    H128926   6.601   2.026   0.427
 9654TIP3    H228927   6.574   2.001   0.574
 9655TIP3   OH228928   2.942   4.207   3.095
 9655TIP3    H128929   2.904   4.119   3.088
 9655TIP3    H228930   2.869   4.266   3.075
 9656TIP3   OH228931   1.578   0.856   4.759
 9656TIP3    H128932   1.649   0.920   4.749
 9656TIP3    H228933   1.550   0.867   4.850
 9657TIP3   OH228934   0.905   0.608   1.785
 9657TIP3    H128935   0.942   0.689   1.750
 9657TIP3    H228936   0.978   0.565   1.830
 9658TIP3   OH228937   3.580   5.670   0.691
 9658TIP3    H128938   3.625   5.586   0.697
 9658TIP3    H228939   3.487   5.648   0.686
 9659TIP3   OH228940   6.458   1.122   4.331
 9659TIP3    H128941   6.505   1.085   4.256
 9659TIP3    H228942   6.398   1.053   4.359
 9660TIP3   OH228943   3.732   2.267   2.185
 9660TIP3    H128944   3.677   2.253   2.108
 9660TIP3    H228945   3.672   2.298   2.252
 9661TIP3   OH228946   4.947   0.459   0.239
 9661TIP3    H128947   4.864   0.473   0.283
 9661TIP3    H228948   4.923   0.440   0.148
 9662TIP3   OH228949   4.146   0.416   1.698
 9662TIP3    H128950   4.189   0.475   1.761
 9662TIP3    H228951   4.069   0.383   1.745
 9663TIP3   OH228952   3.069   0.543   1.025
 9663TIP3    H128953   2.995   0.585   0.982
 9663TIP3    H228954   3.086   0.597   1.103
 9664TIP3   OH228955   3.529   1.368   2.215
 9664TIP3    H128956   3.590   1.374   2.288
 9664TIP3    H228957   3.484   1.453   2.214
 9665TIP3   OH228958   5.930   0.125   5.396
 9665TIP3    H128959   5.892   0.193   5.452
 9665TIP3    H228960   5.903   0.150   5.307
 9666TIP3   OH228961   5.728   2.147   2.064
 9666TIP3    H128962   5.748   2.055   2.079
 9666TIP3    H228963   5.654   2.165   2.122
 9667TIP3   OH228964   6.606   1.972   4.510
 9667TIP3    H128965   6.595   1.877   4.509
 9667TIP3    H228966   6.603   1.997   4.418
 9668TIP3   OH228967   6.091   4.291   0.531
 9668TIP3    H128968   6.184   4.302   0.508
 9668TIP3    H228969   6.051   4.375   0.510
 9669TIP3   OH228970   0.730   2.269   2.261
 9669TIP3    H128971   0.776   2.347   2.229
 9669TIP3    H228972   0.709   2.290   2.352
 9670TIP3   OH228973   3.399   0.198   5.839
 9670TIP3    H128974   3.311   0.185   5.802
 9670TIP3    H228975   3.413   0.293   5.832
 9671TIP3   OH228976   1.046   4.944   2.280
 9671TIP3    H128977   1.124   4.992   2.306
 9671TIP3    H228978   1.078   4.877   2.220
 9672TIP3   OH228979   4.255   5.518   3.518
 9672TIP3    H128980   4.211   5.585   3.467
 9672TIP3    H228981   4.277   5.561   3.601
 9673TIP3   OH228982   2.201   3.432   2.038
 9673TIP3    H128983   2.262   3.380   2.091
 9673TIP3    H228984   2.147   3.367   1.993
 9674TIP3   OH228985   3.037   2.293   3.674
 9674TIP3    H128986   3.054   2.295   3.579
 9674TIP3    H228987   2.956   2.243   3.682
 9675TIP3   OH228988   6.637   5.109   4.430
 9675TIP3    H128989   6.608   5.142   4.514
 9675TIP3    H228990   6.732   5.109   4.435
 9676TIP3   OH228991   6.254   4.966   0.299
 9676TIP3    H128992   6.210   4.940   0.218
 9676TIP3    H228993   6.196   4.935   0.369
 9677TIP3   OH228994   5.400   3.625   3.364
 9677TIP3    H128995   5.419   3.621   3.457
 9677TIP3    H228996   5.457   3.695   3.331
 9678TIP3   OH228997   1.511   3.837   1.731
 9678TIP3    H128998   1.477   3.913   1.684
 9678TIP3    H228999   1.544   3.779   1.662
 9679TIP3   OH229000   1.717   1.441   1.334
 9679TIP3    H129001   1.746   1.522   1.374
 9679TIP3    H229002   1.752   1.372   1.391
 9680TIP3   OH229003   5.808   1.414   3.462
 9680TIP3    H129004   5.777   1.327   3.487
 9680TIP3    H229005   5.732   1.471   3.476
 9681TIP3   OH229006   5.474   1.029   5.289
 9681TIP3    H129007   5.407   0.982   5.338
 9681TIP3    H229008   5.551   0.973   5.294
 9682TIP3   OH229009   6.642   5.964   3.144
 9682TIP3    H129010   6.719   6.008   3.182
 9682TIP3    H229011   6.599   5.923   3.220
 9683TIP3   OH229012   0.998   1.531   1.280
 9683TIP3    H129013   1.060   1.602   1.288
 9683TIP3    H229014   0.990   1.495   1.368
 9684TIP3   OH229015   0.204   2.226   1.615
 9684TIP3    H129016   0.157   2.300   1.655
 9684TIP3    H229017   0.142   2.153   1.621
 9685TIP3   OH229018   0.540   5.586   1.583
 9685TIP3    H129019   0.564   5.548   1.498
 9685TIP3    H229020   0.507   5.512   1.634
 9686TIP3   OH229021   3.525   2.719   3.335
 9686TIP3    H129022   3.608   2.706   3.381
 9686TIP3    H229023   3.458   2.707   3.403
 9687TIP3   OH229024   3.991   2.299   4.143
 9687TIP3    H129025   3.954   2.312   4.056
 9687TIP3    H229026   4.067   2.357   4.147
 9688TIP3   OH229027   2.110   5.588   0.573
 9688TIP3    H129028   2.031   5.621   0.615
 9688TIP3    H229029   2.135   5.657   0.511
 9689TIP3   OH229030   1.905   5.001   2.827
 9689TIP3    H129031   1.973   5.039   2.771
 9689TIP3    H229032   1.825   5.008   2.775
 9690TIP3   OH229033   6.407   0.874   4.701
 9690TIP3    H129034   6.453   0.805   4.749
 9690TIP3    H229035   6.327   0.889   4.752
 9691TIP3   OH229036   4.879   0.990   4.316
 9691TIP3    H129037   4.946   0.922   4.310
 9691TIP3    H229038   4.846   0.984   4.405
 9692TIP3   OH229039   3.270   0.241   0.521
 9692TIP3    H129040   3.327   0.317   0.531
 9692TIP3    H229041   3.184   0.272   0.551
 9693TIP3   OH229042   4.005   3.112   0.807
 9693TIP3    H129043   3.919   3.116   0.766
 9693TIP3    H229044   4.064   3.151   0.742
 9694TIP3   OH229045   3.173   3.462   1.832
 9694TIP3    H129046   3.251   3.517   1.830
 9694TIP3    H229047   3.113   3.503   1.770
 9695TIP3   OH229048   2.875   2.594   1.470
 9695TIP3    H129049   2.877   2.689   1.454
 9695TIP3    H229050   2.961   2.575   1.507
 9696TIP3   OH229051   5.606   4.373   5.198
 9696TIP3    H129052   5.531   4.431   5.184
 9696TIP3    H229053   5.615   4.326   5.116
 9697TIP3   OH229054   6.590   5.561   1.743
 9697TIP3    H129055   6.517   5.564   1.805
 9697TIP3    H229056   6.668   5.552   1.798
 9698TIP3   OH229057   3.429   1.601   1.203
 9698TIP3    H129058   3.488   1.614   1.129
 9698TIP3    H229059   3.461   1.522   1.245
 9699TIP3   OH229060   0.143   6.299   3.044
 9699TIP3    H129061   0.132   6.204   3.048
 9699TIP3    H229062   0.209   6.313   2.976
 9700TIP3   OH229063   6.875   5.208   5.452
 9700TIP3    H129064   6.879   5.200   5.547
 9700TIP3    H229065   6.784   5.189   5.430
 9701TIP3   OH229066   1.057   2.678   4.034
 9701TIP3    H129067   1.006   2.759   4.041
 9701TIP3    H229068   0.996   2.616   3.993
 9702TIP3   OH229069   0.759   0.195   5.043
 9702TIP3    H129070   0.788   0.270   5.096
 9702TIP3    H229071   0.717   0.235   4.967
 9703TIP3   OH229072   5.286   5.786   1.901
 9703TIP3    H129073   5.233   5.727   1.955
 9703TIP3    H229074   5.375   5.751   1.907
 9704TIP3   OH229075   6.923   3.590   1.822
 9704TIP3    H129076   6.879   3.673   1.802
 9704TIP3    H229077   7.016   3.607   1.802
 9705TIP3   OH229078   0.089   2.687   2.227
 9705TIP3    H129079   0.057   2.769   2.267
 9705TIP3    H229080   0.087   2.624   2.299
 9706TIP3   OH229081   1.751   4.609   1.482
 9706TIP3    H129082   1.815   4.622   1.552
 9706TIP3    H229083   1.714   4.522   1.498
 9707TIP3   OH229084   3.264   4.018   2.528
 9707TIP3    H129085   3.306   4.097   2.561
 9707TIP3    H229086   3.231   3.974   2.607
 9708TIP3   OH229087   1.914   0.116   4.055
 9708TIP3    H129088   1.978   0.180   4.086
 9708TIP3    H229089   1.854   0.167   4.000
 9709TIP3   OH229090   0.945   1.398   1.533
 9709TIP3    H129091   0.971   1.451   1.609
 9709TIP3    H229092   0.922   1.313   1.569
 9710TIP3   OH229093   3.198   3.815   1.261
 9710TIP3    H129094   3.145   3.745   1.221
 9710TIP3    H229095   3.236   3.774   1.339
 9711TIP3   OH229096   1.383   5.129   5.203
 9711TIP3    H129097   1.448   5.090   5.144
 9711TIP3    H229098   1.398   5.086   5.287
 9712TIP3   OH229099   5.887   3.799   5.219
 9712TIP3    H129100   5.836   3.851   5.282
 9712TIP3    H229101   5.847   3.712   5.222
 9713TIP3   OH229102   7.156   0.568   5.885
 9713TIP3    H129103   7.175   0.516   5.807
 9713TIP3    H229104   7.064   0.591   5.876
 9714TIP3   OH229105   6.635   3.479   1.186
 9714TIP3    H129106   6.626   3.558   1.133
 9714TIP3    H229107   6.663   3.511   1.272
 9715TIP3   OH229108   1.174   1.221   1.458
 9715TIP3    H129109   1.092   1.185   1.423
 9715TIP3    H229110   1.220   1.255   1.381
 9716TIP3   OH229111   5.901   4.653   0.695
 9716TIP3    H129112   5.856   4.725   0.740
 9716TIP3    H229113   5.873   4.574   0.742
 9717TIP3   OH229114   0.084   2.171   2.498
 9717TIP3    H129115   0.092   2.249   2.443
 9717TIP3    H229116   0.162   2.173   2.554
 9718TIP3   OH229117   5.508   0.204   4.181
 9718TIP3    H129118   5.510   0.257   4.101
 9718TIP3    H229119   5.467   0.122   4.155
 9719TIP3   OH229120   5.363   4.936   5.602
 9719TIP3    H129121   5.299   4.989   5.555
 9719TIP3    H229122   5.394   4.872   5.538
 9720TIP3   OH229123   5.417   2.837   3.766
 9720TIP3    H129124   5.339   2.836   3.710
 9720TIP3    H229125   5.468   2.911   3.735
 9721TIP3   OH229126   5.926   2.204   4.192
 9721TIP3    H129127   5.944   2.111   4.210
 9721TIP3    H229128   5.949   2.249   4.273
 9722TIP3   OH229129   6.335   5.743   3.829
 9722TIP3    H129130   6.353   5.667   3.774
 9722TIP3    H229131   6.253   5.721   3.874
 9723TIP3   OH229132   0.512   3.996   3.684
 9723TIP3    H129133   0.429   4.025   3.721
 9723TIP3    H229134   0.573   4.067   3.702
 9724TIP3   OH229135   3.746   4.805   1.393
 9724TIP3    H129136   3.776   4.835   1.308
 9724TIP3    H229137   3.825   4.799   1.446
 9725TIP3   OH229138   6.766   3.158   3.120
 9725TIP3    H129139   6.761   3.125   3.030
 9725TIP3    H229140   6.845   3.211   3.122
 9726TIP3   OH229141   4.376   3.967   0.453
 9726TIP3    H129142   4.388   4.060   0.433
 9726TIP3    H229143   4.282   3.952   0.439
 9727TIP3   OH229144   3.624   4.449   2.480
 9727TIP3    H129145   3.712   4.428   2.448
 9727TIP3    H229146   3.583   4.364   2.497
 9728TIP3   OH229147   0.136   5.673   3.665
 9728TIP3    H129148   0.152   5.725   3.744
 9728TIP3    H229149   0.104   5.589   3.697
 9729TIP3   OH229150   0.970   6.510   5.513
 9729TIP3    H129151   1.000   6.597   5.542
 9729TIP3    H229152   1.024   6.490   5.437
 9730TIP3   OH229153   5.996   2.917   4.249
 9730TIP3    H129154   5.937   2.871   4.309
 9730TIP3    H229155   6.068   2.856   4.235
 9731TIP3   OH229156   6.113   1.240   4.299
 9731TIP3    H129157   6.140   1.173   4.236
 9731TIP3    H229158   6.038   1.282   4.257
 9732TIP3   OH229159   6.872   4.965   3.705
 9732TIP3    H129160   6.835   5.052   3.721
 9732TIP3    H229161   6.819   4.906   3.758
 9733TIP3   OH229162   7.059   5.022   3.497
 9733TIP3    H129163   6.978   5.014   3.547
 9733TIP3    H229164   7.095   4.933   3.495
 9734TIP3   OH229165   5.168   1.957   2.210
 9734TIP3    H129166   5.242   1.984   2.156
 9734TIP3    H229167   5.207   1.905   2.281
 9735TIP3   OH229168   2.648   1.216   3.325
 9735TIP3    H129169   2.735   1.214   3.364
 9735TIP3    H229170   2.608   1.133   3.350
 9736TIP3   OH229171   0.271   4.963   4.200
 9736TIP3    H129172   0.208   4.936   4.267
 9736TIP3    H229173   0.233   5.042   4.162
 9737TIP3   OH229174   0.954   3.771   4.026
 9737TIP3    H129175   1.015   3.697   4.038
 9737TIP3    H229176   0.869   3.735   4.050
 9738TIP3   OH229177   0.374   3.823   0.927
 9738TIP3    H129178   0.464   3.811   0.897
 9738TIP3    H229179   0.322   3.823   0.847
 9739TIP3   OH229180   6.445   5.206   3.850
 9739TIP3    H129181   6.500   5.264   3.903
 9739TIP3    H229182   6.476   5.118   3.870
 9740TIP3   OH229183   1.668   5.616   1.853
 9740TIP3    H129184   1.581   5.594   1.822
 9740TIP3    H229185   1.662   5.606   1.949
 9741TIP3   OH229186   2.247   1.118   1.236
 9741TIP3    H129187   2.213   1.208   1.240
 9741TIP3    H229188   2.340   1.128   1.219
 9742TIP3   OH229189   2.071   2.642   0.939
 9742TIP3    H129190   2.052   2.720   0.991
 9742TIP3    H229191   2.025   2.571   0.984
 9743TIP3   OH229192   4.704   3.756   5.889
 9743TIP3    H129193   4.666   3.668   5.898
 9743TIP3    H229194   4.630   3.812   5.868
 9744TIP3   OH229195   4.225   6.176   4.069
 9744TIP3    H129196   4.308   6.223   4.078
 9744TIP3    H229197   4.241   6.091   4.111
 9745TIP3   OH229198   5.692   1.693   1.351
 9745TIP3    H129199   5.750   1.765   1.325
 9745TIP3    H229200   5.617   1.735   1.391
 9746TIP3   OH229201   6.841   2.271   1.390
 9746TIP3    H129202   6.812   2.298   1.477
 9746TIP3    H229203   6.770   2.214   1.358
 9747TIP3   OH229204   3.451   6.337   2.157
 9747TIP3    H129205   3.463   6.420   2.202
 9747TIP3    H229206   3.360   6.312   2.177
 9748TIP3   OH229207   5.111   0.899   0.165
 9748TIP3    H129208   5.055   0.844   0.220
 9748TIP3    H229209   5.078   0.885   0.076
 9749TIP3   OH229210   2.052   0.526   5.401
 9749TIP3    H129211   2.095   0.483   5.475
 9749TIP3    H229212   2.058   0.462   5.330
   7.22679   6.81348   5.90064   0.00000   0.00000  -2.40893   0.00000  -2.40893  -3.40674
