Title t= 474.00000 step= 237000
29212
    1ASP      N    1   3.389   2.082   2.318
    1ASP    HT1    2   3.444   2.025   2.251
    1ASP    HT2    3   3.444   2.168   2.340
    1ASP    HT3    4   3.297   2.112   2.280
    1ASP     CA    5   3.357   2.000   2.434
    1ASP     HA    6   3.346   1.898   2.401
    1ASP     CB    7   3.473   2.004   2.541
    1ASP    HB1    8   3.442   1.998   2.647
    1ASP    HB2    9   3.517   2.106   2.537
    1ASP     CG   10   3.587   1.914   2.513
    1ASP    OD1   11   3.591   1.862   2.401
    1ASP    OD2   12   3.685   1.903   2.586
    1ASP      C   13   3.229   2.039   2.491
    1ASP      O   14   3.187   2.152   2.464
    2GLY      N   15   3.168   1.953   2.576
    2GLY     HN   16   3.212   1.864   2.585
    2GLY     CA   17   3.043   1.980   2.642
    2GLY    HA1   18   3.043   2.074   2.695
    2GLY    HA2   19   3.038   1.896   2.710
    2GLY      C   20   2.922   1.977   2.553
    2GLY      O   21   2.920   2.036   2.443
    3ASP      N   22   2.816   1.900   2.591
    3ASP     HN   23   2.812   1.848   2.676
    3ASP     CA   24   2.693   1.890   2.516
    3ASP     HA   25   2.705   1.873   2.411
    3ASP     CB   26   2.600   1.777   2.575
    3ASP    HB1   27   2.500   1.779   2.527
    3ASP    HB2   28   2.586   1.802   2.682
    3ASP     CG   29   2.660   1.637   2.557
    3ASP    OD1   30   2.645   1.559   2.657
    3ASP    OD2   31   2.700   1.598   2.450
    3ASP      C   32   2.609   2.016   2.534
    3ASP      O   33   2.618   2.096   2.627
    4GLY      N   34   2.518   2.040   2.435
    4GLY     HN   35   2.516   1.966   2.368
    4GLY     CA   36   2.407   2.142   2.419
    4GLY    HA1   37   2.365   2.131   2.320
    4GLY    HA2   38   2.460   2.235   2.435
    4GLY      C   39   2.294   2.139   2.516
    4GLY      O   40   2.291   2.053   2.601
    5PRO      N   41   2.196   2.231   2.503
    5PRO     CD   42   2.214   2.339   2.408
    5PRO    HD1   43   2.228   2.292   2.309
    5PRO    HD2   44   2.304   2.404   2.420
    5PRO     CA   45   2.079   2.251   2.589
    5PRO     HA   46   2.109   2.300   2.680
    5PRO     CB   47   1.989   2.332   2.495
    5PRO    HB1   48   1.906   2.387   2.544
    5PRO    HB2   49   1.937   2.268   2.419
    5PRO     CG   50   2.085   2.424   2.421
    5PRO    HG1   51   2.048   2.467   2.326
    5PRO    HG2   52   2.104   2.507   2.493
    5PRO      C   53   2.006   2.126   2.631
    5PRO      O   54   2.028   2.015   2.581
    6GLY      N   55   1.923   2.149   2.733
    6GLY     HN   56   1.919   2.242   2.769
    6GLY     CA   57   1.831   2.047   2.780
    6GLY    HA1   58   1.873   2.021   2.877
    6GLY    HA2   59   1.824   1.968   2.706
    6GLY      C   60   1.691   2.105   2.790
    6GLY      O   61   1.678   2.230   2.773
    7ASP      N   62   1.576   2.029   2.807
    7ASP     HN   63   1.580   1.929   2.803
    7ASP     CA   64   1.447   2.081   2.817
    7ASP     HA   65   1.425   2.143   2.731
    7ASP     CB   66   1.352   1.959   2.825
    7ASP    HB1   67   1.249   2.000   2.832
    7ASP    HB2   68   1.377   1.890   2.909
    7ASP     CG   69   1.354   1.869   2.706
    7ASP    OD1   70   1.270   1.774   2.700
    7ASP    OD2   71   1.433   1.891   2.612
    7ASP      C   72   1.417   2.175   2.938
    7ASP      O   73   1.488   2.175   3.044
    8PRO      N   74   1.316   2.272   2.937
    8PRO     CD   75   1.238   2.312   2.823
    8PRO    HD1   76   1.179   2.228   2.780
    8PRO    HD2   77   1.302   2.342   2.737
    8PRO     CA   78   1.314   2.370   3.046
    8PRO     HA   79   1.416   2.390   3.074
    8PRO     CB   80   1.237   2.487   2.980
    8PRO    HB1   81   1.305   2.555   2.925
    8PRO    HB2   82   1.177   2.546   3.052
    8PRO     CG   83   1.148   2.425   2.868
    8PRO    HG1   84   1.057   2.387   2.920
    8PRO    HG2   85   1.119   2.503   2.794
    8PRO      C   86   1.237   2.309   3.168
    8PRO      O   87   1.233   2.371   3.273
    9GLY      N   88   1.177   2.189   3.152
    9GLY     HN   89   1.177   2.151   3.059
    9GLY     CA   90   1.103   2.107   3.244
    9GLY    HA1   91   1.136   2.011   3.209
    9GLY    HA2   92   0.998   2.123   3.226
    9GLY      C   93   1.128   2.116   3.390
    9GLY      O   94   1.240   2.104   3.436
   10ASP      N   95   1.018   2.143   3.465
   10ASP     HN   96   0.926   2.163   3.431
   10ASP     CA   97   1.029   2.154   3.607
   10ASP     HA   98   1.105   2.227   3.629
   10ASP     CB   99   0.894   2.202   3.667
   10ASP    HB1  100   0.901   2.193   3.778
   10ASP    HB2  101   0.806   2.142   3.634
   10ASP     CG  102   0.865   2.341   3.621
   10ASP    OD1  103   0.945   2.421   3.565
   10ASP    OD2  104   0.750   2.385   3.650
   10ASP      C  105   1.084   2.022   3.673
   10ASP      O  106   1.094   1.919   3.607
   11GLY      N  107   1.132   2.037   3.801
   11GLY     HN  108   1.118   2.126   3.844
   11GLY     CA  109   1.220   1.937   3.856
   11GLY    HA1  110   1.222   1.842   3.804
   11GLY    HA2  111   1.194   1.937   3.961
   11GLY      C  112   1.360   1.993   3.859
   11GLY    OT1  113   1.403   2.035   3.966
   11GLY    OT2  114   1.432   1.987   3.759
   12LIT    LIT  115   0.775   1.418   1.753
   13LIT    LIT  116   5.882   0.838   0.680
   14LIT    LIT  117   0.879   5.267   0.106
   15LIT    LIT  118   6.232   4.259   1.806
   16LIT    LIT  119   1.575   2.035   3.875
   17LIT    LIT  120   3.373   5.505   4.045
   18LIT    LIT  121   3.042   3.834   2.863
   19LIT    LIT  122   6.687   0.002   5.401
   20LIT    LIT  123   0.706   0.295   4.686
   21LIT    LIT  124   1.222   4.933   4.559
   22LIT    LIT  125   5.773   1.454   3.463
   23LIT    LIT  126   4.771   1.101   1.290
   24LIT    LIT  127   2.117   5.922   0.959
   25LIT    LIT  128   0.269   3.675   1.685
   26LIT    LIT  129   0.814   2.572   3.610
   27LIT    LIT  130   5.863   5.738   4.670
   28LIT    LIT  131   4.203   0.093   5.220
   29LIT    LIT  132   6.198   2.490   2.639
   30LIT    LIT  133   1.351   0.645   1.616
   31LIT    LIT  134   5.944   2.914   0.546
   32LIT    LIT  135   6.372   5.507   5.712
   33LIT    LIT  136   2.531   4.668   2.870
   34LIT    LIT  137   6.000   2.233   4.949
   35LIT    LIT  138   0.515   1.607   2.495
   36LIT    LIT  139   7.115   6.375   2.035
   37LIT    LIT  140   2.544   4.349   4.280
   38LIT    LIT  141   0.771   0.737   0.705
   39LIT    LIT  142   3.800   1.821   2.466
   40LIT    LIT  143   3.914   6.289   2.372
   41LIT    LIT  144   3.740   2.234   3.320
   42LIT    LIT  145   2.688   1.415   2.532
   43CLA    CLA  146   3.814   6.083   2.353
   44CLA    CLA  147   7.207   4.664   4.756
   45CLA    CLA  148   2.858   3.365   3.391
   46CLA    CLA  149   4.038   0.728   5.247
   47CLA    CLA  150   0.501   0.844   2.957
   48CLA    CLA  151   5.679   6.428   2.121
   49CLA    CLA  152   0.761   3.012   3.881
   50CLA    CLA  153   6.835   3.382   1.743
   51CLA    CLA  154   6.274   0.068   1.335
   52CLA    CLA  155   1.543   5.491   4.620
   53CLA    CLA  156   2.999   1.314   3.229
   54CLA    CLA  157   2.180   1.503   0.524
   55CLA    CLA  158   0.494   2.854   5.431
   56CLA    CLA  159   1.789   0.340   3.356
   57CLA    CLA  160   1.232   0.686   4.478
   58CLA    CLA  161   2.481   4.725   2.658
   59CLA    CLA  162   5.318   1.555   1.479
   60CLA    CLA  163   2.101   6.570   1.352
   61CLA    CLA  164   0.373   1.423   2.527
   62CLA    CLA  165   1.775   1.752   2.347
   63CLA    CLA  166   2.036   5.537   4.509
   64CLA    CLA  167   7.131   1.241   5.148
   65CLA    CLA  168   1.713   6.225   0.344
   66CLA    CLA  169   6.402   3.899   1.118
   67CLA    CLA  170   0.125   4.158   4.728
   68CLA    CLA  171   4.732   2.054   3.595
   69CLA    CLA  172   3.156   5.918   4.808
   70TIP3   OH2  173   2.503   3.193   2.713
   70TIP3    H1  174   2.523   3.244   2.634
   70TIP3    H2  175   2.575   3.215   2.773
   71TIP3   OH2  176   1.769   0.354   0.822
   71TIP3    H1  177   1.730   0.393   0.900
   71TIP3    H2  178   1.698   0.355   0.757
   72TIP3   OH2  179   7.140   5.937   5.366
   72TIP3    H1  180   7.187   5.954   5.447
   72TIP3    H2  181   7.100   5.851   5.378
   73TIP3   OH2  182   2.095   6.487   4.353
   73TIP3    H1  183   2.058   6.457   4.269
   73TIP3    H2  184   2.189   6.497   4.335
   74TIP3   OH2  185   2.221   3.489   4.486
   74TIP3    H1  186   2.131   3.506   4.514
   74TIP3    H2  187   2.222   3.395   4.465
   75TIP3   OH2  188   5.096   2.879   1.729
   75TIP3    H1  189   5.093   2.838   1.642
   75TIP3    H2  190   5.021   2.939   1.730
   76TIP3   OH2  191   4.105   4.398   5.863
   76TIP3    H1  192   4.060   4.420   5.782
   76TIP3    H2  193   4.057   4.323   5.898
   77TIP3   OH2  194   5.415   5.188   3.645
   77TIP3    H1  195   5.455   5.182   3.558
   77TIP3    H2  196   5.458   5.262   3.687
   78TIP3   OH2  197   5.065   1.706   4.241
   78TIP3    H1  198   5.069   1.618   4.203
   78TIP3    H2  199   4.973   1.717   4.266
   79TIP3   OH2  200   2.895   5.956   2.509
   79TIP3    H1  201   2.935   5.974   2.594
   79TIP3    H2  202   2.833   6.028   2.496
   80TIP3   OH2  203   1.756   0.616   3.165
   80TIP3    H1  204   1.841   0.612   3.122
   80TIP3    H2  205   1.762   0.551   3.235
   81TIP3   OH2  206   6.235   2.154   0.993
   81TIP3    H1  207   6.256   2.111   1.076
   81TIP3    H2  208   6.267   2.244   1.003
   82TIP3   OH2  209   3.499   3.105   5.641
   82TIP3    H1  210   3.512   3.103   5.546
   82TIP3    H2  211   3.578   3.064   5.676
   83TIP3   OH2  212   6.818   2.046   0.527
   83TIP3    H1  213   6.900   2.010   0.561
   83TIP3    H2  214   6.753   1.977   0.542
   84TIP3   OH2  215   0.319   5.592   5.528
   84TIP3    H1  216   0.246   5.530   5.521
   84TIP3    H2  217   0.368   5.580   5.446
   85TIP3   OH2  218   0.226   0.688   2.395
   85TIP3    H1  219   0.220   0.707   2.489
   85TIP3    H2  220   0.239   0.593   2.392
   86TIP3   OH2  221   0.533   6.250   0.418
   86TIP3    H1  222   0.538   6.341   0.389
   86TIP3    H2  223   0.568   6.251   0.507
   87TIP3   OH2  224   6.813   2.929   1.424
   87TIP3    H1  225   6.821   2.842   1.463
   87TIP3    H2  226   6.838   2.990   1.494
   88TIP3   OH2  227   1.352   4.951   4.949
   88TIP3    H1  228   1.271   4.995   4.974
   88TIP3    H2  229   1.421   5.009   4.978
   89TIP3   OH2  230   0.941   5.464   0.906
   89TIP3    H1  231   0.885   5.394   0.938
   89TIP3    H2  232   0.970   5.510   0.985
   90TIP3   OH2  233   2.836   3.531   2.318
   90TIP3    H1  234   2.895   3.587   2.267
   90TIP3    H2  235   2.751   3.574   2.309
   91TIP3   OH2  236   5.905   1.670   5.798
   91TIP3    H1  237   5.815   1.671   5.765
   91TIP3    H2  238   5.914   1.584   5.840
   92TIP3   OH2  239   5.151   4.055   5.872
   92TIP3    H1  240   5.225   4.000   5.845
   92TIP3    H2  241   5.116   4.090   5.790
   93TIP3   OH2  242   2.717   1.226   5.727
   93TIP3    H1  243   2.802   1.209   5.687
   93TIP3    H2  244   2.706   1.156   5.791
   94TIP3   OH2  245   2.996   4.657   0.379
   94TIP3    H1  246   3.053   4.696   0.313
   94TIP3    H2  247   2.964   4.730   0.431
   95TIP3   OH2  248   1.855   0.648   0.926
   95TIP3    H1  249   1.819   0.629   0.839
   95TIP3    H2  250   1.926   0.710   0.910
   96TIP3   OH2  251   4.814   4.102   4.276
   96TIP3    H1  252   4.722   4.129   4.274
   96TIP3    H2  253   4.831   4.070   4.187
   97TIP3   OH2  254   6.973   4.724   2.575
   97TIP3    H1  255   6.886   4.687   2.561
   97TIP3    H2  256   7.023   4.651   2.613
   98TIP3   OH2  257   1.169   4.529   1.236
   98TIP3    H1  258   1.132   4.445   1.209
   98TIP3    H2  259   1.116   4.556   1.311
   99TIP3   OH2  260   0.791   3.078   3.397
   99TIP3    H1  261   0.791   3.019   3.473
   99TIP3    H2  262   0.711   3.056   3.349
  100TIP3   OH2  263   0.879   3.363   3.839
  100TIP3    H1  264   0.965   3.356   3.799
  100TIP3    H2  265   0.840   3.277   3.828
  101TIP3   OH2  266   6.770   5.284   5.800
  101TIP3    H1  267   6.846   5.230   5.776
  101TIP3    H2  268   6.804   5.374   5.797
  102TIP3   OH2  269   2.686   1.397   4.070
  102TIP3    H1  270   2.604   1.402   4.020
  102TIP3    H2  271   2.662   1.354   4.152
  103TIP3   OH2  272   0.829   0.444   2.346
  103TIP3    H1  273   0.789   0.357   2.350
  103TIP3    H2  274   0.913   0.429   2.302
  104TIP3   OH2  275   0.813   2.851   2.034
  104TIP3    H1  276   0.860   2.929   2.063
  104TIP3    H2  277   0.866   2.778   2.066
  105TIP3   OH2  278   2.679   0.236   3.517
  105TIP3    H1  279   2.751   0.288   3.553
  105TIP3    H2  280   2.720   0.178   3.454
  106TIP3   OH2  281   2.746   3.246   1.433
  106TIP3    H1  282   2.750   3.246   1.337
  106TIP3    H2  283   2.784   3.161   1.458
  107TIP3   OH2  284   5.443   3.171   4.873
  107TIP3    H1  285   5.369   3.138   4.923
  107TIP3    H2  286   5.519   3.157   4.929
  108TIP3   OH2  287   2.477   5.007   0.618
  108TIP3    H1  288   2.556   5.042   0.658
  108TIP3    H2  289   2.405   5.050   0.663
  109TIP3   OH2  290   2.276   3.927   1.213
  109TIP3    H1  291   2.287   3.889   1.301
  109TIP3    H2  292   2.345   3.886   1.161
  110TIP3   OH2  293   5.558   5.113   3.153
  110TIP3    H1  294   5.626   5.130   3.088
  110TIP3    H2  295   5.482   5.085   3.102
  111TIP3   OH2  296   2.866   5.900   3.455
  111TIP3    H1  297   2.901   5.824   3.409
  111TIP3    H2  298   2.772   5.897   3.439
  112TIP3   OH2  299   4.852   4.829   4.117
  112TIP3    H1  300   4.868   4.815   4.210
  112TIP3    H2  301   4.881   4.918   4.100
  113TIP3   OH2  302   3.263   1.288   1.292
  113TIP3    H1  303   3.290   1.378   1.274
  113TIP3    H2  304   3.320   1.259   1.363
  114TIP3   OH2  305   3.416   4.446   1.968
  114TIP3    H1  306   3.424   4.478   1.878
  114TIP3    H2  307   3.491   4.484   2.014
  115TIP3   OH2  308   4.073   5.659   3.062
  115TIP3    H1  309   4.086   5.569   3.031
  115TIP3    H2  310   4.159   5.701   3.051
  116TIP3   OH2  311   5.925   5.546   4.664
  116TIP3    H1  312   5.879   5.478   4.615
  116TIP3    H2  313   6.016   5.539   4.637
  117TIP3   OH2  314   6.657   4.682   4.099
  117TIP3    H1  315   6.716   4.632   4.042
  117TIP3    H2  316   6.714   4.724   4.163
  118TIP3   OH2  317   5.664   6.535   0.458
  118TIP3    H1  318   5.732   6.477   0.423
  118TIP3    H2  319   5.710   6.588   0.524
  119TIP3   OH2  320   3.424   4.134   4.137
  119TIP3    H1  321   3.451   4.195   4.068
  119TIP3    H2  322   3.506   4.095   4.168
  120TIP3   OH2  323   6.540   0.767   2.059
  120TIP3    H1  324   6.577   0.823   2.128
  120TIP3    H2  325   6.616   0.723   2.021
  121TIP3   OH2  326   0.309   2.428   3.744
  121TIP3    H1  327   0.392   2.470   3.719
  121TIP3    H2  328   0.299   2.449   3.836
  122TIP3   OH2  329   3.898   5.342   3.249
  122TIP3    H1  330   3.870   5.253   3.268
  122TIP3    H2  331   3.993   5.340   3.259
  123TIP3   OH2  332   0.248   5.786   1.101
  123TIP3    H1  333   0.293   5.795   1.017
  123TIP3    H2  334   0.302   5.724   1.151
  124TIP3   OH2  335   6.218   0.725   3.461
  124TIP3    H1  336   6.152   0.705   3.395
  124TIP3    H2  337   6.225   0.820   3.459
  125TIP3   OH2  338   4.132   5.145   0.680
  125TIP3    H1  339   4.180   5.190   0.750
  125TIP3    H2  340   4.070   5.211   0.648
  126TIP3   OH2  341   3.224   5.356   3.454
  126TIP3    H1  342   3.249   5.344   3.546
  126TIP3    H2  343   3.139   5.399   3.458
  127TIP3   OH2  344   6.097   2.564   2.484
  127TIP3    H1  345   6.112   2.627   2.414
  127TIP3    H2  346   6.003   2.544   2.479
  128TIP3   OH2  347   0.484   1.975   5.327
  128TIP3    H1  348   0.466   1.987   5.234
  128TIP3    H2  349   0.461   1.884   5.344
  129TIP3   OH2  350   0.445   6.605   0.930
  129TIP3    H1  351   0.352   6.589   0.913
  129TIP3    H2  352   0.447   6.683   0.986
  130TIP3   OH2  353   0.812   1.840   0.731
  130TIP3    H1  354   0.820   1.755   0.773
  130TIP3    H2  355   0.761   1.893   0.793
  131TIP3   OH2  356   4.137   0.743   3.918
  131TIP3    H1  357   4.177   0.662   3.949
  131TIP3    H2  358   4.153   0.806   3.988
  132TIP3   OH2  359   5.284   1.965   2.564
  132TIP3    H1  360   5.254   1.927   2.646
  132TIP3    H2  361   5.296   1.890   2.506
  133TIP3   OH2  362   1.661   2.144   1.918
  133TIP3    H1  363   1.740   2.095   1.895
  133TIP3    H2  364   1.646   2.202   1.844
  134TIP3   OH2  365   4.005   2.679   4.064
  134TIP3    H1  366   3.982   2.648   3.976
  134TIP3    H2  367   3.962   2.764   4.071
  135TIP3   OH2  368   2.057   6.156   3.621
  135TIP3    H1  369   2.143   6.186   3.653
  135TIP3    H2  370   1.997   6.177   3.692
  136TIP3   OH2  371   2.045   4.062   2.237
  136TIP3    H1  372   1.957   4.059   2.275
  136TIP3    H2  373   2.086   3.980   2.264
  137TIP3   OH2  374   4.696   5.336   3.588
  137TIP3    H1  375   4.762   5.383   3.536
  137TIP3    H2  376   4.741   5.313   3.669
  138TIP3   OH2  377   0.040   5.278   5.208
  138TIP3    H1  378   0.126   5.239   5.220
  138TIP3    H2  379  -0.003   5.223   5.142
  139TIP3   OH2  380   3.497   5.172   0.889
  139TIP3    H1  381   3.460   5.084   0.896
  139TIP3    H2  382   3.520   5.196   0.979
  140TIP3   OH2  383   2.570   4.783   2.277
  140TIP3    H1  384   2.546   4.812   2.189
  140TIP3    H2  385   2.533   4.849   2.336
  141TIP3   OH2  386   0.157   3.963   5.149
  141TIP3    H1  387   0.100   4.040   5.159
  141TIP3    H2  388   0.210   3.984   5.072
  142TIP3   OH2  389   0.539   5.490   1.578
  142TIP3    H1  390   0.562   5.412   1.628
  142TIP3    H2  391   0.464   5.464   1.525
  143TIP3   OH2  392   0.715   6.371   1.377
  143TIP3    H1  393   0.735   6.288   1.334
  143TIP3    H2  394   0.782   6.381   1.444
  144TIP3   OH2  395   6.568   4.207   5.283
  144TIP3    H1  396   6.475   4.234   5.285
  144TIP3    H2  397   6.587   4.180   5.373
  145TIP3   OH2  398   0.389   5.832   4.207
  145TIP3    H1  399   0.423   5.829   4.118
  145TIP3    H2  400   0.295   5.849   4.196
  146TIP3   OH2  401   6.988   4.966   0.476
  146TIP3    H1  402   7.053   5.002   0.536
  146TIP3    H2  403   6.983   5.030   0.405
  147TIP3   OH2  404   0.469   0.495   4.958
  147TIP3    H1  405   0.512   0.579   4.975
  147TIP3    H2  406   0.406   0.514   4.888
  148TIP3   OH2  407   3.618   1.527   5.637
  148TIP3    H1  408   3.686   1.592   5.618
  148TIP3    H2  409   3.563   1.568   5.703
  149TIP3   OH2  410   1.164   6.297   3.943
  149TIP3    H1  411   1.252   6.307   3.980
  149TIP3    H2  412   1.160   6.364   3.875
  150TIP3   OH2  413   4.932   0.569   2.609
  150TIP3    H1  414   5.020   0.601   2.627
  150TIP3    H2  415   4.908   0.520   2.688
  151TIP3   OH2  416   2.558   0.795   4.098
  151TIP3    H1  417   2.518   0.807   4.184
  151TIP3    H2  418   2.488   0.815   4.036
  152TIP3   OH2  419   2.003   2.831   5.759
  152TIP3    H1  420   2.070   2.841   5.826
  152TIP3    H2  421   1.930   2.789   5.804
  153TIP3   OH2  422   6.300   2.937   2.736
  153TIP3    H1  423   6.356   2.889   2.797
  153TIP3    H2  424   6.292   3.025   2.774
  154TIP3   OH2  425   6.235   1.270   3.256
  154TIP3    H1  426   6.297   1.343   3.247
  154TIP3    H2  427   6.289   1.192   3.248
  155TIP3   OH2  428   4.658   0.120   5.415
  155TIP3    H1  429   4.640   0.144   5.325
  155TIP3    H2  430   4.735   0.064   5.410
  156TIP3   OH2  431   0.585   3.422   4.031
  156TIP3    H1  432   0.497   3.403   3.999
  156TIP3    H2  433   0.609   3.506   3.991
  157TIP3   OH2  434   1.772   4.397   1.441
  157TIP3    H1  435   1.814   4.476   1.476
  157TIP3    H2  436   1.811   4.326   1.492
  158TIP3   OH2  437   2.296   0.225   4.485
  158TIP3    H1  438   2.239   0.186   4.551
  158TIP3    H2  439   2.324   0.151   4.431
  159TIP3   OH2  440   6.788   0.761   3.028
  159TIP3    H1  441   6.787   0.855   3.046
  159TIP3    H2  442   6.870   0.729   3.066
  160TIP3   OH2  443   2.773   4.533   0.901
  160TIP3    H1  444   2.743   4.611   0.854
  160TIP3    H2  445   2.764   4.462   0.837
  161TIP3   OH2  446   6.668   3.581   0.933
  161TIP3    H1  447   6.680   3.628   1.015
  161TIP3    H2  448   6.573   3.584   0.918
  162TIP3   OH2  449   3.652   6.704   5.470
  162TIP3    H1  450   3.622   6.782   5.516
  162TIP3    H2  451   3.573   6.667   5.431
  163TIP3   OH2  452   0.137   6.205   3.294
  163TIP3    H1  453   0.097   6.283   3.256
  163TIP3    H2  454   0.064   6.158   3.334
  164TIP3   OH2  455   3.685   5.894   1.663
  164TIP3    H1  456   3.623   5.883   1.590
  164TIP3    H2  457   3.768   5.860   1.629
  165TIP3   OH2  458   4.209   1.027   0.538
  165TIP3    H1  459   4.222   0.941   0.579
  165TIP3    H2  460   4.236   1.015   0.447
  166TIP3   OH2  461   0.361   0.547   4.711
  166TIP3    H1  462   0.276   0.586   4.731
  166TIP3    H2  463   0.344   0.487   4.638
  167TIP3   OH2  464   5.422   3.501   0.975
  167TIP3    H1  465   5.474   3.527   1.052
  167TIP3    H2  466   5.352   3.447   1.011
  168TIP3   OH2  467   4.489   5.530   4.711
  168TIP3    H1  468   4.409   5.484   4.687
  168TIP3    H2  469   4.502   5.509   4.803
  169TIP3   OH2  470   7.206   5.903   1.459
  169TIP3    H1  471   7.151   5.886   1.383
  169TIP3    H2  472   7.244   5.989   1.443
  170TIP3   OH2  473   1.510   6.329   2.781
  170TIP3    H1  474   1.571   6.341   2.709
  170TIP3    H2  475   1.560   6.280   2.847
  171TIP3   OH2  476   4.644   5.795   0.824
  171TIP3    H1  477   4.695   5.716   0.844
  171TIP3    H2  478   4.585   5.806   0.899
  172TIP3   OH2  479   6.851   4.899   1.616
  172TIP3    H1  480   6.815   4.833   1.675
  172TIP3    H2  481   6.924   4.937   1.665
  173TIP3   OH2  482   1.828   1.475   1.042
  173TIP3    H1  483   1.803   1.418   1.115
  173TIP3    H2  484   1.751   1.528   1.025
  174TIP3   OH2  485   4.721   5.163   1.812
  174TIP3    H1  486   4.642   5.110   1.800
  174TIP3    H2  487   4.784   5.103   1.850
  175TIP3   OH2  488   6.978   1.210   1.381
  175TIP3    H1  489   6.909   1.190   1.445
  175TIP3    H2  490   7.021   1.287   1.416
  176TIP3   OH2  491   5.906   6.194   3.193
  176TIP3    H1  492   5.982   6.147   3.227
  176TIP3    H2  493   5.840   6.184   3.262
  177TIP3   OH2  494   2.622   5.635   3.132
  177TIP3    H1  495   2.628   5.581   3.053
  177TIP3    H2  496   2.579   5.578   3.196
  178TIP3   OH2  497   3.341   4.277   2.350
  178TIP3    H1  498   3.344   4.187   2.382
  178TIP3    H2  499   3.255   4.309   2.376
  179TIP3   OH2  500   0.009   4.305   2.617
  179TIP3    H1  501   0.064   4.382   2.601
  179TIP3    H2  502  -0.046   4.299   2.539
  180TIP3   OH2  503   4.135   3.243   1.120
  180TIP3    H1  504   4.200   3.295   1.167
  180TIP3    H2  505   4.106   3.177   1.184
  181TIP3   OH2  506   1.219   1.441   0.641
  181TIP3    H1  507   1.309   1.438   0.608
  181TIP3    H2  508   1.223   1.503   0.714
  182TIP3   OH2  509   5.331   5.295   1.171
  182TIP3    H1  510   5.339   5.279   1.077
  182TIP3    H2  511   5.261   5.360   1.178
  183TIP3   OH2  512   5.836   5.241   1.757
  183TIP3    H1  513   5.841   5.146   1.768
  183TIP3    H2  514   5.750   5.256   1.717
  184TIP3   OH2  515   4.318   6.058   3.695
  184TIP3    H1  516   4.301   6.091   3.607
  184TIP3    H2  517   4.397   6.105   3.723
  185TIP3   OH2  518   6.858   5.208   4.993
  185TIP3    H1  519   6.801   5.152   4.940
  185TIP3    H2  520   6.799   5.274   5.030
  186TIP3   OH2  521   4.851   2.172   0.867
  186TIP3    H1  522   4.922   2.207   0.813
  186TIP3    H2  523   4.861   2.216   0.951
  187TIP3   OH2  524   4.498   2.571   4.980
  187TIP3    H1  525   4.460   2.492   4.942
  187TIP3    H2  526   4.547   2.611   4.908
  188TIP3   OH2  527   5.151   5.317   3.636
  188TIP3    H1  528   5.243   5.303   3.615
  188TIP3    H2  529   5.151   5.350   3.726
  189TIP3   OH2  530   6.739   2.380   4.094
  189TIP3    H1  531   6.786   2.436   4.033
  189TIP3    H2  532   6.807   2.339   4.147
  190TIP3   OH2  533   1.547   2.198   1.141
  190TIP3    H1  534   1.464   2.239   1.116
  190TIP3    H2  535   1.613   2.263   1.118
  191TIP3   OH2  536   2.751   5.504   5.345
  191TIP3    H1  537   2.732   5.526   5.254
  191TIP3    H2  538   2.745   5.408   5.349
  192TIP3   OH2  539   2.925   0.075   4.802
  192TIP3    H1  540   2.918  -0.003   4.858
  192TIP3    H2  541   2.936   0.148   4.863
  193TIP3   OH2  542   0.689   3.352   5.900
  193TIP3    H1  543   0.649   3.347   5.814
  193TIP3    H2  544   0.656   3.434   5.937
  194TIP3   OH2  545   4.559   3.267   2.640
  194TIP3    H1  546   4.577   3.174   2.630
  194TIP3    H2  547   4.507   3.290   2.562
  195TIP3   OH2  548   4.555   1.419   1.065
  195TIP3    H1  549   4.482   1.438   1.007
  195TIP3    H2  550   4.630   1.409   1.007
  196TIP3   OH2  551   3.780   3.271   1.892
  196TIP3    H1  552   3.724   3.212   1.841
  196TIP3    H2  553   3.860   3.280   1.839
  197TIP3   OH2  554   1.673   5.619   1.298
  197TIP3    H1  555   1.747   5.592   1.244
  197TIP3    H2  556   1.600   5.625   1.236
  198TIP3   OH2  557   1.558   5.949   2.937
  198TIP3    H1  558   1.527   5.860   2.949
  198TIP3    H2  559   1.555   5.964   2.843
  199TIP3   OH2  560   2.184   3.346   4.075
  199TIP3    H1  561   2.212   3.256   4.093
  199TIP3    H2  562   2.094   3.337   4.043
  200TIP3   OH2  563   3.495   1.201   5.428
  200TIP3    H1  564   3.567   1.249   5.388
  200TIP3    H2  565   3.475   1.131   5.366
  201TIP3   OH2  566   4.666   1.673   4.052
  201TIP3    H1  567   4.618   1.614   3.993
  201TIP3    H2  568   4.664   1.758   4.008
  202TIP3   OH2  569   0.183   6.726   0.667
  202TIP3    H1  570   0.110   6.774   0.627
  202TIP3    H2  571   0.249   6.721   0.598
  203TIP3   OH2  572   6.592   6.274   1.352
  203TIP3    H1  573   6.620   6.183   1.349
  203TIP3    H2  574   6.643   6.313   1.423
  204TIP3   OH2  575   0.836   0.838   0.841
  204TIP3    H1  576   0.848   0.846   0.935
  204TIP3    H2  577   0.871   0.920   0.805
  205TIP3   OH2  578   3.877   0.789   0.579
  205TIP3    H1  579   3.811   0.842   0.535
  205TIP3    H2  580   3.947   0.779   0.515
  206TIP3   OH2  581   5.822   3.686   1.621
  206TIP3    H1  582   5.766   3.634   1.564
  206TIP3    H2  583   5.764   3.718   1.690
  207TIP3   OH2  584   4.023   4.811   0.334
  207TIP3    H1  585   3.975   4.801   0.416
  207TIP3    H2  586   3.972   4.762   0.270
  208TIP3   OH2  587   0.165   5.122   4.748
  208TIP3    H1  588   0.095   5.165   4.797
  208TIP3    H2  589   0.192   5.187   4.683
  209TIP3   OH2  590   0.080   6.094   2.523
  209TIP3    H1  591   0.133   6.169   2.551
  209TIP3    H2  592   0.126   6.061   2.445
  210TIP3   OH2  593   0.070   4.978   1.658
  210TIP3    H1  594   0.105   5.059   1.621
  210TIP3    H2  595  -0.011   5.005   1.702
  211TIP3   OH2  596   4.074   4.823   3.477
  211TIP3    H1  597   4.131   4.877   3.532
  211TIP3    H2  598   4.094   4.849   3.388
  212TIP3   OH2  599   4.083   1.604   1.917
  212TIP3    H1  600   4.158   1.655   1.950
  212TIP3    H2  601   4.121   1.545   1.852
  213TIP3   OH2  602   7.076   5.836   2.493
  213TIP3    H1  603   7.035   5.900   2.551
  213TIP3    H2  604   7.165   5.870   2.480
  214TIP3   OH2  605   0.370   0.780   1.538
  214TIP3    H1  606   0.360   0.864   1.493
  214TIP3    H2  607   0.302   0.780   1.605
  215TIP3   OH2  608   3.089   2.509   4.210
  215TIP3    H1  609   3.070   2.585   4.265
  215TIP3    H2  610   3.171   2.531   4.166
  216TIP3   OH2  611   0.045   0.042   4.328
  216TIP3    H1  612  -0.009  -0.015   4.272
  216TIP3    H2  613   0.010   0.130   4.313
  217TIP3   OH2  614   4.164   5.412   2.991
  217TIP3    H1  615   4.257   5.415   2.967
  217TIP3    H2  616   4.144   5.319   2.999
  218TIP3   OH2  617   1.991   2.912   2.173
  218TIP3    H1  618   1.961   2.994   2.134
  218TIP3    H2  619   1.925   2.847   2.145
  219TIP3   OH2  620   2.131   5.745   2.222
  219TIP3    H1  621   2.037   5.732   2.236
  219TIP3    H2  622   2.154   5.816   2.281
  220TIP3   OH2  623   0.883   6.765   5.717
  220TIP3    H1  624   0.892   6.754   5.622
  220TIP3    H2  625   0.789   6.753   5.734
  221TIP3   OH2  626   3.140   0.605   0.302
  221TIP3    H1  627   3.196   0.680   0.319
  221TIP3    H2  628   3.076   0.637   0.238
  222TIP3   OH2  629   1.187   2.590   1.166
  222TIP3    H1  630   1.134   2.525   1.120
  222TIP3    H2  631   1.133   2.669   1.167
  223TIP3   OH2  632   4.169   5.892   0.150
  223TIP3    H1  633   4.190   5.885   0.057
  223TIP3    H2  634   4.075   5.911   0.152
  224TIP3   OH2  635   1.297   2.124   5.805
  224TIP3    H1  636   1.219   2.179   5.812
  224TIP3    H2  637   1.263   2.036   5.789
  225TIP3   OH2  638   4.547   1.451   1.504
  225TIP3    H1  639   4.520   1.454   1.413
  225TIP3    H2  640   4.642   1.443   1.502
  226TIP3   OH2  641   2.538   2.804   0.580
  226TIP3    H1  642   2.504   2.741   0.643
  226TIP3    H2  643   2.476   2.877   0.584
  227TIP3   OH2  644   3.446   0.515   0.230
  227TIP3    H1  645   3.363   0.550   0.263
  227TIP3    H2  646   3.442   0.422   0.251
  228TIP3   OH2  647   6.716   5.384   4.107
  228TIP3    H1  648   6.669   5.448   4.160
  228TIP3    H2  649   6.687   5.299   4.140
  229TIP3   OH2  650   2.598   3.956   1.319
  229TIP3    H1  651   2.666   3.902   1.359
  229TIP3    H2  652   2.523   3.948   1.378
  230TIP3   OH2  653   5.582   3.136   2.537
  230TIP3    H1  654   5.643   3.088   2.481
  230TIP3    H2  655   5.566   3.218   2.490
  231TIP3   OH2  656   0.923   5.205   1.320
  231TIP3    H1  657   0.870   5.126   1.324
  231TIP3    H2  658   0.890   5.260   1.392
  232TIP3   OH2  659   6.330   2.557   2.264
  232TIP3    H1  660   6.395   2.608   2.312
  232TIP3    H2  661   6.288   2.503   2.331
  233TIP3   OH2  662   4.745   1.755   3.510
  233TIP3    H1  663   4.753   1.829   3.571
  233TIP3    H2  664   4.699   1.792   3.435
  234TIP3   OH2  665   1.434   3.626   2.460
  234TIP3    H1  666   1.489   3.579   2.397
  234TIP3    H2  667   1.348   3.586   2.451
  235TIP3   OH2  668   2.130   3.711   3.992
  235TIP3    H1  669   2.144   3.720   4.086
  235TIP3    H2  670   2.193   3.645   3.964
  236TIP3   OH2  671   0.165   2.388   0.584
  236TIP3    H1  672   0.089   2.337   0.613
  236TIP3    H2  673   0.234   2.366   0.647
  237TIP3   OH2  674   4.320   2.956   3.297
  237TIP3    H1  675   4.352   3.046   3.298
  237TIP3    H2  676   4.291   2.941   3.207
  238TIP3   OH2  677   2.699   5.322   1.802
  238TIP3    H1  678   2.794   5.324   1.808
  238TIP3    H2  679   2.672   5.259   1.870
  239TIP3   OH2  680   3.671   4.994   4.993
  239TIP3    H1  681   3.730   5.028   5.061
  239TIP3    H2  682   3.654   4.904   5.020
  240TIP3   OH2  683   2.485   2.326   4.787
  240TIP3    H1  684   2.470   2.410   4.742
  240TIP3    H2  685   2.580   2.317   4.789
  241TIP3   OH2  686   5.516   6.733   4.073
  241TIP3    H1  687   5.562   6.764   3.995
  241TIP3    H2  688   5.576   6.670   4.113
  242TIP3   OH2  689   6.427   1.919   0.253
  242TIP3    H1  690   6.430   1.824   0.267
  242TIP3    H2  691   6.342   1.935   0.213
  243TIP3   OH2  692   5.078   1.011   0.414
  243TIP3    H1  693   5.156   0.974   0.373
  243TIP3    H2  694   5.005   0.976   0.363
  244TIP3   OH2  695   1.187   0.769   2.517
  244TIP3    H1  696   1.173   0.757   2.611
  244TIP3    H2  697   1.273   0.810   2.511
  245TIP3   OH2  698   6.672   2.423   2.802
  245TIP3    H1  699   6.684   2.334   2.834
  245TIP3    H2  700   6.758   2.464   2.811
  246TIP3   OH2  701   0.162   6.250   0.692
  246TIP3    H1  702   0.189   6.172   0.644
  246TIP3    H2  703   0.092   6.289   0.639
  247TIP3   OH2  704   5.036   3.734   3.561
  247TIP3    H1  705   5.004   3.667   3.500
  247TIP3    H2  706   5.112   3.772   3.516
  248TIP3   OH2  707   5.853   5.543   0.951
  248TIP3    H1  708   5.850   5.468   1.011
  248TIP3    H2  709   5.761   5.566   0.939
  249TIP3   OH2  710   2.516   4.534   2.366
  249TIP3    H1  711   2.510   4.570   2.455
  249TIP3    H2  712   2.532   4.610   2.311
  250TIP3   OH2  713   4.547   1.512   4.585
  250TIP3    H1  714   4.453   1.527   4.600
  250TIP3    H2  715   4.580   1.482   4.670
  251TIP3   OH2  716   7.158   1.401   1.925
  251TIP3    H1  717   7.125   1.343   1.993
  251TIP3    H2  718   7.111   1.483   1.938
  252TIP3   OH2  719   0.517   1.751   0.596
  252TIP3    H1  720   0.481   1.834   0.628
  252TIP3    H2  721   0.589   1.776   0.539
  253TIP3   OH2  722   2.094   5.014   2.430
  253TIP3    H1  723   2.033   5.032   2.359
  253TIP3    H2  724   2.039   4.980   2.501
  254TIP3   OH2  725   2.654   4.349   3.945
  254TIP3    H1  726   2.570   4.304   3.941
  254TIP3    H2  727   2.659   4.398   3.862
  255TIP3   OH2  728   0.544   4.673  -0.001
  255TIP3    H1  729   0.527   4.633   0.084
  255TIP3    H2  730   0.596   4.607  -0.048
  256TIP3   OH2  731   0.161   1.085   1.837
  256TIP3    H1  732   0.186   1.065   1.927
  256TIP3    H2  733   0.243   1.097   1.790
  257TIP3   OH2  734   3.375   4.567   0.010
  257TIP3    H1  735   3.414   4.613   0.084
  257TIP3    H2  736   3.316   4.503   0.050
  258TIP3   OH2  737   2.057   0.502   3.386
  258TIP3    H1  738   2.104   0.444   3.446
  258TIP3    H2  739   1.977   0.454   3.364
  259TIP3   OH2  740   3.017   0.766   4.694
  259TIP3    H1  741   3.003   0.760   4.600
  259TIP3    H2  742   3.042   0.858   4.708
  260TIP3   OH2  743   4.171   1.923   4.961
  260TIP3    H1  744   4.095   1.981   4.968
  260TIP3    H2  745   4.133   1.835   4.952
  261TIP3   OH2  746   4.665   2.555   4.200
  261TIP3    H1  747   4.746   2.600   4.226
  261TIP3    H2  748   4.677   2.466   4.231
  262TIP3   OH2  749   3.505   2.375   0.616
  262TIP3    H1  750   3.503   2.468   0.592
  262TIP3    H2  751   3.414   2.346   0.609
  263TIP3   OH2  752   5.181   5.836   4.922
  263TIP3    H1  753   5.225   5.753   4.943
  263TIP3    H2  754   5.236   5.877   4.856
  264TIP3   OH2  755   4.990   2.258   3.579
  264TIP3    H1  756   4.903   2.227   3.601
  264TIP3    H2  757   5.017   2.206   3.504
  265TIP3   OH2  758   2.485   0.890   1.387
  265TIP3    H1  759   2.579   0.899   1.373
  265TIP3    H2  760   2.449   0.873   1.300
  266TIP3   OH2  761   2.833   2.500   1.769
  266TIP3    H1  762   2.786   2.535   1.693
  266TIP3    H2  763   2.839   2.406   1.752
  267TIP3   OH2  764   6.661   6.317   0.221
  267TIP3    H1  765   6.596   6.382   0.196
  267TIP3    H2  766   6.617   6.263   0.286
  268TIP3   OH2  767   3.189   2.287   2.813
  268TIP3    H1  768   3.155   2.324   2.895
  268TIP3    H2  769   3.123   2.310   2.747
  269TIP3   OH2  770   0.619   4.557   1.688
  269TIP3    H1  771   0.708   4.542   1.656
  269TIP3    H2  772   0.621   4.644   1.728
  270TIP3   OH2  773   5.424   3.615   0.060
  270TIP3    H1  774   5.487   3.557   0.104
  270TIP3    H2  775   5.471   3.647  -0.017
  271TIP3   OH2  776   0.771   5.631   2.395
  271TIP3    H1  777   0.688   5.671   2.421
  271TIP3    H2  778   0.821   5.702   2.355
  272TIP3   OH2  779   0.096   5.933   3.917
  272TIP3    H1  780   0.165   5.912   3.854
  272TIP3    H2  781   0.045   5.853   3.924
  273TIP3   OH2  782   5.214   6.601   2.354
  273TIP3    H1  783   5.285   6.537   2.354
  273TIP3    H2  784   5.177   6.596   2.266
  274TIP3   OH2  785   4.799   6.070   2.014
  274TIP3    H1  786   4.889   6.049   1.987
  274TIP3    H2  787   4.810   6.111   2.100
  275TIP3   OH2  788   0.365   3.167   2.847
  275TIP3    H1  789   0.294   3.110   2.877
  275TIP3    H2  790   0.368   3.238   2.911
  276TIP3   OH2  791   6.746   4.783   4.343
  276TIP3    H1  792   6.815   4.832   4.298
  276TIP3    H2  793   6.790   4.740   4.415
  277TIP3   OH2  794   0.885   2.185   1.296
  277TIP3    H1  795   0.808   2.240   1.279
  277TIP3    H2  796   0.875   2.160   1.388
  278TIP3   OH2  797   6.915   3.762   1.262
  278TIP3    H1  798   6.965   3.706   1.323
  278TIP3    H2  799   6.824   3.735   1.275
  279TIP3   OH2  800   2.507   1.678   4.855
  279TIP3    H1  801   2.556   1.656   4.934
  279TIP3    H2  802   2.533   1.768   4.835
  280TIP3   OH2  803   4.423   4.362   4.614
  280TIP3    H1  804   4.345   4.375   4.668
  280TIP3    H2  805   4.415   4.272   4.580
  281TIP3   OH2  806   5.412   6.617   5.123
  281TIP3    H1  807   5.338   6.675   5.103
  281TIP3    H2  808   5.445   6.649   5.207
  282TIP3   OH2  809   7.099   1.549   4.558
  282TIP3    H1  810   7.070   1.548   4.467
  282TIP3    H2  811   7.183   1.595   4.556
  283TIP3   OH2  812   3.452   1.286   1.736
  283TIP3    H1  813   3.525   1.233   1.704
  283TIP3    H2  814   3.451   1.362   1.678
  284TIP3   OH2  815   5.353   5.203   0.887
  284TIP3    H1  816   5.411   5.128   0.896
  284TIP3    H2  817   5.369   5.236   0.798
  285TIP3   OH2  818   6.356   1.027   3.190
  285TIP3    H1  819   6.384   0.954   3.244
  285TIP3    H2  820   6.428   1.041   3.129
  286TIP3   OH2  821   0.488   2.074   4.215
  286TIP3    H1  822   0.565   2.080   4.272
  286TIP3    H2  823   0.523   2.055   4.129
  287TIP3   OH2  824   4.316   6.751   1.655
  287TIP3    H1  825   4.239   6.726   1.602
  287TIP3    H2  826   4.279   6.780   1.738
  288TIP3   OH2  827   5.329   3.555   3.486
  288TIP3    H1  828   5.269   3.611   3.437
  288TIP3    H2  829   5.412   3.602   3.483
  289TIP3   OH2  830   5.405   2.864   2.954
  289TIP3    H1  831   5.441   2.918   2.884
  289TIP3    H2  832   5.319   2.837   2.922
  290TIP3   OH2  833   0.590   0.028   2.044
  290TIP3    H1  834   0.630  -0.025   2.112
  290TIP3    H2  835   0.618  -0.012   1.962
  291TIP3   OH2  836   7.227   1.123   4.006
  291TIP3    H1  837   7.206   1.034   3.979
  291TIP3    H2  838   7.142   1.167   4.014
  292TIP3   OH2  839   6.130   2.500   1.257
  292TIP3    H1  840   6.189   2.456   1.318
  292TIP3    H2  841   6.072   2.552   1.313
  293TIP3   OH2  842   4.472   1.535   3.923
  293TIP3    H1  843   4.410   1.556   3.854
  293TIP3    H2  844   4.528   1.467   3.884
  294TIP3   OH2  845   6.045   6.154   2.277
  294TIP3    H1  846   5.951   6.173   2.273
  294TIP3    H2  847   6.078   6.214   2.344
  295TIP3   OH2  848   3.264   4.994   1.507
  295TIP3    H1  849   3.200   4.931   1.475
  295TIP3    H2  850   3.224   5.079   1.491
  296TIP3   OH2  851   5.516   4.226   0.410
  296TIP3    H1  852   5.571   4.300   0.436
  296TIP3    H2  853   5.476   4.195   0.492
  297TIP3   OH2  854   0.889   1.268   4.633
  297TIP3    H1  855   0.796   1.287   4.646
  297TIP3    H2  856   0.926   1.350   4.601
  298TIP3   OH2  857   1.088   3.883   0.724
  298TIP3    H1  858   1.072   3.965   0.677
  298TIP3    H2  859   1.121   3.911   0.810
  299TIP3   OH2  860   6.105   5.246   3.193
  299TIP3    H1  861   6.162   5.309   3.237
  299TIP3    H2  862   6.097   5.279   3.104
  300TIP3   OH2  863   2.933   1.564   4.602
  300TIP3    H1  864   2.883   1.488   4.629
  300TIP3    H2  865   2.866   1.630   4.580
  301TIP3   OH2  866   3.836   3.538   3.537
  301TIP3    H1  867   3.914   3.584   3.570
  301TIP3    H2  868   3.781   3.608   3.503
  302TIP3   OH2  869   3.482   4.292   3.805
  302TIP3    H1  870   3.390   4.308   3.825
  302TIP3    H2  871   3.487   4.296   3.710
  303TIP3   OH2  872   1.018   2.951   5.127
  303TIP3    H1  873   0.970   2.983   5.051
  303TIP3    H2  874   1.002   2.857   5.128
  304TIP3   OH2  875   5.459   3.157   4.075
  304TIP3    H1  876   5.471   3.131   4.166
  304TIP3    H2  877   5.496   3.084   4.024
  305TIP3   OH2  878   7.181   4.440   0.700
  305TIP3    H1  879   7.156   4.507   0.637
  305TIP3    H2  880   7.169   4.482   0.785
  306TIP3   OH2  881   5.784   1.175   4.860
  306TIP3    H1  882   5.737   1.257   4.867
  306TIP3    H2  883   5.716   1.108   4.850
  307TIP3   OH2  884   4.590   2.871   4.938
  307TIP3    H1  885   4.589   2.884   5.033
  307TIP3    H2  886   4.506   2.830   4.918
  308TIP3   OH2  887   0.470   5.545   0.585
  308TIP3    H1  888   0.519   5.557   0.666
  308TIP3    H2  889   0.453   5.451   0.582
  309TIP3   OH2  890   7.103   5.705   5.636
  309TIP3    H1  891   7.146   5.622   5.657
  309TIP3    H2  892   7.023   5.679   5.590
  310TIP3   OH2  893   1.631   4.823   0.270
  310TIP3    H1  894   1.603   4.758   0.334
  310TIP3    H2  895   1.563   4.891   0.273
  311TIP3   OH2  896   1.482   6.297   3.385
  311TIP3    H1  897   1.441   6.211   3.398
  311TIP3    H2  898   1.412   6.360   3.400
  312TIP3   OH2  899   5.092   6.750   0.591
  312TIP3    H1  900   5.088   6.673   0.648
  312TIP3    H2  901   5.005   6.789   0.597
  313TIP3   OH2  902   7.084   2.606   4.420
  313TIP3    H1  903   7.140   2.675   4.452
  313TIP3    H2  904   6.995   2.640   4.430
  314TIP3   OH2  905   6.318   1.465   4.240
  314TIP3    H1  906   6.284   1.461   4.330
  314TIP3    H2  907   6.372   1.544   4.238
  315TIP3   OH2  908   1.337   4.009   3.557
  315TIP3    H1  909   1.409   3.949   3.543
  315TIP3    H2  910   1.369   4.071   3.623
  316TIP3   OH2  911   3.864   4.498   0.804
  316TIP3    H1  912   3.829   4.459   0.884
  316TIP3    H2  913   3.867   4.426   0.742
  317TIP3   OH2  914   1.047   1.697   5.560
  317TIP3    H1  915   0.972   1.693   5.500
  317TIP3    H2  916   1.101   1.769   5.526
  318TIP3   OH2  917   5.226   2.117   0.650
  318TIP3    H1  918   5.149   2.173   0.648
  318TIP3    H2  919   5.276   2.147   0.726
  319TIP3   OH2  920   4.288   6.283   0.807
  319TIP3    H1  921   4.340   6.203   0.796
  319TIP3    H2  922   4.198   6.255   0.794
  320TIP3   OH2  923   4.017   6.212   0.759
  320TIP3    H1  924   3.993   6.251   0.843
  320TIP3    H2  925   3.984   6.274   0.694
  321TIP3   OH2  926   5.027   3.544   1.248
  321TIP3    H1  927   5.111   3.532   1.203
  321TIP3    H2  928   4.966   3.489   1.199
  322TIP3   OH2  929   5.592   4.349   4.846
  322TIP3    H1  930   5.520   4.341   4.783
  322TIP3    H2  931   5.631   4.262   4.849
  323TIP3   OH2  932   6.721   3.895   4.721
  323TIP3    H1  933   6.808   3.864   4.744
  323TIP3    H2  934   6.726   3.912   4.627
  324TIP3   OH2  935   4.262   6.077   3.386
  324TIP3    H1  936   4.253   6.146   3.320
  324TIP3    H2  937   4.238   5.997   3.339
  325TIP3   OH2  938   3.419   0.857   5.622
  325TIP3    H1  939   3.420   0.790   5.554
  325TIP3    H2  940   3.510   0.865   5.649
  326TIP3   OH2  941   1.803   6.424   4.026
  326TIP3    H1  942   1.748   6.417   4.104
  326TIP3    H2  943   1.773   6.504   3.983
  327TIP3   OH2  944   2.329   4.376   0.993
  327TIP3    H1  945   2.353   4.413   1.078
  327TIP3    H2  946   2.392   4.306   0.978
  328TIP3   OH2  947   4.172   4.228   0.304
  328TIP3    H1  948   4.132   4.289   0.242
  328TIP3    H2  949   4.262   4.217   0.273
  329TIP3   OH2  950   3.254   3.505   1.692
  329TIP3    H1  951   3.185   3.444   1.665
  329TIP3    H2  952   3.232   3.587   1.647
  330TIP3   OH2  953   3.575   0.654   3.274
  330TIP3    H1  954   3.495   0.653   3.328
  330TIP3    H2  955   3.604   0.563   3.275
  331TIP3   OH2  956   1.668   0.337   4.530
  331TIP3    H1  957   1.749   0.379   4.559
  331TIP3    H2  958   1.612   0.410   4.504
  332TIP3   OH2  959   2.646   2.734   2.097
  332TIP3    H1  960   2.725   2.681   2.108
  332TIP3    H2  961   2.591   2.711   2.172
  333TIP3   OH2  962   1.304   0.338   0.166
  333TIP3    H1  963   1.249   0.386   0.104
  333TIP3    H2  964   1.312   0.396   0.242
  334TIP3   OH2  965   5.196   5.394   3.884
  334TIP3    H1  966   5.285   5.394   3.919
  334TIP3    H2  967   5.147   5.451   3.942
  335TIP3   OH2  968   2.564   2.827   2.745
  335TIP3    H1  969   2.551   2.803   2.837
  335TIP3    H2  970   2.601   2.915   2.748
  336TIP3   OH2  971   4.436   3.195   5.435
  336TIP3    H1  972   4.412   3.196   5.342
  336TIP3    H2  973   4.466   3.284   5.452
  337TIP3   OH2  974   1.670   1.122   1.226
  337TIP3    H1  975   1.719   1.057   1.175
  337TIP3    H2  976   1.715   1.126   1.310
  338TIP3   OH2  977   6.525   5.640   3.768
  338TIP3    H1  978   6.610   5.615   3.803
  338TIP3    H2  979   6.545   5.704   3.699
  339TIP3   OH2  980   2.163   6.146   2.453
  339TIP3    H1  981   2.191   6.054   2.459
  339TIP3    H2  982   2.239   6.196   2.483
  340TIP3   OH2  983   1.358   2.417   2.057
  340TIP3    H1  984   1.290   2.433   2.122
  340TIP3    H2  985   1.393   2.330   2.079
  341TIP3   OH2  986   6.615   4.043   3.081
  341TIP3    H1  987   6.683   3.984   3.049
  341TIP3    H2  988   6.545   4.037   3.016
  342TIP3   OH2  989   4.368   3.030   4.596
  342TIP3    H1  990   4.363   3.060   4.686
  342TIP3    H2  991   4.313   2.951   4.593
  343TIP3   OH2  992   0.061   0.095   2.928
  343TIP3    H1  993   0.047   0.071   2.837
  343TIP3    H2  994  -0.010   0.053   2.976
  344TIP3   OH2  995   1.687   0.677   3.789
  344TIP3    H1  996   1.772   0.719   3.800
  344TIP3    H2  997   1.672   0.678   3.694
  345TIP3   OH2  998   6.477   0.854   4.429
  345TIP3    H1  999   6.382   0.842   4.422
  345TIP3    H2 1000   6.494   0.937   4.384
  346TIP3   OH2 1001   6.105   3.865   1.888
  346TIP3    H1 1002   6.031   3.899   1.839
  346TIP3    H2 1003   6.151   3.807   1.827
  347TIP3   OH2 1004   4.302   4.041   3.576
  347TIP3    H1 1005   4.245   3.966   3.589
  347TIP3    H2 1006   4.353   4.019   3.498
  348TIP3   OH2 1007   0.384   6.273   3.946
  348TIP3    H1 1008   0.359   6.355   3.904
  348TIP3    H2 1009   0.306   6.244   3.993
  349TIP3   OH2 1010   3.769   4.916   1.531
  349TIP3    H1 1011   3.737   4.874   1.612
  349TIP3    H2 1012   3.708   4.988   1.516
  350TIP3   OH2 1013   4.263   1.521   4.629
  350TIP3    H1 1014   4.255   1.426   4.636
  350TIP3    H2 1015   4.173   1.552   4.619
  351TIP3   OH2 1016   2.190   3.453   0.800
  351TIP3    H1 1017   2.118   3.410   0.753
  351TIP3    H2 1018   2.210   3.531   0.747
  352TIP3   OH2 1019   2.897   4.417   1.622
  352TIP3    H1 1020   2.897   4.334   1.670
  352TIP3    H2 1021   2.920   4.392   1.532
  353TIP3   OH2 1022   1.189   5.348   5.630
  353TIP3    H1 1023   1.181   5.255   5.651
  353TIP3    H2 1024   1.140   5.358   5.549
  354TIP3   OH2 1025   3.154   6.458   5.110
  354TIP3    H1 1026   3.120   6.414   5.187
  354TIP3    H2 1027   3.084   6.452   5.045
  355TIP3   OH2 1028   5.742   6.165   1.915
  355TIP3    H1 1029   5.708   6.245   1.956
  355TIP3    H2 1030   5.674   6.100   1.931
  356TIP3   OH2 1031   2.877   2.961   3.153
  356TIP3    H1 1032   2.942   3.027   3.177
  356TIP3    H2 1033   2.821   2.952   3.230
  357TIP3   OH2 1034   6.192   5.208   5.760
  357TIP3    H1 1035   6.190   5.132   5.703
  357TIP3    H2 1036   6.254   5.185   5.830
  358TIP3   OH2 1037   1.542   6.418   1.048
  358TIP3    H1 1038   1.560   6.401   0.955
  358TIP3    H2 1039   1.560   6.335   1.091
  359TIP3   OH2 1040   0.980   5.686   1.068
  359TIP3    H1 1041   0.895   5.727   1.057
  359TIP3    H2 1042   1.002   5.701   1.160
  360TIP3   OH2 1043   3.286   1.508   2.189
  360TIP3    H1 1044   3.253   1.596   2.208
  360TIP3    H2 1045   3.308   1.472   2.275
  361TIP3   OH2 1046   0.994   1.606   4.109
  361TIP3    H1 1047   1.051   1.620   4.033
  361TIP3    H2 1048   0.937   1.533   4.082
  362TIP3   OH2 1049   3.204   1.498   1.045
  362TIP3    H1 1050   3.176   1.578   1.090
  362TIP3    H2 1051   3.296   1.514   1.024
  363TIP3   OH2 1052   5.816   0.935   0.838
  363TIP3    H1 1053   5.738   0.910   0.888
  363TIP3    H2 1054   5.879   0.962   0.905
  364TIP3   OH2 1055   7.057   2.930   4.988
  364TIP3    H1 1056   7.097   2.931   5.075
  364TIP3    H2 1057   7.106   2.863   4.940
  365TIP3   OH2 1058   6.399   4.909   2.390
  365TIP3    H1 1059   6.338   4.974   2.355
  365TIP3    H2 1060   6.406   4.929   2.483
  366TIP3   OH2 1061   3.723   1.624   3.497
  366TIP3    H1 1062   3.773   1.703   3.521
  366TIP3    H2 1063   3.790   1.560   3.474
  367TIP3   OH2 1064   3.073   3.794   3.582
  367TIP3    H1 1065   3.031   3.710   3.600
  367TIP3    H2 1066   3.085   3.794   3.487
  368TIP3   OH2 1067   2.766   2.332  -0.030
  368TIP3    H1 1068   2.813   2.396   0.024
  368TIP3    H2 1069   2.790   2.247   0.007
  369TIP3   OH2 1070   0.937   3.230   4.312
  369TIP3    H1 1071   0.845   3.226   4.286
  369TIP3    H2 1072   0.984   3.247   4.230
  370TIP3   OH2 1073   3.209   1.680   4.898
  370TIP3    H1 1074   3.234   1.617   4.832
  370TIP3    H2 1075   3.285   1.688   4.955
  371TIP3   OH2 1076   2.234   2.453   1.673
  371TIP3    H1 1077   2.156   2.401   1.694
  371TIP3    H2 1078   2.209   2.543   1.692
  372TIP3   OH2 1079   5.609   0.551   5.433
  372TIP3    H1 1080   5.644   0.508   5.355
  372TIP3    H2 1081   5.625   0.488   5.504
  373TIP3   OH2 1082   6.860   2.432   4.688
  373TIP3    H1 1083   6.933   2.474   4.643
  373TIP3    H2 1084   6.842   2.487   4.764
  374TIP3   OH2 1085   1.031   3.924   3.855
  374TIP3    H1 1086   0.975   3.866   3.907
  374TIP3    H2 1087   1.090   3.864   3.809
  375TIP3   OH2 1088   5.831   2.178   0.710
  375TIP3    H1 1089   5.822   2.083   0.697
  375TIP3    H2 1090   5.748   2.205   0.749
  376TIP3   OH2 1091   6.766   5.687   5.138
  376TIP3    H1 1092   6.684   5.673   5.091
  376TIP3    H2 1093   6.801   5.599   5.150
  377TIP3   OH2 1094   6.891   1.974   5.469
  377TIP3    H1 1095   6.805   1.944   5.500
  377TIP3    H2 1096   6.941   1.894   5.457
  378TIP3   OH2 1097   5.533   2.290   3.378
  378TIP3    H1 1098   5.519   2.378   3.343
  378TIP3    H2 1099   5.626   2.289   3.401
  379TIP3   OH2 1100   6.915   3.678   4.536
  379TIP3    H1 1101   6.866   3.619   4.593
  379TIP3    H2 1102   6.849   3.716   4.478
  380TIP3   OH2 1103   2.374   1.944   3.233
  380TIP3    H1 1104   2.293   1.961   3.281
  380TIP3    H2 1105   2.442   1.943   3.300
  381TIP3   OH2 1106   3.321   2.646   4.157
  381TIP3    H1 1107   3.254   2.714   4.159
  381TIP3    H2 1108   3.375   2.666   4.081
  382TIP3   OH2 1109   0.648   6.514   3.181
  382TIP3    H1 1110   0.737   6.488   3.157
  382TIP3    H2 1111   0.634   6.475   3.267
  383TIP3   OH2 1112   1.786   2.986   4.563
  383TIP3    H1 1113   1.703   3.017   4.597
  383TIP3    H2 1114   1.849   3.004   4.633
  384TIP3   OH2 1115   5.193   4.840  -0.022
  384TIP3    H1 1116   5.132   4.812   0.047
  384TIP3    H2 1117   5.176   4.779  -0.094
  385TIP3   OH2 1118   0.739   1.854   5.397
  385TIP3    H1 1119   0.710   1.780   5.344
  385TIP3    H2 1120   0.668   1.918   5.390
  386TIP3   OH2 1121   1.947   2.751   4.594
  386TIP3    H1 1122   2.017   2.754   4.529
  386TIP3    H2 1123   1.883   2.816   4.564
  387TIP3   OH2 1124   5.890   2.204   5.108
  387TIP3    H1 1125   5.858   2.119   5.139
  387TIP3    H2 1126   5.868   2.265   5.178
  388TIP3   OH2 1127   6.370   4.145   1.881
  388TIP3    H1 1128   6.447   4.168   1.934
  388TIP3    H2 1129   6.401   4.080   1.819
  389TIP3   OH2 1130   6.264   6.032   1.510
  389TIP3    H1 1131   6.282   6.047   1.603
  389TIP3    H2 1132   6.312   6.102   1.465
  390TIP3   OH2 1133   0.966   2.681   3.507
  390TIP3    H1 1134   0.982   2.714   3.418
  390TIP3    H2 1135   1.030   2.611   3.518
  391TIP3   OH2 1136   1.209   1.046   0.172
  391TIP3    H1 1137   1.208   1.136   0.203
  391TIP3    H2 1138   1.116   1.024   0.161
  392TIP3   OH2 1139   7.172   2.479   5.788
  392TIP3    H1 1140   7.125   2.457   5.708
  392TIP3    H2 1141   7.264   2.488   5.761
  393TIP3   OH2 1142   2.078   3.043   1.592
  393TIP3    H1 1143   2.113   3.045   1.681
  393TIP3    H2 1144   2.125   3.112   1.546
  394TIP3   OH2 1145   5.893   4.961   5.606
  394TIP3    H1 1146   5.859   4.931   5.521
  394TIP3    H2 1147   5.835   4.921   5.670
  395TIP3   OH2 1148   1.072   6.572   4.279
  395TIP3    H1 1149   1.067   6.486   4.321
  395TIP3    H2 1150   1.085   6.552   4.186
  396TIP3   OH2 1151   3.599   6.418   3.195
  396TIP3    H1 1152   3.583   6.427   3.101
  396TIP3    H2 1153   3.563   6.497   3.233
  397TIP3   OH2 1154   2.604   5.118   3.867
  397TIP3    H1 1155   2.564   5.035   3.843
  397TIP3    H2 1156   2.604   5.118   3.963
  398TIP3   OH2 1157   7.140   0.443   3.090
  398TIP3    H1 1158   7.189   0.449   3.172
  398TIP3    H2 1159   7.169   0.519   3.039
  399TIP3   OH2 1160   2.120   3.963   5.474
  399TIP3    H1 1161   2.042   3.915   5.447
  399TIP3    H2 1162   2.183   3.947   5.404
  400TIP3   OH2 1163   5.199   4.656   3.341
  400TIP3    H1 1164   5.290   4.684   3.333
  400TIP3    H2 1165   5.165   4.704   3.416
  401TIP3   OH2 1166   1.186   0.477   1.339
  401TIP3    H1 1167   1.098   0.469   1.377
  401TIP3    H2 1168   1.172   0.465   1.245
  402TIP3   OH2 1169   2.458   1.296   2.940
  402TIP3    H1 1170   2.378   1.299   2.888
  402TIP3    H2 1171   2.506   1.374   2.915
  403TIP3   OH2 1172   1.145   1.484   0.052
  403TIP3    H1 1173   1.111   1.479  -0.037
  403TIP3    H2 1174   1.112   1.406   0.095
  404TIP3   OH2 1175   6.302   4.308   2.408
  404TIP3    H1 1176   6.319   4.291   2.315
  404TIP3    H2 1177   6.312   4.403   2.417
  405TIP3   OH2 1178   6.236   6.258   2.477
  405TIP3    H1 1179   6.186   6.267   2.558
  405TIP3    H2 1180   6.220   6.169   2.448
  406TIP3   OH2 1181   5.387   0.021   3.055
  406TIP3    H1 1182   5.417   0.027   3.145
  406TIP3    H2 1183   5.453  -0.033   3.011
  407TIP3   OH2 1184   0.774   6.690   1.405
  407TIP3    H1 1185   0.727   6.636   1.470
  407TIP3    H2 1186   0.752   6.650   1.321
  408TIP3   OH2 1187   5.851   2.280   3.418
  408TIP3    H1 1188   5.943   2.301   3.433
  408TIP3    H2 1189   5.814   2.271   3.506
  409TIP3   OH2 1190   1.118   2.292   3.937
  409TIP3    H1 1191   1.071   2.311   4.018
  409TIP3    H2 1192   1.187   2.358   3.932
  410TIP3   OH2 1193   1.234   2.510   1.802
  410TIP3    H1 1194   1.145   2.537   1.821
  410TIP3    H2 1195   1.257   2.449   1.873
  411TIP3   OH2 1196   4.154   2.152   3.476
  411TIP3    H1 1197   4.239   2.123   3.510
  411TIP3    H2 1198   4.173   2.230   3.425
  412TIP3   OH2 1199   1.977   4.652   3.682
  412TIP3    H1 1200   1.888   4.622   3.665
  412TIP3    H2 1201   1.970   4.747   3.692
  413TIP3   OH2 1202   3.648   5.186   1.549
  413TIP3    H1 1203   3.732   5.219   1.517
  413TIP3    H2 1204   3.609   5.143   1.473
  414TIP3   OH2 1205   3.201   1.546   0.133
  414TIP3    H1 1206   3.127   1.583   0.179
  414TIP3    H2 1207   3.265   1.526   0.201
  415TIP3   OH2 1208   4.674   0.738   3.738
  415TIP3    H1 1209   4.645   0.784   3.660
  415TIP3    H2 1210   4.593   0.706   3.778
  416TIP3   OH2 1211   4.632   3.077   3.286
  416TIP3    H1 1212   4.643   3.008   3.351
  416TIP3    H2 1213   4.611   3.155   3.338
  417TIP3   OH2 1214   2.577   5.865   1.981
  417TIP3    H1 1215   2.524   5.942   2.002
  417TIP3    H2 1216   2.667   5.892   1.999
  418TIP3   OH2 1217   5.466   3.067   5.412
  418TIP3    H1 1218   5.517   3.047   5.491
  418TIP3    H2 1219   5.513   3.140   5.371
  419TIP3   OH2 1220   3.518   0.632   2.122
  419TIP3    H1 1221   3.482   0.696   2.183
  419TIP3    H2 1222   3.590   0.678   2.079
  420TIP3   OH2 1223   1.302   0.312   5.104
  420TIP3    H1 1224   1.332   0.335   5.192
  420TIP3    H2 1225   1.286   0.396   5.061
  421TIP3   OH2 1226   4.295   4.497   3.387
  421TIP3    H1 1227   4.363   4.430   3.377
  421TIP3    H2 1228   4.229   4.473   3.322
  422TIP3   OH2 1229   6.813   0.808   4.838
  422TIP3    H1 1230   6.797   0.860   4.759
  422TIP3    H2 1231   6.824   0.873   4.907
  423TIP3   OH2 1232   1.900   6.576   1.140
  423TIP3    H1 1233   1.984   6.595   1.181
  423TIP3    H2 1234   1.899   6.481   1.130
  424TIP3   OH2 1235   5.646   5.304   0.635
  424TIP3    H1 1236   5.569   5.248   0.637
  424TIP3    H2 1237   5.615   5.386   0.596
  425TIP3   OH2 1238   2.753   3.209   2.120
  425TIP3    H1 1239   2.741   3.125   2.075
  425TIP3    H2 1240   2.847   3.219   2.128
  426TIP3   OH2 1241   0.765   4.539   4.803
  426TIP3    H1 1242   0.741   4.551   4.895
  426TIP3    H2 1243   0.839   4.479   4.805
  427TIP3   OH2 1244   7.102   0.094   3.768
  427TIP3    H1 1245   7.149   0.111   3.687
  427TIP3    H2 1246   7.133   0.009   3.797
  428TIP3   OH2 1247   6.238   6.439   0.682
  428TIP3    H1 1248   6.200   6.359   0.719
  428TIP3    H2 1249   6.232   6.427   0.587
  429TIP3   OH2 1250   4.626   2.099   5.858
  429TIP3    H1 1251   4.645   2.043   5.783
  429TIP3    H2 1252   4.560   2.160   5.826
  430TIP3   OH2 1253   2.820   5.991   0.878
  430TIP3    H1 1254   2.782   5.940   0.806
  430TIP3    H2 1255   2.757   6.061   0.894
  431TIP3   OH2 1256   3.092   3.224   5.002
  431TIP3    H1 1257   3.100   3.170   5.080
  431TIP3    H2 1258   3.091   3.161   4.930
  432TIP3   OH2 1259   5.223   0.227   3.606
  432TIP3    H1 1260   5.220   0.131   3.600
  432TIP3    H2 1261   5.178   0.247   3.688
  433TIP3   OH2 1262   4.889   3.129   5.737
  433TIP3    H1 1263   4.965   3.177   5.703
  433TIP3    H2 1264   4.839   3.195   5.785
  434TIP3   OH2 1265   5.147   2.639   4.120
  434TIP3    H1 1266   5.182   2.640   4.209
  434TIP3    H2 1267   5.192   2.711   4.075
  435TIP3   OH2 1268   1.986   1.483   5.435
  435TIP3    H1 1269   1.966   1.389   5.437
  435TIP3    H2 1270   2.076   1.487   5.401
  436TIP3   OH2 1271   1.973   5.474   4.813
  436TIP3    H1 1272   1.891   5.497   4.854
  436TIP3    H2 1273   1.962   5.499   4.721
  437TIP3   OH2 1274   1.599   6.022   2.458
  437TIP3    H1 1275   1.552   6.106   2.451
  437TIP3    H2 1276   1.549   5.963   2.402
  438TIP3   OH2 1277   6.023   0.776   1.138
  438TIP3    H1 1278   5.998   0.685   1.152
  438TIP3    H2 1279   6.065   0.802   1.220
  439TIP3   OH2 1280   3.489   3.950   0.145
  439TIP3    H1 1281   3.459   3.917   0.061
  439TIP3    H2 1282   3.556   4.015   0.124
  440TIP3   OH2 1283   1.900   1.182   3.112
  440TIP3    H1 1284   1.984   1.187   3.067
  440TIP3    H2 1285   1.894   1.092   3.143
  441TIP3   OH2 1286   1.609   2.299   2.518
  441TIP3    H1 1287   1.640   2.232   2.457
  441TIP3    H2 1288   1.631   2.264   2.605
  442TIP3   OH2 1289   0.908   3.332   1.702
  442TIP3    H1 1290   0.968   3.259   1.714
  442TIP3    H2 1291   0.833   3.311   1.759
  443TIP3   OH2 1292   5.900   4.831   1.881
  443TIP3    H1 1293   5.852   4.776   1.819
  443TIP3    H2 1294   5.977   4.780   1.904
  444TIP3   OH2 1295   6.905   2.806   4.440
  444TIP3    H1 1296   6.974   2.849   4.391
  444TIP3    H2 1297   6.829   2.808   4.382
  445TIP3   OH2 1298   3.804   5.628   4.611
  445TIP3    H1 1299   3.822   5.637   4.517
  445TIP3    H2 1300   3.880   5.667   4.653
  446TIP3   OH2 1301   4.355   4.883   2.715
  446TIP3    H1 1302   4.394   4.913   2.632
  446TIP3    H2 1303   4.262   4.905   2.706
  447TIP3   OH2 1304   3.597   3.686   3.924
  447TIP3    H1 1305   3.687   3.658   3.906
  447TIP3    H2 1306   3.593   3.691   4.020
  448TIP3   OH2 1307   0.221   6.415   1.731
  448TIP3    H1 1308   0.289   6.427   1.665
  448TIP3    H2 1309   0.201   6.321   1.727
  449TIP3   OH2 1310   0.155   1.255   1.534
  449TIP3    H1 1311   0.184   1.286   1.620
  449TIP3    H2 1312   0.081   1.198   1.553
  450TIP3   OH2 1313   0.741   1.332   1.920
  450TIP3    H1 1314   0.796   1.375   1.986
  450TIP3    H2 1315   0.699   1.260   1.967
  451TIP3   OH2 1316   3.767   5.746   0.387
  451TIP3    H1 1317   3.680   5.786   0.393
  451TIP3    H2 1318   3.756   5.660   0.429
  452TIP3   OH2 1319   4.670   0.979   3.340
  452TIP3    H1 1320   4.758   0.944   3.350
  452TIP3    H2 1321   4.650   0.968   3.247
  453TIP3   OH2 1322   0.730   0.982   2.216
  453TIP3    H1 1323   0.791   0.912   2.195
  453TIP3    H2 1324   0.731   0.987   2.312
  454TIP3   OH2 1325   6.567   2.015   1.732
  454TIP3    H1 1326   6.571   2.109   1.751
  454TIP3    H2 1327   6.498   1.981   1.790
  455TIP3   OH2 1328   4.022   5.171   5.174
  455TIP3    H1 1329   4.029   5.264   5.195
  455TIP3    H2 1330   3.928   5.154   5.174
  456TIP3   OH2 1331   4.643   5.377   4.224
  456TIP3    H1 1332   4.573   5.432   4.187
  456TIP3    H2 1333   4.629   5.291   4.185
  457TIP3   OH2 1334   2.077   1.841   3.064
  457TIP3    H1 1335   2.068   1.798   2.980
  457TIP3    H2 1336   2.100   1.771   3.125
  458TIP3   OH2 1337   6.890   4.470   0.627
  458TIP3    H1 1338   6.913   4.519   0.548
  458TIP3    H2 1339   6.804   4.503   0.652
  459TIP3   OH2 1340   3.225   0.042   3.162
  459TIP3    H1 1341   3.244  -0.013   3.238
  459TIP3    H2 1342   3.240   0.131   3.193
  460TIP3   OH2 1343   0.901   0.756   3.643
  460TIP3    H1 1344   0.948   0.673   3.650
  460TIP3    H2 1345   0.963   0.816   3.602
  461TIP3   OH2 1346   2.594   1.153   1.986
  461TIP3    H1 1347   2.564   1.192   2.068
  461TIP3    H2 1348   2.531   1.084   1.968
  462TIP3   OH2 1349   0.872   6.570   4.751
  462TIP3    H1 1350   0.808   6.510   4.713
  462TIP3    H2 1351   0.921   6.516   4.814
  463TIP3   OH2 1352   2.977   6.559   1.601
  463TIP3    H1 1353   2.972   6.529   1.510
  463TIP3    H2 1354   3.040   6.631   1.599
  464TIP3   OH2 1355   0.276   5.582   4.297
  464TIP3    H1 1356   0.337   5.647   4.331
  464TIP3    H2 1357   0.319   5.547   4.219
  465TIP3   OH2 1358   2.555   0.547   0.590
  465TIP3    H1 1359   2.561   0.479   0.524
  465TIP3    H2 1360   2.513   0.505   0.665
  466TIP3   OH2 1361   0.449   2.954   0.823
  466TIP3    H1 1362   0.391   2.956   0.898
  466TIP3    H2 1363   0.534   2.981   0.858
  467TIP3   OH2 1364   5.009   6.652   3.610
  467TIP3    H1 1365   5.059   6.731   3.591
  467TIP3    H2 1366   4.945   6.646   3.539
  468TIP3   OH2 1367   3.661   4.326   1.243
  468TIP3    H1 1368   3.741   4.274   1.235
  468TIP3    H2 1369   3.659   4.379   1.162
  469TIP3   OH2 1370   5.213   5.161   5.286
  469TIP3    H1 1371   5.260   5.175   5.368
  469TIP3    H2 1372   5.261   5.214   5.222
  470TIP3   OH2 1373   0.609   2.211   1.951
  470TIP3    H1 1374   0.641   2.242   2.036
  470TIP3    H2 1375   0.582   2.291   1.905
  471TIP3   OH2 1376   6.469   0.797   4.710
  471TIP3    H1 1377   6.497   0.818   4.621
  471TIP3    H2 1378   6.548   0.809   4.763
  472TIP3   OH2 1379   6.139   4.191   4.248
  472TIP3    H1 1380   6.090   4.208   4.168
  472TIP3    H2 1381   6.159   4.278   4.283
  473TIP3   OH2 1382   4.197   5.777   2.140
  473TIP3    H1 1383   4.123   5.764   2.199
  473TIP3    H2 1384   4.192   5.703   2.079
  474TIP3   OH2 1385   3.797   5.505   2.815
  474TIP3    H1 1386   3.793   5.465   2.728
  474TIP3    H2 1387   3.876   5.560   2.812
  475TIP3   OH2 1388   2.952   2.040   3.017
  475TIP3    H1 1389   3.021   2.065   3.078
  475TIP3    H2 1390   2.921   1.956   3.049
  476TIP3   OH2 1391   1.886   4.958   0.307
  476TIP3    H1 1392   1.813   4.897   0.313
  476TIP3    H2 1393   1.846   5.044   0.293
  477TIP3   OH2 1394   4.965   4.711   4.815
  477TIP3    H1 1395   5.051   4.672   4.805
  477TIP3    H2 1396   4.958   4.775   4.744
  478TIP3   OH2 1397   3.384   4.959   1.047
  478TIP3    H1 1398   3.417   4.884   1.096
  478TIP3    H2 1399   3.319   4.999   1.105
  479TIP3   OH2 1400   5.722   0.372   1.667
  479TIP3    H1 1401   5.724   0.361   1.572
  479TIP3    H2 1402   5.806   0.338   1.697
  480TIP3   OH2 1403   6.340   0.048   4.983
  480TIP3    H1 1404   6.401  -0.026   4.980
  480TIP3    H2 1405   6.338   0.080   4.893
  481TIP3   OH2 1406   0.662   2.186   4.899
  481TIP3    H1 1407   0.665   2.092   4.879
  481TIP3    H2 1408   0.623   2.190   4.986
  482TIP3   OH2 1409   2.951   6.128   5.558
  482TIP3    H1 1410   2.922   6.037   5.554
  482TIP3    H2 1411   3.039   6.127   5.521
  483TIP3   OH2 1412   1.591   2.270   4.259
  483TIP3    H1 1413   1.550   2.302   4.179
  483TIP3    H2 1414   1.534   2.198   4.288
  484TIP3   OH2 1415   4.397   4.554   0.440
  484TIP3    H1 1416   4.325   4.606   0.476
  484TIP3    H2 1417   4.406   4.481   0.501
  485TIP3   OH2 1418   2.576   4.866   4.237
  485TIP3    H1 1419   2.512   4.864   4.308
  485TIP3    H2 1420   2.563   4.783   4.191
  486TIP3   OH2 1421   4.535   6.099   3.434
  486TIP3    H1 1422   4.589   6.039   3.487
  486TIP3    H2 1423   4.447   6.062   3.440
  487TIP3   OH2 1424   0.252   6.753   3.543
  487TIP3    H1 1425   0.335   6.704   3.542
  487TIP3    H2 1426   0.185   6.685   3.549
  488TIP3   OH2 1427   7.030   3.059   4.761
  488TIP3    H1 1428   7.071   2.988   4.712
  488TIP3    H2 1429   7.048   3.039   4.852
  489TIP3   OH2 1430   2.246   3.802   4.642
  489TIP3    H1 1431   2.229   3.780   4.734
  489TIP3    H2 1432   2.266   3.718   4.601
  490TIP3   OH2 1433   5.169   1.092   5.631
  490TIP3    H1 1434   5.174   1.008   5.586
  490TIP3    H2 1435   5.164   1.157   5.560
  491TIP3   OH2 1436   4.850   3.988   4.542
  491TIP3    H1 1437   4.910   3.922   4.576
  491TIP3    H2 1438   4.903   4.042   4.485
  492TIP3   OH2 1439   2.142   5.165   0.514
  492TIP3    H1 1440   2.052   5.181   0.542
  492TIP3    H2 1441   2.139   5.081   0.468
  493TIP3   OH2 1442   4.987   2.425   4.218
  493TIP3    H1 1443   5.060   2.472   4.178
  493TIP3    H2 1444   4.935   2.493   4.261
  494TIP3   OH2 1445   3.514   0.704   3.978
  494TIP3    H1 1446   3.542   0.617   3.950
  494TIP3    H2 1447   3.480   0.692   4.067
  495TIP3   OH2 1448   5.160   1.183   0.138
  495TIP3    H1 1449   5.200   1.098   0.155
  495TIP3    H2 1450   5.141   1.182   0.044
  496TIP3   OH2 1451   2.981   3.868   3.040
  496TIP3    H1 1452   2.936   3.953   3.037
  496TIP3    H2 1453   2.920   3.810   3.086
  497TIP3   OH2 1454   0.750   0.314   5.483
  497TIP3    H1 1455   0.681   0.290   5.421
  497TIP3    H2 1456   0.726   0.267   5.563
  498TIP3   OH2 1457   1.222   4.423   3.665
  498TIP3    H1 1458   1.219   4.423   3.569
  498TIP3    H2 1459   1.137   4.387   3.691
  499TIP3   OH2 1460   5.761   1.466   3.663
  499TIP3    H1 1461   5.822   1.501   3.727
  499TIP3    H2 1462   5.675   1.496   3.692
  500TIP3   OH2 1463   3.393   3.026   0.380
  500TIP3    H1 1464   3.387   3.061   0.469
  500TIP3    H2 1465   3.305   3.034   0.345
  501TIP3   OH2 1466   0.958   2.070   5.344
  501TIP3    H1 1467   0.932   1.979   5.362
  501TIP3    H2 1468   1.017   2.063   5.269
  502TIP3   OH2 1469   2.629   0.671   1.587
  502TIP3    H1 1470   2.620   0.736   1.517
  502TIP3    H2 1471   2.561   0.606   1.567
  503TIP3   OH2 1472   2.699   4.202   4.238
  503TIP3    H1 1473   2.724   4.148   4.314
  503TIP3    H2 1474   2.781   4.212   4.189
  504TIP3   OH2 1475   3.953   3.173   1.659
  504TIP3    H1 1476   3.902   3.209   1.587
  504TIP3    H2 1477   3.914   3.088   1.677
  505TIP3   OH2 1478   0.638   1.264   2.616
  505TIP3    H1 1479   0.553   1.303   2.597
  505TIP3    H2 1480   0.631   1.234   2.707
  506TIP3   OH2 1481   6.931   1.163   5.430
  506TIP3    H1 1482   6.993   1.201   5.368
  506TIP3    H2 1483   6.926   1.226   5.502
  507TIP3   OH2 1484   5.747   3.967   2.471
  507TIP3    H1 1485   5.747   3.899   2.539
  507TIP3    H2 1486   5.682   3.938   2.408
  508TIP3   OH2 1487   0.764   2.192   1.596
  508TIP3    H1 1488   0.852   2.228   1.582
  508TIP3    H2 1489   0.779   2.113   1.648
  509TIP3   OH2 1490   4.782   4.657   0.940
  509TIP3    H1 1491   4.735   4.715   0.880
  509TIP3    H2 1492   4.873   4.664   0.914
  510TIP3   OH2 1493   3.368   1.242   1.040
  510TIP3    H1 1494   3.342   1.266   1.129
  510TIP3    H2 1495   3.411   1.157   1.050
  511TIP3   OH2 1496   4.918   6.496   0.408
  511TIP3    H1 1497   4.932   6.402   0.417
  511TIP3    H2 1498   4.903   6.527   0.498
  512TIP3   OH2 1499   1.007   6.759   5.334
  512TIP3    H1 1500   1.034   6.697   5.402
  512TIP3    H2 1501   0.918   6.732   5.311
  513TIP3   OH2 1502   0.054   5.524   0.598
  513TIP3    H1 1503   0.087   5.439   0.628
  513TIP3    H2 1504   0.131   5.582   0.600
  514TIP3   OH2 1505   5.528   2.857   3.988
  514TIP3    H1 1506   5.561   2.873   3.899
  514TIP3    H2 1507   5.606   2.836   4.039
  515TIP3   OH2 1508   0.209   3.523   0.613
  515TIP3    H1 1509   0.239   3.612   0.596
  515TIP3    H2 1510   0.289   3.474   0.633
  516TIP3   OH2 1511   3.369   0.035   1.525
  516TIP3    H1 1512   3.395   0.097   1.457
  516TIP3    H2 1513   3.324  -0.035   1.477
  517TIP3   OH2 1514   2.489   3.736   1.139
  517TIP3    H1 1515   2.548   3.733   1.214
  517TIP3    H2 1516   2.481   3.644   1.111
  518TIP3   OH2 1517   5.895   4.375   2.556
  518TIP3    H1 1518   5.941   4.298   2.589
  518TIP3    H2 1519   5.950   4.406   2.483
  519TIP3   OH2 1520   2.309   5.498   0.133
  519TIP3    H1 1521   2.306   5.403   0.146
  519TIP3    H2 1522   2.370   5.529   0.200
  520TIP3   OH2 1523   1.021   5.275   3.641
  520TIP3    H1 1524   1.111   5.304   3.656
  520TIP3    H2 1525   0.967   5.347   3.672
  521TIP3   OH2 1526   4.698   1.060   0.517
  521TIP3    H1 1527   4.678   1.080   0.425
  521TIP3    H2 1528   4.734   1.142   0.552
  522TIP3   OH2 1529   7.094   3.109   3.974
  522TIP3    H1 1530   7.089   3.203   3.959
  522TIP3    H2 1531   7.013   3.074   3.937
  523TIP3   OH2 1532   1.350   6.726   4.660
  523TIP3    H1 1533   1.379   6.638   4.683
  523TIP3    H2 1534   1.257   6.729   4.682
  524TIP3   OH2 1535   3.549   6.744   0.864
  524TIP3    H1 1536   3.541   6.792   0.782
  524TIP3    H2 1537   3.598   6.804   0.922
  525TIP3   OH2 1538   1.541   5.837   3.571
  525TIP3    H1 1539   1.485   5.786   3.629
  525TIP3    H2 1540   1.576   5.772   3.509
  526TIP3   OH2 1541   0.658   6.212   2.631
  526TIP3    H1 1542   0.601   6.171   2.566
  526TIP3    H2 1543   0.712   6.272   2.581
  527TIP3   OH2 1544   4.130   5.025   1.216
  527TIP3    H1 1545   4.140   5.119   1.229
  527TIP3    H2 1546   4.207   4.999   1.165
  528TIP3   OH2 1547   3.290   3.763   4.662
  528TIP3    H1 1548   3.346   3.805   4.596
  528TIP3    H2 1549   3.218   3.826   4.675
  529TIP3   OH2 1550   3.084   3.181   2.882
  529TIP3    H1 1551   3.129   3.242   2.824
  529TIP3    H2 1552   3.148   3.161   2.951
  530TIP3   OH2 1553   5.388   3.859   2.881
  530TIP3    H1 1554   5.351   3.782   2.839
  530TIP3    H2 1555   5.368   3.931   2.821
  531TIP3   OH2 1556   6.222   2.941   5.455
  531TIP3    H1 1557   6.143   2.967   5.406
  531TIP3    H2 1558   6.188   2.895   5.532
  532TIP3   OH2 1559   1.815   4.283   5.476
  532TIP3    H1 1560   1.848   4.369   5.448
  532TIP3    H2 1561   1.830   4.226   5.401
  533TIP3   OH2 1562   2.630   5.720   1.526
  533TIP3    H1 1563   2.667   5.716   1.438
  533TIP3    H2 1564   2.679   5.654   1.575
  534TIP3   OH2 1565   3.819   0.895   4.501
  534TIP3    H1 1566   3.781   0.981   4.519
  534TIP3    H2 1567   3.789   0.840   4.573
  535TIP3   OH2 1568   5.605   3.944   5.660
  535TIP3    H1 1569   5.618   3.853   5.634
  535TIP3    H2 1570   5.683   3.965   5.712
  536TIP3   OH2 1571   4.293   5.170   1.649
  536TIP3    H1 1572   4.284   5.265   1.649
  536TIP3    H2 1573   4.204   5.136   1.649
  537TIP3   OH2 1574   3.452   2.367   1.802
  537TIP3    H1 1575   3.466   2.280   1.838
  537TIP3    H2 1576   3.526   2.419   1.835
  538TIP3   OH2 1577   2.490   1.690   0.851
  538TIP3    H1 1578   2.413   1.712   0.799
  538TIP3    H2 1579   2.554   1.658   0.788
  539TIP3   OH2 1580   5.495   5.574   4.210
  539TIP3    H1 1581   5.401   5.569   4.226
  539TIP3    H2 1582   5.506   5.651   4.153
  540TIP3   OH2 1583   2.051   3.642   0.599
  540TIP3    H1 1584   2.042   3.656   0.505
  540TIP3    H2 1585   2.035   3.549   0.611
  541TIP3   OH2 1586   7.023   0.649   3.720
  541TIP3    H1 1587   7.095   0.705   3.691
  541TIP3    H2 1588   6.962   0.710   3.762
  542TIP3   OH2 1589   4.024   4.128   0.537
  542TIP3    H1 1590   4.062   4.170   0.460
  542TIP3    H2 1591   4.094   4.072   0.570
  543TIP3   OH2 1592   0.256   1.742   5.441
  543TIP3    H1 1593   0.254   1.664   5.496
  543TIP3    H2 1594   0.338   1.733   5.392
  544TIP3   OH2 1595   3.446   2.150   1.428
  544TIP3    H1 1596   3.364   2.124   1.471
  544TIP3    H2 1597   3.514   2.119   1.488
  545TIP3   OH2 1598   4.600   3.214   0.441
  545TIP3    H1 1599   4.616   3.282   0.506
  545TIP3    H2 1600   4.551   3.147   0.489
  546TIP3   OH2 1601   2.957   0.153   5.063
  546TIP3    H1 1602   2.872   0.195   5.080
  546TIP3    H2 1603   2.939   0.059   5.067
  547TIP3   OH2 1604   4.524   1.836   5.222
  547TIP3    H1 1605   4.483   1.923   5.217
  547TIP3    H2 1606   4.615   1.854   5.246
  548TIP3   OH2 1607   6.470   4.030   2.434
  548TIP3    H1 1608   6.494   4.079   2.355
  548TIP3    H2 1609   6.544   3.971   2.449
  549TIP3   OH2 1610   0.981   2.028   1.775
  549TIP3    H1 1611   0.998   1.968   1.702
  549TIP3    H2 1612   1.063   2.075   1.787
  550TIP3   OH2 1613   0.882   0.856   2.612
  550TIP3    H1 1614   0.873   0.761   2.600
  550TIP3    H2 1615   0.976   0.870   2.621
  551TIP3   OH2 1616   1.533   4.797   0.672
  551TIP3    H1 1617   1.561   4.726   0.615
  551TIP3    H2 1618   1.613   4.847   0.690
  552TIP3   OH2 1619   4.232   0.612   4.392
  552TIP3    H1 1620   4.152   0.656   4.364
  552TIP3    H2 1621   4.212   0.580   4.480
  553TIP3   OH2 1622   0.747   4.172   1.189
  553TIP3    H1 1623   0.682   4.165   1.119
  553TIP3    H2 1624   0.715   4.113   1.258
  554TIP3   OH2 1625   2.569   3.776   4.626
  554TIP3    H1 1626   2.544   3.702   4.681
  554TIP3    H2 1627   2.560   3.744   4.536
  555TIP3   OH2 1628   6.443   5.458   3.581
  555TIP3    H1 1629   6.464   5.540   3.625
  555TIP3    H2 1630   6.408   5.485   3.496
  556TIP3   OH2 1631   2.213   2.291   0.540
  556TIP3    H1 1632   2.120   2.266   0.541
  556TIP3    H2 1633   2.259   2.210   0.518
  557TIP3   OH2 1634   1.395   5.528   1.804
  557TIP3    H1 1635   1.380   5.622   1.793
  557TIP3    H2 1636   1.485   5.514   1.775
  558TIP3   OH2 1637   5.289   1.201   3.154
  558TIP3    H1 1638   5.253   1.141   3.219
  558TIP3    H2 1639   5.376   1.165   3.134
  559TIP3   OH2 1640   2.149   5.828   4.021
  559TIP3    H1 1641   2.223   5.861   3.970
  559TIP3    H2 1642   2.187   5.767   4.084
  560TIP3   OH2 1643   3.396   4.652   2.916
  560TIP3    H1 1644   3.444   4.725   2.879
  560TIP3    H2 1645   3.447   4.626   2.993
  561TIP3   OH2 1646   7.141   5.988   5.842
  561TIP3    H1 1647   7.122   5.970   5.934
  561TIP3    H2 1648   7.231   5.958   5.829
  562TIP3   OH2 1649   4.441   5.093   2.907
  562TIP3    H1 1650   4.419   5.151   2.834
  562TIP3    H2 1651   4.437   5.005   2.869
  563TIP3   OH2 1652   4.679   1.227   0.259
  563TIP3    H1 1653   4.727   1.248   0.179
  563TIP3    H2 1654   4.668   1.312   0.303
  564TIP3   OH2 1655   7.123   0.871   4.708
  564TIP3    H1 1656   7.111   0.776   4.711
  564TIP3    H2 1657   7.037   0.907   4.727
  565TIP3   OH2 1658   3.083   0.409   0.465
  565TIP3    H1 1659   2.994   0.442   0.466
  565TIP3    H2 1660   3.134   0.477   0.420
  566TIP3   OH2 1661   2.632   2.136   1.546
  566TIP3    H1 1662   2.581   2.064   1.509
  566TIP3    H2 1663   2.604   2.141   1.637
  567TIP3   OH2 1664   3.949   0.546   0.685
  567TIP3    H1 1665   4.029   0.534   0.633
  567TIP3    H2 1666   3.912   0.628   0.654
  568TIP3   OH2 1667   3.211   0.289   0.692
  568TIP3    H1 1668   3.170   0.341   0.623
  568TIP3    H2 1669   3.208   0.345   0.769
  569TIP3   OH2 1670   1.739   3.408   3.771
  569TIP3    H1 1671   1.788   3.423   3.852
  569TIP3    H2 1672   1.805   3.377   3.708
  570TIP3   OH2 1673   7.077   2.936   1.728
  570TIP3    H1 1674   7.097   2.864   1.667
  570TIP3    H2 1675   6.997   2.907   1.772
  571TIP3   OH2 1676   1.081   2.843   5.434
  571TIP3    H1 1677   1.004   2.807   5.477
  571TIP3    H2 1678   1.088   2.793   5.353
  572TIP3   OH2 1679   5.987   2.343   1.056
  572TIP3    H1 1680   6.008   2.344   0.963
  572TIP3    H2 1681   6.067   2.374   1.099
  573TIP3   OH2 1682   1.627   4.507   5.680
  573TIP3    H1 1683   1.652   4.466   5.597
  573TIP3    H2 1684   1.550   4.458   5.709
  574TIP3   OH2 1685   0.315   1.988   1.274
  574TIP3    H1 1686   0.287   2.029   1.192
  574TIP3    H2 1687   0.402   2.024   1.291
  575TIP3   OH2 1688   0.503   0.816   2.527
  575TIP3    H1 1689   0.571   0.879   2.503
  575TIP3    H2 1690   0.514   0.744   2.465
  576TIP3   OH2 1691   2.617   0.375   1.198
  576TIP3    H1 1692   2.708   0.354   1.176
  576TIP3    H2 1693   2.599   0.457   1.152
  577TIP3   OH2 1694   4.429   5.326   5.523
  577TIP3    H1 1695   4.402   5.351   5.435
  577TIP3    H2 1696   4.356   5.273   5.556
  578TIP3   OH2 1697   6.578   2.301   5.550
  578TIP3    H1 1698   6.491   2.300   5.591
  578TIP3    H2 1699   6.638   2.324   5.622
  579TIP3   OH2 1700   6.474   5.681   5.735
  579TIP3    H1 1701   6.438   5.768   5.749
  579TIP3    H2 1702   6.569   5.692   5.746
  580TIP3   OH2 1703   2.976   2.813   0.499
  580TIP3    H1 1704   3.005   2.739   0.445
  580TIP3    H2 1705   2.895   2.842   0.458
  581TIP3   OH2 1706   4.803   4.949   0.307
  581TIP3    H1 1707   4.793   5.038   0.273
  581TIP3    H2 1708   4.729   4.901   0.270
  582TIP3   OH2 1709   3.700   1.248   1.609
  582TIP3    H1 1710   3.729   1.291   1.528
  582TIP3    H2 1711   3.738   1.161   1.604
  583TIP3   OH2 1712   2.320   1.198   4.338
  583TIP3    H1 1713   2.278   1.219   4.255
  583TIP3    H2 1714   2.302   1.273   4.394
  584TIP3   OH2 1715   0.762   2.823   4.927
  584TIP3    H1 1716   0.733   2.904   4.885
  584TIP3    H2 1717   0.723   2.753   4.874
  585TIP3   OH2 1718   1.361   0.361   5.696
  585TIP3    H1 1719   1.269   0.378   5.717
  585TIP3    H2 1720   1.406   0.364   5.780
  586TIP3   OH2 1721   4.887   1.249   3.611
  586TIP3    H1 1722   4.888   1.154   3.614
  586TIP3    H2 1723   4.807   1.274   3.657
  587TIP3   OH2 1724   2.624   3.216   3.502
  587TIP3    H1 1725   2.634   3.263   3.585
  587TIP3    H2 1726   2.684   3.259   3.443
  588TIP3   OH2 1727   1.393   3.288   3.157
  588TIP3    H1 1728   1.474   3.271   3.205
  588TIP3    H2 1729   1.345   3.206   3.162
  589TIP3   OH2 1730   2.338   0.833   1.000
  589TIP3    H1 1731   2.336   0.803   0.909
  589TIP3    H2 1732   2.289   0.766   1.049
  590TIP3   OH2 1733   4.801   3.916   2.604
  590TIP3    H1 1734   4.832   3.911   2.694
  590TIP3    H2 1735   4.762   4.003   2.596
  591TIP3   OH2 1736   2.077   6.708   1.647
  591TIP3    H1 1737   1.984   6.731   1.636
  591TIP3    H2 1738   2.102   6.671   1.562
  592TIP3   OH2 1739   5.165   3.635   1.836
  592TIP3    H1 1740   5.113   3.715   1.839
  592TIP3    H2 1741   5.146   3.591   1.919
  593TIP3   OH2 1742   7.207   0.965   0.627
  593TIP3    H1 1743   7.187   0.904   0.698
  593TIP3    H2 1744   7.139   1.032   0.632
  594TIP3   OH2 1745   6.852   1.952   1.764
  594TIP3    H1 1746   6.758   1.955   1.786
  594TIP3    H2 1747   6.868   2.033   1.717
  595TIP3   OH2 1748   6.485   1.167   4.403
  595TIP3    H1 1749   6.423   1.156   4.331
  595TIP3    H2 1750   6.431   1.165   4.482
  596TIP3   OH2 1751   3.223   0.771   3.017
  596TIP3    H1 1752   3.158   0.738   2.955
  596TIP3    H2 1753   3.183   0.759   3.103
  597TIP3   OH2 1754   5.987   2.439   3.749
  597TIP3    H1 1755   6.006   2.503   3.680
  597TIP3    H2 1756   5.923   2.380   3.710
  598TIP3   OH2 1757   0.493   3.091   5.765
  598TIP3    H1 1758   0.447   3.018   5.723
  598TIP3    H2 1759   0.432   3.122   5.832
  599TIP3   OH2 1760   6.259   3.372   2.206
  599TIP3    H1 1761   6.249   3.286   2.167
  599TIP3    H2 1762   6.293   3.427   2.135
  600TIP3   OH2 1763   0.024   4.407   1.970
  600TIP3    H1 1764   0.069   4.416   1.886
  600TIP3    H2 1765   0.011   4.497   2.000
  601TIP3   OH2 1766   5.200   3.039   4.368
  601TIP3    H1 1767   5.283   3.004   4.336
  601TIP3    H2 1768   5.136   3.012   4.303
  602TIP3   OH2 1769   3.502   0.833   3.062
  602TIP3    H1 1770   3.407   0.821   3.068
  602TIP3    H2 1771   3.537   0.779   3.132
  603TIP3   OH2 1772   4.387   1.961   2.688
  603TIP3    H1 1773   4.477   1.930   2.705
  603TIP3    H2 1774   4.332   1.884   2.704
  604TIP3   OH2 1775   0.043   2.871   0.871
  604TIP3    H1 1776   0.091   2.852   0.951
  604TIP3    H2 1777   0.079   2.955   0.840
  605TIP3   OH2 1778   4.755   4.960   5.791
  605TIP3    H1 1779   4.768   5.055   5.797
  605TIP3    H2 1780   4.842   4.923   5.797
  606TIP3   OH2 1781   0.927   5.994   0.954
  606TIP3    H1 1782   0.917   5.995   0.859
  606TIP3    H2 1783   0.892   5.909   0.981
  607TIP3   OH2 1784   6.592   2.306   2.399
  607TIP3    H1 1785   6.678   2.346   2.411
  607TIP3    H2 1786   6.579   2.254   2.479
  608TIP3   OH2 1787   4.217   6.819   1.905
  608TIP3    H1 1788   4.153   6.749   1.912
  608TIP3    H2 1789   4.196   6.878   1.978
  609TIP3   OH2 1790   7.145   2.408   2.959
  609TIP3    H1 1791   7.150   2.319   2.995
  609TIP3    H2 1792   7.073   2.449   3.006
  610TIP3   OH2 1793   4.458   1.635   2.491
  610TIP3    H1 1794   4.461   1.575   2.416
  610TIP3    H2 1795   4.388   1.600   2.546
  611TIP3   OH2 1796   6.149   4.922   4.104
  611TIP3    H1 1797   6.232   4.876   4.103
  611TIP3    H2 1798   6.151   4.977   4.026
  612TIP3   OH2 1799   6.596   4.910   5.144
  612TIP3    H1 1800   6.577   4.824   5.107
  612TIP3    H2 1801   6.518   4.962   5.126
  613TIP3   OH2 1802   5.648   1.231   3.881
  613TIP3    H1 1803   5.651   1.301   3.816
  613TIP3    H2 1804   5.560   1.238   3.919
  614TIP3   OH2 1805   7.189   4.804   5.644
  614TIP3    H1 1806   7.213   4.854   5.722
  614TIP3    H2 1807   7.200   4.865   5.571
  615TIP3   OH2 1808   0.840   5.156   3.101
  615TIP3    H1 1809   0.767   5.105   3.135
  615TIP3    H2 1810   0.878   5.198   3.178
  616TIP3   OH2 1811   0.380   5.484   0.976
  616TIP3    H1 1812   0.349   5.484   0.885
  616TIP3    H2 1813   0.428   5.401   0.985
  617TIP3   OH2 1814   4.666   2.171   0.417
  617TIP3    H1 1815   4.575   2.195   0.397
  617TIP3    H2 1816   4.692   2.232   0.486
  618TIP3   OH2 1817   0.273   5.429   1.895
  618TIP3    H1 1818   0.348   5.389   1.940
  618TIP3    H2 1819   0.215   5.356   1.877
  619TIP3   OH2 1820   4.559   0.820   5.729
  619TIP3    H1 1821   4.476   0.845   5.688
  619TIP3    H2 1822   4.591   0.747   5.676
  620TIP3   OH2 1823   0.120   2.407   5.111
  620TIP3    H1 1824   0.159   2.463   5.044
  620TIP3    H2 1825   0.188   2.343   5.132
  621TIP3   OH2 1826   5.036   6.235   0.803
  621TIP3    H1 1827   5.091   6.160   0.781
  621TIP3    H2 1828   4.977   6.203   0.872
  622TIP3   OH2 1829   6.277   1.587   2.999
  622TIP3    H1 1830   6.362   1.543   3.001
  622TIP3    H2 1831   6.216   1.519   2.971
  623TIP3   OH2 1832   1.395   6.268   3.112
  623TIP3    H1 1833   1.346   6.218   3.047
  623TIP3    H2 1834   1.462   6.209   3.144
  624TIP3   OH2 1835   4.828   2.240   3.865
  624TIP3    H1 1836   4.921   2.228   3.849
  624TIP3    H2 1837   4.785   2.196   3.791
  625TIP3   OH2 1838   5.039   3.089   1.346
  625TIP3    H1 1839   5.031   3.101   1.441
  625TIP3    H2 1840   4.956   3.122   1.310
  626TIP3   OH2 1841   3.581   6.562   3.993
  626TIP3    H1 1842   3.656   6.588   3.939
  626TIP3    H2 1843   3.615   6.562   4.082
  627TIP3   OH2 1844   3.712   5.855   1.942
  627TIP3    H1 1845   3.670   5.875   1.859
  627TIP3    H2 1846   3.739   5.763   1.934
  628TIP3   OH2 1847   3.935   5.976   3.258
  628TIP3    H1 1848   3.899   5.898   3.301
  628TIP3    H2 1849   3.918   6.047   3.320
  629TIP3   OH2 1850   2.004   3.617   4.275
  629TIP3    H1 1851   1.996   3.555   4.202
  629TIP3    H2 1852   1.959   3.574   4.347
  630TIP3   OH2 1853   0.502   1.836   2.033
  630TIP3    H1 1854   0.410   1.816   2.051
  630TIP3    H2 1855   0.499   1.908   1.970
  631TIP3   OH2 1856   1.512   3.680   5.517
  631TIP3    H1 1857   1.604   3.660   5.529
  631TIP3    H2 1858   1.497   3.670   5.422
  632TIP3   OH2 1859   6.540   3.385   1.705
  632TIP3    H1 1860   6.528   3.461   1.648
  632TIP3    H2 1861   6.634   3.378   1.717
  633TIP3   OH2 1862   1.869   5.551   0.933
  633TIP3    H1 1863   1.887   5.494   0.858
  633TIP3    H2 1864   1.823   5.495   0.996
  634TIP3   OH2 1865   2.668   0.562   5.410
  634TIP3    H1 1866   2.716   0.643   5.425
  634TIP3    H2 1867   2.576   0.586   5.422
  635TIP3   OH2 1868   6.406   0.610   0.244
  635TIP3    H1 1869   6.354   0.545   0.292
  635TIP3    H2 1870   6.411   0.685   0.302
  636TIP3   OH2 1871   4.684   2.451   5.687
  636TIP3    H1 1872   4.626   2.414   5.621
  636TIP3    H2 1873   4.627   2.469   5.762
  637TIP3   OH2 1874   4.647   4.089   2.240
  637TIP3    H1 1875   4.726   4.141   2.258
  637TIP3    H2 1876   4.668   4.043   2.158
  638TIP3   OH2 1877   1.943   5.154   1.466
  638TIP3    H1 1878   1.866   5.099   1.483
  638TIP3    H2 1879   1.936   5.225   1.531
  639TIP3   OH2 1880   5.055   0.244   3.973
  639TIP3    H1 1881   5.111   0.316   4.000
  639TIP3    H2 1882   5.077   0.172   4.033
  640TIP3   OH2 1883   7.075   4.355   5.334
  640TIP3    H1 1884   7.073   4.436   5.283
  640TIP3    H2 1885   7.144   4.368   5.398
  641TIP3   OH2 1886   2.006   4.886   5.513
  641TIP3    H1 1887   1.917   4.887   5.479
  641TIP3    H2 1888   2.030   4.978   5.522
  642TIP3   OH2 1889   6.118   5.147   0.818
  642TIP3    H1 1890   6.023   5.150   0.810
  642TIP3    H2 1891   6.150   5.190   0.739
  643TIP3   OH2 1892   2.855   0.356   1.086
  643TIP3    H1 1893   2.838   0.423   1.020
  643TIP3    H2 1894   2.944   0.375   1.117
  644TIP3   OH2 1895   4.287   3.738   4.484
  644TIP3    H1 1896   4.200   3.775   4.473
  644TIP3    H2 1897   4.275   3.665   4.545
  645TIP3   OH2 1898   6.986   4.320   5.776
  645TIP3    H1 1899   7.016   4.336   5.865
  645TIP3    H2 1900   7.055   4.355   5.720
  646TIP3   OH2 1901   1.717   1.043   0.665
  646TIP3    H1 1902   1.724   1.076   0.576
  646TIP3    H2 1903   1.734   1.119   0.721
  647TIP3   OH2 1904   5.275   0.717   4.169
  647TIP3    H1 1905   5.261   0.707   4.263
  647TIP3    H2 1906   5.325   0.640   4.144
  648TIP3   OH2 1907   0.106   5.799   4.554
  648TIP3    H1 1908   0.028   5.757   4.517
  648TIP3    H2 1909   0.167   5.727   4.568
  649TIP3   OH2 1910   0.063   4.150   4.424
  649TIP3    H1 1911   0.081   4.135   4.517
  649TIP3    H2 1912   0.150   4.162   4.385
  650TIP3   OH2 1913   1.828   2.462   0.334
  650TIP3    H1 1914   1.867   2.514   0.404
  650TIP3    H2 1915   1.848   2.371   0.358
  651TIP3   OH2 1916   2.025   6.626   0.280
  651TIP3    H1 1917   2.108   6.637   0.327
  651TIP3    H2 1918   2.017   6.532   0.267
  652TIP3   OH2 1919   4.896   2.848   1.123
  652TIP3    H1 1920   4.873   2.804   1.204
  652TIP3    H2 1921   4.969   2.905   1.146
  653TIP3   OH2 1922   5.318   0.349   4.046
  653TIP3    H1 1923   5.336   0.412   3.976
  653TIP3    H2 1924   5.356   0.267   4.015
  654TIP3   OH2 1925   6.920   0.571   0.782
  654TIP3    H1 1926   6.900   0.547   0.873
  654TIP3    H2 1927   6.843   0.620   0.753
  655TIP3   OH2 1928   1.301   5.561   2.150
  655TIP3    H1 1929   1.219   5.597   2.184
  655TIP3    H2 1930   1.274   5.495   2.086
  656TIP3   OH2 1931   0.963   0.651   4.109
  656TIP3    H1 1932   1.030   0.719   4.099
  656TIP3    H2 1933   0.920   0.647   4.023
  657TIP3   OH2 1934   5.385   4.706   5.859
  657TIP3    H1 1935   5.469   4.750   5.873
  657TIP3    H2 1936   5.405   4.635   5.798
  658TIP3   OH2 1937   2.946   5.823   3.063
  658TIP3    H1 1938   3.018   5.884   3.049
  658TIP3    H2 1939   2.870   5.879   3.079
  659TIP3   OH2 1940   4.318   3.235   3.762
  659TIP3    H1 1941   4.308   3.327   3.740
  659TIP3    H2 1942   4.392   3.232   3.823
  660TIP3   OH2 1943   4.907   6.506   5.816
  660TIP3    H1 1944   4.992   6.481   5.853
  660TIP3    H2 1945   4.902   6.600   5.830
  661TIP3   OH2 1946   5.196   2.349   1.606
  661TIP3    H1 1947   5.241   2.284   1.660
  661TIP3    H2 1948   5.147   2.402   1.669
  662TIP3   OH2 1949   0.187   6.084   5.547
  662TIP3    H1 1950   0.220   5.994   5.542
  662TIP3    H2 1951   0.245   6.127   5.610
  663TIP3   OH2 1952   1.664   0.579   3.518
  663TIP3    H1 1953   1.727   0.518   3.481
  663TIP3    H2 1954   1.581   0.557   3.476
  664TIP3   OH2 1955   5.813   1.915   4.740
  664TIP3    H1 1956   5.847   1.840   4.693
  664TIP3    H2 1957   5.745   1.879   4.796
  665TIP3   OH2 1958   7.041   3.675   0.589
  665TIP3    H1 1959   6.991   3.602   0.551
  665TIP3    H2 1960   6.974   3.741   0.610
  666TIP3   OH2 1961   0.942   5.460   4.005
  666TIP3    H1 1962   1.036   5.469   4.014
  666TIP3    H2 1963   0.914   5.413   4.083
  667TIP3   OH2 1964   0.345   5.484   5.264
  667TIP3    H1 1965   0.342   5.452   5.174
  667TIP3    H2 1966   0.296   5.567   5.262
  668TIP3   OH2 1967   3.048   4.953   0.160
  668TIP3    H1 1968   3.134   4.918   0.134
  668TIP3    H2 1969   3.037   5.032   0.106
  669TIP3   OH2 1970   2.446   5.264   1.235
  669TIP3    H1 1971   2.442   5.316   1.315
  669TIP3    H2 1972   2.454   5.329   1.165
  670TIP3   OH2 1973   1.580   5.350   1.638
  670TIP3    H1 1974   1.583   5.257   1.663
  670TIP3    H2 1975   1.538   5.350   1.552
  671TIP3   OH2 1976   2.343   2.685   1.059
  671TIP3    H1 1977   2.258   2.725   1.041
  671TIP3    H2 1978   2.335   2.651   1.148
  672TIP3   OH2 1979   0.427   0.188   0.732
  672TIP3    H1 1980   0.355   0.149   0.781
  672TIP3    H2 1981   0.426   0.142   0.648
  673TIP3   OH2 1982   2.373   5.928   5.033
  673TIP3    H1 1983   2.438   5.923   4.962
  673TIP3    H2 1984   2.299   5.877   5.000
  674TIP3   OH2 1985   4.445   0.203   0.646
  674TIP3    H1 1986   4.366   0.200   0.699
  674TIP3    H2 1987   4.414   0.213   0.556
  675TIP3   OH2 1988   7.126   4.434   1.635
  675TIP3    H1 1989   7.208   4.480   1.653
  675TIP3    H2 1990   7.118   4.437   1.539
  676TIP3   OH2 1991   4.208   5.478   4.592
  676TIP3    H1 1992   4.171   5.437   4.670
  676TIP3    H2 1993   4.200   5.411   4.524
  677TIP3   OH2 1994   0.510   5.807   2.338
  677TIP3    H1 1995   0.577   5.874   2.355
  677TIP3    H2 1996   0.522   5.784   2.246
  678TIP3   OH2 1997   4.077   2.741   3.149
  678TIP3    H1 1998   4.020   2.818   3.156
  678TIP3    H2 1999   4.142   2.764   3.083
  679TIP3   OH2 2000   5.583   1.774   0.533
  679TIP3    H1 2001   5.569   1.709   0.601
  679TIP3    H2 2002   5.512   1.759   0.471
  680TIP3   OH2 2003   2.605   5.861   1.107
  680TIP3    H1 2004   2.536   5.805   1.142
  680TIP3    H2 2005   2.626   5.824   1.021
  681TIP3   OH2 2006   0.867   5.891   1.580
  681TIP3    H1 2007   0.849   5.797   1.577
  681TIP3    H2 2008   0.961   5.897   1.595
  682TIP3   OH2 2009   3.703   2.964   3.771
  682TIP3    H1 2010   3.708   2.947   3.677
  682TIP3    H2 2011   3.794   2.967   3.801
  683TIP3   OH2 2012   0.748   3.333   4.495
  683TIP3    H1 2013   0.741   3.415   4.545
  683TIP3    H2 2014   0.842   3.318   4.489
  684TIP3   OH2 2015   2.066   1.292   3.819
  684TIP3    H1 2016   2.094   1.338   3.739
  684TIP3    H2 2017   2.013   1.357   3.866
  685TIP3   OH2 2018   0.924   1.043   2.860
  685TIP3    H1 2019   0.941   1.138   2.857
  685TIP3    H2 2020   0.892   1.022   2.772
  686TIP3   OH2 2021   6.281   1.366   1.185
  686TIP3    H1 2022   6.355   1.359   1.125
  686TIP3    H2 2023   6.316   1.414   1.260
  687TIP3   OH2 2024   3.011   5.920   3.720
  687TIP3    H1 2025   3.002   5.997   3.776
  687TIP3    H2 2026   2.940   5.929   3.655
  688TIP3   OH2 2027   6.732   3.278   4.519
  688TIP3    H1 2028   6.704   3.237   4.438
  688TIP3    H2 2029   6.827   3.275   4.517
  689TIP3   OH2 2030   1.936   2.239   0.509
  689TIP3    H1 2031   1.894   2.227   0.594
  689TIP3    H2 2032   1.879   2.194   0.447
  690TIP3   OH2 2033   4.687   0.606   2.370
  690TIP3    H1 2034   4.770   0.585   2.327
  690TIP3    H2 2035   4.711   0.619   2.462
  691TIP3   OH2 2036   3.695   4.225   1.675
  691TIP3    H1 2037   3.677   4.225   1.769
  691TIP3    H2 2038   3.671   4.137   1.646
  692TIP3   OH2 2039   6.076   0.487   3.559
  692TIP3    H1 2040   6.086   0.486   3.464
  692TIP3    H2 2041   6.040   0.573   3.579
  693TIP3   OH2 2042   1.790   3.341   0.419
  693TIP3    H1 2043   1.841   3.341   0.338
  693TIP3    H2 2044   1.701   3.361   0.391
  694TIP3   OH2 2045   3.635   6.144   0.959
  694TIP3    H1 2046   3.661   6.203   0.889
  694TIP3    H2 2047   3.599   6.201   1.027
  695TIP3   OH2 2048   5.551   4.818   2.185
  695TIP3    H1 2049   5.546   4.904   2.228
  695TIP3    H2 2050   5.559   4.756   2.258
  696TIP3   OH2 2051   3.976   2.478   5.432
  696TIP3    H1 2052   3.995   2.561   5.476
  696TIP3    H2 2053   3.884   2.462   5.451
  697TIP3   OH2 2054   6.384   3.312   3.899
  697TIP3    H1 2055   6.450   3.371   3.863
  697TIP3    H2 2056   6.400   3.228   3.855
  698TIP3   OH2 2057   5.362   1.387   3.340
  698TIP3    H1 2058   5.338   1.318   3.278
  698TIP3    H2 2059   5.317   1.363   3.421
  699TIP3   OH2 2060   3.333   4.548   2.241
  699TIP3    H1 2061   3.313   4.461   2.276
  699TIP3    H2 2062   3.419   4.539   2.199
  700TIP3   OH2 2063   1.904   0.576   2.685
  700TIP3    H1 2064   1.855   0.494   2.684
  700TIP3    H2 2065   1.899   0.607   2.775
  701TIP3   OH2 2066   0.737   0.730   1.910
  701TIP3    H1 2067   0.803   0.662   1.893
  701TIP3    H2 2068   0.683   0.693   1.979
  702TIP3   OH2 2069   6.440   5.170   0.877
  702TIP3    H1 2070   6.425   5.075   0.870
  702TIP3    H2 2071   6.495   5.191   0.801
  703TIP3   OH2 2072   5.033   1.885   1.065
  703TIP3    H1 2073   5.123   1.856   1.078
  703TIP3    H2 2074   5.041   1.970   1.021
  704TIP3   OH2 2075   2.890   6.087   4.926
  704TIP3    H1 2076   2.970   6.054   4.885
  704TIP3    H2 2077   2.913   6.098   5.018
  705TIP3   OH2 2078   2.545   5.648   2.420
  705TIP3    H1 2079   2.530   5.704   2.496
  705TIP3    H2 2080   2.499   5.567   2.440
  706TIP3   OH2 2081   0.974   3.950   2.328
  706TIP3    H1 2082   0.946   4.018   2.389
  706TIP3    H2 2083   0.985   3.995   2.245
  707TIP3   OH2 2084   6.746   0.602   0.375
  707TIP3    H1 2085   6.747   0.688   0.416
  707TIP3    H2 2086   6.836   0.590   0.342
  708TIP3   OH2 2087   7.122   1.319   5.573
  708TIP3    H1 2088   7.172   1.239   5.557
  708TIP3    H2 2089   7.077   1.303   5.657
  709TIP3   OH2 2090   3.354   1.969   4.239
  709TIP3    H1 2091   3.392   1.993   4.323
  709TIP3    H2 2092   3.311   1.885   4.254
  710TIP3   OH2 2093   7.218   5.804   4.933
  710TIP3    H1 2094   7.148   5.840   4.879
  710TIP3    H2 2095   7.245   5.876   4.989
  711TIP3   OH2 2096   4.354   6.053   1.817
  711TIP3    H1 2097   4.263   6.054   1.845
  711TIP3    H2 2098   4.399   5.998   1.881
  712TIP3   OH2 2099   0.670   3.698   5.433
  712TIP3    H1 2100   0.735   3.665   5.371
  712TIP3    H2 2101   0.635   3.777   5.390
  713TIP3   OH2 2102   0.541   5.436   2.320
  713TIP3    H1 2103   0.615   5.488   2.289
  713TIP3    H2 2104   0.506   5.486   2.394
  714TIP3   OH2 2105   6.539   5.883   1.331
  714TIP3    H1 2106   6.489   5.821   1.277
  714TIP3    H2 2107   6.575   5.946   1.269
  715TIP3   OH2 2108   4.993   1.476   2.535
  715TIP3    H1 2109   5.026   1.556   2.576
  715TIP3    H2 2110   5.072   1.428   2.510
  716TIP3   OH2 2111   6.850   0.122   5.435
  716TIP3    H1 2112   6.940   0.091   5.427
  716TIP3    H2 2113   6.854   0.214   5.409
  717TIP3   OH2 2114   4.200   1.168   0.774
  717TIP3    H1 2115   4.263   1.223   0.821
  717TIP3    H2 2116   4.246   1.140   0.695
  718TIP3   OH2 2117   0.447   4.905   4.749
  718TIP3    H1 2118   0.357   4.934   4.734
  718TIP3    H2 2119   0.446   4.811   4.727
  719TIP3   OH2 2120   4.956   6.216   0.511
  719TIP3    H1 2121   4.946   6.238   0.603
  719TIP3    H2 2122   4.966   6.121   0.510
  720TIP3   OH2 2123   2.466   0.402   1.665
  720TIP3    H1 2124   2.474   0.447   1.749
  720TIP3    H2 2125   2.401   0.334   1.680
  721TIP3   OH2 2126   1.913   3.225   3.232
  721TIP3    H1 2127   1.862   3.285   3.285
  721TIP3    H2 2128   1.945   3.278   3.159
  722TIP3   OH2 2129   0.929   3.763   3.101
  722TIP3    H1 2130   0.921   3.712   3.021
  722TIP3    H2 2131   0.988   3.834   3.078
  723TIP3   OH2 2132   3.861   5.593   5.345
  723TIP3    H1 2133   3.784   5.641   5.316
  723TIP3    H2 2134   3.900   5.649   5.412
  724TIP3   OH2 2135   5.730   3.750   5.274
  724TIP3    H1 2136   5.803   3.700   5.236
  724TIP3    H2 2137   5.738   3.737   5.368
  725TIP3   OH2 2138   1.504   2.586   1.198
  725TIP3    H1 2139   1.421   2.538   1.203
  725TIP3    H2 2140   1.570   2.519   1.183
  726TIP3   OH2 2141   5.747   5.217   5.511
  726TIP3    H1 2142   5.784   5.129   5.500
  726TIP3    H2 2143   5.776   5.264   5.433
  727TIP3   OH2 2144   3.747   0.412   4.648
  727TIP3    H1 2145   3.701   0.401   4.731
  727TIP3    H2 2146   3.686   0.380   4.582
  728TIP3   OH2 2147   3.493   1.969   5.200
  728TIP3    H1 2148   3.415   1.956   5.145
  728TIP3    H2 2149   3.477   2.052   5.245
  729TIP3   OH2 2150   6.098   3.316   5.664
  729TIP3    H1 2151   6.121   3.393   5.715
  729TIP3    H2 2152   6.176   3.260   5.668
  730TIP3   OH2 2153   3.566   3.575   5.826
  730TIP3    H1 2154   3.621   3.505   5.859
  730TIP3    H2 2155   3.624   3.627   5.770
  731TIP3   OH2 2156   4.515   2.495   1.488
  731TIP3    H1 2157   4.530   2.540   1.405
  731TIP3    H2 2158   4.596   2.445   1.503
  732TIP3   OH2 2159   4.360   1.160   2.070
  732TIP3    H1 2160   4.316   1.147   2.154
  732TIP3    H2 2161   4.299   1.213   2.018
  733TIP3   OH2 2162   6.152   6.010   2.975
  733TIP3    H1 2163   6.182   5.924   2.946
  733TIP3    H2 2164   6.230   6.052   3.012
  734TIP3   OH2 2165   2.942   0.895   5.769
  734TIP3    H1 2166   2.911   0.824   5.826
  734TIP3    H2 2167   3.037   0.896   5.782
  735TIP3   OH2 2168   1.345   1.495   3.307
  735TIP3    H1 2169   1.365   1.456   3.393
  735TIP3    H2 2170   1.412   1.562   3.295
  736TIP3   OH2 2171   3.268   2.499   1.595
  736TIP3    H1 2172   3.342   2.518   1.653
  736TIP3    H2 2173   3.278   2.406   1.574
  737TIP3   OH2 2174   4.425   5.266   3.858
  737TIP3    H1 2175   4.472   5.189   3.889
  737TIP3    H2 2176   4.354   5.278   3.921
  738TIP3   OH2 2177   0.817   4.958   1.286
  738TIP3    H1 2178   0.839   4.909   1.365
  738TIP3    H2 2179   0.802   4.890   1.219
  739TIP3   OH2 2180   2.289   2.297   2.043
  739TIP3    H1 2181   2.376   2.311   2.079
  739TIP3    H2 2182   2.244   2.380   2.057
  740TIP3   OH2 2183   2.153   4.292   5.389
  740TIP3    H1 2184   2.097   4.239   5.332
  740TIP3    H2 2185   2.108   4.291   5.474
  741TIP3   OH2 2186   6.149   3.907   4.272
  741TIP3    H1 2187   6.182   3.993   4.250
  741TIP3    H2 2188   6.061   3.923   4.307
  742TIP3   OH2 2189   2.228   6.229   0.968
  742TIP3    H1 2190   2.277   6.177   1.032
  742TIP3    H2 2191   2.150   6.258   1.016
  743TIP3   OH2 2192   1.533   6.214   1.758
  743TIP3    H1 2193   1.525   6.309   1.757
  743TIP3    H2 2194   1.621   6.197   1.723
  744TIP3   OH2 2195   5.985   2.290   2.327
  744TIP3    H1 2196   5.979   2.202   2.365
  744TIP3    H2 2197   6.028   2.342   2.394
  745TIP3   OH2 2198   7.094   3.431   1.109
  745TIP3    H1 2199   7.169   3.371   1.108
  745TIP3    H2 2200   7.019   3.376   1.087
  746TIP3   OH2 2201   3.457   4.604   1.752
  746TIP3    H1 2202   3.525   4.547   1.716
  746TIP3    H2 2203   3.473   4.689   1.712
  747TIP3   OH2 2204   2.160   2.907   5.420
  747TIP3    H1 2205   2.190   2.995   5.398
  747TIP3    H2 2206   2.064   2.914   5.421
  748TIP3   OH2 2207   2.022   2.206   2.049
  748TIP3    H1 2208   2.010   2.128   2.102
  748TIP3    H2 2209   2.117   2.218   2.044
  749TIP3   OH2 2210   0.817   3.489   1.475
  749TIP3    H1 2211   0.894   3.483   1.419
  749TIP3    H2 2212   0.838   3.434   1.551
  750TIP3   OH2 2213   4.401   5.513   4.210
  750TIP3    H1 2214   4.372   5.604   4.215
  750TIP3    H2 2215   4.352   5.469   4.280
  751TIP3   OH2 2216   5.268   5.326   2.130
  751TIP3    H1 2217   5.284   5.279   2.048
  751TIP3    H2 2218   5.353   5.361   2.155
  752TIP3   OH2 2219   4.891   0.233   5.056
  752TIP3    H1 2220   4.884   0.138   5.061
  752TIP3    H2 2221   4.984   0.251   5.067
  753TIP3   OH2 2222   3.419   0.552   4.648
  753TIP3    H1 2223   3.325   0.533   4.646
  753TIP3    H2 2224   3.451   0.502   4.723
  754TIP3   OH2 2225   5.389   6.013   0.655
  754TIP3    H1 2226   5.411   6.048   0.740
  754TIP3    H2 2227   5.472   6.009   0.607
  755TIP3   OH2 2228   1.750   6.557   4.757
  755TIP3    H1 2229   1.824   6.618   4.763
  755TIP3    H2 2230   1.770   6.503   4.680
  756TIP3   OH2 2231   7.262   4.931   2.898
  756TIP3    H1 2232   7.286   4.983   2.975
  756TIP3    H2 2233   7.250   4.842   2.932
  757TIP3   OH2 2234   5.370   5.255   5.084
  757TIP3    H1 2235   5.408   5.297   5.006
  757TIP3    H2 2236   5.440   5.260   5.149
  758TIP3   OH2 2237   5.300   1.849   1.095
  758TIP3    H1 2238   5.386   1.862   1.136
  758TIP3    H2 2239   5.319   1.793   1.019
  759TIP3   OH2 2240   2.497   3.371   0.016
  759TIP3    H1 2241   2.531   3.379   0.105
  759TIP3    H2 2242   2.528   3.450  -0.029
  760TIP3   OH2 2243   4.755   3.999   0.139
  760TIP3    H1 2244   4.729   4.016   0.049
  760TIP3    H2 2245   4.827   3.937   0.132
  761TIP3   OH2 2246   3.649   3.709   3.173
  761TIP3    H1 2247   3.642   3.717   3.268
  761TIP3    H2 2248   3.628   3.796   3.140
  762TIP3   OH2 2249   1.236   6.009   4.573
  762TIP3    H1 2250   1.185   5.956   4.634
  762TIP3    H2 2251   1.213   6.099   4.594
  763TIP3   OH2 2252   4.999   3.695   2.416
  763TIP3    H1 2253   5.031   3.766   2.470
  763TIP3    H2 2254   4.915   3.726   2.382
  764TIP3   OH2 2255   0.786   6.362   0.887
  764TIP3    H1 2256   0.783   6.454   0.862
  764TIP3    H2 2257   0.839   6.361   0.967
  765TIP3   OH2 2258   5.081   0.803   2.463
  765TIP3    H1 2259   5.100   0.795   2.370
  765TIP3    H2 2260   5.167   0.807   2.505
  766TIP3   OH2 2261   1.190   4.340   3.417
  766TIP3    H1 2262   1.203   4.249   3.390
  766TIP3    H2 2263   1.110   4.367   3.371
  767TIP3   OH2 2264   5.553   2.450   2.083
  767TIP3    H1 2265   5.540   2.457   2.177
  767TIP3    H2 2266   5.616   2.519   2.062
  768TIP3   OH2 2267   0.883   1.278   0.942
  768TIP3    H1 2268   0.826   1.342   0.984
  768TIP3    H2 2269   0.900   1.315   0.855
  769TIP3   OH2 2270   4.699   3.384   0.872
  769TIP3    H1 2271   4.639   3.312   0.854
  769TIP3    H2 2272   4.753   3.391   0.794
  770TIP3   OH2 2273   0.113   1.559   0.665
  770TIP3    H1 2274   0.068   1.558   0.580
  770TIP3    H2 2275   0.151   1.647   0.671
  771TIP3   OH2 2276   3.518   2.556   5.529
  771TIP3    H1 2277   3.442   2.554   5.471
  771TIP3    H2 2278   3.526   2.648   5.555
  772TIP3   OH2 2279   1.647   6.733   4.012
  772TIP3    H1 2280   1.572   6.783   3.979
  772TIP3    H2 2281   1.663   6.667   3.945
  773TIP3   OH2 2282   3.248   0.001   0.690
  773TIP3    H1 2283   3.211   0.075   0.641
  773TIP3    H2 2284   3.305  -0.043   0.628
  774TIP3   OH2 2285   3.462   2.495   4.651
  774TIP3    H1 2286   3.492   2.522   4.738
  774TIP3    H2 2287   3.473   2.400   4.650
  775TIP3   OH2 2288   0.994   5.006   0.947
  775TIP3    H1 2289   1.052   5.023   0.873
  775TIP3    H2 2290   1.021   5.068   1.015
  776TIP3   OH2 2291   4.994   3.453   3.690
  776TIP3    H1 2292   5.005   3.548   3.701
  776TIP3    H2 2293   5.032   3.435   3.604
  777TIP3   OH2 2294   5.739   5.803   4.530
  777TIP3    H1 2295   5.694   5.756   4.460
  777TIP3    H2 2296   5.741   5.894   4.500
  778TIP3   OH2 2297   1.845   4.563   3.268
  778TIP3    H1 2298   1.827   4.479   3.311
  778TIP3    H2 2299   1.766   4.615   3.284
  779TIP3   OH2 2300   2.112   5.937   4.920
  779TIP3    H1 2301   2.091   6.006   4.983
  779TIP3    H2 2302   2.037   5.877   4.925
  780TIP3   OH2 2303   2.596   4.992   1.484
  780TIP3    H1 2304   2.535   5.047   1.533
  780TIP3    H2 2305   2.670   4.979   1.543
  781TIP3   OH2 2306   2.885   0.737   2.017
  781TIP3    H1 2307   2.796   0.752   1.986
  781TIP3    H2 2308   2.893   0.642   2.023
  782TIP3   OH2 2309   6.075   4.170   2.596
  782TIP3    H1 2310   6.067   4.132   2.508
  782TIP3    H2 2311   6.168   4.191   2.605
  783TIP3   OH2 2312   2.265   1.947   1.570
  783TIP3    H1 2313   2.345   1.936   1.623
  783TIP3    H2 2314   2.195   1.954   1.635
  784TIP3   OH2 2315   2.885   4.661   3.052
  784TIP3    H1 2316   2.824   4.676   2.980
  784TIP3    H2 2317   2.969   4.695   3.020
  785TIP3   OH2 2318   5.603   5.315   1.630
  785TIP3    H1 2319   5.589   5.393   1.684
  785TIP3    H2 2320   5.622   5.349   1.543
  786TIP3   OH2 2321   2.752   4.693   4.911
  786TIP3    H1 2322   2.754   4.613   4.964
  786TIP3    H2 2323   2.805   4.756   4.961
  787TIP3   OH2 2324   3.919   3.011   5.582
  787TIP3    H1 2325   3.885   3.077   5.523
  787TIP3    H2 2326   3.972   3.059   5.645
  788TIP3   OH2 2327   1.380   6.309   5.865
  788TIP3    H1 2328   1.370   6.246   5.936
  788TIP3    H2 2329   1.363   6.258   5.786
  789TIP3   OH2 2330  -0.006   3.681   3.643
  789TIP3    H1 2331   0.072   3.720   3.682
  789TIP3    H2 2332   0.022   3.595   3.614
  790TIP3   OH2 2333   0.525   0.605   5.365
  790TIP3    H1 2334   0.496   0.515   5.378
  790TIP3    H2 2335   0.444   0.654   5.351
  791TIP3   OH2 2336   7.018   0.653   1.703
  791TIP3    H1 2337   7.013   0.559   1.716
  791TIP3    H2 2338   7.089   0.682   1.760
  792TIP3   OH2 2339   5.013   2.758   2.400
  792TIP3    H1 2340   5.069   2.766   2.477
  792TIP3    H2 2341   5.005   2.848   2.367
  793TIP3   OH2 2342   4.843   3.053   2.006
  793TIP3    H1 2343   4.827   3.016   1.919
  793TIP3    H2 2344   4.912   3.118   1.992
  794TIP3   OH2 2345   3.264   4.566   4.835
  794TIP3    H1 2346   3.187   4.575   4.778
  794TIP3    H2 2347   3.292   4.475   4.823
  795TIP3   OH2 2348   6.043   2.802   1.165
  795TIP3    H1 2349   6.051   2.773   1.256
  795TIP3    H2 2350   5.949   2.800   1.148
  796TIP3   OH2 2351   1.286   6.180   1.846
  796TIP3    H1 2352   1.378   6.183   1.817
  796TIP3    H2 2353   1.248   6.109   1.795
  797TIP3   OH2 2354   0.742   5.852   0.520
  797TIP3    H1 2355   0.768   5.766   0.553
  797TIP3    H2 2356   0.754   5.911   0.594
  798TIP3   OH2 2357   2.654   5.707   0.885
  798TIP3    H1 2358   2.666   5.732   0.794
  798TIP3    H2 2359   2.605   5.625   0.881
  799TIP3   OH2 2360   3.371   4.038   1.009
  799TIP3    H1 2361   3.345   4.011   0.921
  799TIP3    H2 2362   3.387   4.132   1.002
  800TIP3   OH2 2363   6.602   0.110   2.828
  800TIP3    H1 2364   6.694   0.092   2.844
  800TIP3    H2 2365   6.559   0.091   2.911
  801TIP3   OH2 2366   2.525   2.583   4.077
  801TIP3    H1 2367   2.614   2.598   4.046
  801TIP3    H2 2368   2.526   2.492   4.108
  802TIP3   OH2 2369   5.157   0.963   4.177
  802TIP3    H1 2370   5.077   0.953   4.228
  802TIP3    H2 2371   5.185   0.874   4.157
  803TIP3   OH2 2372   6.651   1.372   3.618
  803TIP3    H1 2373   6.708   1.299   3.596
  803TIP3    H2 2374   6.606   1.344   3.698
  804TIP3   OH2 2375   4.558   0.440   4.687
  804TIP3    H1 2376   4.468   0.463   4.662
  804TIP3    H2 2377   4.562   0.458   4.781
  805TIP3   OH2 2378   4.816   5.675   4.381
  805TIP3    H1 2379   4.846   5.756   4.422
  805TIP3    H2 2380   4.776   5.703   4.298
  806TIP3   OH2 2381   0.172   0.076   1.925
  806TIP3    H1 2382   0.237   0.037   1.867
  806TIP3    H2 2383   0.217   0.086   2.009
  807TIP3   OH2 2384   5.337   1.618   2.740
  807TIP3    H1 2385   5.274   1.669   2.791
  807TIP3    H2 2386   5.305   1.625   2.649
  808TIP3   OH2 2387   4.727   0.304   2.521
  808TIP3    H1 2388   4.815   0.287   2.556
  808TIP3    H2 2389   4.674   0.325   2.598
  809TIP3   OH2 2390   6.752   6.761   0.277
  809TIP3    H1 2391   6.681   6.713   0.318
  809TIP3    H2 2392   6.831   6.728   0.320
  810TIP3   OH2 2393   3.560   3.883   0.394
  810TIP3    H1 2394   3.632   3.945   0.404
  810TIP3    H2 2395   3.537   3.888   0.301
  811TIP3   OH2 2396   2.599   1.223   0.311
  811TIP3    H1 2397   2.542   1.285   0.355
  811TIP3    H2 2398   2.665   1.277   0.269
  812TIP3   OH2 2399   6.001   2.996   0.230
  812TIP3    H1 2400   6.090   3.023   0.256
  812TIP3    H2 2401   5.954   3.078   0.216
  813TIP3   OH2 2402   5.331   0.248   5.060
  813TIP3    H1 2403   5.324   0.153   5.075
  813TIP3    H2 2404   5.423   0.268   5.079
  814TIP3   OH2 2405   3.652   4.635   2.616
  814TIP3    H1 2406   3.575   4.692   2.606
  814TIP3    H2 2407   3.642   4.569   2.547
  815TIP3   OH2 2408   4.728   2.935   5.793
  815TIP3    H1 2409   4.787   2.866   5.764
  815TIP3    H2 2410   4.783   3.013   5.802
  816TIP3   OH2 2411   0.069   3.549   2.213
  816TIP3    H1 2412   0.100   3.497   2.138
  816TIP3    H2 2413   0.111   3.509   2.289
  817TIP3   OH2 2414   5.834   1.345   5.153
  817TIP3    H1 2415   5.795   1.265   5.188
  817TIP3    H2 2416   5.929   1.329   5.157
  818TIP3   OH2 2417   2.580   2.624   3.698
  818TIP3    H1 2418   2.508   2.585   3.747
  818TIP3    H2 2419   2.606   2.700   3.751
  819TIP3   OH2 2420   3.919   0.396   0.011
  819TIP3    H1 2421   3.874   0.322   0.050
  819TIP3    H2 2422   3.955   0.445   0.085
  820TIP3   OH2 2423   1.252   5.231   2.737
  820TIP3    H1 2424   1.251   5.314   2.690
  820TIP3    H2 2425   1.302   5.172   2.681
  821TIP3   OH2 2426   5.966   6.565   2.757
  821TIP3    H1 2427   5.931   6.640   2.709
  821TIP3    H2 2428   5.989   6.601   2.843
  822TIP3   OH2 2429   3.218   5.005   5.018
  822TIP3    H1 2430   3.230   5.028   4.926
  822TIP3    H2 2431   3.234   5.087   5.066
  823TIP3   OH2 2432   1.445   1.896   4.838
  823TIP3    H1 2433   1.461   1.863   4.749
  823TIP3    H2 2434   1.530   1.888   4.882
  824TIP3   OH2 2435   3.527   0.141   0.685
  824TIP3    H1 2436   3.438   0.156   0.716
  824TIP3    H2 2437   3.583   0.189   0.747
  825TIP3   OH2 2438   2.306   4.186   3.601
  825TIP3    H1 2439   2.394   4.196   3.567
  825TIP3    H2 2440   2.268   4.274   3.594
  826TIP3   OH2 2441   3.099   0.878   3.272
  826TIP3    H1 2442   3.132   0.954   3.320
  826TIP3    H2 2443   3.027   0.912   3.219
  827TIP3   OH2 2444   3.322   4.559   2.672
  827TIP3    H1 2445   3.335   4.464   2.677
  827TIP3    H2 2446   3.351   4.591   2.758
  828TIP3   OH2 2447   0.287   3.192   1.549
  828TIP3    H1 2448   0.197   3.161   1.539
  828TIP3    H2 2449   0.309   3.230   1.464
  829TIP3   OH2 2450   4.688   6.549   5.311
  829TIP3    H1 2451   4.720   6.592   5.232
  829TIP3    H2 2452   4.612   6.499   5.282
  830TIP3   OH2 2453   2.662   5.215   5.335
  830TIP3    H1 2454   2.658   5.185   5.426
  830TIP3    H2 2455   2.585   5.271   5.325
  831TIP3   OH2 2456   3.129   6.709   5.822
  831TIP3    H1 2457   3.171   6.670   5.899
  831TIP3    H2 2458   3.054   6.757   5.857
  832TIP3   OH2 2459   3.495   5.634   0.065
  832TIP3    H1 2460   3.477   5.729   0.061
  832TIP3    H2 2461   3.411   5.594   0.040
  833TIP3   OH2 2462   5.165   6.714   4.688
  833TIP3    H1 2463   5.238   6.711   4.626
  833TIP3    H2 2464   5.191   6.656   4.759
  834TIP3   OH2 2465   2.331   1.830   2.808
  834TIP3    H1 2466   2.300   1.906   2.758
  834TIP3    H2 2467   2.409   1.862   2.853
  835TIP3   OH2 2468   0.636   4.451   5.039
  835TIP3    H1 2469   0.563   4.502   5.073
  835TIP3    H2 2470   0.709   4.472   5.098
  836TIP3   OH2 2471   0.275   6.797   3.912
  836TIP3    H1 2472   0.234   6.785   3.998
  836TIP3    H2 2473   0.218   6.859   3.867
  837TIP3   OH2 2474   7.000   6.523   2.076
  837TIP3    H1 2475   6.919   6.563   2.042
  837TIP3    H2 2476   7.010   6.560   2.164
  838TIP3   OH2 2477   1.860   3.614   1.560
  838TIP3    H1 2478   1.788   3.570   1.514
  838TIP3    H2 2479   1.892   3.680   1.498
  839TIP3   OH2 2480   3.571   6.691   2.523
  839TIP3    H1 2481   3.499   6.703   2.461
  839TIP3    H2 2482   3.608   6.606   2.500
  840TIP3   OH2 2483   5.519   4.805   5.503
  840TIP3    H1 2484   5.510   4.747   5.428
  840TIP3    H2 2485   5.516   4.746   5.579
  841TIP3   OH2 2486   1.544   1.862   4.589
  841TIP3    H1 2487   1.623   1.890   4.635
  841TIP3    H2 2488   1.575   1.802   4.521
  842TIP3   OH2 2489   0.641   5.366   2.776
  842TIP3    H1 2490   0.662   5.274   2.790
  842TIP3    H2 2491   0.676   5.411   2.853
  843TIP3   OH2 2492   5.841   0.772   3.312
  843TIP3    H1 2493   5.757   0.809   3.339
  843TIP3    H2 2494   5.882   0.841   3.261
  844TIP3   OH2 2495   5.477   2.390   1.605
  844TIP3    H1 2496   5.382   2.378   1.594
  844TIP3    H2 2497   5.485   2.465   1.663
  845TIP3   OH2 2498   2.716   1.119   1.339
  845TIP3    H1 2499   2.668   1.108   1.256
  845TIP3    H2 2500   2.790   1.175   1.316
  846TIP3   OH2 2501   6.456   6.432   1.928
  846TIP3    H1 2502   6.405   6.355   1.903
  846TIP3    H2 2503   6.477   6.475   1.844
  847TIP3   OH2 2504   0.384   2.379   0.771
  847TIP3    H1 2505   0.386   2.474   0.759
  847TIP3    H2 2506   0.464   2.347   0.731
  848TIP3   OH2 2507   3.753   3.930   5.739
  848TIP3    H1 2508   3.784   3.840   5.734
  848TIP3    H2 2509   3.829   3.983   5.715
  849TIP3   OH2 2510   0.245   6.245   4.569
  849TIP3    H1 2511   0.331   6.224   4.532
  849TIP3    H2 2512   0.225   6.170   4.625
  850TIP3   OH2 2513   6.186   2.783   2.036
  850TIP3    H1 2514   6.234   2.841   1.977
  850TIP3    H2 2515   6.240   2.704   2.041
  851TIP3   OH2 2516   5.005   4.205   0.441
  851TIP3    H1 2517   4.925   4.154   0.438
  851TIP3    H2 2518   5.009   4.240   0.530
  852TIP3   OH2 2519   6.101   4.503   4.690
  852TIP3    H1 2520   6.175   4.493   4.630
  852TIP3    H2 2521   6.130   4.461   4.771
  853TIP3   OH2 2522   3.141   1.327   5.758
  853TIP3    H1 2523   3.230   1.332   5.725
  853TIP3    H2 2524   3.115   1.418   5.772
  854TIP3   OH2 2525   2.673   4.392   1.904
  854TIP3    H1 2526   2.629   4.349   1.978
  854TIP3    H2 2527   2.751   4.433   1.943
  855TIP3   OH2 2528   0.368   0.417   2.425
  855TIP3    H1 2529   0.400   0.335   2.386
  855TIP3    H2 2530   0.436   0.481   2.405
  856TIP3   OH2 2531   6.839   0.365   4.735
  856TIP3    H1 2532   6.745   0.371   4.719
  856TIP3    H2 2533   6.865   0.282   4.695
  857TIP3   OH2 2534   0.269   0.112   3.584
  857TIP3    H1 2535   0.342   0.132   3.642
  857TIP3    H2 2536   0.291   0.156   3.502
  858TIP3   OH2 2537   5.027   1.644   2.749
  858TIP3    H1 2538   5.000   1.668   2.837
  858TIP3    H2 2539   4.995   1.715   2.693
  859TIP3   OH2 2540   0.489   5.496   2.584
  859TIP3    H1 2541   0.543   5.447   2.647
  859TIP3    H2 2542   0.511   5.588   2.599
  860TIP3   OH2 2543   4.682   4.362   5.840
  860TIP3    H1 2544   4.733   4.427   5.889
  860TIP3    H2 2545   4.719   4.278   5.867
  861TIP3   OH2 2546   2.041   2.141   1.158
  861TIP3    H1 2547   2.124   2.139   1.111
  861TIP3    H2 2548   1.998   2.221   1.127
  862TIP3   OH2 2549   0.851   5.023   0.388
  862TIP3    H1 2550   0.828   5.109   0.423
  862TIP3    H2 2551   0.767   4.983   0.366
  863TIP3   OH2 2552   0.881   4.813   0.660
  863TIP3    H1 2553   0.860   4.842   0.572
  863TIP3    H2 2554   0.836   4.729   0.670
  864TIP3   OH2 2555   3.211   2.538   5.831
  864TIP3    H1 2556   3.162   2.577   5.904
  864TIP3    H2 2557   3.163   2.565   5.753
  865TIP3   OH2 2558   0.115   5.939   1.858
  865TIP3    H1 2559   0.183   5.904   1.799
  865TIP3    H2 2560   0.135   5.900   1.943
  866TIP3   OH2 2561   3.252   5.090   2.959
  866TIP3    H1 2562   3.271   5.182   2.940
  866TIP3    H2 2563   3.263   5.046   2.874
  867TIP3   OH2 2564   1.144   3.937   0.310
  867TIP3    H1 2565   1.156   3.860   0.255
  867TIP3    H2 2566   1.074   3.986   0.266
  868TIP3   OH2 2567   3.331   4.794   3.987
  868TIP3    H1 2568   3.269   4.838   3.929
  868TIP3    H2 2569   3.383   4.739   3.928
  869TIP3   OH2 2570   1.856   4.549   5.820
  869TIP3    H1 2571   1.935   4.512   5.781
  869TIP3    H2 2572   1.784   4.511   5.770
  870TIP3   OH2 2573   6.299   5.873   4.325
  870TIP3    H1 2574   6.353   5.806   4.366
  870TIP3    H2 2575   6.307   5.856   4.231
  871TIP3   OH2 2576   0.985   4.725   5.158
  871TIP3    H1 2577   0.935   4.806   5.156
  871TIP3    H2 2578   1.062   4.742   5.104
  872TIP3   OH2 2579   4.232   6.501   1.359
  872TIP3    H1 2580   4.162   6.554   1.397
  872TIP3    H2 2581   4.303   6.564   1.342
  873TIP3   OH2 2582   1.691   5.442   0.186
  873TIP3    H1 2583   1.597   5.450   0.166
  873TIP3    H2 2584   1.734   5.449   0.101
  874TIP3   OH2 2585   5.730   3.131   3.394
  874TIP3    H1 2586   5.797   3.155   3.458
  874TIP3    H2 2587   5.653   3.111   3.446
  875TIP3   OH2 2588   3.445   2.774   5.113
  875TIP3    H1 2589   3.369   2.788   5.169
  875TIP3    H2 2590   3.520   2.790   5.169
  876TIP3   OH2 2591   0.262   3.532   1.035
  876TIP3    H1 2592   0.193   3.555   0.973
  876TIP3    H2 2593   0.257   3.437   1.042
  877TIP3   OH2 2594   2.181   0.844   0.228
  877TIP3    H1 2595   2.248   0.784   0.261
  877TIP3    H2 2596   2.100   0.794   0.231
  878TIP3   OH2 2597   3.393   1.535   4.598
  878TIP3    H1 2598   3.375   1.469   4.531
  878TIP3    H2 2599   3.319   1.530   4.658
  879TIP3   OH2 2600   2.759   5.777   2.272
  879TIP3    H1 2601   2.701   5.711   2.309
  879TIP3    H2 2602   2.780   5.835   2.346
  880TIP3   OH2 2603   4.090   0.937   4.521
  880TIP3    H1 2604   4.099   0.957   4.428
  880TIP3    H2 2605   4.009   0.887   4.527
  881TIP3   OH2 2606   5.442   1.204   4.065
  881TIP3    H1 2607   5.479   1.121   4.096
  881TIP3    H2 2608   5.355   1.180   4.033
  882TIP3   OH2 2609   6.648   5.474   0.976
  882TIP3    H1 2610   6.581   5.407   0.994
  882TIP3    H2 2611   6.608   5.528   0.907
  883TIP3   OH2 2612   6.739   6.506   0.526
  883TIP3    H1 2613   6.747   6.522   0.620
  883TIP3    H2 2614   6.823   6.467   0.501
  884TIP3   OH2 2615   0.944   5.786   4.881
  884TIP3    H1 2616   0.923   5.770   4.973
  884TIP3    H2 2617   0.874   5.844   4.851
  885TIP3   OH2 2618   5.879   1.431   3.972
  885TIP3    H1 2619   5.931   1.387   3.905
  885TIP3    H2 2620   5.886   1.524   3.951
  886TIP3   OH2 2621   1.267   5.294   1.961
  886TIP3    H1 2622   1.232   5.250   1.884
  886TIP3    H2 2623   1.331   5.356   1.927
  887TIP3   OH2 2624   4.853   2.248   1.220
  887TIP3    H1 2625   4.769   2.275   1.258
  887TIP3    H2 2626   4.917   2.267   1.288
  888TIP3   OH2 2627   2.894   3.985   3.715
  888TIP3    H1 2628   2.942   3.902   3.714
  888TIP3    H2 2629   2.826   3.973   3.782
  889TIP3   OH2 2630   2.077   1.429   0.238
  889TIP3    H1 2631   1.992   1.394   0.266
  889TIP3    H2 2632   2.119   1.458   0.319
  890TIP3   OH2 2633   5.279   2.906   5.539
  890TIP3    H1 2634   5.314   2.971   5.478
  890TIP3    H2 2635   5.353   2.849   5.558
  891TIP3   OH2 2636   2.893   5.558   4.918
  891TIP3    H1 2637   2.974   5.558   4.969
  891TIP3    H2 2638   2.913   5.508   4.839
  892TIP3   OH2 2639   0.496   5.172   2.442
  892TIP3    H1 2640   0.515   5.261   2.413
  892TIP3    H2 2641   0.403   5.174   2.465
  893TIP3   OH2 2642   4.396   1.185   5.512
  893TIP3    H1 2643   4.486   1.218   5.505
  893TIP3    H2 2644   4.345   1.261   5.541
  894TIP3   OH2 2645   6.683   3.195   3.594
  894TIP3    H1 2646   6.674   3.252   3.670
  894TIP3    H2 2647   6.719   3.251   3.526
  895TIP3   OH2 2648   7.132   4.342   1.292
  895TIP3    H1 2649   7.127   4.314   1.200
  895TIP3    H2 2650   7.226   4.345   1.310
  896TIP3   OH2 2651   2.274   5.940   0.523
  896TIP3    H1 2652   2.182   5.915   0.537
  896TIP3    H2 2653   2.281   6.028   0.561
  897TIP3   OH2 2654   2.268   3.272   4.726
  897TIP3    H1 2655   2.263   3.275   4.630
  897TIP3    H2 2656   2.358   3.296   4.747
  898TIP3   OH2 2657   4.330   6.472   3.459
  898TIP3    H1 2658   4.257   6.485   3.519
  898TIP3    H2 2659   4.295   6.415   3.390
  899TIP3   OH2 2660   2.635   3.417   0.301
  899TIP3    H1 2661   2.616   3.507   0.326
  899TIP3    H2 2662   2.686   3.382   0.374
  900TIP3   OH2 2663   1.408   4.023   3.938
  900TIP3    H1 2664   1.430   3.931   3.924
  900TIP3    H2 2665   1.417   4.064   3.852
  901TIP3   OH2 2666   5.784   5.820   2.080
  901TIP3    H1 2667   5.870   5.862   2.068
  901TIP3    H2 2668   5.759   5.791   1.993
  902TIP3   OH2 2669   4.811   3.225   1.282
  902TIP3    H1 2670   4.718   3.207   1.298
  902TIP3    H2 2671   4.812   3.313   1.246
  903TIP3   OH2 2672   2.151   2.663   0.379
  903TIP3    H1 2673   2.150   2.720   0.302
  903TIP3    H2 2674   2.059   2.661   0.408
  904TIP3   OH2 2675   4.007   2.110   0.216
  904TIP3    H1 2676   3.916   2.103   0.245
  904TIP3    H2 2677   4.059   2.089   0.294
  905TIP3   OH2 2678   2.996   6.275   2.106
  905TIP3    H1 2679   2.909   6.315   2.103
  905TIP3    H2 2680   2.980   6.183   2.126
  906TIP3   OH2 2681   1.637   2.762   5.387
  906TIP3    H1 2682   1.681   2.724   5.463
  906TIP3    H2 2683   1.659   2.703   5.315
  907TIP3   OH2 2684   4.345   2.729   1.492
  907TIP3    H1 2685   4.439   2.748   1.502
  907TIP3    H2 2686   4.326   2.668   1.563
  908TIP3   OH2 2687   6.365   4.088   0.317
  908TIP3    H1 2688   6.364   3.994   0.335
  908TIP3    H2 2689   6.442   4.102   0.262
  909TIP3   OH2 2690   5.464   2.559   3.953
  909TIP3    H1 2691   5.534   2.500   3.981
  909TIP3    H2 2692   5.500   2.647   3.967
  910TIP3   OH2 2693   7.230   5.325   4.829
  910TIP3    H1 2694   7.278   5.386   4.885
  910TIP3    H2 2695   7.222   5.372   4.746
  911TIP3   OH2 2696   4.771   1.464   5.383
  911TIP3    H1 2697   4.761   1.539   5.441
  911TIP3    H2 2698   4.799   1.501   5.300
  912TIP3   OH2 2699   4.216   3.869   0.555
  912TIP3    H1 2700   4.248   3.905   0.638
  912TIP3    H2 2701   4.242   3.777   0.558
  913TIP3   OH2 2702   4.032   3.013   5.301
  913TIP3    H1 2703   4.028   2.919   5.321
  913TIP3    H2 2704   3.979   3.022   5.222
  914TIP3   OH2 2705   0.540   4.849   5.367
  914TIP3    H1 2706   0.530   4.852   5.272
  914TIP3    H2 2707   0.585   4.931   5.389
  915TIP3   OH2 2708   0.916   1.674   2.664
  915TIP3    H1 2709   0.991   1.619   2.643
  915TIP3    H2 2710   0.925   1.691   2.758
  916TIP3   OH2 2711   3.662   2.750   4.093
  916TIP3    H1 2712   3.592   2.784   4.149
  916TIP3    H2 2713   3.742   2.776   4.138
  917TIP3   OH2 2714   0.876   4.088   3.672
  917TIP3    H1 2715   0.948   4.029   3.693
  917TIP3    H2 2716   0.846   4.060   3.585
  918TIP3   OH2 2717   2.580   4.853   0.013
  918TIP3    H1 2718   2.542   4.765   0.010
  918TIP3    H2 2719   2.652   4.846   0.075
  919TIP3   OH2 2720   1.400   1.994   0.271
  919TIP3    H1 2721   1.488   1.960   0.256
  919TIP3    H2 2722   1.414   2.075   0.321
  920TIP3   OH2 2723   1.088   4.754   3.259
  920TIP3    H1 2724   1.103   4.740   3.166
  920TIP3    H2 2725   1.000   4.792   3.264
  921TIP3   OH2 2726   1.262   4.452   2.798
  921TIP3    H1 2727   1.175   4.482   2.824
  921TIP3    H2 2728   1.303   4.528   2.758
  922TIP3   OH2 2729   7.204   3.832   1.990
  922TIP3    H1 2730   7.234   3.836   2.081
  922TIP3    H2 2731   7.185   3.923   1.967
  923TIP3   OH2 2732   2.321   3.483   3.142
  923TIP3    H1 2733   2.347   3.574   3.159
  923TIP3    H2 2734   2.228   3.480   3.166
  924TIP3   OH2 2735   3.611   6.802   1.493
  924TIP3    H1 2736   3.687   6.783   1.438
  924TIP3    H2 2737   3.648   6.825   1.578
  925TIP3   OH2 2738   1.532   4.506   3.823
  925TIP3    H1 2739   1.606   4.475   3.874
  925TIP3    H2 2740   1.455   4.468   3.866
  926TIP3   OH2 2741   3.809   6.328   4.413
  926TIP3    H1 2742   3.898   6.344   4.382
  926TIP3    H2 2743   3.805   6.232   4.423
  927TIP3   OH2 2744   5.038   0.870   1.087
  927TIP3    H1 2745   5.130   0.883   1.064
  927TIP3    H2 2746   5.023   0.776   1.073
  928TIP3   OH2 2747   0.532   6.651   2.234
  928TIP3    H1 2748   0.538   6.655   2.139
  928TIP3    H2 2749   0.455   6.703   2.256
  929TIP3   OH2 2750   6.237   3.645   4.368
  929TIP3    H1 2751   6.331   3.641   4.353
  929TIP3    H2 2752   6.211   3.730   4.333
  930TIP3   OH2 2753   5.016   3.801   5.546
  930TIP3    H1 2754   5.105   3.835   5.536
  930TIP3    H2 2755   4.965   3.876   5.575
  931TIP3   OH2 2756   0.870   5.769   3.898
  931TIP3    H1 2757   0.962   5.765   3.873
  931TIP3    H2 2758   0.829   5.821   3.829
  932TIP3   OH2 2759   0.286   0.600   2.872
  932TIP3    H1 2760   0.358   0.634   2.820
  932TIP3    H2 2761   0.323   0.525   2.919
  933TIP3   OH2 2762   1.871   2.623   1.834
  933TIP3    H1 2763   1.824   2.669   1.765
  933TIP3    H2 2764   1.804   2.572   1.879
  934TIP3   OH2 2765   1.881   3.262   1.366
  934TIP3    H1 2766   1.862   3.337   1.309
  934TIP3    H2 2767   1.832   3.190   1.327
  935TIP3   OH2 2768   5.869   4.584   4.588
  935TIP3    H1 2769   5.885   4.652   4.523
  935TIP3    H2 2770   5.955   4.549   4.609
  936TIP3   OH2 2771   2.601   4.408   4.466
  936TIP3    H1 2772   2.533   4.403   4.534
  936TIP3    H2 2773   2.676   4.449   4.510
  937TIP3   OH2 2774   6.434   3.821   2.021
  937TIP3    H1 2775   6.482   3.841   1.941
  937TIP3    H2 2776   6.366   3.760   1.994
  938TIP3   OH2 2777   1.879   2.218   5.451
  938TIP3    H1 2778   1.944   2.281   5.483
  938TIP3    H2 2779   1.923   2.133   5.455
  939TIP3   OH2 2780   2.047   0.085   1.149
  939TIP3    H1 2781   2.054   0.165   1.201
  939TIP3    H2 2782   1.979   0.104   1.084
  940TIP3   OH2 2783   5.926   1.481   0.508
  940TIP3    H1 2784   5.987   1.477   0.582
  940TIP3    H2 2785   5.858   1.416   0.529
  941TIP3   OH2 2786   2.634   5.701   4.212
  941TIP3    H1 2787   2.626   5.609   4.186
  941TIP3    H2 2788   2.680   5.698   4.296
  942TIP3   OH2 2789   6.584   2.660   3.351
  942TIP3    H1 2790   6.571   2.596   3.281
  942TIP3    H2 2791   6.630   2.612   3.419
  943TIP3   OH2 2792   0.350   3.434   3.207
  943TIP3    H1 2793   0.278   3.432   3.271
  943TIP3    H2 2794   0.421   3.479   3.253
  944TIP3   OH2 2795   0.248   5.795   2.065
  944TIP3    H1 2796   0.194   5.741   2.124
  944TIP3    H2 2797   0.313   5.735   2.030
  945TIP3   OH2 2798   6.974   0.965   2.704
  945TIP3    H1 2799   7.011   0.997   2.786
  945TIP3    H2 2800   6.889   1.008   2.698
  946TIP3   OH2 2801   2.590   5.996   1.575
  946TIP3    H1 2802   2.594   5.923   1.513
  946TIP3    H2 2803   2.634   5.962   1.654
  947TIP3   OH2 2804   0.957   3.989   1.135
  947TIP3    H1 2805   0.902   4.067   1.144
  947TIP3    H2 2806   0.909   3.920   1.180
  948TIP3   OH2 2807   4.658   1.364   2.975
  948TIP3    H1 2808   4.674   1.328   3.063
  948TIP3    H2 2809   4.729   1.329   2.922
  949TIP3   OH2 2810   2.512   1.330   2.536
  949TIP3    H1 2811   2.422   1.345   2.565
  949TIP3    H2 2812   2.532   1.241   2.563
  950TIP3   OH2 2813   2.158   3.214   1.420
  950TIP3    H1 2814   2.243   3.231   1.380
  950TIP3    H2 2815   2.095   3.235   1.350
  951TIP3   OH2 2816   0.985   3.582   3.301
  951TIP3    H1 2817   1.074   3.566   3.269
  951TIP3    H2 2818   0.951   3.650   3.242
  952TIP3   OH2 2819   1.725   6.350   4.283
  952TIP3    H1 2820   1.776   6.355   4.364
  952TIP3    H2 2821   1.639   6.384   4.307
  953TIP3   OH2 2822   2.870   2.041   4.019
  953TIP3    H1 2823   2.821   2.063   4.098
  953TIP3    H2 2824   2.941   1.984   4.049
  954TIP3   OH2 2825   0.354   4.108   3.795
  954TIP3    H1 2826   0.307   4.077   3.872
  954TIP3    H2 2827   0.425   4.162   3.830
  955TIP3   OH2 2828   6.652   3.683   0.221
  955TIP3    H1 2829   6.559   3.700   0.237
  955TIP3    H2 2830   6.674   3.742   0.148
  956TIP3   OH2 2831   6.891   6.078   4.122
  956TIP3    H1 2832   6.848   6.150   4.075
  956TIP3    H2 2833   6.820   6.034   4.169
  957TIP3   OH2 2834   2.050   0.320   0.249
  957TIP3    H1 2835   2.091   0.294   0.331
  957TIP3    H2 2836   1.968   0.271   0.246
  958TIP3   OH2 2837   0.756   3.727   2.476
  958TIP3    H1 2838   0.683   3.772   2.518
  958TIP3    H2 2839   0.834   3.763   2.520
  959TIP3   OH2 2840   3.703   0.666   4.230
  959TIP3    H1 2841   3.688   0.573   4.246
  959TIP3    H2 2842   3.771   0.691   4.293
  960TIP3   OH2 2843   3.554   0.591   3.691
  960TIP3    H1 2844   3.639   0.558   3.663
  960TIP3    H2 2845   3.511   0.618   3.609
  961TIP3   OH2 2846   1.119   2.908   1.517
  961TIP3    H1 2847   1.130   2.821   1.555
  961TIP3    H2 2848   1.208   2.944   1.513
  962TIP3   OH2 2849   2.729   6.703   0.558
  962TIP3    H1 2850   2.637   6.725   0.543
  962TIP3    H2 2851   2.764   6.682   0.471
  963TIP3   OH2 2852   3.726   0.318   5.817
  963TIP3    H1 2853   3.671   0.342   5.892
  963TIP3    H2 2854   3.673   0.256   5.767
  964TIP3   OH2 2855   2.107   0.409   1.075
  964TIP3    H1 2856   2.023   0.448   1.098
  964TIP3    H2 2857   2.095   0.377   0.985
  965TIP3   OH2 2858   2.866   1.595   4.010
  965TIP3    H1 2859   2.807   1.521   4.023
  965TIP3    H2 2860   2.952   1.560   4.033
  966TIP3   OH2 2861   2.307   5.696   0.347
  966TIP3    H1 2862   2.265   5.763   0.401
  966TIP3    H2 2863   2.362   5.746   0.286
  967TIP3   OH2 2864   0.465   3.453   3.510
  967TIP3    H1 2865   0.456   3.537   3.554
  967TIP3    H2 2866   0.555   3.425   3.528
  968TIP3   OH2 2867   2.285   1.531   2.609
  968TIP3    H1 2868   2.301   1.623   2.586
  968TIP3    H2 2869   2.191   1.519   2.595
  969TIP3   OH2 2870   6.156   5.854   3.339
  969TIP3    H1 2871   6.154   5.780   3.279
  969TIP3    H2 2872   6.064   5.883   3.344
  970TIP3   OH2 2873   6.691   4.779   3.788
  970TIP3    H1 2874   6.656   4.690   3.796
  970TIP3    H2 2875   6.614   4.832   3.766
  971TIP3   OH2 2876   3.037   1.374   0.531
  971TIP3    H1 2877   3.045   1.400   0.622
  971TIP3    H2 2878   3.007   1.453   0.486
  972TIP3   OH2 2879   6.478   6.242   5.111
  972TIP3    H1 2880   6.545   6.207   5.169
  972TIP3    H2 2881   6.447   6.322   5.154
  973TIP3   OH2 2882   4.740   0.539   2.001
  973TIP3    H1 2883   4.718   0.606   2.066
  973TIP3    H2 2884   4.687   0.463   2.027
  974TIP3   OH2 2885   5.002   1.307   5.011
  974TIP3    H1 2886   5.064   1.236   4.996
  974TIP3    H2 2887   4.983   1.342   4.924
  975TIP3   OH2 2888   5.300   3.442   1.227
  975TIP3    H1 2889   5.325   3.358   1.266
  975TIP3    H2 2890   5.338   3.508   1.285
  976TIP3   OH2 2891   2.224   2.329   1.422
  976TIP3    H1 2892   2.245   2.374   1.505
  976TIP3    H2 2893   2.156   2.383   1.383
  977TIP3   OH2 2894   0.324   2.891   5.671
  977TIP3    H1 2895   0.243   2.841   5.666
  977TIP3    H2 2896   0.363   2.882   5.583
  978TIP3   OH2 2897   3.979   2.443   4.903
  978TIP3    H1 2898   4.039   2.517   4.907
  978TIP3    H2 2899   4.033   2.369   4.875
  979TIP3   OH2 2900   3.156   4.126   4.038
  979TIP3    H1 2901   3.112   4.056   4.085
  979TIP3    H2 2902   3.249   4.115   4.060
  980TIP3   OH2 2903   1.297   5.375   3.683
  980TIP3    H1 2904   1.362   5.440   3.657
  980TIP3    H2 2905   1.320   5.351   3.772
  981TIP3   OH2 2906   4.382   1.643   5.329
  981TIP3    H1 2907   4.427   1.717   5.288
  981TIP3    H2 2908   4.445   1.609   5.392
  982TIP3   OH2 2909   2.424   0.786   0.560
  982TIP3    H1 2910   2.438   0.770   0.466
  982TIP3    H2 2911   2.463   0.709   0.603
  983TIP3   OH2 2912   0.080   5.249   1.852
  983TIP3    H1 2913   0.006   5.277   1.798
  983TIP3    H2 2914   0.049   5.261   1.942
  984TIP3   OH2 2915   2.759   3.808   2.237
  984TIP3    H1 2916   2.784   3.842   2.323
  984TIP3    H2 2917   2.679   3.759   2.253
  985TIP3   OH2 2918   5.243   5.051   5.632
  985TIP3    H1 2919   5.330   5.061   5.594
  985TIP3    H2 2920   5.197   4.994   5.571
  986TIP3   OH2 2921   3.888   1.101   5.577
  986TIP3    H1 2922   3.901   1.057   5.660
  986TIP3    H2 2923   3.847   1.184   5.600
  987TIP3   OH2 2924   4.785   0.377   1.770
  987TIP3    H1 2925   4.696   0.412   1.780
  987TIP3    H2 2926   4.832   0.409   1.847
  988TIP3   OH2 2927   5.364   1.383   4.821
  988TIP3    H1 2928   5.307   1.438   4.769
  988TIP3    H2 2929   5.358   1.296   4.780
  989TIP3   OH2 2930   4.867   4.398   2.729
  989TIP3    H1 2931   4.817   4.462   2.679
  989TIP3    H2 2932   4.900   4.447   2.805
  990TIP3   OH2 2933   3.111   5.692   5.060
  990TIP3    H1 2934   3.193   5.716   5.103
  990TIP3    H2 2935   3.104   5.751   4.986
  991TIP3   OH2 2936   6.812   0.261   2.531
  991TIP3    H1 2937   6.904   0.262   2.505
  991TIP3    H2 2938   6.776   0.181   2.491
  992TIP3   OH2 2939   4.507   1.912   0.634
  992TIP3    H1 2940   4.475   1.947   0.550
  992TIP3    H2 2941   4.602   1.921   0.629
  993TIP3   OH2 2942   3.226   3.885   2.771
  993TIP3    H1 2943   3.300   3.863   2.828
  993TIP3    H2 2944   3.266   3.938   2.701
  994TIP3   OH2 2945   1.567   5.604   5.694
  994TIP3    H1 2946   1.585   5.550   5.617
  994TIP3    H2 2947   1.620   5.683   5.681
  995TIP3   OH2 2948   1.013   2.034   4.574
  995TIP3    H1 2949   1.007   2.123   4.540
  995TIP3    H2 2950   1.104   2.025   4.602
  996TIP3   OH2 2951   3.505   4.237   2.128
  996TIP3    H1 2952   3.449   4.261   2.201
  996TIP3    H2 2953   3.471   4.288   2.054
  997TIP3   OH2 2954   6.348   5.251   4.266
  997TIP3    H1 2955   6.349   5.253   4.171
  997TIP3    H2 2956   6.272   5.197   4.288
  998TIP3   OH2 2957   1.208   1.294   1.291
  998TIP3    H1 2958   1.300   1.303   1.316
  998TIP3    H2 2959   1.204   1.331   1.203
  999TIP3   OH2 2960   1.857   5.649   2.944
  999TIP3    H1 2961   1.880   5.560   2.920
  999TIP3    H2 2962   1.935   5.700   2.925
 1000TIP3   OH2 2963   3.190   4.522   4.140
 1000TIP3    H1 2964   3.221   4.486   4.057
 1000TIP3    H2 2965   3.258   4.583   4.167
 1001TIP3   OH2 2966   7.004   3.601   4.274
 1001TIP3    H1 2967   7.010   3.505   4.278
 1001TIP3    H2 2968   6.999   3.628   4.366
 1002TIP3   OH2 2969   3.056   3.437   0.316
 1002TIP3    H1 2970   2.986   3.397   0.264
 1002TIP3    H2 2971   3.024   3.433   0.406
 1003TIP3   OH2 2972   5.075   1.944   0.500
 1003TIP3    H1 2973   5.034   2.011   0.445
 1003TIP3    H2 2974   5.142   1.990   0.549
 1004TIP3   OH2 2975   5.176   1.315   5.456
 1004TIP3    H1 2976   5.165   1.401   5.414
 1004TIP3    H2 2977   5.188   1.336   5.548
 1005TIP3   OH2 2978   5.196   3.595   0.487
 1005TIP3    H1 2979   5.190   3.499   0.491
 1005TIP3    H2 2980   5.290   3.613   0.480
 1006TIP3   OH2 2981   6.031   4.723   4.360
 1006TIP3    H1 2982   6.124   4.720   4.385
 1006TIP3    H2 2983   6.012   4.633   4.331
 1007TIP3   OH2 2984   4.989   1.512   4.009
 1007TIP3    H1 2985   4.989   1.600   3.972
 1007TIP3    H2 2986   5.080   1.483   4.003
 1008TIP3   OH2 2987   5.624   1.306   5.491
 1008TIP3    H1 2988   5.719   1.303   5.501
 1008TIP3    H2 2989   5.594   1.361   5.563
 1009TIP3   OH2 2990   6.928   2.780   4.089
 1009TIP3    H1 2991   6.924   2.693   4.048
 1009TIP3    H2 2992   6.867   2.775   4.163
 1010TIP3   OH2 2993   6.898   6.643   2.436
 1010TIP3    H1 2994   6.855   6.572   2.388
 1010TIP3    H2 2995   6.882   6.622   2.529
 1011TIP3   OH2 2996   2.146   6.407   4.629
 1011TIP3    H1 2997   2.186   6.320   4.621
 1011TIP3    H2 2998   2.150   6.444   4.541
 1012TIP3   OH2 2999   4.017   5.487   0.857
 1012TIP3    H1 3000   3.949   5.422   0.875
 1012TIP3    H2 3001   3.983   5.536   0.782
 1013TIP3   OH2 3002   4.625   5.271   4.887
 1013TIP3    H1 3003   4.641   5.240   4.976
 1013TIP3    H2 3004   4.709   5.263   4.843
 1014TIP3   OH2 3005   0.711   4.405   0.337
 1014TIP3    H1 3006   0.724   4.313   0.359
 1014TIP3    H2 3007   0.760   4.417   0.256
 1015TIP3   OH2 3008   6.481   6.735   1.104
 1015TIP3    H1 3009   6.513   6.791   1.174
 1015TIP3    H2 3010   6.518   6.649   1.123
 1016TIP3   OH2 3011   2.480   5.816   0.141
 1016TIP3    H1 3012   2.556   5.768   0.108
 1016TIP3    H2 3013   2.419   5.818   0.067
 1017TIP3   OH2 3014   5.133   0.124   1.746
 1017TIP3    H1 3015   5.112   0.043   1.791
 1017TIP3    H2 3016   5.135   0.190   1.815
 1018TIP3   OH2 3017   5.147   4.026   0.292
 1018TIP3    H1 3018   5.084   4.092   0.322
 1018TIP3    H2 3019   5.146   4.034   0.196
 1019TIP3   OH2 3020   3.377   5.138   1.903
 1019TIP3    H1 3021   3.326   5.214   1.875
 1019TIP3    H2 3022   3.363   5.134   1.998
 1020TIP3   OH2 3023   6.999   4.756   2.303
 1020TIP3    H1 3024   6.992   4.848   2.278
 1020TIP3    H2 3025   6.984   4.756   2.398
 1021TIP3   OH2 3026   0.407   1.272   2.264
 1021TIP3    H1 3027   0.422   1.328   2.340
 1021TIP3    H2 3028   0.392   1.185   2.301
 1022TIP3   OH2 3029   5.009   0.528   4.078
 1022TIP3    H1 3030   4.926   0.513   4.033
 1022TIP3    H2 3031   4.992   0.505   4.169
 1023TIP3   OH2 3032   3.170   6.782   0.646
 1023TIP3    H1 3033   3.095   6.836   0.620
 1023TIP3    H2 3034   3.147   6.694   0.617
 1024TIP3   OH2 3035   0.085   3.177   2.348
 1024TIP3    H1 3036   0.118   3.088   2.363
 1024TIP3    H2 3037   0.160   3.224   2.311
 1025TIP3   OH2 3038   5.596   0.688   0.490
 1025TIP3    H1 3039   5.639   0.665   0.407
 1025TIP3    H2 3040   5.661   0.666   0.557
 1026TIP3   OH2 3041   3.899   3.862   1.134
 1026TIP3    H1 3042   3.875   3.776   1.099
 1026TIP3    H2 3043   3.896   3.920   1.058
 1027TIP3   OH2 3044   6.043   5.673   2.339
 1027TIP3    H1 3045   5.971   5.629   2.294
 1027TIP3    H2 3046   6.049   5.759   2.296
 1028TIP3   OH2 3047   6.960   0.333   0.026
 1028TIP3    H1 3048   7.048   0.307   0.053
 1028TIP3    H2 3049   6.945   0.417   0.069
 1029TIP3   OH2 3050   4.886   4.987   3.715
 1029TIP3    H1 3051   4.858   5.079   3.713
 1029TIP3    H2 3052   4.971   4.990   3.760
 1030TIP3   OH2 3053   2.868   2.289   3.168
 1030TIP3    H1 3054   2.867   2.212   3.112
 1030TIP3    H2 3055   2.776   2.312   3.178
 1031TIP3   OH2 3056   4.230   1.949   4.617
 1031TIP3    H1 3057   4.147   1.931   4.660
 1031TIP3    H2 3058   4.211   2.017   4.553
 1032TIP3   OH2 3059   5.115   1.571   0.701
 1032TIP3    H1 3060   5.051   1.575   0.631
 1032TIP3    H2 3061   5.126   1.663   0.729
 1033TIP3   OH2 3062   1.259   2.878   5.639
 1033TIP3    H1 3063   1.229   2.939   5.706
 1033TIP3    H2 3064   1.215   2.906   5.559
 1034TIP3   OH2 3065   6.350   5.675   0.476
 1034TIP3    H1 3066   6.434   5.693   0.434
 1034TIP3    H2 3067   6.369   5.680   0.570
 1035TIP3   OH2 3068   0.444   5.643   1.953
 1035TIP3    H1 3069   0.401   5.560   1.934
 1035TIP3    H2 3070   0.537   5.621   1.957
 1036TIP3   OH2 3071   1.657   2.399   4.710
 1036TIP3    H1 3072   1.667   2.304   4.713
 1036TIP3    H2 3073   1.742   2.432   4.681
 1037TIP3   OH2 3074   0.881   3.705   0.695
 1037TIP3    H1 3075   0.933   3.782   0.715
 1037TIP3    H2 3076   0.878   3.656   0.778
 1038TIP3   OH2 3077   5.138   3.979   4.928
 1038TIP3    H1 3078   5.081   4.043   4.970
 1038TIP3    H2 3079   5.223   3.993   4.970
 1039TIP3   OH2 3080   0.889   5.952   5.452
 1039TIP3    H1 3081   0.866   6.010   5.379
 1039TIP3    H2 3082   0.971   5.989   5.486
 1040TIP3   OH2 3083   5.509   2.047   0.118
 1040TIP3    H1 3084   5.501   2.055   0.023
 1040TIP3    H2 3085   5.541   1.958   0.131
 1041TIP3   OH2 3086   2.315   3.558   4.241
 1041TIP3    H1 3087   2.263   3.512   4.176
 1041TIP3    H2 3088   2.279   3.530   4.325
 1042TIP3   OH2 3089   4.887   6.359   5.037
 1042TIP3    H1 3090   4.870   6.329   5.126
 1042TIP3    H2 3091   4.982   6.370   5.033
 1043TIP3   OH2 3092   0.375   6.369   2.397
 1043TIP3    H1 3093   0.281   6.381   2.412
 1043TIP3    H2 3094   0.416   6.434   2.454
 1044TIP3   OH2 3095   5.960   0.562   5.325
 1044TIP3    H1 3096   5.883   0.516   5.291
 1044TIP3    H2 3097   6.034   0.518   5.284
 1045TIP3   OH2 3098   4.929   6.317   4.475
 1045TIP3    H1 3099   5.016   6.277   4.484
 1045TIP3    H2 3100   4.942   6.385   4.409
 1046TIP3   OH2 3101   4.541   0.170   4.682
 1046TIP3    H1 3102   4.554   0.262   4.657
 1046TIP3    H2 3103   4.522   0.125   4.599
 1047TIP3   OH2 3104   6.930   1.947   2.801
 1047TIP3    H1 3105   6.984   1.869   2.809
 1047TIP3    H2 3106   6.992   2.019   2.796
 1048TIP3   OH2 3107   4.066   4.534   4.281
 1048TIP3    H1 3108   4.038   4.564   4.194
 1048TIP3    H2 3109   4.020   4.592   4.342
 1049TIP3   OH2 3110   4.217   5.840   3.278
 1049TIP3    H1 3111   4.121   5.833   3.273
 1049TIP3    H2 3112   4.246   5.836   3.187
 1050TIP3   OH2 3113   3.356   3.149   0.906
 1050TIP3    H1 3114   3.450   3.128   0.910
 1050TIP3    H2 3115   3.350   3.217   0.840
 1051TIP3   OH2 3116   3.319   3.513   1.377
 1051TIP3    H1 3117   3.254   3.464   1.427
 1051TIP3    H2 3118   3.268   3.561   1.312
 1052TIP3   OH2 3119   4.736   2.045   2.999
 1052TIP3    H1 3120   4.658   2.017   2.952
 1052TIP3    H2 3121   4.704   2.106   3.065
 1053TIP3   OH2 3122   3.484   5.895   4.848
 1053TIP3    H1 3123   3.393   5.922   4.839
 1053TIP3    H2 3124   3.520   5.954   4.915
 1054TIP3   OH2 3125   5.459   6.682   0.554
 1054TIP3    H1 3126   5.400   6.646   0.620
 1054TIP3    H2 3127   5.513   6.608   0.526
 1055TIP3   OH2 3128   4.875   5.429   0.343
 1055TIP3    H1 3129   4.919   5.502   0.387
 1055TIP3    H2 3130   4.941   5.394   0.283
 1056TIP3   OH2 3131   2.674   1.760   4.121
 1056TIP3    H1 3132   2.623   1.730   4.046
 1056TIP3    H2 3133   2.761   1.721   4.108
 1057TIP3   OH2 3134   3.706   3.905   5.197
 1057TIP3    H1 3135   3.648   3.829   5.187
 1057TIP3    H2 3136   3.660   3.963   5.257
 1058TIP3   OH2 3137   5.935   1.471   0.226
 1058TIP3    H1 3138   6.005   1.416   0.193
 1058TIP3    H2 3139   5.956   1.484   0.319
 1059TIP3   OH2 3140   5.135   2.112   5.046
 1059TIP3    H1 3141   5.053   2.117   4.997
 1059TIP3    H2 3142   5.155   2.203   5.069
 1060TIP3   OH2 3143   1.733   5.389   2.766
 1060TIP3    H1 3144   1.722   5.360   2.675
 1060TIP3    H2 3145   1.647   5.376   2.805
 1061TIP3   OH2 3146   2.733   0.093   4.300
 1061TIP3    H1 3147   2.824   0.074   4.323
 1061TIP3    H2 3148   2.714   0.035   4.226
 1062TIP3   OH2 3149   5.152   5.028   0.867
 1062TIP3    H1 3150   5.218   5.094   0.886
 1062TIP3    H2 3151   5.110   5.058   0.786
 1063TIP3   OH2 3152   0.611   3.840   4.322
 1063TIP3    H1 3153   0.523   3.806   4.342
 1063TIP3    H2 3154   0.602   3.935   4.327
 1064TIP3   OH2 3155   4.426   6.442   5.899
 1064TIP3    H1 3156   4.442   6.531   5.931
 1064TIP3    H2 3157   4.353   6.452   5.837
 1065TIP3   OH2 3158   1.756   2.642   3.239
 1065TIP3    H1 3159   1.678   2.661   3.292
 1065TIP3    H2 3160   1.740   2.686   3.156
 1066TIP3   OH2 3161   1.232   4.843   1.631
 1066TIP3    H1 3162   1.242   4.887   1.716
 1066TIP3    H2 3163   1.187   4.906   1.576
 1067TIP3   OH2 3164   4.710   2.858   0.242
 1067TIP3    H1 3165   4.727   2.940   0.196
 1067TIP3    H2 3166   4.790   2.806   0.228
 1068TIP3   OH2 3167   0.350   4.801   1.957
 1068TIP3    H1 3168   0.274   4.837   2.002
 1068TIP3    H2 3169   0.383   4.733   2.017
 1069TIP3   OH2 3170   5.269   4.856   4.937
 1069TIP3    H1 3171   5.274   4.807   5.019
 1069TIP3    H2 3172   5.269   4.788   4.869
 1070TIP3   OH2 3173   5.843   1.890   0.645
 1070TIP3    H1 3174   5.868   1.830   0.715
 1070TIP3    H2 3175   5.749   1.877   0.634
 1071TIP3   OH2 3176   1.517   1.250   0.183
 1071TIP3    H1 3177   1.485   1.184   0.122
 1071TIP3    H2 3178   1.546   1.322   0.127
 1072TIP3   OH2 3179   2.583   1.504   5.248
 1072TIP3    H1 3180   2.594   1.483   5.341
 1072TIP3    H2 3181   2.498   1.466   5.226
 1073TIP3   OH2 3182   6.320   0.956   0.661
 1073TIP3    H1 3183   6.319   0.914   0.747
 1073TIP3    H2 3184   6.372   1.035   0.673
 1074TIP3   OH2 3185   1.108   6.090   0.027
 1074TIP3    H1 3186   1.042   6.083   0.096
 1074TIP3    H2 3187   1.059   6.106  -0.053
 1075TIP3   OH2 3188   5.977   2.033   3.605
 1075TIP3    H1 3189   6.019   2.034   3.690
 1075TIP3    H2 3190   5.904   1.972   3.614
 1076TIP3   OH2 3191   6.452   2.412   0.682
 1076TIP3    H1 3192   6.486   2.490   0.726
 1076TIP3    H2 3193   6.520   2.346   0.694
 1077TIP3   OH2 3194   4.714   3.525   3.533
 1077TIP3    H1 3195   4.688   3.515   3.624
 1077TIP3    H2 3196   4.798   3.478   3.527
 1078TIP3   OH2 3197   4.240   2.082   0.711
 1078TIP3    H1 3198   4.318   2.026   0.711
 1078TIP3    H2 3199   4.238   2.119   0.799
 1079TIP3   OH2 3200   3.648   3.430   5.499
 1079TIP3    H1 3201   3.677   3.346   5.462
 1079TIP3    H2 3202   3.579   3.406   5.560
 1080TIP3   OH2 3203   4.788   3.982   1.145
 1080TIP3    H1 3204   4.838   3.956   1.222
 1080TIP3    H2 3205   4.755   4.070   1.165
 1081TIP3   OH2 3206   0.321   6.525   3.802
 1081TIP3    H1 3207   0.353   6.534   3.712
 1081TIP3    H2 3208   0.350   6.605   3.846
 1082TIP3   OH2 3209   3.618   5.845   2.738
 1082TIP3    H1 3210   3.572   5.762   2.748
 1082TIP3    H2 3211   3.581   5.885   2.660
 1083TIP3   OH2 3212   3.950   1.961   2.466
 1083TIP3    H1 3213   4.017   1.934   2.403
 1083TIP3    H2 3214   3.996   1.961   2.551
 1084TIP3   OH2 3215   4.555   4.686   1.224
 1084TIP3    H1 3216   4.485   4.699   1.288
 1084TIP3    H2 3217   4.606   4.767   1.227
 1085TIP3   OH2 3218   4.255   2.763   4.705
 1085TIP3    H1 3219   4.187   2.710   4.746
 1085TIP3    H2 3220   4.235   2.758   4.611
 1086TIP3   OH2 3221   4.141   6.607   3.676
 1086TIP3    H1 3222   4.234   6.617   3.698
 1086TIP3    H2 3223   4.123   6.679   3.615
 1087TIP3   OH2 3224   2.114   6.139   5.720
 1087TIP3    H1 3225   2.107   6.142   5.624
 1087TIP3    H2 3226   2.076   6.222   5.749
 1088TIP3   OH2 3227   5.843   0.001   0.347
 1088TIP3    H1 3228   5.845   0.043   0.261
 1088TIP3    H2 3229   5.807  -0.086   0.330
 1089TIP3   OH2 3230   1.908   0.527   1.823
 1089TIP3    H1 3231   1.851   0.467   1.775
 1089TIP3    H2 3232   1.968   0.562   1.757
 1090TIP3   OH2 3233   3.375   0.179   1.260
 1090TIP3    H1 3234   3.280   0.174   1.250
 1090TIP3    H2 3235   3.408   0.102   1.214
 1091TIP3   OH2 3236   0.924   2.357   1.875
 1091TIP3    H1 3237   0.848   2.407   1.844
 1091TIP3    H2 3238   0.962   2.321   1.796
 1092TIP3   OH2 3239   2.019   1.336   5.758
 1092TIP3    H1 3240   2.092   1.349   5.697
 1092TIP3    H2 3241   2.021   1.243   5.779
 1093TIP3   OH2 3242   5.225   5.332   2.430
 1093TIP3    H1 3243   5.229   5.236   2.430
 1093TIP3    H2 3244   5.259   5.358   2.344
 1094TIP3   OH2 3245   5.059   4.073   5.371
 1094TIP3    H1 3246   5.019   4.079   5.457
 1094TIP3    H2 3247   5.153   4.068   5.389
 1095TIP3   OH2 3248   5.337   0.934   2.019
 1095TIP3    H1 3249   5.315   1.015   1.974
 1095TIP3    H2 3250   5.312   0.865   1.958
 1096TIP3   OH2 3251   1.377   4.038   0.495
 1096TIP3    H1 3252   1.457   4.071   0.455
 1096TIP3    H2 3253   1.323   4.009   0.421
 1097TIP3   OH2 3254   5.487   5.596   0.237
 1097TIP3    H1 3255   5.500   5.503   0.222
 1097TIP3    H2 3256   5.411   5.619   0.185
 1098TIP3   OH2 3257   6.903   2.028   0.114
 1098TIP3    H1 3258   6.914   1.946   0.162
 1098TIP3    H2 3259   6.815   2.058   0.137
 1099TIP3   OH2 3260   4.438   1.810   0.924
 1099TIP3    H1 3261   4.470   1.900   0.927
 1099TIP3    H2 3262   4.513   1.758   0.894
 1100TIP3   OH2 3263   4.903   3.686   5.018
 1100TIP3    H1 3264   4.919   3.738   5.097
 1100TIP3    H2 3265   4.898   3.751   4.948
 1101TIP3   OH2 3266   5.533   2.756   2.181
 1101TIP3    H1 3267   5.443   2.724   2.178
 1101TIP3    H2 3268   5.542   2.792   2.269
 1102TIP3   OH2 3269   0.773   5.139   2.842
 1102TIP3    H1 3270   0.821   5.143   2.925
 1102TIP3    H2 3271   0.818   5.070   2.792
 1103TIP3   OH2 3272   4.275   4.031   3.221
 1103TIP3    H1 3273   4.302   4.026   3.130
 1103TIP3    H2 3274   4.348   3.993   3.270
 1104TIP3   OH2 3275   1.014   5.663   3.188
 1104TIP3    H1 3276   1.013   5.569   3.169
 1104TIP3    H2 3277   1.039   5.704   3.105
 1105TIP3   OH2 3278   2.554   4.872   2.012
 1105TIP3    H1 3279   2.637   4.918   2.002
 1105TIP3    H2 3280   2.562   4.795   1.955
 1106TIP3   OH2 3281   1.161   4.412   0.152
 1106TIP3    H1 3282   1.235   4.367   0.112
 1106TIP3    H2 3283   1.188   4.504   0.153
 1107TIP3   OH2 3284   0.010   5.887   3.095
 1107TIP3    H1 3285   0.101   5.874   3.123
 1107TIP3    H2 3286   0.016   5.952   3.025
 1108TIP3   OH2 3287   2.697   3.933   0.984
 1108TIP3    H1 3288   2.789   3.958   0.993
 1108TIP3    H2 3289   2.665   3.924   1.074
 1109TIP3   OH2 3290   2.719   5.140   0.382
 1109TIP3    H1 3291   2.759   5.204   0.323
 1109TIP3    H2 3292   2.642   5.109   0.335
 1110TIP3   OH2 3293   0.466   4.906   5.780
 1110TIP3    H1 3294   0.407   4.969   5.822
 1110TIP3    H2 3295   0.422   4.885   5.697
 1111TIP3   OH2 3296   2.184   6.577   1.853
 1111TIP3    H1 3297   2.163   6.620   1.936
 1111TIP3    H2 3298   2.147   6.633   1.786
 1112TIP3   OH2 3299   3.874   0.426   3.807
 1112TIP3    H1 3300   3.781   0.404   3.817
 1112TIP3    H2 3301   3.874   0.505   3.754
 1113TIP3   OH2 3302   1.755   2.150   0.324
 1113TIP3    H1 3303   1.668   2.192   0.322
 1113TIP3    H2 3304   1.740   2.063   0.287
 1114TIP3   OH2 3305   0.287   1.033   1.429
 1114TIP3    H1 3306   0.229   1.093   1.475
 1114TIP3    H2 3307   0.229   0.976   1.379
 1115TIP3   OH2 3308   5.678   5.793   1.129
 1115TIP3    H1 3309   5.598   5.769   1.081
 1115TIP3    H2 3310   5.653   5.787   1.221
 1116TIP3   OH2 3311   4.151   1.519   5.240
 1116TIP3    H1 3312   4.180   1.436   5.202
 1116TIP3    H2 3313   4.229   1.556   5.281
 1117TIP3   OH2 3314   1.384   4.573   3.148
 1117TIP3    H1 3315   1.330   4.621   3.086
 1117TIP3    H2 3316   1.334   4.574   3.229
 1118TIP3   OH2 3317   2.609   1.933   4.782
 1118TIP3    H1 3318   2.595   1.970   4.870
 1118TIP3    H2 3319   2.658   2.001   4.736
 1119TIP3   OH2 3320   5.047   4.740   0.193
 1119TIP3    H1 3321   4.965   4.761   0.149
 1119TIP3    H2 3322   5.031   4.655   0.234
 1120TIP3   OH2 3323   1.146   2.030   0.495
 1120TIP3    H1 3324   1.220   2.052   0.550
 1120TIP3    H2 3325   1.109   1.950   0.535
 1121TIP3   OH2 3326   2.301   5.401   3.100
 1121TIP3    H1 3327   2.350   5.323   3.124
 1121TIP3    H2 3328   2.331   5.423   3.012
 1122TIP3   OH2 3329   5.064   2.111   4.708
 1122TIP3    H1 3330   5.045   2.156   4.626
 1122TIP3    H2 3331   5.155   2.134   4.728
 1123TIP3   OH2 3332   1.460   3.752   2.695
 1123TIP3    H1 3333   1.478   3.720   2.607
 1123TIP3    H2 3334   1.442   3.673   2.746
 1124TIP3   OH2 3335   6.757   5.001   5.338
 1124TIP3    H1 3336   6.741   4.965   5.251
 1124TIP3    H2 3337   6.842   4.964   5.364
 1125TIP3   OH2 3338   3.950   5.989   0.431
 1125TIP3    H1 3339   3.976   5.971   0.521
 1125TIP3    H2 3340   3.908   5.908   0.401
 1126TIP3   OH2 3341   1.158   6.027   5.434
 1126TIP3    H1 3342   1.153   6.021   5.339
 1126TIP3    H2 3343   1.236   5.977   5.457
 1127TIP3   OH2 3344   0.343   2.422   1.749
 1127TIP3    H1 3345   0.342   2.410   1.844
 1127TIP3    H2 3346   0.339   2.517   1.737
 1128TIP3   OH2 3347   3.854   4.867   2.475
 1128TIP3    H1 3348   3.918   4.856   2.405
 1128TIP3    H2 3349   3.886   4.813   2.546
 1129TIP3   OH2 3350   3.935   2.079   4.674
 1129TIP3    H1 3351   3.897   2.099   4.759
 1129TIP3    H2 3352   3.944   2.164   4.631
 1130TIP3   OH2 3353   6.941   3.137   2.569
 1130TIP3    H1 3354   6.945   3.139   2.665
 1130TIP3    H2 3355   7.021   3.181   2.541
 1131TIP3   OH2 3356   4.969   6.166   2.545
 1131TIP3    H1 3357   5.051   6.179   2.592
 1131TIP3    H2 3358   4.991   6.103   2.477
 1132TIP3   OH2 3359   5.685   2.267   1.020
 1132TIP3    H1 3360   5.776   2.286   1.042
 1132TIP3    H2 3361   5.662   2.193   1.076
 1133TIP3   OH2 3362   2.615   3.393   3.993
 1133TIP3    H1 3363   2.559   3.344   4.054
 1133TIP3    H2 3364   2.560   3.466   3.965
 1134TIP3   OH2 3365   4.729   6.636   2.432
 1134TIP3    H1 3366   4.757   6.548   2.406
 1134TIP3    H2 3367   4.742   6.690   2.354
 1135TIP3   OH2 3368   3.322   5.482   5.741
 1135TIP3    H1 3369   3.411   5.464   5.710
 1135TIP3    H2 3370   3.278   5.397   5.739
 1136TIP3   OH2 3371   1.776   4.462   4.520
 1136TIP3    H1 3372   1.688   4.499   4.519
 1136TIP3    H2 3373   1.817   4.496   4.441
 1137TIP3   OH2 3374   6.642   3.910   2.165
 1137TIP3    H1 3375   6.563   3.895   2.112
 1137TIP3    H2 3376   6.664   4.002   2.148
 1138TIP3   OH2 3377   0.808   2.333   3.006
 1138TIP3    H1 3378   0.729   2.313   3.056
 1138TIP3    H2 3379   0.838   2.417   3.041
 1139TIP3   OH2 3380   6.610   2.847   1.012
 1139TIP3    H1 3381   6.555   2.784   1.058
 1139TIP3    H2 3382   6.689   2.853   1.065
 1140TIP3   OH2 3383   2.544   6.579   4.518
 1140TIP3    H1 3384   2.543   6.483   4.521
 1140TIP3    H2 3385   2.619   6.604   4.572
 1141TIP3   OH2 3386   3.139   0.360   5.713
 1141TIP3    H1 3387   3.229   0.371   5.682
 1141TIP3    H2 3388   3.089   0.341   5.634
 1142TIP3   OH2 3389   0.489   0.066   1.026
 1142TIP3    H1 3390   0.535   0.070   1.110
 1142TIP3    H2 3391   0.399   0.091   1.047
 1143TIP3   OH2 3392   3.788   0.193   0.151
 1143TIP3    H1 3393   3.730   0.120   0.174
 1143TIP3    H2 3394   3.831   0.216   0.233
 1144TIP3   OH2 3395   1.004   6.617   2.664
 1144TIP3    H1 3396   1.054   6.622   2.746
 1144TIP3    H2 3397   0.982   6.708   2.644
 1145TIP3   OH2 3398   3.053   5.520   1.626
 1145TIP3    H1 3399   3.052   5.562   1.712
 1145TIP3    H2 3400   2.962   5.522   1.598
 1146TIP3   OH2 3401   2.363   4.479   1.266
 1146TIP3    H1 3402   2.450   4.454   1.297
 1146TIP3    H2 3403   2.319   4.515   1.343
 1147TIP3   OH2 3404   5.889   0.276   3.346
 1147TIP3    H1 3405   5.917   0.358   3.304
 1147TIP3    H2 3406   5.911   0.288   3.438
 1148TIP3   OH2 3407   2.845   3.759   5.818
 1148TIP3    H1 3408   2.762   3.786   5.777
 1148TIP3    H2 3409   2.818   3.710   5.895
 1149TIP3   OH2 3410   6.416   6.596   3.214
 1149TIP3    H1 3411   6.388   6.537   3.284
 1149TIP3    H2 3412   6.497   6.635   3.246
 1150TIP3   OH2 3413   1.345   1.056   4.649
 1150TIP3    H1 3414   1.315   1.144   4.625
 1150TIP3    H2 3415   1.268   1.001   4.637
 1151TIP3   OH2 3416   3.938   1.883   3.260
 1151TIP3    H1 3417   3.924   1.806   3.315
 1151TIP3    H2 3418   3.853   1.898   3.218
 1152TIP3   OH2 3419   1.800   6.699   1.783
 1152TIP3    H1 3420   1.873   6.651   1.742
 1152TIP3    H2 3421   1.781   6.770   1.722
 1153TIP3   OH2 3422   3.701   6.089   4.709
 1153TIP3    H1 3423   3.627   6.115   4.764
 1153TIP3    H2 3424   3.771   6.068   4.771
 1154TIP3   OH2 3425   6.295   0.104   4.359
 1154TIP3    H1 3426   6.212   0.139   4.327
 1154TIP3    H2 3427   6.271   0.049   4.434
 1155TIP3   OH2 3428   7.123   4.068   5.489
 1155TIP3    H1 3429   7.044   4.045   5.441
 1155TIP3    H2 3430   7.146   4.155   5.457
 1156TIP3   OH2 3431   3.744   1.662   3.231
 1156TIP3    H1 3432   3.682   1.734   3.218
 1156TIP3    H2 3433   3.715   1.619   3.311
 1157TIP3   OH2 3434   7.068   0.197   0.840
 1157TIP3    H1 3435   6.993   0.217   0.784
 1157TIP3    H2 3436   7.141   0.243   0.799
 1158TIP3   OH2 3437   1.481   6.587   3.254
 1158TIP3    H1 3438   1.566   6.552   3.278
 1158TIP3    H2 3439   1.464   6.552   3.166
 1159TIP3   OH2 3440   6.175   2.287   3.896
 1159TIP3    H1 3441   6.108   2.340   3.853
 1159TIP3    H2 3442   6.243   2.349   3.920
 1160TIP3   OH2 3443   6.558   1.452   5.798
 1160TIP3    H1 3444   6.498   1.443   5.871
 1160TIP3    H2 3445   6.642   1.420   5.832
 1161TIP3   OH2 3446   5.304   4.470   0.380
 1161TIP3    H1 3447   5.231   4.440   0.328
 1161TIP3    H2 3448   5.382   4.445   0.330
 1162TIP3   OH2 3449   3.350   3.144   3.993
 1162TIP3    H1 3450   3.383   3.067   3.947
 1162TIP3    H2 3451   3.413   3.213   3.973
 1163TIP3   OH2 3452   2.300   6.215   5.439
 1163TIP3    H1 3453   2.340   6.162   5.369
 1163TIP3    H2 3454   2.212   6.180   5.447
 1164TIP3   OH2 3455   3.636   0.461   5.423
 1164TIP3    H1 3456   3.685   0.493   5.499
 1164TIP3    H2 3457   3.553   0.508   5.426
 1165TIP3   OH2 3458   6.285   0.883   0.916
 1165TIP3    H1 3459   6.288   0.978   0.929
 1165TIP3    H2 3460   6.362   0.850   0.962
 1166TIP3   OH2 3461   5.897   3.223  -0.013
 1166TIP3    H1 3462   5.818   3.238  -0.065
 1166TIP3    H2 3463   5.910   3.305   0.035
 1167TIP3   OH2 3464   0.394   6.679   2.749
 1167TIP3    H1 3465   0.457   6.643   2.686
 1167TIP3    H2 3466   0.416   6.635   2.831
 1168TIP3   OH2 3467   1.646   0.744   5.608
 1168TIP3    H1 3468   1.612   0.818   5.558
 1168TIP3    H2 3469   1.741   0.752   5.601
 1169TIP3   OH2 3470   6.832   4.394   2.310
 1169TIP3    H1 3471   6.765   4.389   2.378
 1169TIP3    H2 3472   6.815   4.478   2.267
 1170TIP3   OH2 3473   1.009   6.518   0.724
 1170TIP3    H1 3474   1.051   6.435   0.747
 1170TIP3    H2 3475   0.925   6.493   0.685
 1171TIP3   OH2 3476   1.504   1.402   2.581
 1171TIP3    H1 3477   1.501   1.498   2.574
 1171TIP3    H2 3478   1.439   1.371   2.519
 1172TIP3   OH2 3479   5.111   5.773   1.018
 1172TIP3    H1 3480   5.164   5.738   0.946
 1172TIP3    H2 3481   5.061   5.844   0.978
 1173TIP3   OH2 3482   5.991   3.640   5.215
 1173TIP3    H1 3483   6.027   3.661   5.301
 1173TIP3    H2 3484   6.031   3.704   5.156
 1174TIP3   OH2 3485   0.179   4.618   1.435
 1174TIP3    H1 3486   0.201   4.660   1.518
 1174TIP3    H2 3487   0.155   4.529   1.459
 1175TIP3   OH2 3488   2.157   5.797   5.420
 1175TIP3    H1 3489   2.125   5.778   5.332
 1175TIP3    H2 3490   2.252   5.786   5.414
 1176TIP3   OH2 3491   0.363   6.176   5.068
 1176TIP3    H1 3492   0.437   6.177   5.008
 1176TIP3    H2 3493   0.365   6.090   5.108
 1177TIP3   OH2 3494   7.051   3.956   0.328
 1177TIP3    H1 3495   7.049   4.000   0.243
 1177TIP3    H2 3496   7.136   3.912   0.329
 1178TIP3   OH2 3497   0.614   3.081   0.412
 1178TIP3    H1 3498   0.531   3.078   0.459
 1178TIP3    H2 3499   0.611   3.164   0.364
 1179TIP3   OH2 3500   3.503   4.026   3.801
 1179TIP3    H1 3501   3.524   3.995   3.889
 1179TIP3    H2 3502   3.491   4.121   3.812
 1180TIP3   OH2 3503   0.716   3.201   4.121
 1180TIP3    H1 3504   0.675   3.277   4.080
 1180TIP3    H2 3505   0.704   3.130   4.057
 1181TIP3   OH2 3506   5.127   1.011   3.565
 1181TIP3    H1 3507   5.150   0.982   3.653
 1181TIP3    H2 3508   5.043   0.967   3.547
 1182TIP3   OH2 3509   1.989   6.247   5.235
 1182TIP3    H1 3510   2.073   6.225   5.194
 1182TIP3    H2 3511   1.924   6.203   5.181
 1183TIP3   OH2 3512   6.111   3.276   1.546
 1183TIP3    H1 3513   6.200   3.243   1.559
 1183TIP3    H2 3514   6.104   3.351   1.604
 1184TIP3   OH2 3515   6.198   4.208   5.582
 1184TIP3    H1 3516   6.194   4.159   5.664
 1184TIP3    H2 3517   6.250   4.153   5.523
 1185TIP3   OH2 3518   0.852   5.187   2.247
 1185TIP3    H1 3519   0.894   5.106   2.218
 1185TIP3    H2 3520   0.759   5.165   2.252
 1186TIP3   OH2 3521   2.630   5.529   4.648
 1186TIP3    H1 3522   2.710   5.480   4.668
 1186TIP3    H2 3523   2.568   5.462   4.619
 1187TIP3   OH2 3524   1.991   4.466   4.701
 1187TIP3    H1 3525   1.915   4.453   4.645
 1187TIP3    H2 3526   1.985   4.558   4.728
 1188TIP3   OH2 3527   1.355   5.785   1.843
 1188TIP3    H1 3528   1.320   5.802   1.931
 1188TIP3    H2 3529   1.437   5.836   1.840
 1189TIP3   OH2 3530   1.046   1.304   3.287
 1189TIP3    H1 3531   1.015   1.235   3.229
 1189TIP3    H2 3532   1.133   1.275   3.315
 1190TIP3   OH2 3533   4.202   1.175   1.569
 1190TIP3    H1 3534   4.138   1.116   1.610
 1190TIP3    H2 3535   4.286   1.133   1.584
 1191TIP3   OH2 3536   3.745   4.267   3.688
 1191TIP3    H1 3537   3.785   4.185   3.659
 1191TIP3    H2 3538   3.772   4.331   3.621
 1192TIP3   OH2 3539   4.204   3.238   0.815
 1192TIP3    H1 3540   4.172   3.197   0.895
 1192TIP3    H2 3541   4.224   3.328   0.839
 1193TIP3   OH2 3542   0.489   5.243   1.029
 1193TIP3    H1 3543   0.503   5.152   1.003
 1193TIP3    H2 3544   0.514   5.246   1.121
 1194TIP3   OH2 3545   0.903   4.903   2.208
 1194TIP3    H1 3546   0.842   4.852   2.154
 1194TIP3    H2 3547   0.885   4.874   2.297
 1195TIP3   OH2 3548   1.448   4.095   5.043
 1195TIP3    H1 3549   1.394   4.143   4.980
 1195TIP3    H2 3550   1.485   4.023   4.992
 1196TIP3   OH2 3551   6.828   0.300   2.802
 1196TIP3    H1 3552   6.841   0.287   2.708
 1196TIP3    H2 3553   6.855   0.218   2.842
 1197TIP3   OH2 3554   5.415   5.166   4.240
 1197TIP3    H1 3555   5.481   5.126   4.296
 1197TIP3    H2 3556   5.348   5.198   4.300
 1198TIP3   OH2 3557   1.866   1.484   1.388
 1198TIP3    H1 3558   1.922   1.422   1.435
 1198TIP3    H2 3559   1.927   1.550   1.355
 1199TIP3   OH2 3560   4.450   4.942   5.001
 1199TIP3    H1 3561   4.508   5.007   5.039
 1199TIP3    H2 3562   4.362   4.980   5.008
 1200TIP3   OH2 3563   4.297   2.732   5.552
 1200TIP3    H1 3564   4.370   2.778   5.593
 1200TIP3    H2 3565   4.219   2.772   5.589
 1201TIP3   OH2 3566   1.565   5.107   3.282
 1201TIP3    H1 3567   1.655   5.076   3.284
 1201TIP3    H2 3568   1.512   5.028   3.272
 1202TIP3   OH2 3569   3.202   5.078   5.685
 1202TIP3    H1 3570   3.207   5.138   5.760
 1202TIP3    H2 3571   3.168   4.997   5.723
 1203TIP3   OH2 3572   3.710   1.202   2.035
 1203TIP3    H1 3573   3.633   1.229   2.084
 1203TIP3    H2 3574   3.784   1.240   2.083
 1204TIP3   OH2 3575   1.996   1.794   3.988
 1204TIP3    H1 3576   2.086   1.801   4.018
 1204TIP3    H2 3577   1.991   1.852   3.912
 1205TIP3   OH2 3578   5.582   3.669   0.718
 1205TIP3    H1 3579   5.602   3.610   0.791
 1205TIP3    H2 3580   5.590   3.614   0.640
 1206TIP3   OH2 3581   2.532   2.392   2.116
 1206TIP3    H1 3582   2.529   2.449   2.193
 1206TIP3    H2 3583   2.591   2.438   2.055
 1207TIP3   OH2 3584   3.253   1.650   2.831
 1207TIP3    H1 3585   3.233   1.712   2.901
 1207TIP3    H2 3586   3.324   1.596   2.866
 1208TIP3   OH2 3587   0.364   5.667   3.120
 1208TIP3    H1 3588   0.384   5.693   3.030
 1208TIP3    H2 3589   0.331   5.747   3.161
 1209TIP3   OH2 3590   2.826   5.043   4.226
 1209TIP3    H1 3591   2.866   4.989   4.294
 1209TIP3    H2 3592   2.762   4.986   4.185
 1210TIP3   OH2 3593   1.392   1.610   0.054
 1210TIP3    H1 3594   1.315   1.555   0.046
 1210TIP3    H2 3595   1.462   1.560   0.012
 1211TIP3   OH2 3596   5.549   6.606   0.211
 1211TIP3    H1 3597   5.591   6.574   0.292
 1211TIP3    H2 3598   5.619   6.652   0.165
 1212TIP3   OH2 3599   2.899   1.585   2.261
 1212TIP3    H1 3600   2.836   1.595   2.331
 1212TIP3    H2 3601   2.858   1.523   2.200
 1213TIP3   OH2 3602   3.153   6.759   1.539
 1213TIP3    H1 3603   3.222   6.733   1.479
 1213TIP3    H2 3604   3.097   6.817   1.488
 1214TIP3   OH2 3605   6.298   2.169   4.660
 1214TIP3    H1 3606   6.390   2.178   4.636
 1214TIP3    H2 3607   6.296   2.184   4.754
 1215TIP3   OH2 3608   5.694   4.604   4.065
 1215TIP3    H1 3609   5.711   4.533   4.126
 1215TIP3    H2 3610   5.777   4.652   4.060
 1216TIP3   OH2 3611   2.704   3.509   1.501
 1216TIP3    H1 3612   2.649   3.502   1.578
 1216TIP3    H2 3613   2.752   3.426   1.497
 1217TIP3   OH2 3614   4.192   3.481   5.666
 1217TIP3    H1 3615   4.286   3.493   5.650
 1217TIP3    H2 3616   4.176   3.524   5.750
 1218TIP3   OH2 3617   3.962   1.798   0.096
 1218TIP3    H1 3618   4.043   1.804   0.145
 1218TIP3    H2 3619   3.893   1.794   0.163
 1219TIP3   OH2 3620   6.752   5.763   5.477
 1219TIP3    H1 3621   6.693   5.835   5.500
 1219TIP3    H2 3622   6.696   5.687   5.467
 1220TIP3   OH2 3623   7.035   3.438   0.225
 1220TIP3    H1 3624   6.996   3.393   0.299
 1220TIP3    H2 3625   7.042   3.529   0.254
 1221TIP3   OH2 3626   4.761   3.194   2.878
 1221TIP3    H1 3627   4.831   3.238   2.927
 1221TIP3    H2 3628   4.681   3.236   2.909
 1222TIP3   OH2 3629   1.637   6.602   1.989
 1222TIP3    H1 3630   1.691   6.628   2.064
 1222TIP3    H2 3631   1.678   6.643   1.913
 1223TIP3   OH2 3632   4.489   1.280   4.428
 1223TIP3    H1 3633   4.567   1.291   4.483
 1223TIP3    H2 3634   4.494   1.352   4.365
 1224TIP3   OH2 3635   7.175   5.988   2.219
 1224TIP3    H1 3636   7.170   5.898   2.187
 1224TIP3    H2 3637   7.094   6.000   2.270
 1225TIP3   OH2 3638   4.100   1.711   4.393
 1225TIP3    H1 3639   4.092   1.769   4.468
 1225TIP3    H2 3640   4.042   1.637   4.414
 1226TIP3   OH2 3641   0.917   1.466   2.085
 1226TIP3    H1 3642   0.972   1.392   2.110
 1226TIP3    H2 3643   0.920   1.524   2.162
 1227TIP3   OH2 3644   2.912   1.845   5.480
 1227TIP3    H1 3645   2.864   1.773   5.520
 1227TIP3    H2 3646   2.983   1.863   5.542
 1228TIP3   OH2 3647   0.458   5.987   4.791
 1228TIP3    H1 3648   0.489   6.035   4.714
 1228TIP3    H2 3649   0.364   5.979   4.777
 1229TIP3   OH2 3650   1.287   5.139   2.182
 1229TIP3    H1 3651   1.352   5.159   2.114
 1229TIP3    H2 3652   1.241   5.062   2.149
 1230TIP3   OH2 3653   4.270   0.902   4.159
 1230TIP3    H1 3654   4.260   0.985   4.206
 1230TIP3    H2 3655   4.332   0.921   4.089
 1231TIP3   OH2 3656   5.826   0.620   2.633
 1231TIP3    H1 3657   5.741   0.587   2.605
 1231TIP3    H2 3658   5.886   0.547   2.620
 1232TIP3   OH2 3659   5.114   6.437   5.184
 1232TIP3    H1 3660   5.207   6.417   5.191
 1232TIP3    H2 3661   5.094   6.487   5.263
 1233TIP3   OH2 3662   3.194   3.449   3.157
 1233TIP3    H1 3663   3.198   3.440   3.252
 1233TIP3    H2 3664   3.119   3.507   3.142
 1234TIP3   OH2 3665   6.343   5.379   0.217
 1234TIP3    H1 3666   6.410   5.327   0.262
 1234TIP3    H2 3667   6.372   5.380   0.126
 1235TIP3   OH2 3668   3.176   6.629   2.232
 1235TIP3    H1 3669   3.184   6.720   2.205
 1235TIP3    H2 3670   3.145   6.584   2.153
 1236TIP3   OH2 3671   2.291   4.182   2.196
 1236TIP3    H1 3672   2.204   4.144   2.205
 1236TIP3    H2 3673   2.351   4.111   2.218
 1237TIP3   OH2 3674   6.092   2.788   2.328
 1237TIP3    H1 3675   6.151   2.843   2.379
 1237TIP3    H2 3676   6.127   2.790   2.239
 1238TIP3   OH2 3677   3.720   6.583   3.564
 1238TIP3    H1 3678   3.791   6.524   3.541
 1238TIP3    H2 3679   3.641   6.530   3.558
 1239TIP3   OH2 3680   0.628   3.632   2.242
 1239TIP3    H1 3681   0.709   3.613   2.193
 1239TIP3    H2 3682   0.659   3.656   2.330
 1240TIP3   OH2 3683   4.566   5.821   3.077
 1240TIP3    H1 3684   4.470   5.817   3.078
 1240TIP3    H2 3685   4.586   5.908   3.043
 1241TIP3   OH2 3686   1.185   0.784   0.718
 1241TIP3    H1 3687   1.183   0.764   0.625
 1241TIP3    H2 3688   1.197   0.879   0.722
 1242TIP3   OH2 3689   5.042   0.300   5.574
 1242TIP3    H1 3690   5.121   0.340   5.608
 1242TIP3    H2 3691   5.073   0.236   5.509
 1243TIP3   OH2 3692   0.822   3.029   4.699
 1243TIP3    H1 3693   0.861   3.045   4.613
 1243TIP3    H2 3694   0.737   3.072   4.695
 1244TIP3   OH2 3695   0.832   2.940   2.711
 1244TIP3    H1 3696   0.784   2.931   2.629
 1244TIP3    H2 3697   0.770   2.983   2.770
 1245TIP3   OH2 3698   4.578   6.438   3.264
 1245TIP3    H1 3699   4.515   6.508   3.248
 1245TIP3    H2 3700   4.625   6.429   3.181
 1246TIP3   OH2 3701   5.545   5.840   5.759
 1246TIP3    H1 3702   5.589   5.802   5.835
 1246TIP3    H2 3703   5.481   5.900   5.796
 1247TIP3   OH2 3704   4.073   6.361   4.289
 1247TIP3    H1 3705   4.038   6.411   4.215
 1247TIP3    H2 3706   4.167   6.371   4.282
 1248TIP3   OH2 3707   4.349   1.068   3.240
 1248TIP3    H1 3708   4.416   1.048   3.175
 1248TIP3    H2 3709   4.339   1.163   3.236
 1249TIP3   OH2 3710   4.932   1.818   0.732
 1249TIP3    H1 3711   4.930   1.888   0.797
 1249TIP3    H2 3712   4.992   1.849   0.664
 1250TIP3   OH2 3713   5.490   0.569   2.915
 1250TIP3    H1 3714   5.512   0.661   2.931
 1250TIP3    H2 3715   5.565   0.520   2.951
 1251TIP3   OH2 3716   5.318   6.762   0.101
 1251TIP3    H1 3717   5.289   6.760   0.192
 1251TIP3    H2 3718   5.411   6.784   0.106
 1252TIP3   OH2 3719   3.874   3.423   1.297
 1252TIP3    H1 3720   3.940   3.490   1.314
 1252TIP3    H2 3721   3.793   3.459   1.334
 1253TIP3   OH2 3722   6.842   2.697   0.377
 1253TIP3    H1 3723   6.892   2.620   0.352
 1253TIP3    H2 3724   6.780   2.710   0.305
 1254TIP3   OH2 3725   0.391   4.628   1.010
 1254TIP3    H1 3726   0.470   4.582   0.983
 1254TIP3    H2 3727   0.420   4.689   1.078
 1255TIP3   OH2 3728   4.866   5.809   5.900
 1255TIP3    H1 3729   4.954   5.773   5.909
 1255TIP3    H2 3730   4.815   5.765   5.968
 1256TIP3   OH2 3731   1.028   0.233   3.970
 1256TIP3    H1 3732   1.044   0.228   3.876
 1256TIP3    H2 3733   1.104   0.280   4.005
 1257TIP3   OH2 3734   5.722   1.484   0.903
 1257TIP3    H1 3735   5.788   1.468   0.971
 1257TIP3    H2 3736   5.712   1.399   0.859
 1258TIP3   OH2 3737   1.180   1.622   2.519
 1258TIP3    H1 3738   1.217   1.680   2.587
 1258TIP3    H2 3739   1.256   1.588   2.473
 1259TIP3   OH2 3740   5.160   2.492   5.320
 1259TIP3    H1 3741   5.076   2.455   5.294
 1259TIP3    H2 3742   5.144   2.531   5.406
 1260TIP3   OH2 3743   7.069   2.979   4.292
 1260TIP3    H1 3744   7.017   2.992   4.213
 1260TIP3    H2 3745   7.106   3.065   4.311
 1261TIP3   OH2 3746   3.614   3.069   2.778
 1261TIP3    H1 3747   3.687   3.014   2.751
 1261TIP3    H2 3748   3.547   3.007   2.808
 1262TIP3   OH2 3749   3.129   2.725   1.689
 1262TIP3    H1 3750   3.164   2.643   1.654
 1262TIP3    H2 3751   3.188   2.748   1.761
 1263TIP3   OH2 3752   0.664   4.615   0.924
 1263TIP3    H1 3753   0.616   4.630   0.842
 1263TIP3    H2 3754   0.685   4.522   0.922
 1264TIP3   OH2 3755   1.669   0.341   5.881
 1264TIP3    H1 3756   1.744   0.398   5.897
 1264TIP3    H2 3757   1.630   0.329   5.968
 1265TIP3   OH2 3758   5.212   3.809   4.479
 1265TIP3    H1 3759   5.268   3.732   4.475
 1265TIP3    H2 3760   5.196   3.833   4.388
 1266TIP3   OH2 3761   3.664   0.147   1.000
 1266TIP3    H1 3762   3.734   0.084   1.014
 1266TIP3    H2 3763   3.583   0.099   1.017
 1267TIP3   OH2 3764   1.227   5.501   2.683
 1267TIP3    H1 3765   1.134   5.502   2.704
 1267TIP3    H2 3766   1.236   5.564   2.611
 1268TIP3   OH2 3767   2.179   5.741   0.044
 1268TIP3    H1 3768   2.248   5.786  -0.005
 1268TIP3    H2 3769   2.221   5.661   0.076
 1269TIP3   OH2 3770   2.152   3.722   3.401
 1269TIP3    H1 3771   2.063   3.714   3.436
 1269TIP3    H2 3772   2.200   3.650   3.440
 1270TIP3   OH2 3773   6.597   2.052   0.768
 1270TIP3    H1 3774   6.671   1.993   0.782
 1270TIP3    H2 3775   6.635   2.140   0.773
 1271TIP3   OH2 3776   7.214   3.652   5.660
 1271TIP3    H1 3777   7.132   3.691   5.631
 1271TIP3    H2 3778   7.202   3.638   5.754
 1272TIP3   OH2 3779   4.356   4.464   5.341
 1272TIP3    H1 3780   4.440   4.426   5.366
 1272TIP3    H2 3781   4.294   4.430   5.407
 1273TIP3   OH2 3782   1.629   5.682   2.736
 1273TIP3    H1 3783   1.709   5.667   2.787
 1273TIP3    H2 3784   1.571   5.609   2.759
 1274TIP3   OH2 3785   7.130   2.547   3.807
 1274TIP3    H1 3786   7.170   2.466   3.775
 1274TIP3    H2 3787   7.200   2.612   3.798
 1275TIP3   OH2 3788   3.170   5.640   2.692
 1275TIP3    H1 3789   3.140   5.620   2.781
 1275TIP3    H2 3790   3.191   5.733   2.694
 1276TIP3   OH2 3791   3.832   2.992   5.122
 1276TIP3    H1 3792   3.747   2.957   5.095
 1276TIP3    H2 3793   3.896   2.945   5.068
 1277TIP3   OH2 3794   1.750   4.797   1.788
 1277TIP3    H1 3795   1.798   4.733   1.736
 1277TIP3    H2 3796   1.662   4.798   1.749
 1278TIP3   OH2 3797   5.173   4.316   2.190
 1278TIP3    H1 3798   5.119   4.362   2.126
 1278TIP3    H2 3799   5.262   4.347   2.173
 1279TIP3   OH2 3800   0.290   4.799   4.415
 1279TIP3    H1 3801   0.244   4.806   4.498
 1279TIP3    H2 3802   0.226   4.762   4.355
 1280TIP3   OH2 3803   2.273   4.911   3.631
 1280TIP3    H1 3804   2.298   5.003   3.628
 1280TIP3    H2 3805   2.178   4.911   3.616
 1281TIP3   OH2 3806   4.333   2.536   1.707
 1281TIP3    H1 3807   4.391   2.495   1.643
 1281TIP3    H2 3808   4.337   2.478   1.783
 1282TIP3   OH2 3809   3.236   4.870   1.933
 1282TIP3    H1 3810   3.216   4.957   1.898
 1282TIP3    H2 3811   3.267   4.821   1.857
 1283TIP3   OH2 3812   6.693   1.614   0.826
 1283TIP3    H1 3813   6.711   1.558   0.901
 1283TIP3    H2 3814   6.709   1.703   0.859
 1284TIP3   OH2 3815   3.341   3.307   2.783
 1284TIP3    H1 3816   3.419   3.256   2.760
 1284TIP3    H2 3817   3.364   3.351   2.864
 1285TIP3   OH2 3818   6.937   4.958   5.660
 1285TIP3    H1 3819   6.975   4.903   5.591
 1285TIP3    H2 3820   6.843   4.945   5.651
 1286TIP3   OH2 3821   5.072   4.998   2.665
 1286TIP3    H1 3822   5.113   4.945   2.733
 1286TIP3    H2 3823   4.978   4.986   2.677
 1287TIP3   OH2 3824   0.974   5.043   3.764
 1287TIP3    H1 3825   1.055   4.994   3.754
 1287TIP3    H2 3826   0.990   5.126   3.719
 1288TIP3   OH2 3827   5.274   2.823   3.684
 1288TIP3    H1 3828   5.198   2.793   3.634
 1288TIP3    H2 3829   5.350   2.796   3.632
 1289TIP3   OH2 3830   3.020   3.390   1.808
 1289TIP3    H1 3831   2.989   3.398   1.898
 1289TIP3    H2 3832   2.940   3.385   1.756
 1290TIP3   OH2 3833   4.604   6.441   4.452
 1290TIP3    H1 3834   4.569   6.464   4.538
 1290TIP3    H2 3835   4.698   6.458   4.460
 1291TIP3   OH2 3836   1.335   5.617   4.868
 1291TIP3    H1 3837   1.292   5.552   4.924
 1291TIP3    H2 3838   1.390   5.566   4.809
 1292TIP3   OH2 3839   6.638   5.272   3.452
 1292TIP3    H1 3840   6.726   5.259   3.416
 1292TIP3    H2 3841   6.637   5.364   3.478
 1293TIP3   OH2 3842   0.766   6.746   2.489
 1293TIP3    H1 3843   0.801   6.710   2.408
 1293TIP3    H2 3844   0.778   6.841   2.481
 1294TIP3   OH2 3845   6.560   5.358   5.123
 1294TIP3    H1 3846   6.493   5.313   5.071
 1294TIP3    H2 3847   6.572   5.302   5.199
 1295TIP3   OH2 3848   2.426   2.631   4.865
 1295TIP3    H1 3849   2.456   2.706   4.813
 1295TIP3    H2 3850   2.334   2.650   4.883
 1296TIP3   OH2 3851   1.223   6.551   0.348
 1296TIP3    H1 3852   1.187   6.603   0.419
 1296TIP3    H2 3853   1.238   6.614   0.277
 1297TIP3   OH2 3854   5.706   3.421   0.426
 1297TIP3    H1 3855   5.649   3.372   0.485
 1297TIP3    H2 3856   5.769   3.465   0.484
 1298TIP3   OH2 3857   3.064   6.826   3.333
 1298TIP3    H1 3858   3.056   6.731   3.340
 1298TIP3    H2 3859   3.072   6.856   3.424
 1299TIP3   OH2 3860   2.051   2.489   5.227
 1299TIP3    H1 3861   2.076   2.411   5.276
 1299TIP3    H2 3862   1.967   2.467   5.187
 1300TIP3   OH2 3863   5.438   3.659   4.777
 1300TIP3    H1 3864   5.476   3.747   4.779
 1300TIP3    H2 3865   5.367   3.663   4.841
 1301TIP3   OH2 3866   0.570   2.609   3.255
 1301TIP3    H1 3867   0.526   2.530   3.224
 1301TIP3    H2 3868   0.616   2.643   3.178
 1302TIP3   OH2 3869   4.126   5.662   4.925
 1302TIP3    H1 3870   4.094   5.712   4.850
 1302TIP3    H2 3871   4.166   5.584   4.887
 1303TIP3   OH2 3872   5.550   1.661   4.635
 1303TIP3    H1 3873   5.571   1.653   4.728
 1303TIP3    H2 3874   5.607   1.597   4.592
 1304TIP3   OH2 3875   0.362   5.612   1.346
 1304TIP3    H1 3876   0.356   5.700   1.382
 1304TIP3    H2 3877   0.288   5.565   1.385
 1305TIP3   OH2 3878   1.974   0.716   3.544
 1305TIP3    H1 3879   1.970   0.691   3.636
 1305TIP3    H2 3880   1.982   0.632   3.497
 1306TIP3   OH2 3881   1.374   5.353   5.011
 1306TIP3    H1 3882   1.332   5.280   4.965
 1306TIP3    H2 3883   1.367   5.330   5.104
 1307TIP3   OH2 3884   1.544   0.390   4.196
 1307TIP3    H1 3885   1.532   0.440   4.277
 1307TIP3    H2 3886   1.552   0.457   4.128
 1308TIP3   OH2 3887   6.682   4.890   5.590
 1308TIP3    H1 3888   6.675   4.806   5.545
 1308TIP3    H2 3889   6.667   4.955   5.521
 1309TIP3   OH2 3890   5.730   3.812   0.991
 1309TIP3    H1 3891   5.643   3.851   0.994
 1309TIP3    H2 3892   5.746   3.783   1.081
 1310TIP3   OH2 3893   2.334   2.212   0.154
 1310TIP3    H1 3894   2.242   2.202   0.130
 1310TIP3    H2 3895   2.366   2.123   0.165
 1311TIP3   OH2 3896   2.738   4.863   5.236
 1311TIP3    H1 3897   2.783   4.945   5.216
 1311TIP3    H2 3898   2.804   4.795   5.225
 1312TIP3   OH2 3899   4.719  -0.030   4.025
 1312TIP3    H1 3900   4.742   0.034   3.957
 1312TIP3    H2 3901   4.631  -0.059   4.001
 1313TIP3   OH2 3902   2.552   3.350   3.133
 1313TIP3    H1 3903   2.476   3.405   3.115
 1313TIP3    H2 3904   2.523   3.261   3.116
 1314TIP3   OH2 3905   1.986   3.238   2.516
 1314TIP3    H1 3906   1.918   3.304   2.500
 1314TIP3    H2 3907   1.955   3.161   2.469
 1315TIP3   OH2 3908   2.687   5.647   1.867
 1315TIP3    H1 3909   2.635   5.725   1.887
 1315TIP3    H2 3910   2.651   5.579   1.924
 1316TIP3   OH2 3911   1.936   0.710   1.314
 1316TIP3    H1 3912   1.945   0.636   1.254
 1316TIP3    H2 3913   2.022   0.717   1.356
 1317TIP3   OH2 3914   0.356   5.696   2.842
 1317TIP3    H1 3915   0.438   5.695   2.793
 1317TIP3    H2 3916   0.302   5.760   2.796
 1318TIP3   OH2 3917   3.615   1.580   3.762
 1318TIP3    H1 3918   3.614   1.676   3.758
 1318TIP3    H2 3919   3.673   1.554   3.690
 1319TIP3   OH2 3920   0.548   2.425   2.804
 1319TIP3    H1 3921   0.493   2.348   2.818
 1319TIP3    H2 3922   0.566   2.458   2.893
 1320TIP3   OH2 3923   3.152   1.752   1.152
 1320TIP3    H1 3924   3.067   1.716   1.176
 1320TIP3    H2 3925   3.191   1.782   1.234
 1321TIP3   OH2 3926   2.109   3.665   2.581
 1321TIP3    H1 3927   2.018   3.661   2.552
 1321TIP3    H2 3928   2.123   3.756   2.605
 1322TIP3   OH2 3929   0.473   4.288  -0.039
 1322TIP3    H1 3930   0.437   4.269   0.047
 1322TIP3    H2 3931   0.430   4.226  -0.098
 1323TIP3   OH2 3932   1.753   2.362   3.207
 1323TIP3    H1 3933   1.788   2.450   3.224
 1323TIP3    H2 3934   1.696   2.345   3.282
 1324TIP3   OH2 3935   1.674   6.229   1.447
 1324TIP3    H1 3936   1.670   6.170   1.523
 1324TIP3    H2 3937   1.605   6.294   1.464
 1325TIP3   OH2 3938   6.239   6.453   2.283
 1325TIP3    H1 3939   6.267   6.384   2.343
 1325TIP3    H2 3940   6.147   6.432   2.263
 1326TIP3   OH2 3941   5.035   6.029   1.300
 1326TIP3    H1 3942   5.014   6.042   1.393
 1326TIP3    H2 3943   4.989   5.949   1.275
 1327TIP3   OH2 3944   1.717   0.630   0.686
 1327TIP3    H1 3945   1.650   0.562   0.687
 1327TIP3    H2 3946   1.683   0.695   0.624
 1328TIP3   OH2 3947   1.069   1.273   2.883
 1328TIP3    H1 3948   1.106   1.301   2.799
 1328TIP3    H2 3949   1.141   1.285   2.945
 1329TIP3   OH2 3950   2.899   2.707   0.727
 1329TIP3    H1 3951   2.830   2.656   0.685
 1329TIP3    H2 3952   2.942   2.754   0.656
 1330TIP3   OH2 3953   3.695   5.307   2.069
 1330TIP3    H1 3954   3.626   5.260   2.115
 1330TIP3    H2 3955   3.699   5.393   2.112
 1331TIP3   OH2 3956   5.470   0.477   0.123
 1331TIP3    H1 3957   5.409   0.414   0.084
 1331TIP3    H2 3958   5.542   0.483   0.060
 1332TIP3   OH2 3959   5.054   6.614   2.105
 1332TIP3    H1 3960   5.071   6.707   2.116
 1332TIP3    H2 3961   4.987   6.610   2.036
 1333TIP3   OH2 3962   2.836   1.715   2.805
 1333TIP3    H1 3963   2.820   1.750   2.893
 1333TIP3    H2 3964   2.775   1.642   2.798
 1334TIP3   OH2 3965   1.748   4.995   5.524
 1334TIP3    H1 3966   1.692   4.988   5.601
 1334TIP3    H2 3967   1.746   5.088   5.502
 1335TIP3   OH2 3968   6.048   3.384   5.041
 1335TIP3    H1 3969   5.974   3.412   4.988
 1335TIP3    H2 3970   6.081   3.465   5.081
 1336TIP3   OH2 3971   0.086   2.975   0.166
 1336TIP3    H1 3972   0.161   3.034   0.154
 1336TIP3    H2 3973   0.049   2.965   0.079
 1337TIP3   OH2 3974   3.260   4.144   5.428
 1337TIP3    H1 3975   3.205   4.182   5.359
 1337TIP3    H2 3976   3.327   4.210   5.445
 1338TIP3   OH2 3977   0.854   3.635   2.095
 1338TIP3    H1 3978   0.927   3.593   2.140
 1338TIP3    H2 3979   0.890   3.661   2.010
 1339TIP3   OH2 3980   1.961   6.716   3.121
 1339TIP3    H1 3981   1.921   6.795   3.083
 1339TIP3    H2 3982   2.019   6.682   3.053
 1340TIP3   OH2 3983   5.189   2.369   5.075
 1340TIP3    H1 3984   5.123   2.425   5.035
 1340TIP3    H2 3985   5.209   2.411   5.159
 1341TIP3   OH2 3986   1.830   1.918   1.548
 1341TIP3    H1 3987   1.895   1.972   1.503
 1341TIP3    H2 3988   1.812   1.964   1.630
 1342TIP3   OH2 3989   0.260   2.526   4.886
 1342TIP3    H1 3990   0.345   2.517   4.843
 1342TIP3    H2 3991   0.261   2.613   4.925
 1343TIP3   OH2 3992   5.258   0.844   4.995
 1343TIP3    H1 3993   5.315   0.820   4.922
 1343TIP3    H2 3994   5.313   0.897   5.051
 1344TIP3   OH2 3995   1.488   6.303   0.749
 1344TIP3    H1 3996   1.559   6.327   0.689
 1344TIP3    H2 3997   1.410   6.298   0.693
 1345TIP3   OH2 3998   0.327   3.828   4.355
 1345TIP3    H1 3999   0.298   3.854   4.442
 1345TIP3    H2 4000   0.316   3.906   4.301
 1346TIP3   OH2 4001   2.543   4.439   0.275
 1346TIP3    H1 4002   2.576   4.504   0.337
 1346TIP3    H2 4003   2.528   4.488   0.194
 1347TIP3   OH2 4004   6.168   3.546   5.776
 1347TIP3    H1 4005   6.251   3.556   5.728
 1347TIP3    H2 4006   6.192   3.557   5.868
 1348TIP3   OH2 4007   7.111   6.593   1.212
 1348TIP3    H1 4008   7.125   6.513   1.162
 1348TIP3    H2 4009   7.197   6.612   1.251
 1349TIP3   OH2 4010   4.329   5.229   2.488
 1349TIP3    H1 4011   4.371   5.291   2.548
 1349TIP3    H2 4012   4.271   5.177   2.543
 1350TIP3   OH2 4013   4.507   0.380   2.948
 1350TIP3    H1 4014   4.528   0.399   3.040
 1350TIP3    H2 4015   4.412   0.370   2.947
 1351TIP3   OH2 4016   6.082   5.219   5.174
 1351TIP3    H1 4017   6.144   5.245   5.243
 1351TIP3    H2 4018   6.081   5.293   5.114
 1352TIP3   OH2 4019   1.233   6.327   4.355
 1352TIP3    H1 4020   1.264   6.236   4.354
 1352TIP3    H2 4021   1.138   6.320   4.358
 1353TIP3   OH2 4022   0.914   5.500   4.852
 1353TIP3    H1 4023   0.975   5.477   4.923
 1353TIP3    H2 4024   0.917   5.596   4.848
 1354TIP3   OH2 4025   2.308   2.220   3.428
 1354TIP3    H1 4026   2.384   2.239   3.483
 1354TIP3    H2 4027   2.345   2.187   3.346
 1355TIP3   OH2 4028   5.298   5.007   1.194
 1355TIP3    H1 4029   5.348   5.087   1.212
 1355TIP3    H2 4030   5.338   4.973   1.114
 1356TIP3   OH2 4031   4.011   2.724   5.540
 1356TIP3    H1 4032   3.978   2.814   5.530
 1356TIP3    H2 4033   4.029   2.716   5.634
 1357TIP3   OH2 4034   0.112   2.732   5.736
 1357TIP3    H1 4035   0.060   2.692   5.806
 1357TIP3    H2 4036   0.120   2.664   5.670
 1358TIP3   OH2 4037   2.369   3.536   2.796
 1358TIP3    H1 4038   2.368   3.538   2.701
 1358TIP3    H2 4039   2.437   3.599   2.821
 1359TIP3   OH2 4040   0.828   3.402   1.089
 1359TIP3    H1 4041   0.902   3.463   1.085
 1359TIP3    H2 4042   0.808   3.383   0.997
 1360TIP3   OH2 4043   4.597   2.926   1.405
 1360TIP3    H1 4044   4.582   3.021   1.405
 1360TIP3    H2 4045   4.558   2.897   1.322
 1361TIP3   OH2 4046   6.304   0.559   1.071
 1361TIP3    H1 4047   6.271   0.497   1.006
 1361TIP3    H2 4048   6.238   0.560   1.140
 1362TIP3   OH2 4049   3.024   2.742   5.042
 1362TIP3    H1 4050   3.054   2.825   5.079
 1362TIP3    H2 4051   2.942   2.723   5.087
 1363TIP3   OH2 4052   6.928   1.262   4.508
 1363TIP3    H1 4053   7.012   1.252   4.463
 1363TIP3    H2 4054   6.947   1.320   4.582
 1364TIP3   OH2 4055   7.158   5.483   4.624
 1364TIP3    H1 4056   7.184   5.511   4.537
 1364TIP3    H2 4057   7.123   5.562   4.666
 1365TIP3   OH2 4058   0.728   2.172   2.771
 1365TIP3    H1 4059   0.657   2.214   2.818
 1365TIP3    H2 4060   0.756   2.101   2.828
 1366TIP3   OH2 4061   1.648   5.797   5.147
 1366TIP3    H1 4062   1.666   5.708   5.176
 1366TIP3    H2 4063   1.637   5.789   5.052
 1367TIP3   OH2 4064   1.768   6.065   1.653
 1367TIP3    H1 4065   1.852   6.110   1.660
 1367TIP3    H2 4066   1.790   5.977   1.622
 1368TIP3   OH2 4067   3.254   0.001   0.948
 1368TIP3    H1 4068   3.199   0.079   0.952
 1368TIP3    H2 4069   3.259  -0.020   0.855
 1369TIP3   OH2 4070   4.433   3.689   5.085
 1369TIP3    H1 4071   4.460   3.741   5.009
 1369TIP3    H2 4072   4.501   3.706   5.150
 1370TIP3   OH2 4073   5.772   3.581   4.564
 1370TIP3    H1 4074   5.693   3.553   4.609
 1370TIP3    H2 4075   5.828   3.504   4.561
 1371TIP3   OH2 4076   2.387   3.900   0.859
 1371TIP3    H1 4077   2.466   3.846   0.867
 1371TIP3    H2 4078   2.406   3.978   0.910
 1372TIP3   OH2 4079   1.145   0.988   5.122
 1372TIP3    H1 4080   1.139   0.896   5.097
 1372TIP3    H2 4081   1.174   1.032   5.042
 1373TIP3   OH2 4082   3.660   4.760   4.585
 1373TIP3    H1 4083   3.680   4.851   4.565
 1373TIP3    H2 4084   3.564   4.758   4.591
 1374TIP3   OH2 4085   7.206   4.056   3.516
 1374TIP3    H1 4086   7.208   4.129   3.577
 1374TIP3    H2 4087   7.294   4.019   3.520
 1375TIP3   OH2 4088   2.790   6.430   3.493
 1375TIP3    H1 4089   2.701   6.427   3.457
 1375TIP3    H2 4090   2.824   6.342   3.480
 1376TIP3   OH2 4091   0.449   4.103   3.137
 1376TIP3    H1 4092   0.451   4.015   3.099
 1376TIP3    H2 4093   0.521   4.149   3.094
 1377TIP3   OH2 4094   4.147   0.842   2.270
 1377TIP3    H1 4095   4.196   0.771   2.226
 1377TIP3    H2 4096   4.060   0.837   2.232
 1378TIP3   OH2 4097   0.324   1.878   1.536
 1378TIP3    H1 4098   0.315   1.950   1.474
 1378TIP3    H2 4099   0.242   1.878   1.585
 1379TIP3   OH2 4100   4.041   4.417   0.565
 1379TIP3    H1 4101   4.044   4.378   0.652
 1379TIP3    H2 4102   4.073   4.506   0.577
 1380TIP3   OH2 4103   2.113   0.310   1.325
 1380TIP3    H1 4104   2.190   0.353   1.363
 1380TIP3    H2 4105   2.119   0.329   1.231
 1381TIP3   OH2 4106   5.506   4.677   1.186
 1381TIP3    H1 4107   5.494   4.768   1.157
 1381TIP3    H2 4108   5.601   4.665   1.187
 1382TIP3   OH2 4109   4.747   2.514   1.079
 1382TIP3    H1 4110   4.681   2.453   1.113
 1382TIP3    H2 4111   4.699   2.596   1.068
 1383TIP3   OH2 4112   1.093   5.982   1.303
 1383TIP3    H1 4113   1.098   5.892   1.337
 1383TIP3    H2 4114   1.147   5.980   1.224
 1384TIP3   OH2 4115   1.975   2.039   0.884
 1384TIP3    H1 4116   1.904   1.976   0.894
 1384TIP3    H2 4117   1.989   2.074   0.972
 1385TIP3   OH2 4118   1.736   5.537   4.855
 1385TIP3    H1 4119   1.687   5.506   4.779
 1385TIP3    H2 4120   1.677   5.526   4.929
 1386TIP3   OH2 4121   0.046   6.467   5.220
 1386TIP3    H1 4122   0.068   6.386   5.174
 1386TIP3    H2 4123   0.041   6.442   5.312
 1387TIP3   OH2 4124   3.379   6.013   3.644
 1387TIP3    H1 4125   3.473   6.024   3.631
 1387TIP3    H2 4126   3.371   5.968   3.728
 1388TIP3   OH2 4127   5.284   6.656   3.772
 1388TIP3    H1 4128   5.291   6.750   3.791
 1388TIP3    H2 4129   5.199   6.630   3.808
 1389TIP3   OH2 4130   2.057   2.577   1.314
 1389TIP3    H1 4131   2.009   2.646   1.269
 1389TIP3    H2 4132   2.079   2.615   1.399
 1390TIP3   OH2 4133   4.567   4.783   4.651
 1390TIP3    H1 4134   4.552   4.730   4.729
 1390TIP3    H2 4135   4.490   4.840   4.645
 1391TIP3   OH2 4136   3.007   5.482   2.109
 1391TIP3    H1 4137   2.941   5.497   2.178
 1391TIP3    H2 4138   3.091   5.486   2.155
 1392TIP3   OH2 4139   1.607   4.614   0.092
 1392TIP3    H1 4140   1.548   4.639   0.020
 1392TIP3    H2 4141   1.604   4.688   0.152
 1393TIP3   OH2 4142   4.696   5.106   2.566
 1393TIP3    H1 4143   4.699   5.139   2.656
 1393TIP3    H2 4144   4.733   5.178   2.514
 1394TIP3   OH2 4145   6.209   2.293   0.580
 1394TIP3    H1 4146   6.165   2.367   0.539
 1394TIP3    H2 4147   6.294   2.328   0.607
 1395TIP3   OH2 4148   6.429   1.808   2.135
 1395TIP3    H1 4149   6.524   1.806   2.148
 1395TIP3    H2 4150   6.409   1.726   2.090
 1396TIP3   OH2 4151   5.974   0.221   2.063
 1396TIP3    H1 4152   5.930   0.182   2.139
 1396TIP3    H2 4153   5.934   0.177   1.988
 1397TIP3   OH2 4154   6.347   2.698   1.397
 1397TIP3    H1 4155   6.350   2.606   1.424
 1397TIP3    H2 4156   6.265   2.707   1.349
 1398TIP3   OH2 4157   4.202   3.846   3.745
 1398TIP3    H1 4158   4.141   3.909   3.783
 1398TIP3    H2 4159   4.283   3.859   3.794
 1399TIP3   OH2 4160   0.100   3.610   0.842
 1399TIP3    H1 4161   0.073   3.702   0.836
 1399TIP3    H2 4162   0.100   3.579   0.751
 1400TIP3   OH2 4163   3.177   5.277   5.877
 1400TIP3    H1 4164   3.208   5.320   5.956
 1400TIP3    H2 4165   3.085   5.302   5.869
 1401TIP3   OH2 4166   2.522   6.348   3.396
 1401TIP3    H1 4167   2.514   6.379   3.306
 1401TIP3    H2 4168   2.434   6.317   3.419
 1402TIP3   OH2 4169   5.758   4.991   4.072
 1402TIP3    H1 4170   5.722   4.982   3.984
 1402TIP3    H2 4171   5.728   4.912   4.118
 1403TIP3   OH2 4172   6.483   0.352   1.504
 1403TIP3    H1 4173   6.514   0.320   1.589
 1403TIP3    H2 4174   6.430   0.281   1.469
 1404TIP3   OH2 4175   5.405   1.673   4.109
 1404TIP3    H1 4176   5.323   1.623   4.104
 1404TIP3    H2 4177   5.474   1.608   4.094
 1405TIP3   OH2 4178   1.855   0.072   0.920
 1405TIP3    H1 4179   1.770   0.052   0.960
 1405TIP3    H2 4180   1.839   0.148   0.865
 1406TIP3   OH2 4181   5.329   4.861   4.467
 1406TIP3    H1 4182   5.321   4.913   4.387
 1406TIP3    H2 4183   5.352   4.926   4.535
 1407TIP3   OH2 4184   6.721   2.958   4.034
 1407TIP3    H1 4185   6.658   2.886   4.036
 1407TIP3    H2 4186   6.806   2.917   4.046
 1408TIP3   OH2 4187   4.634   2.156   4.855
 1408TIP3    H1 4188   4.575   2.094   4.812
 1408TIP3    H2 4189   4.575   2.219   4.897
 1409TIP3   OH2 4190   3.025   6.575   3.427
 1409TIP3    H1 4191   2.943   6.534   3.456
 1409TIP3    H2 4192   3.075   6.589   3.507
 1410TIP3   OH2 4193   4.470   4.565   1.559
 1410TIP3    H1 4194   4.408   4.514   1.611
 1410TIP3    H2 4195   4.415   4.624   1.508
 1411TIP3   OH2 4196   0.947   0.974   0.168
 1411TIP3    H1 4197   0.913   0.972   0.078
 1411TIP3    H2 4198   0.940   0.884   0.199
 1412TIP3   OH2 4199   2.820   0.630   4.870
 1412TIP3    H1 4200   2.860   0.707   4.910
 1412TIP3    H2 4201   2.846   0.634   4.778
 1413TIP3   OH2 4202   5.022   2.083   5.743
 1413TIP3    H1 4203   5.084   2.098   5.814
 1413TIP3    H2 4204   4.977   2.167   5.733
 1414TIP3   OH2 4205   3.499   2.702   2.220
 1414TIP3    H1 4206   3.490   2.776   2.281
 1414TIP3    H2 4207   3.565   2.646   2.259
 1415TIP3   OH2 4208   1.903   1.719   3.298
 1415TIP3    H1 4209   1.909   1.724   3.203
 1415TIP3    H2 4210   1.824   1.767   3.321
 1416TIP3   OH2 4211   1.498   0.602   2.435
 1416TIP3    H1 4212   1.519   0.584   2.526
 1416TIP3    H2 4213   1.448   0.526   2.406
 1417TIP3   OH2 4214   0.071   5.971   5.148
 1417TIP3    H1 4215   0.066   6.067   5.148
 1417TIP3    H2 4216   0.026   5.945   5.229
 1418TIP3   OH2 4217   4.081   4.196   2.797
 1418TIP3    H1 4218   4.056   4.117   2.846
 1418TIP3    H2 4219   4.176   4.201   2.806
 1419TIP3   OH2 4220   1.884   2.721   5.539
 1419TIP3    H1 4221   1.931   2.754   5.616
 1419TIP3    H2 4222   1.831   2.648   5.572
 1420TIP3   OH2 4223   3.642   4.298   4.032
 1420TIP3    H1 4224   3.736   4.303   4.014
 1420TIP3    H2 4225   3.600   4.326   3.951
 1421TIP3   OH2 4226   3.602   4.536   4.214
 1421TIP3    H1 4227   3.596   4.456   4.162
 1421TIP3    H2 4228   3.610   4.606   4.150
 1422TIP3   OH2 4229   4.865   6.259   5.322
 1422TIP3    H1 4230   4.951   6.231   5.354
 1422TIP3    H2 4231   4.849   6.342   5.367
 1423TIP3   OH2 4232   2.466   2.343   3.663
 1423TIP3    H1 4233   2.556   2.358   3.634
 1423TIP3    H2 4234   2.471   2.267   3.721
 1424TIP3   OH2 4235   6.081   3.843   0.207
 1424TIP3    H1 4236   6.002   3.795   0.184
 1424TIP3    H2 4237   6.092   3.828   0.300
 1425TIP3   OH2 4238   1.162   4.212   1.731
 1425TIP3    H1 4239   1.097   4.277   1.758
 1425TIP3    H2 4240   1.110   4.134   1.711
 1426TIP3   OH2 4241   7.126   2.220   0.631
 1426TIP3    H1 4242   7.089   2.262   0.553
 1426TIP3    H2 4243   7.074   2.141   0.642
 1427TIP3   OH2 4244   6.663   2.298   0.320
 1427TIP3    H1 4245   6.647   2.270   0.230
 1427TIP3    H2 4246   6.621   2.230   0.374
 1428TIP3   OH2 4247   6.688   2.235   3.359
 1428TIP3    H1 4248   6.643   2.286   3.427
 1428TIP3    H2 4249   6.729   2.301   3.303
 1429TIP3   OH2 4250   6.288   4.582   3.783
 1429TIP3    H1 4251   6.244   4.498   3.767
 1429TIP3    H2 4252   6.377   4.557   3.811
 1430TIP3   OH2 4253   7.146   1.924   1.244
 1430TIP3    H1 4254   7.190   1.848   1.284
 1430TIP3    H2 4255   7.169   1.997   1.302
 1431TIP3   OH2 4256   2.801   5.467   5.643
 1431TIP3    H1 4257   2.785   5.453   5.550
 1431TIP3    H2 4258   2.838   5.384   5.674
 1432TIP3   OH2 4259   0.707   2.111   4.392
 1432TIP3    H1 4260   0.679   2.061   4.468
 1432TIP3    H2 4261   0.789   2.152   4.419
 1433TIP3   OH2 4262   4.979   1.709   1.692
 1433TIP3    H1 4263   4.954   1.620   1.716
 1433TIP3    H2 4264   4.963   1.713   1.597
 1434TIP3   OH2 4265   5.070   3.371   2.497
 1434TIP3    H1 4266   4.984   3.380   2.538
 1434TIP3    H2 4267   5.122   3.444   2.533
 1435TIP3   OH2 4268   4.124   5.125   2.973
 1435TIP3    H1 4269   4.174   5.095   3.049
 1435TIP3    H2 4270   4.068   5.051   2.950
 1436TIP3   OH2 4271   2.681   4.540   2.891
 1436TIP3    H1 4272   2.737   4.514   2.817
 1436TIP3    H2 4273   2.657   4.457   2.933
 1437TIP3   OH2 4274   5.177   2.754   2.634
 1437TIP3    H1 4275   5.232   2.689   2.592
 1437TIP3    H2 4276   5.212   2.761   2.723
 1438TIP3   OH2 4277   0.749   5.617   4.358
 1438TIP3    H1 4278   0.843   5.606   4.370
 1438TIP3    H2 4279   0.734   5.597   4.266
 1439TIP3   OH2 4280   3.621   1.768   4.338
 1439TIP3    H1 4281   3.700   1.802   4.297
 1439TIP3    H2 4282   3.649   1.742   4.426
 1440TIP3   OH2 4283   1.306   3.745   1.378
 1440TIP3    H1 4284   1.267   3.698   1.452
 1440TIP3    H2 4285   1.312   3.836   1.408
 1441TIP3   OH2 4286   1.025   6.460   4.979
 1441TIP3    H1 4287   1.104   6.508   4.952
 1441TIP3    H2 4288   1.058   6.383   5.025
 1442TIP3   OH2 4289   3.703   4.131   0.090
 1442TIP3    H1 4290   3.709   4.200   0.024
 1442TIP3    H2 4291   3.780   4.077   0.076
 1443TIP3   OH2 4292   3.658   0.209   3.003
 1443TIP3    H1 4293   3.655   0.195   2.909
 1443TIP3    H2 4294   3.630   0.125   3.041
 1444TIP3   OH2 4295   0.202   1.163   4.255
 1444TIP3    H1 4296   0.139   1.165   4.183
 1444TIP3    H2 4297   0.163   1.104   4.320
 1445TIP3   OH2 4298   4.842   2.690   5.658
 1445TIP3    H1 4299   4.924   2.669   5.614
 1445TIP3    H2 4300   4.808   2.605   5.688
 1446TIP3   OH2 4301   4.181   0.058   4.315
 1446TIP3    H1 4302   4.112  -0.008   4.303
 1446TIP3    H2 4303   4.137   0.141   4.297
 1447TIP3   OH2 4304   3.462   1.129   4.840
 1447TIP3    H1 4305   3.440   1.053   4.785
 1447TIP3    H2 4306   3.538   1.101   4.891
 1448TIP3   OH2 4307   3.129   6.531   0.938
 1448TIP3    H1 4308   3.135   6.515   1.032
 1448TIP3    H2 4309   3.159   6.621   0.927
 1449TIP3   OH2 4310   2.953   2.987   5.171
 1449TIP3    H1 4311   2.891   2.946   5.231
 1449TIP3    H2 4312   2.900   3.012   5.095
 1450TIP3   OH2 4313   3.688   3.492   1.616
 1450TIP3    H1 4314   3.666   3.549   1.542
 1450TIP3    H2 4315   3.630   3.522   1.687
 1451TIP3   OH2 4316   6.252   6.686   5.572
 1451TIP3    H1 4317   6.269   6.735   5.492
 1451TIP3    H2 4318   6.189   6.740   5.620
 1452TIP3   OH2 4319   0.243   3.192   5.829
 1452TIP3    H1 4320   0.201   3.256   5.887
 1452TIP3    H2 4321   0.225   3.225   5.741
 1453TIP3   OH2 4322   2.685   1.363   3.666
 1453TIP3    H1 4323   2.748   1.297   3.635
 1453TIP3    H2 4324   2.609   1.313   3.694
 1454TIP3   OH2 4325   0.275   3.178   3.409
 1454TIP3    H1 4326   0.340   3.239   3.443
 1454TIP3    H2 4327   0.289   3.098   3.461
 1455TIP3   OH2 4328   1.904   5.162   4.184
 1455TIP3    H1 4329   1.897   5.255   4.208
 1455TIP3    H2 4330   1.941   5.163   4.095
 1456TIP3   OH2 4331   5.229   1.427   5.733
 1456TIP3    H1 4332   5.268   1.365   5.795
 1456TIP3    H2 4333   5.229   1.511   5.780
 1457TIP3   OH2 4334   2.507   2.956   1.742
 1457TIP3    H1 4335   2.470   3.044   1.729
 1457TIP3    H2 4336   2.477   2.907   1.666
 1458TIP3   OH2 4337   4.677   6.786   4.723
 1458TIP3    H1 4338   4.705   6.788   4.814
 1458TIP3    H2 4339   4.757   6.771   4.673
 1459TIP3   OH2 4340   4.574   1.254   3.658
 1459TIP3    H1 4341   4.528   1.180   3.618
 1459TIP3    H2 4342   4.525   1.331   3.628
 1460TIP3   OH2 4343   4.717   2.570   2.041
 1460TIP3    H1 4344   4.652   2.610   2.098
 1460TIP3    H2 4345   4.679   2.577   1.953
 1461TIP3   OH2 4346   1.000   2.321   1.529
 1461TIP3    H1 4347   0.977   2.399   1.479
 1461TIP3    H2 4348   1.089   2.337   1.558
 1462TIP3   OH2 4349   0.919   4.747   5.687
 1462TIP3    H1 4350   0.896   4.658   5.714
 1462TIP3    H2 4351   0.900   4.801   5.764
 1463TIP3   OH2 4352   1.906   1.268   4.589
 1463TIP3    H1 4353   1.960   1.242   4.663
 1463TIP3    H2 4354   1.851   1.338   4.622
 1464TIP3   OH2 4355   1.817   5.166   0.588
 1464TIP3    H1 4356   1.835   5.091   0.645
 1464TIP3    H2 4357   1.762   5.130   0.519
 1465TIP3   OH2 4358   2.677   1.323   1.003
 1465TIP3    H1 4359   2.712   1.397   0.953
 1465TIP3    H2 4360   2.585   1.343   1.015
 1466TIP3   OH2 4361   4.387   0.386   0.941
 1466TIP3    H1 4362   4.432   0.302   0.954
 1466TIP3    H2 4363   4.319   0.387   1.009
 1467TIP3   OH2 4364   1.161   0.355   1.885
 1467TIP3    H1 4365   1.077   0.337   1.928
 1467TIP3    H2 4366   1.216   0.391   1.955
 1468TIP3   OH2 4367   5.098   2.517   1.784
 1468TIP3    H1 4368   5.181   2.559   1.806
 1468TIP3    H2 4369   5.047   2.586   1.743
 1469TIP3   OH2 4370   5.492   1.803   3.130
 1469TIP3    H1 4371   5.448   1.730   3.174
 1469TIP3    H2 4372   5.424   1.870   3.122
 1470TIP3   OH2 4373   5.332   0.812   2.574
 1470TIP3    H1 4374   5.331   0.748   2.645
 1470TIP3    H2 4375   5.414   0.860   2.585
 1471TIP3   OH2 4376   6.768   3.599   2.992
 1471TIP3    H1 4377   6.860   3.592   3.018
 1471TIP3    H2 4378   6.767   3.577   2.899
 1472TIP3   OH2 4379   3.759   5.526   2.524
 1472TIP3    H1 4380   3.798   5.610   2.548
 1472TIP3    H2 4381   3.665   5.544   2.518
 1473TIP3   OH2 4382   1.402   2.849   5.886
 1473TIP3    H1 4383   1.384   2.862   5.793
 1473TIP3    H2 4384   1.456   2.923   5.911
 1474TIP3   OH2 4385   4.906   4.992   0.020
 1474TIP3    H1 4386   4.811   4.994   0.028
 1474TIP3    H2 4387   4.926   4.902  -0.005
 1475TIP3   OH2 4388   3.205   2.672   0.836
 1475TIP3    H1 4389   3.175   2.619   0.761
 1475TIP3    H2 4390   3.165   2.630   0.912
 1476TIP3   OH2 4391   1.555   1.005   2.988
 1476TIP3    H1 4392   1.524   1.077   2.932
 1476TIP3    H2 4393   1.548   1.039   3.077
 1477TIP3   OH2 4394   7.008   5.113   3.762
 1477TIP3    H1 4395   7.075   5.180   3.765
 1477TIP3    H2 4396   6.940   5.144   3.823
 1478TIP3   OH2 4397   3.899   0.612   3.186
 1478TIP3    H1 4398   3.844   0.542   3.150
 1478TIP3    H2 4399   3.941   0.572   3.262
 1479TIP3   OH2 4400   5.690   0.362   5.614
 1479TIP3    H1 4401   5.653   0.275   5.600
 1479TIP3    H2 4402   5.784   0.351   5.598
 1480TIP3   OH2 4403   2.914   4.043   4.992
 1480TIP3    H1 4404   2.928   4.035   4.898
 1480TIP3    H2 4405   2.998   4.074   5.026
 1481TIP3   OH2 4406   6.005   4.862   2.240
 1481TIP3    H1 4407   5.961   4.940   2.205
 1481TIP3    H2 4408   5.934   4.809   2.277
 1482TIP3   OH2 4409   3.367   2.393   5.039
 1482TIP3    H1 4410   3.273   2.410   5.043
 1482TIP3    H2 4411   3.407   2.478   5.025
 1483TIP3   OH2 4412   3.108   2.325   5.281
 1483TIP3    H1 4413   3.103   2.238   5.241
 1483TIP3    H2 4414   3.052   2.318   5.359
 1484TIP3   OH2 4415   4.780   0.495   3.642
 1484TIP3    H1 4416   4.752   0.586   3.633
 1484TIP3    H2 4417   4.787   0.463   3.552
 1485TIP3   OH2 4418   5.106   2.829   5.021
 1485TIP3    H1 4419   5.034   2.847   5.081
 1485TIP3    H2 4420   5.064   2.808   4.938
 1486TIP3   OH2 4421   6.779   2.670   1.907
 1486TIP3    H1 4422   6.755   2.661   1.999
 1486TIP3    H2 4423   6.874   2.683   1.907
 1487TIP3   OH2 4424   5.169   3.117   2.631
 1487TIP3    H1 4425   5.141   3.191   2.577
 1487TIP3    H2 4426   5.099   3.053   2.623
 1488TIP3   OH2 4427   0.017   1.234   2.213
 1488TIP3    H1 4428  -0.003   1.158   2.157
 1488TIP3    H2 4429   0.092   1.276   2.171
 1489TIP3   OH2 4430   3.028   6.216   0.172
 1489TIP3    H1 4431   3.046   6.266   0.252
 1489TIP3    H2 4432   3.114   6.198   0.135
 1490TIP3   OH2 4433   6.457   1.837   3.637
 1490TIP3    H1 4434   6.497   1.754   3.665
 1490TIP3    H2 4435   6.380   1.847   3.694
 1491TIP3   OH2 4436   1.647   4.313   0.120
 1491TIP3    H1 4437   1.695   4.253   0.063
 1491TIP3    H2 4438   1.683   4.400   0.097
 1492TIP3   OH2 4439   4.400   4.949   1.141
 1492TIP3    H1 4440   4.479   4.931   1.191
 1492TIP3    H2 4441   4.425   5.019   1.081
 1493TIP3   OH2 4442   1.737   1.028   5.660
 1493TIP3    H1 4443   1.824   1.066   5.646
 1493TIP3    H2 4444   1.713   0.991   5.575
 1494TIP3   OH2 4445   0.288   3.768   3.869
 1494TIP3    H1 4446   0.261   3.845   3.919
 1494TIP3    H2 4447   0.234   3.697   3.904
 1495TIP3   OH2 4448   1.195   5.708   5.200
 1495TIP3    H1 4449   1.128   5.776   5.209
 1495TIP3    H2 4450   1.261   5.748   5.143
 1496TIP3   OH2 4451   2.520   0.591   2.384
 1496TIP3    H1 4452   2.577   0.515   2.396
 1496TIP3    H2 4453   2.566   0.664   2.425
 1497TIP3   OH2 4454   0.362   6.420   0.706
 1497TIP3    H1 4455   0.292   6.355   0.703
 1497TIP3    H2 4456   0.318   6.500   0.736
 1498TIP3   OH2 4457   5.970   0.059   0.609
 1498TIP3    H1 4458   5.927   0.143   0.593
 1498TIP3    H2 4459   5.996   0.028   0.521
 1499TIP3   OH2 4460   6.007   1.051   5.587
 1499TIP3    H1 4461   5.976   1.133   5.548
 1499TIP3    H2 4462   5.967   0.982   5.534
 1500TIP3   OH2 4463   0.643   2.803   4.379
 1500TIP3    H1 4464   0.593   2.840   4.307
 1500TIP3    H2 4465   0.726   2.849   4.377
 1501TIP3   OH2 4466   1.473   6.669   3.635
 1501TIP3    H1 4467   1.518   6.623   3.563
 1501TIP3    H2 4468   1.528   6.654   3.711
 1502TIP3   OH2 4469   5.394   2.041   1.480
 1502TIP3    H1 4470   5.394   2.128   1.440
 1502TIP3    H2 4471   5.305   2.009   1.468
 1503TIP3   OH2 4472   4.145   4.433   3.167
 1503TIP3    H1 4473   4.086   4.495   3.126
 1503TIP3    H2 4474   4.098   4.349   3.163
 1504TIP3   OH2 4475   1.114   3.964   3.071
 1504TIP3    H1 4476   1.074   4.008   2.996
 1504TIP3    H2 4477   1.208   3.968   3.055
 1505TIP3   OH2 4478   5.544   6.286   5.402
 1505TIP3    H1 4479   5.555   6.293   5.497
 1505TIP3    H2 4480   5.550   6.193   5.384
 1506TIP3   OH2 4481   0.624   5.047   2.203
 1506TIP3    H1 4482   0.555   5.062   2.268
 1506TIP3    H2 4483   0.630   4.952   2.196
 1507TIP3   OH2 4484   0.822   5.493   2.136
 1507TIP3    H1 4485   0.826   5.528   2.224
 1507TIP3    H2 4486   0.888   5.424   2.134
 1508TIP3   OH2 4487   4.250   6.435   3.890
 1508TIP3    H1 4488   4.286   6.516   3.925
 1508TIP3    H2 4489   4.167   6.460   3.851
 1509TIP3   OH2 4490   5.923   6.265   3.499
 1509TIP3    H1 4491   5.938   6.293   3.590
 1509TIP3    H2 4492   6.010   6.264   3.459
 1510TIP3   OH2 4493   4.216   2.970   3.034
 1510TIP3    H1 4494   4.264   2.960   2.952
 1510TIP3    H2 4495   4.133   3.010   3.008
 1511TIP3   OH2 4496   0.810   2.871   1.735
 1511TIP3    H1 4497   0.788   2.892   1.826
 1511TIP3    H2 4498   0.819   2.956   1.692
 1512TIP3   OH2 4499   0.799   4.543   5.255
 1512TIP3    H1 4500   0.855   4.616   5.229
 1512TIP3    H2 4501   0.762   4.570   5.339
 1513TIP3   OH2 4502   1.057   3.647   4.685
 1513TIP3    H1 4503   0.966   3.672   4.703
 1513TIP3    H2 4504   1.055   3.551   4.680
 1514TIP3   OH2 4505   3.010   0.342   5.415
 1514TIP3    H1 4506   3.024   0.429   5.377
 1514TIP3    H2 4507   2.921   0.319   5.390
 1515TIP3   OH2 4508   3.437   4.435   1.390
 1515TIP3    H1 4509   3.464   4.527   1.385
 1515TIP3    H2 4510   3.509   4.386   1.352
 1516TIP3   OH2 4511   2.956   5.929   5.961
 1516TIP3    H1 4512   2.889   5.867   5.934
 1516TIP3    H2 4513   2.999   5.955   5.880
 1517TIP3   OH2 4514   6.048   0.984   3.350
 1517TIP3    H1 4515   6.129   1.022   3.383
 1517TIP3    H2 4516   5.979   1.027   3.399
 1518TIP3   OH2 4517   3.833   0.897   3.130
 1518TIP3    H1 4518   3.912   0.949   3.139
 1518TIP3    H2 4519   3.852   0.817   3.179
 1519TIP3   OH2 4520   3.161   3.635   4.977
 1519TIP3    H1 4521   3.223   3.646   4.905
 1519TIP3    H2 4522   3.210   3.661   5.055
 1520TIP3   OH2 4523   6.217   0.464   0.826
 1520TIP3    H1 4524   6.126   0.470   0.797
 1520TIP3    H2 4525   6.261   0.536   0.781
 1521TIP3   OH2 4526   1.657   3.602   1.351
 1521TIP3    H1 4527   1.724   3.612   1.283
 1521TIP3    H2 4528   1.651   3.687   1.392
 1522TIP3   OH2 4529   5.229   2.858   3.976
 1522TIP3    H1 4530   5.247   2.863   3.882
 1522TIP3    H2 4531   5.311   2.882   4.018
 1523TIP3   OH2 4532   1.736   1.981   3.754
 1523TIP3    H1 4533   1.828   1.956   3.753
 1523TIP3    H2 4534   1.727   2.043   3.682
 1524TIP3   OH2 4535   1.313   0.374   0.783
 1524TIP3    H1 4536   1.328   0.359   0.876
 1524TIP3    H2 4537   1.340   0.465   0.769
 1525TIP3   OH2 4538   3.933   5.901   2.986
 1525TIP3    H1 4539   3.899   5.938   3.067
 1525TIP3    H2 4540   3.985   5.825   3.015
 1526TIP3   OH2 4541   0.645   2.698   1.578
 1526TIP3    H1 4542   0.619   2.752   1.504
 1526TIP3    H2 4543   0.709   2.751   1.625
 1527TIP3   OH2 4544   5.706   6.211   4.788
 1527TIP3    H1 4545   5.621   6.239   4.820
 1527TIP3    H2 4546   5.712   6.248   4.700
 1528TIP3   OH2 4547   6.988   5.850   4.403
 1528TIP3    H1 4548   7.063   5.908   4.387
 1528TIP3    H2 4549   6.928   5.869   4.331
 1529TIP3   OH2 4550   6.631   2.693   0.161
 1529TIP3    H1 4551   6.586   2.694   0.245
 1529TIP3    H2 4552   6.569   2.735   0.100
 1530TIP3   OH2 4553   2.019   4.887   2.038
 1530TIP3    H1 4554   2.013   4.792   2.050
 1530TIP3    H2 4555   2.113   4.904   2.036
 1531TIP3   OH2 4556   6.014   5.137   1.480
 1531TIP3    H1 4557   6.022   5.137   1.575
 1531TIP3    H2 4558   5.991   5.047   1.458
 1532TIP3   OH2 4559   1.247   3.716   5.617
 1532TIP3    H1 4560   1.328   3.711   5.567
 1532TIP3    H2 4561   1.261   3.656   5.691
 1533TIP3   OH2 4562   0.969   1.570   3.364
 1533TIP3    H1 4563   0.955   1.637   3.297
 1533TIP3    H2 4564   0.988   1.490   3.315
 1534TIP3   OH2 4565   6.529   3.418   0.025
 1534TIP3    H1 4566   6.533   3.331   0.064
 1534TIP3    H2 4567   6.530   3.478   0.100
 1535TIP3   OH2 4568   1.086   5.460   5.040
 1535TIP3    H1 4569   1.083   5.387   5.102
 1535TIP3    H2 4570   1.144   5.524   5.081
 1536TIP3   OH2 4571   6.313   5.876   2.194
 1536TIP3    H1 4572   6.359   5.873   2.110
 1536TIP3    H2 4573   6.221   5.885   2.171
 1537TIP3   OH2 4574   2.242   2.220   0.945
 1537TIP3    H1 4575   2.329   2.259   0.944
 1537TIP3    H2 4576   2.184   2.292   0.919
 1538TIP3   OH2 4577   4.217   1.382   2.293
 1538TIP3    H1 4578   4.198   1.288   2.291
 1538TIP3    H2 4579   4.196   1.408   2.382
 1539TIP3   OH2 4580   4.581   2.637   1.812
 1539TIP3    H1 4581   4.524   2.577   1.763
 1539TIP3    H2 4582   4.520   2.698   1.854
 1540TIP3   OH2 4583   0.820   5.901   3.652
 1540TIP3    H1 4584   0.833   5.995   3.659
 1540TIP3    H2 4585   0.870   5.875   3.574
 1541TIP3   OH2 4586   3.049   3.561   4.057
 1541TIP3    H1 4587   3.035   3.581   3.964
 1541TIP3    H2 4588   3.143   3.575   4.070
 1542TIP3   OH2 4589   5.627   0.160   2.203
 1542TIP3    H1 4590   5.606   0.245   2.241
 1542TIP3    H2 4591   5.714   0.140   2.237
 1543TIP3   OH2 4592   0.643   5.337   0.722
 1543TIP3    H1 4593   0.684   5.416   0.760
 1543TIP3    H2 4594   0.629   5.280   0.797
 1544TIP3   OH2 4595   2.196   4.131   0.535
 1544TIP3    H1 4596   2.182   4.125   0.630
 1544TIP3    H2 4597   2.236   4.217   0.522
 1545TIP3   OH2 4598   1.164   4.067   5.238
 1545TIP3    H1 4599   1.177   4.000   5.305
 1545TIP3    H2 4600   1.176   4.021   5.155
 1546TIP3   OH2 4601   5.706   3.913   3.641
 1546TIP3    H1 4602   5.651   3.860   3.584
 1546TIP3    H2 4603   5.692   3.877   3.729
 1547TIP3   OH2 4604   5.925   1.081   4.547
 1547TIP3    H1 4605   5.888   0.994   4.561
 1547TIP3    H2 4606   5.942   1.085   4.453
 1548TIP3   OH2 4607   5.702   0.766   0.235
 1548TIP3    H1 4608   5.688   0.856   0.208
 1548TIP3    H2 4609   5.641   0.715   0.181
 1549TIP3   OH2 4610   1.994   6.325   2.787
 1549TIP3    H1 4611   2.016   6.321   2.694
 1549TIP3    H2 4612   1.955   6.239   2.806
 1550TIP3   OH2 4613   6.591   3.112   2.661
 1550TIP3    H1 4614   6.575   3.111   2.567
 1550TIP3    H2 4615   6.530   3.178   2.695
 1551TIP3   OH2 4616   2.873   5.999   4.497
 1551TIP3    H1 4617   2.882   5.963   4.585
 1551TIP3    H2 4618   2.779   5.999   4.481
 1552TIP3   OH2 4619   5.187   3.299   4.128
 1552TIP3    H1 4620   5.221   3.218   4.167
 1552TIP3    H2 4621   5.163   3.274   4.038
 1553TIP3   OH2 4622   5.728   5.727   4.819
 1553TIP3    H1 4623   5.684   5.810   4.840
 1553TIP3    H2 4624   5.704   5.668   4.890
 1554TIP3   OH2 4625   3.925   6.406   2.530
 1554TIP3    H1 4626   3.932   6.375   2.620
 1554TIP3    H2 4627   3.914   6.500   2.538
 1555TIP3   OH2 4628   0.394   4.245   1.310
 1555TIP3    H1 4629   0.356   4.184   1.246
 1555TIP3    H2 4630   0.426   4.188   1.380
 1556TIP3   OH2 4631   3.894   6.222   0.277
 1556TIP3    H1 4632   3.932   6.155   0.334
 1556TIP3    H2 4633   3.877   6.176   0.195
 1557TIP3   OH2 4634   0.269   5.124   5.335
 1557TIP3    H1 4635   0.354   5.159   5.307
 1557TIP3    H2 4636   0.264   5.039   5.293
 1558TIP3   OH2 4637   3.253   3.106   2.409
 1558TIP3    H1 4638   3.169   3.120   2.454
 1558TIP3    H2 4639   3.228   3.077   2.321
 1559TIP3   OH2 4640   6.025   0.957   2.045
 1559TIP3    H1 4641   6.050   0.921   1.959
 1559TIP3    H2 4642   5.930   0.967   2.040
 1560TIP3   OH2 4643   2.212   0.307   5.113
 1560TIP3    H1 4644   2.178   0.223   5.142
 1560TIP3    H2 4645   2.149   0.371   5.145
 1561TIP3   OH2 4646   3.386   2.059   2.881
 1561TIP3    H1 4647   3.319   2.123   2.856
 1561TIP3    H2 4648   3.464   2.113   2.897
 1562TIP3   OH2 4649   0.440   3.596   1.717
 1562TIP3    H1 4650   0.480   3.510   1.702
 1562TIP3    H2 4651   0.515   3.654   1.732
 1563TIP3   OH2 4652   5.003   5.938   0.389
 1563TIP3    H1 4653   5.086   5.905   0.354
 1563TIP3    H2 4654   4.941   5.929   0.317
 1564TIP3   OH2 4655   2.687   6.056   5.322
 1564TIP3    H1 4656   2.681   6.007   5.404
 1564TIP3    H2 4657   2.738   6.134   5.344
 1565TIP3   OH2 4658   4.428   6.333   1.046
 1565TIP3    H1 4659   4.371   6.327   0.970
 1565TIP3    H2 4660   4.378   6.293   1.117
 1566TIP3   OH2 4661   4.800   5.601   4.985
 1566TIP3    H1 4662   4.861   5.638   5.048
 1566TIP3    H2 4663   4.852   5.538   4.935
 1567TIP3   OH2 4664   3.973   4.434   1.871
 1567TIP3    H1 4665   4.060   4.397   1.885
 1567TIP3    H2 4666   3.971   4.454   1.777
 1568TIP3   OH2 4667   4.812   5.397   3.209
 1568TIP3    H1 4668   4.749   5.467   3.187
 1568TIP3    H2 4669   4.856   5.378   3.127
 1569TIP3   OH2 4670   5.001   2.316   0.141
 1569TIP3    H1 4671   4.980   2.344   0.052
 1569TIP3    H2 4672   5.095   2.334   0.150
 1570TIP3   OH2 4673   5.967   6.219   4.891
 1570TIP3    H1 4674   5.988   6.225   4.797
 1570TIP3    H2 4675   5.873   6.203   4.893
 1571TIP3   OH2 4676   1.197   5.177   1.126
 1571TIP3    H1 4677   1.140   5.240   1.172
 1571TIP3    H2 4678   1.282   5.186   1.169
 1572TIP3   OH2 4679   2.012   0.971   0.537
 1572TIP3    H1 4680   2.107   0.975   0.551
 1572TIP3    H2 4681   1.983   1.061   0.546
 1573TIP3   OH2 4682   1.225   4.676   5.370
 1573TIP3    H1 4683   1.170   4.598   5.382
 1573TIP3    H2 4684   1.234   4.684   5.275
 1574TIP3   OH2 4685   0.734   4.975   0.858
 1574TIP3    H1 4686   0.786   4.978   0.938
 1574TIP3    H2 4687   0.797   4.985   0.787
 1575TIP3   OH2 4688   5.271   5.363   5.670
 1575TIP3    H1 4689   5.317   5.279   5.662
 1575TIP3    H2 4690   5.328   5.416   5.726
 1576TIP3   OH2 4691   4.409   0.694   3.810
 1576TIP3    H1 4692   4.399   0.642   3.890
 1576TIP3    H2 4693   4.348   0.653   3.748
 1577TIP3   OH2 4694   7.015   5.605   3.858
 1577TIP3    H1 4695   6.985   5.667   3.924
 1577TIP3    H2 4696   7.088   5.649   3.815
 1578TIP3   OH2 4697   6.277   1.388   5.805
 1578TIP3    H1 4698   6.254   1.471   5.845
 1578TIP3    H2 4699   6.194   1.349   5.779
 1579TIP3   OH2 4700   0.827   3.762   1.205
 1579TIP3    H1 4701   0.761   3.741   1.138
 1579TIP3    H2 4702   0.892   3.692   1.197
 1580TIP3   OH2 4703   3.183   6.507   3.668
 1580TIP3    H1 4704   3.236   6.428   3.679
 1580TIP3    H2 4705   3.219   6.569   3.731
 1581TIP3   OH2 4706   0.406   2.981   4.428
 1581TIP3    H1 4707   0.457   3.061   4.418
 1581TIP3    H2 4708   0.427   2.951   4.517
 1582TIP3   OH2 4709   3.466   1.952   0.637
 1582TIP3    H1 4710   3.560   1.969   0.631
 1582TIP3    H2 4711   3.447   1.956   0.730
 1583TIP3   OH2 4712   0.632   2.298   5.159
 1583TIP3    H1 4713   0.548   2.264   5.189
 1583TIP3    H2 4714   0.688   2.296   5.237
 1584TIP3   OH2 4715   2.603   5.687   3.597
 1584TIP3    H1 4716   2.583   5.770   3.553
 1584TIP3    H2 4717   2.653   5.712   3.674
 1585TIP3   OH2 4718   2.941   4.126   0.240
 1585TIP3    H1 4719   2.932   4.215   0.275
 1585TIP3    H2 4720   3.012   4.087   0.290
 1586TIP3   OH2 4721   5.822   6.705   0.624
 1586TIP3    H1 4722   5.891   6.771   0.635
 1586TIP3    H2 4723   5.769   6.713   0.704
 1587TIP3   OH2 4724   1.712   1.964   3.120
 1587TIP3    H1 4725   1.625   1.995   3.143
 1587TIP3    H2 4726   1.706   1.869   3.127
 1588TIP3   OH2 4727   6.270   4.689   4.463
 1588TIP3    H1 4728   6.348   4.744   4.450
 1588TIP3    H2 4729   6.305   4.600   4.473
 1589TIP3   OH2 4730   1.538   0.029   0.584
 1589TIP3    H1 4731   1.536   0.040   0.679
 1589TIP3    H2 4732   1.462  -0.026   0.565
 1590TIP3   OH2 4733   0.950   0.564   3.308
 1590TIP3    H1 4734   0.993   0.553   3.223
 1590TIP3    H2 4735   0.928   0.657   3.312
 1591TIP3   OH2 4736   3.846   1.858   3.566
 1591TIP3    H1 4737   3.806   1.859   3.653
 1591TIP3    H2 4738   3.883   1.945   3.556
 1592TIP3   OH2 4739   1.138   6.043   3.494
 1592TIP3    H1 4740   1.100   6.064   3.579
 1592TIP3    H2 4741   1.231   6.063   3.503
 1593TIP3   OH2 4742   3.613   2.721   3.560
 1593TIP3    H1 4743   3.634   2.674   3.641
 1593TIP3    H2 4744   3.551   2.665   3.514
 1594TIP3   OH2 4745   2.871   6.343   4.570
 1594TIP3    H1 4746   2.940   6.298   4.521
 1594TIP3    H2 4747   2.798   6.280   4.572
 1595TIP3   OH2 4748   1.921   3.492   4.017
 1595TIP3    H1 4749   1.988   3.483   3.950
 1595TIP3    H2 4750   1.921   3.408   4.063
 1596TIP3   OH2 4751   6.041   4.694   2.531
 1596TIP3    H1 4752   6.028   4.786   2.508
 1596TIP3    H2 4753   6.000   4.685   2.617
 1597TIP3   OH2 4754   3.452   1.544   4.215
 1597TIP3    H1 4755   3.495   1.613   4.266
 1597TIP3    H2 4756   3.495   1.548   4.129
 1598TIP3   OH2 4757   2.297   0.321   0.432
 1598TIP3    H1 4758   2.291   0.228   0.456
 1598TIP3    H2 4759   2.391   0.337   0.425
 1599TIP3   OH2 4760   1.012   4.278   1.238
 1599TIP3    H1 4761   0.972   4.251   1.155
 1599TIP3    H2 4762   1.080   4.214   1.254
 1600TIP3   OH2 4763   4.843   3.963   0.484
 1600TIP3    H1 4764   4.904   3.889   0.475
 1600TIP3    H2 4765   4.798   3.946   0.566
 1601TIP3   OH2 4766   4.308   2.300   2.278
 1601TIP3    H1 4767   4.357   2.238   2.332
 1601TIP3    H2 4768   4.304   2.380   2.331
 1602TIP3   OH2 4769   0.183   2.665   0.496
 1602TIP3    H1 4770   0.180   2.570   0.505
 1602TIP3    H2 4771   0.162   2.681   0.404
 1603TIP3   OH2 4772   5.764   6.252   1.099
 1603TIP3    H1 4773   5.757   6.181   1.163
 1603TIP3    H2 4774   5.677   6.293   1.100
 1604TIP3   OH2 4775   6.957   3.354   3.906
 1604TIP3    H1 4776   6.919   3.442   3.905
 1604TIP3    H2 4777   6.882   3.297   3.921
 1605TIP3   OH2 4778   5.407   3.602   4.487
 1605TIP3    H1 4779   5.427   3.536   4.421
 1605TIP3    H2 4780   5.385   3.552   4.566
 1606TIP3   OH2 4781   2.440   6.016   5.638
 1606TIP3    H1 4782   2.370   6.026   5.574
 1606TIP3    H2 4783   2.399   5.971   5.712
 1607TIP3   OH2 4784   5.947   1.679   4.264
 1607TIP3    H1 4785   5.862   1.719   4.282
 1607TIP3    H2 4786   6.010   1.735   4.309
 1608TIP3   OH2 4787   5.341   6.761   5.566
 1608TIP3    H1 4788   5.341   6.850   5.602
 1608TIP3    H2 4789   5.349   6.704   5.642
 1609TIP3   OH2 4790   3.889   5.276   1.405
 1609TIP3    H1 4791   3.955   5.254   1.339
 1609TIP3    H2 4792   3.915   5.363   1.436
 1610TIP3   OH2 4793   0.716   4.282   3.086
 1610TIP3    H1 4794   0.751   4.205   3.129
 1610TIP3    H2 4795   0.777   4.352   3.108
 1611TIP3   OH2 4796   5.960   0.948   4.291
 1611TIP3    H1 4797   6.024   0.906   4.234
 1611TIP3    H2 4798   5.905   0.999   4.232
 1612TIP3   OH2 4799   5.317   0.843   1.069
 1612TIP3    H1 4800   5.401   0.816   1.032
 1612TIP3    H2 4801   5.312   0.799   1.153
 1613TIP3   OH2 4802   0.904   3.219   0.147
 1613TIP3    H1 4803   0.962   3.180   0.081
 1613TIP3    H2 4804   0.896   3.152   0.215
 1614TIP3   OH2 4805   2.934   5.173   1.619
 1614TIP3    H1 4806   2.889   5.100   1.577
 1614TIP3    H2 4807   2.943   5.147   1.710
 1615TIP3   OH2 4808   3.736   1.965   0.610
 1615TIP3    H1 4809   3.792   1.894   0.642
 1615TIP3    H2 4810   3.788   2.044   0.622
 1616TIP3   OH2 4811   1.082   6.571   5.567
 1616TIP3    H1 4812   1.014   6.535   5.624
 1616TIP3    H2 4813   1.154   6.593   5.627
 1617TIP3   OH2 4814   0.662   1.210   4.009
 1617TIP3    H1 4815   0.646   1.245   4.096
 1617TIP3    H2 4816   0.695   1.121   4.024
 1618TIP3   OH2 4817   6.536   4.041   2.793
 1618TIP3    H1 4818   6.595   4.117   2.783
 1618TIP3    H2 4819   6.450   4.076   2.772
 1619TIP3   OH2 4820   6.007   0.428   4.212
 1619TIP3    H1 4821   5.965   0.511   4.190
 1619TIP3    H2 4822   6.072   0.450   4.278
 1620TIP3   OH2 4823   2.324   2.450   0.383
 1620TIP3    H1 4824   2.282   2.367   0.405
 1620TIP3    H2 4825   2.251   2.508   0.358
 1621TIP3   OH2 4826   6.919   3.612   2.732
 1621TIP3    H1 4827   6.903   3.582   2.643
 1621TIP3    H2 4828   6.870   3.694   2.739
 1622TIP3   OH2 4829   6.710   4.391   1.248
 1622TIP3    H1 4830   6.764   4.439   1.185
 1622TIP3    H2 4831   6.715   4.300   1.219
 1623TIP3   OH2 4832   6.596   4.618   0.915
 1623TIP3    H1 4833   6.550   4.542   0.949
 1623TIP3    H2 4834   6.612   4.598   0.823
 1624TIP3   OH2 4835   5.637   0.925   3.384
 1624TIP3    H1 4836   5.596   0.974   3.313
 1624TIP3    H2 4837   5.567   0.911   3.448
 1625TIP3   OH2 4838   0.583   4.524   4.321
 1625TIP3    H1 4839   0.576   4.487   4.409
 1625TIP3    H2 4840   0.609   4.615   4.335
 1626TIP3   OH2 4841   3.428   2.393   2.729
 1626TIP3    H1 4842   3.400   2.464   2.670
 1626TIP3    H2 4843   3.347   2.363   2.769
 1627TIP3   OH2 4844   3.207   1.713   4.267
 1627TIP3    H1 4845   3.279   1.651   4.262
 1627TIP3    H2 4846   3.130   1.659   4.283
 1628TIP3   OH2 4847   6.212   4.624   2.811
 1628TIP3    H1 4848   6.118   4.616   2.829
 1628TIP3    H2 4849   6.220   4.705   2.762
 1629TIP3   OH2 4850   0.650   5.701   3.467
 1629TIP3    H1 4851   0.733   5.738   3.498
 1629TIP3    H2 4852   0.671   5.612   3.441
 1630TIP3   OH2 4853   1.307   6.278   0.547
 1630TIP3    H1 4854   1.359   6.233   0.480
 1630TIP3    H2 4855   1.249   6.211   0.582
 1631TIP3   OH2 4856   5.896   6.011   0.562
 1631TIP3    H1 4857   5.908   5.931   0.612
 1631TIP3    H2 4858   5.893   5.982   0.471
 1632TIP3   OH2 4859   2.641   4.098   5.331
 1632TIP3    H1 4860   2.727   4.134   5.352
 1632TIP3    H2 4861   2.590   4.173   5.302
 1633TIP3   OH2 4862   2.304   4.878   4.671
 1633TIP3    H1 4863   2.373   4.812   4.679
 1633TIP3    H2 4864   2.320   4.939   4.743
 1634TIP3   OH2 4865   0.683   5.077   5.418
 1634TIP3    H1 4866   0.730   5.089   5.500
 1634TIP3    H2 4867   0.628   5.155   5.410
 1635TIP3   OH2 4868   2.309   6.172   0.690
 1635TIP3    H1 4869   2.402   6.151   0.692
 1635TIP3    H2 4870   2.288   6.198   0.780
 1636TIP3   OH2 4871   0.845   0.587   2.580
 1636TIP3    H1 4872   0.893   0.540   2.648
 1636TIP3    H2 4873   0.853   0.532   2.502
 1637TIP3   OH2 4874   1.799   3.174   2.835
 1637TIP3    H1 4875   1.871   3.205   2.889
 1637TIP3    H2 4876   1.836   3.103   2.783
 1638TIP3   OH2 4877   0.803   0.550   0.746
 1638TIP3    H1 4878   0.722   0.499   0.753
 1638TIP3    H2 4879   0.863   0.492   0.699
 1639TIP3   OH2 4880   4.690   4.861   3.874
 1639TIP3    H1 4881   4.753   4.914   3.825
 1639TIP3    H2 4882   4.740   4.826   3.947
 1640TIP3   OH2 4883   4.663   6.434   1.595
 1640TIP3    H1 4884   4.674   6.460   1.503
 1640TIP3    H2 4885   4.745   6.460   1.637
 1641TIP3   OH2 4886   0.379   5.899   0.195
 1641TIP3    H1 4887   0.355   5.966   0.258
 1641TIP3    H2 4888   0.330   5.921   0.116
 1642TIP3   OH2 4889   1.324   3.406   4.694
 1642TIP3    H1 4890   1.373   3.344   4.640
 1642TIP3    H2 4891   1.316   3.362   4.779
 1643TIP3   OH2 4892   2.954   3.452   4.775
 1643TIP3    H1 4893   2.992   3.455   4.863
 1643TIP3    H2 4894   2.883   3.517   4.777
 1644TIP3   OH2 4895   6.050   6.773   5.052
 1644TIP3    H1 4896   6.037   6.850   4.997
 1644TIP3    H2 4897   6.074   6.703   4.991
 1645TIP3   OH2 4898   4.453   0.004   5.558
 1645TIP3    H1 4899   4.531   0.055   5.536
 1645TIP3    H2 4900   4.445   0.012   5.653
 1646TIP3   OH2 4901   2.793   2.606   5.631
 1646TIP3    H1 4902   2.856   2.678   5.638
 1646TIP3    H2 4903   2.844   2.528   5.653
 1647TIP3   OH2 4904   2.456   6.249   1.632
 1647TIP3    H1 4905   2.438   6.248   1.538
 1647TIP3    H2 4906   2.499   6.165   1.649
 1648TIP3   OH2 4907   6.962   6.098   1.694
 1648TIP3    H1 4908   6.962   6.038   1.620
 1648TIP3    H2 4909   6.991   6.045   1.768
 1649TIP3   OH2 4910   6.257   6.086   1.784
 1649TIP3    H1 4911   6.352   6.092   1.791
 1649TIP3    H2 4912   6.224   6.122   1.866
 1650TIP3   OH2 4913   5.257   4.205   1.661
 1650TIP3    H1 4914   5.340   4.239   1.694
 1650TIP3    H2 4915   5.255   4.232   1.569
 1651TIP3   OH2 4916   3.492   2.322   2.108
 1651TIP3    H1 4917   3.398   2.336   2.097
 1651TIP3    H2 4918   3.505   2.319   2.203
 1652TIP3   OH2 4919   6.117   1.934   5.713
 1652TIP3    H1 4920   6.093   2.008   5.657
 1652TIP3    H2 4921   6.203   1.957   5.748
 1653TIP3   OH2 4922   5.623   3.809   1.325
 1653TIP3    H1 4923   5.688   3.877   1.342
 1653TIP3    H2 4924   5.661   3.730   1.362
 1654TIP3   OH2 4925   6.622   2.024   2.012
 1654TIP3    H1 4926   6.560   2.060   2.075
 1654TIP3    H2 4927   6.702   2.076   2.025
 1655TIP3   OH2 4928   0.391   6.458   5.074
 1655TIP3    H1 4929   0.364   6.368   5.061
 1655TIP3    H2 4930   0.394   6.470   5.169
 1656TIP3   OH2 4931   3.047   1.496   4.331
 1656TIP3    H1 4932   2.989   1.432   4.289
 1656TIP3    H2 4933   3.006   1.514   4.415
 1657TIP3   OH2 4934   5.669   6.605   4.663
 1657TIP3    H1 4935   5.661   6.654   4.582
 1657TIP3    H2 4936   5.616   6.654   4.726
 1658TIP3   OH2 4937   3.766   3.401   4.209
 1658TIP3    H1 4938   3.807   3.398   4.122
 1658TIP3    H2 4939   3.699   3.468   4.201
 1659TIP3   OH2 4940   0.346   5.609   4.605
 1659TIP3    H1 4941   0.393   5.629   4.525
 1659TIP3    H2 4942   0.402   5.640   4.675
 1660TIP3   OH2 4943   3.050   1.512   2.741
 1660TIP3    H1 4944   2.977   1.571   2.761
 1660TIP3    H2 4945   3.128   1.558   2.771
 1661TIP3   OH2 4946   0.707   4.299   3.736
 1661TIP3    H1 4947   0.780   4.238   3.722
 1661TIP3    H2 4948   0.656   4.259   3.807
 1662TIP3   OH2 4949   5.046   5.463   4.550
 1662TIP3    H1 4950   4.957   5.433   4.531
 1662TIP3    H2 4951   5.042   5.558   4.541
 1663TIP3   OH2 4952   6.982   5.695   4.638
 1663TIP3    H1 4953   6.949   5.758   4.702
 1663TIP3    H2 4954   6.969   5.738   4.553
 1664TIP3   OH2 4955   2.343   1.775   0.619
 1664TIP3    H1 4956   2.272   1.832   0.589
 1664TIP3    H2 4957   2.318   1.687   0.590
 1665TIP3   OH2 4958   0.054   1.040   3.217
 1665TIP3    H1 4959   0.127   1.034   3.154
 1665TIP3    H2 4960   0.094   1.026   3.302
 1666TIP3   OH2 4961   1.434   4.994   0.860
 1666TIP3    H1 4962   1.383   4.956   0.932
 1666TIP3    H2 4963   1.477   4.919   0.819
 1667TIP3   OH2 4964   5.456   3.195   0.049
 1667TIP3    H1 4965   5.454   3.107   0.013
 1667TIP3    H2 4966   5.371   3.232   0.026
 1668TIP3   OH2 4967   2.616   6.555   2.103
 1668TIP3    H1 4968   2.664   6.480   2.138
 1668TIP3    H2 4969   2.670   6.585   2.029
 1669TIP3   OH2 4970   1.532   0.588   1.652
 1669TIP3    H1 4971   1.591   0.525   1.693
 1669TIP3    H2 4972   1.589   0.653   1.612
 1670TIP3   OH2 4973   4.513   2.315   1.773
 1670TIP3    H1 4974   4.584   2.251   1.770
 1670TIP3    H2 4975   4.493   2.325   1.866
 1671TIP3   OH2 4976   1.046   2.740   4.231
 1671TIP3    H1 4977   1.132   2.702   4.211
 1671TIP3    H2 4978   1.055   2.832   4.206
 1672TIP3   OH2 4979   5.560   5.349   3.343
 1672TIP3    H1 4980   5.494   5.311   3.285
 1672TIP3    H2 4981   5.640   5.349   3.291
 1673TIP3   OH2 4982   2.760   1.391   2.082
 1673TIP3    H1 4983   2.729   1.424   1.997
 1673TIP3    H2 4984   2.680   1.368   2.129
 1674TIP3   OH2 4985   0.211   2.198   1.657
 1674TIP3    H1 4986   0.230   2.277   1.709
 1674TIP3    H2 4987   0.293   2.149   1.658
 1675TIP3   OH2 4988   2.510   1.073   4.909
 1675TIP3    H1 4989   2.499   1.167   4.896
 1675TIP3    H2 4990   2.605   1.061   4.914
 1676TIP3   OH2 4991   2.041   2.437   5.543
 1676TIP3    H1 4992   2.075   2.525   5.557
 1676TIP3    H2 4993   2.106   2.394   5.488
 1677TIP3   OH2 4994   5.098   2.049   1.780
 1677TIP3    H1 4995   5.090   1.959   1.748
 1677TIP3    H2 4996   5.188   2.074   1.758
 1678TIP3   OH2 4997   2.344   2.090   1.344
 1678TIP3    H1 4998   2.344   2.184   1.359
 1678TIP3    H2 4999   2.318   2.052   1.428
 1679TIP3   OH2 5000   2.246   3.490   0.416
 1679TIP3    H1 5001   2.306   3.533   0.476
 1679TIP3    H2 5002   2.248   3.544   0.337
 1680TIP3   OH2 5003   2.841   2.851   1.180
 1680TIP3    H1 5004   2.837   2.801   1.098
 1680TIP3    H2 5005   2.906   2.804   1.232
 1681TIP3   OH2 5006   5.171   1.084   5.288
 1681TIP3    H1 5007   5.136   1.035   5.363
 1681TIP3    H2 5008   5.143   1.174   5.303
 1682TIP3   OH2 5009   4.849   6.383   2.383
 1682TIP3    H1 5010   4.841   6.309   2.443
 1682TIP3    H2 5011   4.871   6.345   2.299
 1683TIP3   OH2 5012   2.626   1.998   5.655
 1683TIP3    H1 5013   2.563   2.066   5.630
 1683TIP3    H2 5014   2.575   1.917   5.655
 1684TIP3   OH2 5015   5.781   2.492   0.412
 1684TIP3    H1 5016   5.781   2.510   0.506
 1684TIP3    H2 5017   5.814   2.403   0.405
 1685TIP3   OH2 5018   4.776   4.563   0.303
 1685TIP3    H1 5019   4.797   4.540   0.394
 1685TIP3    H2 5020   4.700   4.508   0.283
 1686TIP3   OH2 5021   4.355   6.801   4.750
 1686TIP3    H1 5022   4.435   6.847   4.725
 1686TIP3    H2 5023   4.350   6.727   4.689
 1687TIP3   OH2 5024   6.962   3.939   3.525
 1687TIP3    H1 5025   7.049   3.965   3.497
 1687TIP3    H2 5026   6.907   3.949   3.448
 1688TIP3   OH2 5027   3.404   5.005   3.192
 1688TIP3    H1 5028   3.468   4.939   3.167
 1688TIP3    H2 5029   3.381   5.049   3.110
 1689TIP3   OH2 5030   2.096   1.741   0.979
 1689TIP3    H1 5031   2.095   1.744   0.884
 1689TIP3    H2 5032   2.118   1.831   1.005
 1690TIP3   OH2 5033   2.009   4.172   1.959
 1690TIP3    H1 5034   2.001   4.124   2.041
 1690TIP3    H2 5035   1.946   4.244   1.967
 1691TIP3   OH2 5036   0.375   3.985   2.614
 1691TIP3    H1 5037   0.320   3.968   2.538
 1691TIP3    H2 5038   0.322   4.044   2.669
 1692TIP3   OH2 5039   5.853   3.278   3.196
 1692TIP3    H1 5040   5.831   3.227   3.118
 1692TIP3    H2 5041   5.802   3.238   3.267
 1693TIP3   OH2 5042   3.794   1.666   1.184
 1693TIP3    H1 5043   3.799   1.640   1.092
 1693TIP3    H2 5044   3.713   1.716   1.191
 1694TIP3   OH2 5045   1.911   6.072   2.823
 1694TIP3    H1 5046   1.836   6.052   2.767
 1694TIP3    H2 5047   1.974   6.003   2.805
 1695TIP3   OH2 5048   7.062   3.622   2.070
 1695TIP3    H1 5049   7.120   3.579   2.132
 1695TIP3    H2 5050   7.105   3.706   2.050
 1696TIP3   OH2 5051   2.274   3.860   5.678
 1696TIP3    H1 5052   2.224   3.820   5.749
 1696TIP3    H2 5053   2.208   3.900   5.622
 1697TIP3   OH2 5054   5.985   6.481   2.154
 1697TIP3    H1 5055   6.020   6.500   2.067
 1697TIP3    H2 5056   5.890   6.479   2.141
 1698TIP3   OH2 5057   6.616  -0.025   4.275
 1698TIP3    H1 5058   6.537  -0.027   4.329
 1698TIP3    H2 5059   6.628   0.068   4.252
 1699TIP3   OH2 5060   3.128   0.013   3.961
 1699TIP3    H1 5061   3.075  -0.013   4.037
 1699TIP3    H2 5062   3.065   0.051   3.900
 1700TIP3   OH2 5063   3.962   1.869   1.300
 1700TIP3    H1 5064   3.942   1.949   1.250
 1700TIP3    H2 5065   3.883   1.816   1.293
 1701TIP3   OH2 5066   4.267   2.163   5.915
 1701TIP3    H1 5067   4.255   2.255   5.938
 1701TIP3    H2 5068   4.305   2.165   5.827
 1702TIP3   OH2 5069   5.010   0.044   2.388
 1702TIP3    H1 5070   5.053  -0.015   2.450
 1702TIP3    H2 5071   5.057   0.031   2.306
 1703TIP3   OH2 5072   0.397   0.523   1.440
 1703TIP3    H1 5073   0.390   0.614   1.470
 1703TIP3    H2 5074   0.435   0.529   1.353
 1704TIP3   OH2 5075   5.117   3.234   3.873
 1704TIP3    H1 5076   5.078   3.292   3.808
 1704TIP3    H2 5077   5.096   3.146   3.844
 1705TIP3   OH2 5078   2.190   0.508   1.787
 1705TIP3    H1 5079   2.282   0.485   1.798
 1705TIP3    H2 5080   2.147   0.475   1.866
 1706TIP3   OH2 5081   7.147   0.027   1.039
 1706TIP3    H1 5082   7.121   0.086   0.968
 1706TIP3    H2 5083   7.070  -0.027   1.054
 1707TIP3   OH2 5084   1.045   0.668   4.834
 1707TIP3    H1 5085   1.092   0.751   4.825
 1707TIP3    H2 5086   1.096   0.606   4.783
 1708TIP3   OH2 5087   5.888   4.001   0.804
 1708TIP3    H1 5088   5.849   3.914   0.812
 1708TIP3    H2 5089   5.823   4.052   0.755
 1709TIP3   OH2 5090   3.173   4.980   3.841
 1709TIP3    H1 5091   3.229   5.003   3.767
 1709TIP3    H2 5092   3.150   5.064   3.880
 1710TIP3   OH2 5093   4.690   1.106   0.912
 1710TIP3    H1 5094   4.777   1.103   0.873
 1710TIP3    H2 5095   4.700   1.160   0.990
 1711TIP3   OH2 5096   6.827   3.990   3.297
 1711TIP3    H1 5097   6.732   3.996   3.302
 1711TIP3    H2 5098   6.845   3.964   3.207
 1712TIP3   OH2 5099   2.820   5.710   0.088
 1712TIP3    H1 5100   2.897   5.664   0.120
 1712TIP3    H2 5101   2.853   5.797   0.063
 1713TIP3   OH2 5102   4.372   4.993   0.245
 1713TIP3    H1 5103   4.353   4.907   0.207
 1713TIP3    H2 5104   4.286   5.028   0.268
 1714TIP3   OH2 5105   2.526   4.208   1.282
 1714TIP3    H1 5106   2.524   4.114   1.264
 1714TIP3    H2 5107   2.497   4.248   1.200
 1715TIP3   OH2 5108   6.705   1.699   3.338
 1715TIP3    H1 5109   6.731   1.673   3.249
 1715TIP3    H2 5110   6.787   1.696   3.388
 1716TIP3   OH2 5111   0.230   0.657   2.090
 1716TIP3    H1 5112   0.325   0.650   2.084
 1716TIP3    H2 5113   0.213   0.683   2.180
 1717TIP3   OH2 5114   2.221   5.285   1.038
 1717TIP3    H1 5115   2.169   5.316   1.112
 1717TIP3    H2 5116   2.175   5.318   0.961
 1718TIP3   OH2 5117   0.566   6.832   5.706
 1718TIP3    H1 5118   0.536   6.884   5.780
 1718TIP3    H2 5119   0.522   6.748   5.715
 1719TIP3   OH2 5120   5.478   2.269   0.534
 1719TIP3    H1 5121   5.520   2.199   0.485
 1719TIP3    H2 5122   5.506   2.255   0.624
 1720TIP3   OH2 5123   6.109   5.610   3.954
 1720TIP3    H1 5124   6.109   5.541   4.021
 1720TIP3    H2 5125   6.096   5.563   3.872
 1721TIP3   OH2 5126   3.572   3.192   4.654
 1721TIP3    H1 5127   3.582   3.099   4.637
 1721TIP3    H2 5128   3.480   3.203   4.678
 1722TIP3   OH2 5129   3.057   0.168   2.740
 1722TIP3    H1 5130   3.066   0.248   2.791
 1722TIP3    H2 5131   3.128   0.112   2.772
 1723TIP3   OH2 5132   2.317   3.672   0.219
 1723TIP3    H1 5133   2.274   3.715   0.146
 1723TIP3    H2 5134   2.395   3.725   0.236
 1724TIP3   OH2 5135   1.299   6.670   0.832
 1724TIP3    H1 5136   1.392   6.686   0.817
 1724TIP3    H2 5137   1.267   6.633   0.750
 1725TIP3   OH2 5138   5.463   4.045   1.174
 1725TIP3    H1 5139   5.426   3.963   1.141
 1725TIP3    H2 5140   5.536   4.063   1.116
 1726TIP3   OH2 5141   3.124   0.669   2.795
 1726TIP3    H1 5142   3.186   0.638   2.729
 1726TIP3    H2 5143   3.064   0.595   2.809
 1727TIP3   OH2 5144   1.453   5.173   1.217
 1727TIP3    H1 5145   1.487   5.194   1.130
 1727TIP3    H2 5146   1.530   5.153   1.269
 1728TIP3   OH2 5147   3.630   4.070   0.714
 1728TIP3    H1 5148   3.567   4.032   0.776
 1728TIP3    H2 5149   3.577   4.125   0.656
 1729TIP3   OH2 5150  -0.044   1.497   3.536
 1729TIP3    H1 5151  -0.010   1.497   3.625
 1729TIP3    H2 5152   0.018   1.443   3.486
 1730TIP3   OH2 5153   5.483   5.480   2.445
 1730TIP3    H1 5154   5.549   5.501   2.511
 1730TIP3    H2 5155   5.456   5.391   2.464
 1731TIP3   OH2 5156   2.073   1.513   2.050
 1731TIP3    H1 5157   2.117   1.595   2.030
 1731TIP3    H2 5158   2.142   1.457   2.086
 1732TIP3   OH2 5159   3.791   6.464   5.371
 1732TIP3    H1 5160   3.710   6.453   5.320
 1732TIP3    H2 5161   3.777   6.543   5.422
 1733TIP3   OH2 5162   6.702   0.691   4.506
 1733TIP3    H1 5163   6.642   0.748   4.458
 1733TIP3    H2 5164   6.787   0.733   4.498
 1734TIP3   OH2 5165   4.740   4.031   5.194
 1734TIP3    H1 5166   4.760   4.066   5.281
 1734TIP3    H2 5167   4.712   3.940   5.210
 1735TIP3   OH2 5168   4.793   0.689   0.619
 1735TIP3    H1 5169   4.732   0.730   0.558
 1735TIP3    H2 5170   4.860   0.755   0.634
 1736TIP3   OH2 5171   0.393   1.621   1.472
 1736TIP3    H1 5172   0.460   1.662   1.417
 1736TIP3    H2 5173   0.360   1.693   1.526
 1737TIP3   OH2 5174   1.979   0.713   5.575
 1737TIP3    H1 5175   2.068   0.687   5.599
 1737TIP3    H2 5176   1.983   0.808   5.567
 1738TIP3   OH2 5177   1.890   3.648   3.547
 1738TIP3    H1 5178   1.935   3.564   3.544
 1738TIP3    H2 5179   1.929   3.694   3.622
 1739TIP3   OH2 5180   2.097   0.838   5.216
 1739TIP3    H1 5181   2.138   0.825   5.130
 1739TIP3    H2 5182   2.086   0.750   5.251
 1740TIP3   OH2 5183   6.705   2.324   0.753
 1740TIP3    H1 5184   6.756   2.383   0.808
 1740TIP3    H2 5185   6.758   2.312   0.674
 1741TIP3   OH2 5186   5.020   5.950   3.430
 1741TIP3    H1 5187   4.954   5.933   3.363
 1741TIP3    H2 5188   5.036   5.865   3.471
 1742TIP3   OH2 5189   1.645   1.052   3.581
 1742TIP3    H1 5190   1.592   0.973   3.566
 1742TIP3    H2 5191   1.688   1.036   3.665
 1743TIP3   OH2 5192   1.010   2.421   0.370
 1743TIP3    H1 5193   1.008   2.415   0.466
 1743TIP3    H2 5194   0.921   2.446   0.345
 1744TIP3   OH2 5195   5.579   1.913   3.395
 1744TIP3    H1 5196   5.491   1.950   3.399
 1744TIP3    H2 5197   5.621   1.957   3.320
 1745TIP3   OH2 5198   6.284   2.880   4.015
 1745TIP3    H1 5199   6.217   2.815   4.031
 1745TIP3    H2 5200   6.239   2.964   4.025
 1746TIP3   OH2 5201   1.903   1.867   0.336
 1746TIP3    H1 5202   1.876   1.820   0.415
 1746TIP3    H2 5203   1.989   1.832   0.315
 1747TIP3   OH2 5204   1.289   0.944   1.264
 1747TIP3    H1 5205   1.367   0.984   1.302
 1747TIP3    H2 5206   1.313   0.923   1.174
 1748TIP3   OH2 5207   0.398   5.260   0.228
 1748TIP3    H1 5208   0.314   5.252   0.183
 1748TIP3    H2 5209   0.436   5.341   0.193
 1749TIP3   OH2 5210   3.182   3.105   0.220
 1749TIP3    H1 5211   3.165   3.157   0.141
 1749TIP3    H2 5212   3.106   3.121   0.276
 1750TIP3   OH2 5213   2.921   6.202   3.521
 1750TIP3    H1 5214   2.967   6.203   3.605
 1750TIP3    H2 5215   2.880   6.116   3.517
 1751TIP3   OH2 5216   3.829   3.844   0.108
 1751TIP3    H1 5217   3.881   3.887   0.041
 1751TIP3    H2 5218   3.844   3.895   0.188
 1752TIP3   OH2 5219   1.980   4.931   3.600
 1752TIP3    H1 5220   1.888   4.957   3.608
 1752TIP3    H2 5221   1.995   4.925   3.505
 1753TIP3   OH2 5222   1.400   0.854   1.022
 1753TIP3    H1 5223   1.490   0.881   1.004
 1753TIP3    H2 5224   1.408   0.765   1.058
 1754TIP3   OH2 5225   1.873   1.116   0.962
 1754TIP3    H1 5226   1.838   1.183   0.903
 1754TIP3    H2 5227   1.905   1.165   1.038
 1755TIP3   OH2 5228   0.443   6.500   2.973
 1755TIP3    H1 5229   0.514   6.527   3.031
 1755TIP3    H2 5230   0.443   6.404   2.980
 1756TIP3   OH2 5231   4.814   3.923   1.794
 1756TIP3    H1 5232   4.895   3.905   1.748
 1756TIP3    H2 5233   4.839   3.979   1.868
 1757TIP3   OH2 5234   1.862   0.150   3.611
 1757TIP3    H1 5235   1.906   0.180   3.690
 1757TIP3    H2 5236   1.875   0.220   3.547
 1758TIP3   OH2 5237   1.743   6.419   0.588
 1758TIP3    H1 5238   1.756   6.333   0.548
 1758TIP3    H2 5239   1.728   6.478   0.515
 1759TIP3   OH2 5240   1.685   2.974   2.585
 1759TIP3    H1 5241   1.770   2.989   2.544
 1759TIP3    H2 5242   1.672   2.880   2.579
 1760TIP3   OH2 5243   1.055   2.462   4.645
 1760TIP3    H1 5244   1.150   2.457   4.633
 1760TIP3    H2 5245   1.030   2.543   4.601
 1761TIP3   OH2 5246   1.937   5.618   1.910
 1761TIP3    H1 5247   1.879   5.612   1.834
 1761TIP3    H2 5248   1.882   5.593   1.984
 1762TIP3   OH2 5249   3.195   5.242   0.739
 1762TIP3    H1 5250   3.150   5.310   0.689
 1762TIP3    H2 5251   3.267   5.215   0.682
 1763TIP3   OH2 5252   6.219   5.517   4.431
 1763TIP3    H1 5253   6.209   5.482   4.519
 1763TIP3    H2 5254   6.252   5.606   4.445
 1764TIP3   OH2 5255   0.064   3.875   1.388
 1764TIP3    H1 5256  -0.029   3.900   1.388
 1764TIP3    H2 5257   0.083   3.851   1.297
 1765TIP3   OH2 5258   5.849   4.654   5.485
 1765TIP3    H1 5259   5.920   4.620   5.431
 1765TIP3    H2 5260   5.832   4.742   5.451
 1766TIP3   OH2 5261   7.195   5.237   4.028
 1766TIP3    H1 5262   7.111   5.271   4.058
 1766TIP3    H2 5263   7.188   5.142   4.038
 1767TIP3   OH2 5264   2.474   2.146   3.862
 1767TIP3    H1 5265   2.532   2.071   3.849
 1767TIP3    H2 5266   2.520   2.201   3.926
 1768TIP3   OH2 5267   5.249   5.606   0.080
 1768TIP3    H1 5268   5.291   5.596  -0.006
 1768TIP3    H2 5269   5.203   5.524   0.094
 1769TIP3   OH2 5270   5.286   3.480   2.713
 1769TIP3    H1 5271   5.290   3.566   2.673
 1769TIP3    H2 5272   5.369   3.439   2.689
 1770TIP3   OH2 5273   3.252   1.089   5.563
 1770TIP3    H1 5274   3.311   1.023   5.599
 1770TIP3    H2 5275   3.305   1.137   5.500
 1771TIP3   OH2 5276   4.025   0.636   4.951
 1771TIP3    H1 5277   4.036   0.695   4.877
 1771TIP3    H2 5278   4.052   0.687   5.027
 1772TIP3   OH2 5279   3.240   6.297   0.725
 1772TIP3    H1 5280   3.291   6.375   0.746
 1772TIP3    H2 5281   3.305   6.229   0.708
 1773TIP3   OH2 5282   4.406   2.195   3.276
 1773TIP3    H1 5283   4.490   2.187   3.230
 1773TIP3    H2 5284   4.343   2.219   3.208
 1774TIP3   OH2 5285   6.066   3.795   1.603
 1774TIP3    H1 5286   6.075   3.764   1.513
 1774TIP3    H2 5287   5.976   3.772   1.626
 1775TIP3   OH2 5288   2.274   3.286   2.867
 1775TIP3    H1 5289   2.303   3.377   2.878
 1775TIP3    H2 5290   2.351   3.240   2.834
 1776TIP3   OH2 5291   2.757   4.627   5.728
 1776TIP3    H1 5292   2.683   4.683   5.702
 1776TIP3    H2 5293   2.757   4.631   5.824
 1777TIP3   OH2 5294   0.216   1.446   3.253
 1777TIP3    H1 5295   0.279   1.478   3.189
 1777TIP3    H2 5296   0.131   1.457   3.211
 1778TIP3   OH2 5297   0.785   0.110   0.482
 1778TIP3    H1 5298   0.761   0.021   0.508
 1778TIP3    H2 5299   0.856   0.097   0.419
 1779TIP3   OH2 5300   0.828   2.304   4.687
 1779TIP3    H1 5301   0.807   2.264   4.771
 1779TIP3    H2 5302   0.894   2.370   4.707
 1780TIP3   OH2 5303   6.999   5.678   5.355
 1780TIP3    H1 5304   6.905   5.697   5.360
 1780TIP3    H2 5305   7.004   5.586   5.330
 1781TIP3   OH2 5306   2.761   1.020   1.577
 1781TIP3    H1 5307   2.742   1.074   1.501
 1781TIP3    H2 5308   2.675   0.998   1.613
 1782TIP3   OH2 5309   1.097   0.697   0.958
 1782TIP3    H1 5310   1.124   0.693   0.866
 1782TIP3    H2 5311   1.156   0.761   0.997
 1783TIP3   OH2 5312   0.303   5.002   0.313
 1783TIP3    H1 5313   0.378   5.052   0.279
 1783TIP3    H2 5314   0.317   5.000   0.408
 1784TIP3   OH2 5315   0.345   6.780   1.596
 1784TIP3    H1 5316   0.278   6.844   1.572
 1784TIP3    H2 5317   0.317   6.745   1.680
 1785TIP3   OH2 5318   4.385   4.711   2.178
 1785TIP3    H1 5319   4.321   4.779   2.197
 1785TIP3    H2 5320   4.346   4.631   2.212
 1786TIP3   OH2 5321   1.809   3.589   3.163
 1786TIP3    H1 5322   1.807   3.569   3.069
 1786TIP3    H2 5323   1.799   3.684   3.167
 1787TIP3   OH2 5324   5.228   3.041   0.588
 1787TIP3    H1 5325   5.317   3.026   0.618
 1787TIP3    H2 5326   5.235   3.112   0.525
 1788TIP3   OH2 5327   5.223   0.119   2.692
 1788TIP3    H1 5328   5.183   0.032   2.694
 1788TIP3    H2 5329   5.264   0.124   2.606
 1789TIP3   OH2 5330   5.653   4.466   2.583
 1789TIP3    H1 5331   5.618   4.383   2.554
 1789TIP3    H2 5332   5.748   4.458   2.572
 1790TIP3   OH2 5333   4.842   5.882   3.245
 1790TIP3    H1 5334   4.843   5.793   3.210
 1790TIP3    H2 5335   4.759   5.919   3.215
 1791TIP3   OH2 5336   4.900   6.182   1.054
 1791TIP3    H1 5337   4.900   6.122   1.129
 1791TIP3    H2 5338   4.956   6.254   1.082
 1792TIP3   OH2 5339   4.042   5.728   2.459
 1792TIP3    H1 5340   4.084   5.814   2.466
 1792TIP3    H2 5341   3.949   5.748   2.446
 1793TIP3   OH2 5342   1.542   0.389   0.669
 1793TIP3    H1 5343   1.458   0.350   0.691
 1793TIP3    H2 5344   1.566   0.349   0.585
 1794TIP3   OH2 5345   4.188   4.178   1.882
 1794TIP3    H1 5346   4.219   4.103   1.933
 1794TIP3    H2 5347   4.107   4.148   1.842
 1795TIP3   OH2 5348   4.347   1.302   4.076
 1795TIP3    H1 5349   4.391   1.387   4.079
 1795TIP3    H2 5350   4.321   1.292   3.984
 1796TIP3   OH2 5351   0.605   4.909   0.354
 1796TIP3    H1 5352   0.601   4.843   0.423
 1796TIP3    H2 5353   0.520   4.902   0.309
 1797TIP3   OH2 5354   0.230   4.995   3.825
 1797TIP3    H1 5355   0.296   4.935   3.789
 1797TIP3    H2 5356   0.198   5.043   3.749
 1798TIP3   OH2 5357   1.997   3.776   3.758
 1798TIP3    H1 5358   2.057   3.751   3.828
 1798TIP3    H2 5359   2.007   3.871   3.751
 1799TIP3   OH2 5360   3.372   4.437   5.428
 1799TIP3    H1 5361   3.414   4.421   5.344
 1799TIP3    H2 5362   3.303   4.501   5.409
 1800TIP3   OH2 5363   1.150   6.586   2.891
 1800TIP3    H1 5364   1.227   6.642   2.891
 1800TIP3    H2 5365   1.100   6.614   2.968
 1801TIP3   OH2 5366   6.645   0.594   3.769
 1801TIP3    H1 5367   6.677   0.585   3.680
 1801TIP3    H2 5368   6.564   0.644   3.761
 1802TIP3   OH2 5369   4.858   1.474   0.345
 1802TIP3    H1 5370   4.932   1.418   0.368
 1802TIP3    H2 5371   4.868   1.551   0.401
 1803TIP3   OH2 5372   2.132   6.489   3.809
 1803TIP3    H1 5373   2.198   6.499   3.741
 1803TIP3    H2 5374   2.151   6.404   3.849
 1804TIP3   OH2 5375   5.001   2.584   5.913
 1804TIP3    H1 5376   4.915   2.595   5.955
 1804TIP3    H2 5377   5.038   2.672   5.911
 1805TIP3   OH2 5378   5.143   4.703   2.840
 1805TIP3    H1 5379   5.051   4.730   2.839
 1805TIP3    H2 5380   5.140   4.610   2.865
 1806TIP3   OH2 5381   2.450   1.743   3.534
 1806TIP3    H1 5382   2.530   1.692   3.549
 1806TIP3    H2 5383   2.479   1.817   3.481
 1807TIP3   OH2 5384   4.517   0.803   4.909
 1807TIP3    H1 5385   4.502   0.884   4.959
 1807TIP3    H2 5386   4.489   0.825   4.820
 1808TIP3   OH2 5387   3.057   6.308   5.313
 1808TIP3    H1 5388   2.970   6.334   5.345
 1808TIP3    H2 5389   3.105   6.283   5.392
 1809TIP3   OH2 5390   5.255   2.616   0.363
 1809TIP3    H1 5391   5.311   2.693   0.351
 1809TIP3    H2 5392   5.172   2.652   0.393
 1810TIP3   OH2 5393   2.084   5.870   2.775
 1810TIP3    H1 5394   2.072   5.798   2.714
 1810TIP3    H2 5395   2.094   5.828   2.861
 1811TIP3   OH2 5396   1.306   2.096   1.544
 1811TIP3    H1 5397   1.378   2.144   1.503
 1811TIP3    H2 5398   1.342   2.063   1.626
 1812TIP3   OH2 5399   7.080   4.645   4.198
 1812TIP3    H1 5400   7.097   4.551   4.193
 1812TIP3    H2 5401   7.091   4.666   4.291
 1813TIP3   OH2 5402   0.381   3.590   4.218
 1813TIP3    H1 5403   0.373   3.675   4.260
 1813TIP3    H2 5404   0.471   3.587   4.186
 1814TIP3   OH2 5405   5.091   5.582   2.375
 1814TIP3    H1 5406   5.009   5.552   2.336
 1814TIP3    H2 5407   5.117   5.511   2.434
 1815TIP3   OH2 5408   1.909   3.470   4.500
 1815TIP3    H1 5409   1.915   3.432   4.588
 1815TIP3    H2 5410   1.816   3.463   4.478
 1816TIP3   OH2 5411   2.130   2.282   3.151
 1816TIP3    H1 5412   2.074   2.205   3.156
 1816TIP3    H2 5413   2.073   2.355   3.175
 1817TIP3   OH2 5414   1.232   1.400   1.039
 1817TIP3    H1 5415   1.154   1.455   1.049
 1817TIP3    H2 5416   1.303   1.462   1.024
 1818TIP3   OH2 5417   4.839   3.929   0.782
 1818TIP3    H1 5418   4.933   3.941   0.784
 1818TIP3    H2 5419   4.804   4.007   0.827
 1819TIP3   OH2 5420   1.480   6.470   4.314
 1819TIP3    H1 5421   1.471   6.461   4.219
 1819TIP3    H2 5422   1.397   6.436   4.349
 1820TIP3   OH2 5423   3.882   1.254   1.341
 1820TIP3    H1 5424   3.967   1.237   1.382
 1820TIP3    H2 5425   3.865   1.176   1.288
 1821TIP3   OH2 5426   1.251   5.844   0.576
 1821TIP3    H1 5427   1.194   5.899   0.522
 1821TIP3    H2 5428   1.194   5.816   0.649
 1822TIP3   OH2 5429   2.760   0.659   4.602
 1822TIP3    H1 5430   2.700   0.707   4.544
 1822TIP3    H2 5431   2.755   0.569   4.572
 1823TIP3   OH2 5432   4.350   4.021   2.930
 1823TIP3    H1 5433   4.368   4.078   2.855
 1823TIP3    H2 5434   4.434   4.013   2.974
 1824TIP3   OH2 5435   3.339   3.596   4.080
 1824TIP3    H1 5436   3.415   3.538   4.073
 1824TIP3    H2 5437   3.339   3.646   3.998
 1825TIP3   OH2 5438   6.192   0.807   4.452
 1825TIP3    H1 5439   6.151   0.750   4.387
 1825TIP3    H2 5440   6.143   0.789   4.533
 1826TIP3   OH2 5441   4.261   6.165   4.761
 1826TIP3    H1 5442   4.194   6.203   4.703
 1826TIP3    H2 5443   4.331   6.137   4.702
 1827TIP3   OH2 5444   4.542   3.312   3.920
 1827TIP3    H1 5445   4.505   3.388   3.875
 1827TIP3    H2 5446   4.630   3.302   3.882
 1828TIP3   OH2 5447   7.059   5.070   1.753
 1828TIP3    H1 5448   7.001   5.142   1.727
 1828TIP3    H2 5449   7.060   5.073   1.848
 1829TIP3   OH2 5450   6.735   2.340   5.770
 1829TIP3    H1 5451   6.804   2.317   5.832
 1829TIP3    H2 5452   6.739   2.436   5.764
 1830TIP3   OH2 5453   2.363   6.506   4.296
 1830TIP3    H1 5454   2.446   6.537   4.332
 1830TIP3    H2 5455   2.381   6.493   4.203
 1831TIP3   OH2 5456   5.529   6.276   0.695
 1831TIP3    H1 5457   5.581   6.228   0.760
 1831TIP3    H2 5458   5.451   6.304   0.743
 1832TIP3   OH2 5459   3.624   6.453   1.513
 1832TIP3    H1 5460   3.539   6.434   1.474
 1832TIP3    H2 5461   3.628   6.397   1.591
 1833TIP3   OH2 5462   4.267   3.918   0.054
 1833TIP3    H1 5463   4.324   3.988   0.022
 1833TIP3    H2 5464   4.262   3.931   0.148
 1834TIP3   OH2 5465   4.959   4.154   2.245
 1834TIP3    H1 5466   5.038   4.207   2.233
 1834TIP3    H2 5467   4.903   4.207   2.302
 1835TIP3   OH2 5468   1.954   2.398   2.904
 1835TIP3    H1 5469   2.038   2.413   2.860
 1835TIP3    H2 5470   1.967   2.433   2.992
 1836TIP3   OH2 5471   4.106   0.753   1.203
 1836TIP3    H1 5472   4.161   0.757   1.125
 1836TIP3    H2 5473   4.126   0.833   1.252
 1837TIP3   OH2 5474   2.322   1.440   4.461
 1837TIP3    H1 5475   2.371   1.478   4.534
 1837TIP3    H2 5476   2.356   1.485   4.384
 1838TIP3   OH2 5477   6.069   1.197   5.188
 1838TIP3    H1 5478   6.164   1.201   5.191
 1838TIP3    H2 5479   6.050   1.123   5.130
 1839TIP3   OH2 5480   2.741   4.874   2.545
 1839TIP3    H1 5481   2.647   4.855   2.540
 1839TIP3    H2 5482   2.767   4.840   2.631
 1840TIP3   OH2 5483   2.729   1.907   0.917
 1840TIP3    H1 5484   2.699   1.853   0.843
 1840TIP3    H2 5485   2.694   1.994   0.898
 1841TIP3   OH2 5486   6.864   2.185   1.624
 1841TIP3    H1 5487   6.874   2.244   1.699
 1841TIP3    H2 5488   6.927   2.218   1.559
 1842TIP3   OH2 5489   2.910   4.258   4.085
 1842TIP3    H1 5490   3.000   4.229   4.070
 1842TIP3    H2 5491   2.905   4.345   4.044
 1843TIP3   OH2 5492   0.564   0.300   2.028
 1843TIP3    H1 5493   0.571   0.205   2.029
 1843TIP3    H2 5494   0.536   0.322   1.939
 1844TIP3   OH2 5495   4.507   1.754   4.458
 1844TIP3    H1 5496   4.553   1.678   4.493
 1844TIP3    H2 5497   4.445   1.778   4.527
 1845TIP3   OH2 5498   7.210   4.065   2.934
 1845TIP3    H1 5499   7.114   4.066   2.939
 1845TIP3    H2 5500   7.239   4.071   3.025
 1846TIP3   OH2 5501   0.986   2.250   4.403
 1846TIP3    H1 5502   0.941   2.303   4.469
 1846TIP3    H2 5503   0.978   2.301   4.322
 1847TIP3   OH2 5504   1.800   0.890   1.151
 1847TIP3    H1 5505   1.875   0.916   1.096
 1847TIP3    H2 5506   1.835   0.824   1.210
 1848TIP3   OH2 5507   1.702   0.908   1.963
 1848TIP3    H1 5508   1.724   0.902   2.056
 1848TIP3    H2 5509   1.778   0.948   1.923
 1849TIP3   OH2 5510   3.784   4.829   3.411
 1849TIP3    H1 5511   3.878   4.836   3.428
 1849TIP3    H2 5512   3.778   4.797   3.321
 1850TIP3   OH2 5513   2.844   4.912   1.615
 1850TIP3    H1 5514   2.844   4.836   1.674
 1850TIP3    H2 5515   2.889   4.881   1.536
 1851TIP3   OH2 5516   0.075   6.462   3.241
 1851TIP3    H1 5517  -0.013   6.486   3.211
 1851TIP3    H2 5518   0.134   6.516   3.188
 1852TIP3   OH2 5519   5.405   3.164   5.753
 1852TIP3    H1 5520   5.357   3.187   5.833
 1852TIP3    H2 5521   5.441   3.077   5.771
 1853TIP3   OH2 5522   2.246   1.366   1.746
 1853TIP3    H1 5523   2.250   1.408   1.832
 1853TIP3    H2 5524   2.320   1.402   1.698
 1854TIP3   OH2 5525   0.523   1.101   2.065
 1854TIP3    H1 5526   0.577   1.065   2.135
 1854TIP3    H2 5527   0.446   1.136   2.110
 1855TIP3   OH2 5528   3.630   1.459   4.011
 1855TIP3    H1 5529   3.618   1.368   3.986
 1855TIP3    H2 5530   3.631   1.507   3.929
 1856TIP3   OH2 5531   6.730   0.645   1.648
 1856TIP3    H1 5532   6.824   0.624   1.650
 1856TIP3    H2 5533   6.699   0.608   1.565
 1857TIP3   OH2 5534   0.738   1.134   5.160
 1857TIP3    H1 5535   0.758   1.179   5.078
 1857TIP3    H2 5536   0.656   1.175   5.189
 1858TIP3   OH2 5537   1.638   6.469   5.176
 1858TIP3    H1 5538   1.645   6.379   5.207
 1858TIP3    H2 5539   1.713   6.481   5.119
 1859TIP3   OH2 5540   5.686   5.799   4.204
 1859TIP3    H1 5541   5.626   5.816   4.132
 1859TIP3    H2 5542   5.695   5.883   4.249
 1860TIP3   OH2 5543   4.240   2.490   3.740
 1860TIP3    H1 5544   4.315   2.549   3.749
 1860TIP3    H2 5545   4.166   2.548   3.721
 1861TIP3   OH2 5546   4.512   2.123   2.119
 1861TIP3    H1 5547   4.588   2.070   2.144
 1861TIP3    H2 5548   4.470   2.074   2.049
 1862TIP3   OH2 5549   4.541   2.302   0.043
 1862TIP3    H1 5550   4.594   2.225   0.022
 1862TIP3    H2 5551   4.597   2.377   0.025
 1863TIP3   OH2 5552   4.758   6.056   4.327
 1863TIP3    H1 5553   4.782   6.029   4.415
 1863TIP3    H2 5554   4.675   6.102   4.338
 1864TIP3   OH2 5555   3.758   3.111   2.444
 1864TIP3    H1 5556   3.674   3.156   2.453
 1864TIP3    H2 5557   3.761   3.084   2.353
 1865TIP3   OH2 5558   5.837   5.774   1.505
 1865TIP3    H1 5559   5.827   5.679   1.508
 1865TIP3    H2 5560   5.922   5.790   1.546
 1866TIP3   OH2 5561   1.038   2.977   4.057
 1866TIP3    H1 5562   0.956   2.981   4.008
 1866TIP3    H2 5563   1.055   3.067   4.084
 1867TIP3   OH2 5564   2.891   3.114   3.614
 1867TIP3    H1 5565   2.862   3.187   3.560
 1867TIP3    H2 5566   2.862   3.138   3.703
 1868TIP3   OH2 5567   3.747   5.200   0.306
 1868TIP3    H1 5568   3.691   5.244   0.242
 1868TIP3    H2 5569   3.823   5.258   0.315
 1869TIP3   OH2 5570   6.025   3.789   4.868
 1869TIP3    H1 5571   5.940   3.790   4.823
 1869TIP3    H2 5572   6.090   3.783   4.798
 1870TIP3   OH2 5573   0.427   4.639   5.044
 1870TIP3    H1 5574   0.389   4.629   4.957
 1870TIP3    H2 5575   0.472   4.724   5.041
 1871TIP3   OH2 5576   4.579   4.130   4.036
 1871TIP3    H1 5577   4.509   4.153   4.096
 1871TIP3    H2 5578   4.624   4.212   4.018
 1872TIP3   OH2 5579   0.014   4.682   1.969
 1872TIP3    H1 5580  -0.033   4.712   1.891
 1872TIP3    H2 5581   0.055   4.760   2.004
 1873TIP3   OH2 5582   5.156   6.003   2.132
 1873TIP3    H1 5583   5.126   5.985   2.221
 1873TIP3    H2 5584   5.177   5.917   2.096
 1874TIP3   OH2 5585   1.500   1.870   2.219
 1874TIP3    H1 5586   1.585   1.847   2.258
 1874TIP3    H2 5587   1.457   1.786   2.205
 1875TIP3   OH2 5588   4.307   0.544   1.297
 1875TIP3    H1 5589   4.247   0.492   1.351
 1875TIP3    H2 5590   4.270   0.539   1.209
 1876TIP3   OH2 5591   2.567   3.126   0.295
 1876TIP3    H1 5592   2.620   3.204   0.278
 1876TIP3    H2 5593   2.524   3.145   0.378
 1877TIP3   OH2 5594   0.834   1.255   4.896
 1877TIP3    H1 5595   0.845   1.346   4.925
 1877TIP3    H2 5596   0.895   1.246   4.822
 1878TIP3   OH2 5597   7.052   2.663   1.839
 1878TIP3    H1 5598   7.147   2.669   1.841
 1878TIP3    H2 5599   7.033   2.600   1.769
 1879TIP3   OH2 5600   1.679   5.379   3.826
 1879TIP3    H1 5601   1.631   5.296   3.830
 1879TIP3    H2 5602   1.727   5.374   3.743
 1880TIP3   OH2 5603   5.957   3.297   0.275
 1880TIP3    H1 5604   5.891   3.364   0.291
 1880TIP3    H2 5605   6.036   3.331   0.317
 1881TIP3   OH2 5606   6.137   4.196   1.652
 1881TIP3    H1 5607   6.059   4.143   1.672
 1881TIP3    H2 5608   6.129   4.214   1.558
 1882TIP3   OH2 5609   6.030   6.612   3.357
 1882TIP3    H1 5610   6.076   6.690   3.326
 1882TIP3    H2 5611   6.082   6.539   3.325
 1883TIP3   OH2 5612   4.538   5.303   0.608
 1883TIP3    H1 5613   4.449   5.331   0.587
 1883TIP3    H2 5614   4.548   5.218   0.564
 1884TIP3   OH2 5615   0.949   0.498   5.546
 1884TIP3    H1 5616   0.900   0.580   5.552
 1884TIP3    H2 5617   0.886   0.436   5.510
 1885TIP3   OH2 5618   3.668   2.031   0.991
 1885TIP3    H1 5619   3.631   2.087   1.060
 1885TIP3    H2 5620   3.664   2.085   0.912
 1886TIP3   OH2 5621   3.668   1.391   3.082
 1886TIP3    H1 5622   3.761   1.397   3.105
 1886TIP3    H2 5623   3.666   1.346   2.998
 1887TIP3   OH2 5624   5.115   6.737   1.733
 1887TIP3    H1 5625   5.134   6.643   1.734
 1887TIP3    H2 5626   5.125   6.762   1.641
 1888TIP3   OH2 5627   2.068   5.992   3.144
 1888TIP3    H1 5628   1.974   6.006   3.155
 1888TIP3    H2 5629   2.109   6.071   3.179
 1889TIP3   OH2 5630   4.886   1.970   3.979
 1889TIP3    H1 5631   4.882   2.031   4.054
 1889TIP3    H2 5632   4.810   1.994   3.925
 1890TIP3   OH2 5633   5.495   4.651   0.108
 1890TIP3    H1 5634   5.503   4.556   0.120
 1890TIP3    H2 5635   5.514   4.665   0.015
 1891TIP3   OH2 5636   4.622   2.776   5.496
 1891TIP3    H1 5637   4.569   2.833   5.552
 1891TIP3    H2 5638   4.708   2.775   5.538
 1892TIP3   OH2 5639   4.302   0.660   5.776
 1892TIP3    H1 5640   4.263   0.657   5.689
 1892TIP3    H2 5641   4.370   0.728   5.769
 1893TIP3   OH2 5642   3.380   3.667   3.540
 1893TIP3    H1 5643   3.463   3.714   3.546
 1893TIP3    H2 5644   3.316   3.733   3.516
 1894TIP3   OH2 5645   6.464   3.765   3.011
 1894TIP3    H1 5646   6.396   3.830   2.995
 1894TIP3    H2 5647   6.504   3.792   3.094
 1895TIP3   OH2 5648   6.049   2.863   0.702
 1895TIP3    H1 5649   6.145   2.863   0.707
 1895TIP3    H2 5650   6.021   2.809   0.775
 1896TIP3   OH2 5651   5.064   4.464   1.711
 1896TIP3    H1 5652   5.109   4.539   1.672
 1896TIP3    H2 5653   4.992   4.445   1.651
 1897TIP3   OH2 5654   1.077   3.945   4.948
 1897TIP3    H1 5655   1.106   3.981   4.864
 1897TIP3    H2 5656   1.120   3.859   4.953
 1898TIP3   OH2 5657   4.626   3.647   0.130
 1898TIP3    H1 5658   4.582   3.570   0.167
 1898TIP3    H2 5659   4.577   3.664   0.049
 1899TIP3   OH2 5660   1.962   2.165   4.011
 1899TIP3    H1 5661   1.935   2.254   3.988
 1899TIP3    H2 5662   2.053   2.160   3.981
 1900TIP3   OH2 5663   3.483   1.544   2.948
 1900TIP3    H1 5664   3.544   1.604   2.905
 1900TIP3    H2 5665   3.533   1.508   3.021
 1901TIP3   OH2 5666   0.380   5.225   3.118
 1901TIP3    H1 5667   0.385   5.286   3.192
 1901TIP3    H2 5668   0.438   5.153   3.142
 1902TIP3   OH2 5669   1.865   6.397   0.841
 1902TIP3    H1 5670   1.892   6.487   0.857
 1902TIP3    H2 5671   1.839   6.395   0.749
 1903TIP3   OH2 5672   1.207   0.883   2.088
 1903TIP3    H1 5673   1.244   0.943   2.024
 1903TIP3    H2 5674   1.276   0.873   2.154
 1904TIP3   OH2 5675   7.192   5.569   4.078
 1904TIP3    H1 5676   7.196   5.481   4.115
 1904TIP3    H2 5677   7.129   5.563   4.006
 1905TIP3   OH2 5678   0.576   0.312   1.518
 1905TIP3    H1 5679   0.570   0.327   1.612
 1905TIP3    H2 5680   0.522   0.380   1.478
 1906TIP3   OH2 5681   2.194   2.547   0.643
 1906TIP3    H1 5682   2.216   2.455   0.629
 1906TIP3    H2 5683   2.177   2.581   0.555
 1907TIP3   OH2 5684   3.136   6.572   4.660
 1907TIP3    H1 5685   3.220   6.617   4.675
 1907TIP3    H2 5686   3.161   6.489   4.620
 1908TIP3   OH2 5687   2.585   6.062   0.209
 1908TIP3    H1 5688   2.624   6.080   0.123
 1908TIP3    H2 5689   2.539   5.979   0.196
 1909TIP3   OH2 5690   5.271   1.256   0.853
 1909TIP3    H1 5691   5.328   1.233   0.780
 1909TIP3    H2 5692   5.207   1.185   0.856
 1910TIP3   OH2 5693   6.425   4.351   1.220
 1910TIP3    H1 5694   6.394   4.342   1.130
 1910TIP3    H2 5695   6.521   4.347   1.213
 1911TIP3   OH2 5696   5.379   6.288   0.453
 1911TIP3    H1 5697   5.297   6.292   0.501
 1911TIP3    H2 5698   5.447   6.292   0.520
 1912TIP3   OH2 5699   4.013   5.919   3.647
 1912TIP3    H1 5700   3.947   5.875   3.593
 1912TIP3    H2 5701   4.096   5.882   3.617
 1913TIP3   OH2 5702   5.974   0.137   5.648
 1913TIP3    H1 5703   5.916   0.084   5.703
 1913TIP3    H2 5704   6.034   0.178   5.709
 1914TIP3   OH2 5705   6.323   4.836   3.448
 1914TIP3    H1 5706   6.405   4.884   3.456
 1914TIP3    H2 5707   6.256   4.897   3.479
 1915TIP3   OH2 5708   1.494   4.527   1.496
 1915TIP3    H1 5709   1.570   4.492   1.543
 1915TIP3    H2 5710   1.420   4.512   1.555
 1916TIP3   OH2 5711   3.675   5.060   4.414
 1916TIP3    H1 5712   3.699   5.060   4.507
 1916TIP3    H2 5713   3.695   5.149   4.384
 1917TIP3   OH2 5714   0.830   0.666   5.862
 1917TIP3    H1 5715   0.893   0.733   5.835
 1917TIP3    H2 5716   0.868   0.584   5.832
 1918TIP3   OH2 5717   5.341   4.920   3.621
 1918TIP3    H1 5718   5.394   5.000   3.627
 1918TIP3    H2 5719   5.380   4.870   3.549
 1919TIP3   OH2 5720   6.270   4.343   5.333
 1919TIP3    H1 5721   6.257   4.276   5.266
 1919TIP3    H2 5722   6.184   4.383   5.344
 1920TIP3   OH2 5723   2.496   3.727   4.366
 1920TIP3    H1 5724   2.444   3.652   4.337
 1920TIP3    H2 5725   2.449   3.804   4.332
 1921TIP3   OH2 5726   3.021   5.591   2.960
 1921TIP3    H1 5727   3.089   5.586   3.026
 1921TIP3    H2 5728   2.975   5.673   2.979
 1922TIP3   OH2 5729   0.289   6.124   0.353
 1922TIP3    H1 5730   0.368   6.164   0.391
 1922TIP3    H2 5731   0.229   6.113   0.427
 1923TIP3   OH2 5732   2.695   4.420   0.660
 1923TIP3    H1 5733   2.610   4.450   0.692
 1923TIP3    H2 5734   2.716   4.480   0.589
 1924TIP3   OH2 5735   1.422   5.531   3.962
 1924TIP3    H1 5736   1.392   5.611   3.919
 1924TIP3    H2 5737   1.505   5.510   3.920
 1925TIP3   OH2 5738   2.790   0.794   5.483
 1925TIP3    H1 5739   2.871   0.843   5.470
 1925TIP3    H2 5740   2.758   0.825   5.568
 1926TIP3   OH2 5741   2.008   3.261   3.862
 1926TIP3    H1 5742   2.057   3.261   3.780
 1926TIP3    H2 5743   2.013   3.171   3.893
 1927TIP3   OH2 5744   5.000   6.200   3.517
 1927TIP3    H1 5745   5.015   6.106   3.518
 1927TIP3    H2 5746   4.905   6.209   3.507
 1928TIP3   OH2 5747   0.151   2.509   2.839
 1928TIP3    H1 5748   0.195   2.482   2.919
 1928TIP3    H2 5749   0.060   2.480   2.850
 1929TIP3   OH2 5750   3.825   0.951   2.640
 1929TIP3    H1 5751   3.793   0.864   2.615
 1929TIP3    H2 5752   3.889   0.973   2.572
 1930TIP3   OH2 5753   5.393   3.423   5.376
 1930TIP3    H1 5754   5.455   3.390   5.311
 1930TIP3    H2 5755   5.360   3.505   5.338
 1931TIP3   OH2 5756   0.947   6.237   1.095
 1931TIP3    H1 5757   0.983   6.196   1.174
 1931TIP3    H2 5758   0.927   6.163   1.037
 1932TIP3   OH2 5759   4.262   2.275   0.452
 1932TIP3    H1 5760   4.332   2.300   0.393
 1932TIP3    H2 5761   4.307   2.247   0.532
 1933TIP3   OH2 5762   5.895   3.529   0.622
 1933TIP3    H1 5763   5.984   3.491   0.623
 1933TIP3    H2 5764   5.870   3.532   0.714
 1934TIP3   OH2 5765   0.498   2.088   0.969
 1934TIP3    H1 5766   0.414   2.079   1.014
 1934TIP3    H2 5767   0.476   2.077   0.876
 1935TIP3   OH2 5768   0.367   3.817   2.350
 1935TIP3    H1 5769   0.435   3.799   2.285
 1935TIP3    H2 5770   0.370   3.911   2.363
 1936TIP3   OH2 5771   3.849   5.640   1.852
 1936TIP3    H1 5772   3.929   5.596   1.881
 1936TIP3    H2 5773   3.879   5.709   1.793
 1937TIP3   OH2 5774   4.423   3.346   4.236
 1937TIP3    H1 5775   4.351   3.340   4.174
 1937TIP3    H2 5776   4.426   3.260   4.279
 1938TIP3   OH2 5777   3.637   0.948   0.530
 1938TIP3    H1 5778   3.577   0.881   0.563
 1938TIP3    H2 5779   3.629   0.942   0.434
 1939TIP3   OH2 5780   5.201   1.579   0.300
 1939TIP3    H1 5781   5.269   1.642   0.325
 1939TIP3    H2 5782   5.176   1.606   0.211
 1940TIP3   OH2 5783   5.829   5.355   5.284
 1940TIP3    H1 5784   5.914   5.332   5.246
 1940TIP3    H2 5785   5.815   5.446   5.259
 1941TIP3   OH2 5786   6.876   1.363   3.248
 1941TIP3    H1 5787   6.940   1.310   3.200
 1941TIP3    H2 5788   6.794   1.313   3.242
 1942TIP3   OH2 5789   1.101   1.383   5.026
 1942TIP3    H1 5790   1.042   1.458   5.017
 1942TIP3    H2 5791   1.079   1.345   5.111
 1943TIP3   OH2 5792   3.235   3.631   0.554
 1943TIP3    H1 5793   3.243   3.561   0.489
 1943TIP3    H2 5794   3.206   3.588   0.634
 1944TIP3   OH2 5795   0.057   1.258   4.795
 1944TIP3    H1 5796   0.047   1.246   4.890
 1944TIP3    H2 5797   0.132   1.317   4.786
 1945TIP3   OH2 5798   6.746   6.460   3.115
 1945TIP3    H1 5799   6.730   6.463   3.021
 1945TIP3    H2 5800   6.757   6.551   3.141
 1946TIP3   OH2 5801   0.410   1.413   2.858
 1946TIP3    H1 5802   0.393   1.412   2.764
 1946TIP3    H2 5803   0.457   1.495   2.873
 1947TIP3   OH2 5804   0.379   2.152   2.226
 1947TIP3    H1 5805   0.318   2.080   2.210
 1947TIP3    H2 5806   0.465   2.115   2.207
 1948TIP3   OH2 5807   3.354   5.200   0.241
 1948TIP3    H1 5808   3.413   5.270   0.215
 1948TIP3    H2 5809   3.382   5.124   0.190
 1949TIP3   OH2 5810   3.407   5.353   4.227
 1949TIP3    H1 5811   3.438   5.382   4.313
 1949TIP3    H2 5812   3.329   5.301   4.245
 1950TIP3   OH2 5813   5.340   2.167   1.732
 1950TIP3    H1 5814   5.368   2.111   1.659
 1950TIP3    H2 5815   5.422   2.196   1.772
 1951TIP3   OH2 5816   4.691   1.742   2.395
 1951TIP3    H1 5817   4.707   1.680   2.323
 1951TIP3    H2 5818   4.634   1.694   2.455
 1952TIP3   OH2 5819   0.558   2.862   3.687
 1952TIP3    H1 5820   0.624   2.917   3.730
 1952TIP3    H2 5821   0.476   2.887   3.729
 1953TIP3   OH2 5822   1.971   0.281   4.274
 1953TIP3    H1 5823   1.881   0.255   4.257
 1953TIP3    H2 5824   2.021   0.245   4.201
 1954TIP3   OH2 5825   6.951   4.108   4.199
 1954TIP3    H1 5826   6.869   4.105   4.248
 1954TIP3    H2 5827   6.987   4.019   4.205
 1955TIP3   OH2 5828   0.009   0.918   3.652
 1955TIP3    H1 5829   0.087   0.872   3.684
 1955TIP3    H2 5830   0.037   0.960   3.571
 1956TIP3   OH2 5831   5.350   3.718   1.335
 1956TIP3    H1 5832   5.275   3.765   1.298
 1956TIP3    H2 5833   5.423   3.780   1.330
 1957TIP3   OH2 5834   7.052   4.587   1.377
 1957TIP3    H1 5835   6.958   4.578   1.394
 1957TIP3    H2 5836   7.075   4.507   1.329
 1958TIP3   OH2 5837   2.700   0.414   4.484
 1958TIP3    H1 5838   2.682   0.334   4.533
 1958TIP3    H2 5839   2.669   0.395   4.395
 1959TIP3   OH2 5840   5.546   0.096   3.604
 1959TIP3    H1 5841   5.556   0.188   3.578
 1959TIP3    H2 5842   5.621   0.052   3.564
 1960TIP3   OH2 5843   4.966   3.988   2.007
 1960TIP3    H1 5844   4.931   4.033   2.084
 1960TIP3    H2 5845   5.028   4.051   1.969
 1961TIP3   OH2 5846   5.454   4.801   3.320
 1961TIP3    H1 5847   5.484   4.891   3.326
 1961TIP3    H2 5848   5.532   4.748   3.336
 1962TIP3   OH2 5849   6.079   2.778   2.969
 1962TIP3    H1 5850   5.990   2.748   2.952
 1962TIP3    H2 5851   6.072   2.874   2.972
 1963TIP3   OH2 5852   5.291   6.002   5.284
 1963TIP3    H1 5853   5.216   6.049   5.319
 1963TIP3    H2 5854   5.300   6.033   5.194
 1964TIP3   OH2 5855   2.161   1.732   1.440
 1964TIP3    H1 5856   2.176   1.668   1.509
 1964TIP3    H2 5857   2.207   1.810   1.470
 1965TIP3   OH2 5858   6.635   3.428   0.375
 1965TIP3    H1 5859   6.669   3.456   0.290
 1965TIP3    H2 5860   6.660   3.499   0.435
 1966TIP3   OH2 5861   5.185   2.893   0.132
 1966TIP3    H1 5862   5.126   2.965   0.108
 1966TIP3    H2 5863   5.248   2.889   0.060
 1967TIP3   OH2 5864   0.315   2.911   1.545
 1967TIP3    H1 5865   0.222   2.899   1.527
 1967TIP3    H2 5866   0.322   3.004   1.568
 1968TIP3   OH2 5867   5.032   4.263   1.339
 1968TIP3    H1 5868   4.981   4.211   1.401
 1968TIP3    H2 5869   5.115   4.280   1.383
 1969TIP3   OH2 5870   1.595   5.794   4.528
 1969TIP3    H1 5871   1.598   5.702   4.556
 1969TIP3    H2 5872   1.530   5.796   4.458
 1970TIP3   OH2 5873   1.301   0.510   2.076
 1970TIP3    H1 5874   1.375   0.559   2.039
 1970TIP3    H2 5875   1.237   0.577   2.099
 1971TIP3   OH2 5876   6.301   2.413   1.002
 1971TIP3    H1 5877   6.370   2.435   1.065
 1971TIP3    H2 5878   6.348   2.392   0.921
 1972TIP3   OH2 5879   2.745   6.667   0.840
 1972TIP3    H1 5880   2.722   6.715   0.760
 1972TIP3    H2 5881   2.663   6.657   0.887
 1973TIP3   OH2 5882   3.763   2.423   0.346
 1973TIP3    H1 5883   3.850   2.412   0.385
 1973TIP3    H2 5884   3.722   2.493   0.397
 1974TIP3   OH2 5885   0.738   2.480   0.272
 1974TIP3    H1 5886   0.710   2.493   0.182
 1974TIP3    H2 5887   0.751   2.385   0.280
 1975TIP3   OH2 5888   2.114   1.931   3.333
 1975TIP3    H1 5889   2.091   1.929   3.240
 1975TIP3    H2 5890   2.045   1.880   3.376
 1976TIP3   OH2 5891   0.218   2.115   3.049
 1976TIP3    H1 5892   0.290   2.133   2.988
 1976TIP3    H2 5893   0.214   2.020   3.054
 1977TIP3   OH2 5894   1.096   6.741   4.691
 1977TIP3    H1 5895   1.073   6.820   4.741
 1977TIP3    H2 5896   1.029   6.677   4.715
 1978TIP3   OH2 5897   4.519   5.547   4.985
 1978TIP3    H1 5898   4.519   5.479   5.052
 1978TIP3    H2 5899   4.602   5.593   4.997
 1979TIP3   OH2 5900   0.578   2.862   2.606
 1979TIP3    H1 5901   0.488   2.894   2.618
 1979TIP3    H2 5902   0.606   2.836   2.693
 1980TIP3   OH2 5903   4.003   5.131   4.296
 1980TIP3    H1 5904   3.976   5.042   4.274
 1980TIP3    H2 5905   3.931   5.186   4.266
 1981TIP3   OH2 5906   4.292   0.056   4.036
 1981TIP3    H1 5907   4.202   0.023   4.038
 1981TIP3    H2 5908   4.342  -0.012   3.991
 1982TIP3   OH2 5909   4.963   0.604   1.104
 1982TIP3    H1 5910   4.955   0.584   1.197
 1982TIP3    H2 5911   4.881   0.573   1.066
 1983TIP3   OH2 5912   3.054   1.439   5.476
 1983TIP3    H1 5913   3.146   1.413   5.467
 1983TIP3    H2 5914   3.055   1.508   5.543
 1984TIP3   OH2 5915   1.345   3.584   3.567
 1984TIP3    H1 5916   1.401   3.547   3.498
 1984TIP3    H2 5917   1.375   3.540   3.647
 1985TIP3   OH2 5918   0.612   3.339   0.864
 1985TIP3    H1 5919   0.562   3.335   0.783
 1985TIP3    H2 5920   0.701   3.362   0.837
 1986TIP3   OH2 5921   2.977   1.741   1.732
 1986TIP3    H1 5922   3.072   1.745   1.723
 1986TIP3    H2 5923   2.944   1.747   1.642
 1987TIP3   OH2 5924   3.544   2.250   0.862
 1987TIP3    H1 5925   3.516   2.265   0.772
 1987TIP3    H2 5926   3.481   2.301   0.915
 1988TIP3   OH2 5927   0.791   6.298   4.743
 1988TIP3    H1 5928   0.814   6.205   4.750
 1988TIP3    H2 5929   0.696   6.297   4.728
 1989TIP3   OH2 5930   5.941   0.361   4.696
 1989TIP3    H1 5931   5.894   0.426   4.748
 1989TIP3    H2 5932   5.875   0.296   4.672
 1990TIP3   OH2 5933   4.569   2.931   4.242
 1990TIP3    H1 5934   4.543   2.995   4.309
 1990TIP3    H2 5935   4.664   2.932   4.243
 1991TIP3   OH2 5936   3.652   4.724   0.699
 1991TIP3    H1 5937   3.724   4.753   0.643
 1991TIP3    H2 5938   3.626   4.640   0.661
 1992TIP3   OH2 5939   4.473   5.418   2.655
 1992TIP3    H1 5940   4.474   5.495   2.598
 1992TIP3    H2 5941   4.562   5.382   2.648
 1993TIP3   OH2 5942   1.446   6.730   0.495
 1993TIP3    H1 5943   1.492   6.656   0.456
 1993TIP3    H2 5944   1.358   6.698   0.511
 1994TIP3   OH2 5945   3.585   4.369   5.240
 1994TIP3    H1 5946   3.673   4.341   5.213
 1994TIP3    H2 5947   3.550   4.415   5.164
 1995TIP3   OH2 5948   4.135   5.317   1.262
 1995TIP3    H1 5949   4.125   5.400   1.214
 1995TIP3    H2 5950   4.226   5.319   1.293
 1996TIP3   OH2 5951   2.168   6.732   5.193
 1996TIP3    H1 5952   2.084   6.757   5.156
 1996TIP3    H2 5953   2.147   6.694   5.278
 1997TIP3   OH2 5954   1.541   0.162   1.965
 1997TIP3    H1 5955   1.572   0.227   2.028
 1997TIP3    H2 5956   1.459   0.130   2.003
 1998TIP3   OH2 5957   1.178   0.261   5.393
 1998TIP3    H1 5958   1.085   0.265   5.368
 1998TIP3    H2 5959   1.202   0.353   5.408
 1999TIP3   OH2 5960   3.472   3.423   2.184
 1999TIP3    H1 5961   3.561   3.388   2.181
 1999TIP3    H2 5962   3.483   3.517   2.166
 2000TIP3   OH2 5963   5.010   5.296   0.148
 2000TIP3    H1 5964   4.990   5.206   0.173
 2000TIP3    H2 5965   5.098   5.312   0.182
 2001TIP3   OH2 5966   1.706   0.046   5.445
 2001TIP3    H1 5967   1.648   0.045   5.521
 2001TIP3    H2 5968   1.669  -0.019   5.385
 2002TIP3   OH2 5969   0.674   6.722   4.639
 2002TIP3    H1 5970   0.641   6.785   4.703
 2002TIP3    H2 5971   0.748   6.679   4.683
 2003TIP3   OH2 5972   2.831   0.628   0.475
 2003TIP3    H1 5973   2.761   0.591   0.530
 2003TIP3    H2 5974   2.808   0.720   0.466
 2004TIP3   OH2 5975   2.948   1.136   5.649
 2004TIP3    H1 5976   2.937   1.051   5.693
 2004TIP3    H2 5977   3.042   1.155   5.657
 2005TIP3   OH2 5978   2.581   0.524   0.155
 2005TIP3    H1 5979   2.523   0.486   0.090
 2005TIP3    H2 5980   2.642   0.579   0.105
 2006TIP3   OH2 5981   7.182   5.369   3.726
 2006TIP3    H1 5982   7.207   5.442   3.669
 2006TIP3    H2 5983   7.206   5.398   3.814
 2007TIP3   OH2 5984   0.650   3.466   4.975
 2007TIP3    H1 5985   0.725   3.432   4.925
 2007TIP3    H2 5986   0.656   3.422   5.059
 2008TIP3   OH2 5987   0.626   0.291   4.124
 2008TIP3    H1 5988   0.702   0.327   4.171
 2008TIP3    H2 5989   0.663   0.225   4.065
 2009TIP3   OH2 5990   4.414   4.950   2.469
 2009TIP3    H1 5991   4.329   4.952   2.424
 2009TIP3    H2 5992   4.456   5.032   2.442
 2010TIP3   OH2 5993   6.227   3.203   4.565
 2010TIP3    H1 5994   6.227   3.168   4.654
 2010TIP3    H2 5995   6.222   3.298   4.577
 2011TIP3   OH2 5996   0.449   0.692   1.147
 2011TIP3    H1 5997   0.391   0.671   1.074
 2011TIP3    H2 5998   0.534   0.655   1.122
 2012TIP3   OH2 5999   1.514   1.390   0.410
 2012TIP3    H1 6000   1.512   1.335   0.332
 2012TIP3    H2 6001   1.539   1.331   0.481
 2013TIP3   OH2 6002   4.791   6.463   1.940
 2013TIP3    H1 6003   4.715   6.450   1.998
 2013TIP3    H2 6004   4.781   6.553   1.909
 2014TIP3   OH2 6005   3.783   6.675   2.268
 2014TIP3    H1 6006   3.711   6.680   2.206
 2014TIP3    H2 6007   3.770   6.750   2.326
 2015TIP3   OH2 6008   1.907   6.768   5.075
 2015TIP3    H1 6009   1.904   6.677   5.045
 2015TIP3    H2 6010   1.905   6.820   4.994
 2016TIP3   OH2 6011   5.792   3.015   1.366
 2016TIP3    H1 6012   5.736   3.078   1.319
 2016TIP3    H2 6013   5.781   2.933   1.317
 2017TIP3   OH2 6014   4.618   2.132   4.131
 2017TIP3    H1 6015   4.579   2.168   4.051
 2017TIP3    H2 6016   4.569   2.051   4.147
 2018TIP3   OH2 6017   7.049   6.262   3.281
 2018TIP3    H1 6018   7.050   6.223   3.193
 2018TIP3    H2 6019   7.072   6.189   3.340
 2019TIP3   OH2 6020   3.939   3.046   2.915
 2019TIP3    H1 6021   3.900   2.991   2.848
 2019TIP3    H2 6022   3.905   3.011   2.998
 2020TIP3   OH2 6023   2.554   3.777   1.822
 2020TIP3    H1 6024   2.538   3.868   1.797
 2020TIP3    H2 6025   2.637   3.755   1.780
 2021TIP3   OH2 6026   5.283   3.341   4.676
 2021TIP3    H1 6027   5.201   3.320   4.720
 2021TIP3    H2 6028   5.351   3.306   4.733
 2022TIP3   OH2 6029   4.775   3.243   1.646
 2022TIP3    H1 6030   4.739   3.245   1.735
 2022TIP3    H2 6031   4.715   3.298   1.595
 2023TIP3   OH2 6032   3.538   4.845   5.671
 2023TIP3    H1 6033   3.475   4.779   5.643
 2023TIP3    H2 6034   3.513   4.924   5.623
 2024TIP3   OH2 6035   0.986   4.343   3.098
 2024TIP3    H1 6036   0.992   4.259   3.143
 2024TIP3    H2 6037   0.978   4.407   3.169
 2025TIP3   OH2 6038   3.417   6.322   3.933
 2025TIP3    H1 6039   3.475   6.261   3.979
 2025TIP3    H2 6040   3.470   6.402   3.924
 2026TIP3   OH2 6041   0.936   4.884   3.082
 2026TIP3    H1 6042   0.870   4.901   3.015
 2026TIP3    H2 6043   0.959   4.971   3.116
 2027TIP3   OH2 6044   4.129   3.515   5.380
 2027TIP3    H1 6045   4.138   3.420   5.375
 2027TIP3    H2 6046   4.149   3.536   5.471
 2028TIP3   OH2 6047   0.797   3.621   0.424
 2028TIP3    H1 6048   0.846   3.619   0.506
 2028TIP3    H2 6049   0.809   3.710   0.391
 2029TIP3   OH2 6050   5.791   5.319   2.110
 2029TIP3    H1 6051   5.745   5.254   2.057
 2029TIP3    H2 6052   5.753   5.311   2.197
 2030TIP3   OH2 6053   0.815   3.967   1.901
 2030TIP3    H1 6054   0.754   4.021   1.951
 2030TIP3    H2 6055   0.832   4.018   1.822
 2031TIP3   OH2 6056   5.592   0.915   4.965
 2031TIP3    H1 6057   5.577   0.967   5.044
 2031TIP3    H2 6058   5.666   0.859   4.987
 2032TIP3   OH2 6059   5.021   1.283   1.514
 2032TIP3    H1 6060   5.077   1.220   1.560
 2032TIP3    H2 6061   5.082   1.336   1.464
 2033TIP3   OH2 6062   2.574   4.266   1.632
 2033TIP3    H1 6063   2.549   4.182   1.670
 2033TIP3    H2 6064   2.574   4.327   1.706
 2034TIP3   OH2 6065   4.493   5.791   4.730
 2034TIP3    H1 6066   4.452   5.804   4.816
 2034TIP3    H2 6067   4.468   5.702   4.705
 2035TIP3   OH2 6068   6.779   0.949   3.225
 2035TIP3    H1 6069   6.759   1.038   3.196
 2035TIP3    H2 6070   6.697   0.917   3.262
 2036TIP3   OH2 6071   5.735   3.572   5.896
 2036TIP3    H1 6072   5.798   3.603   5.832
 2036TIP3    H2 6073   5.717   3.481   5.870
 2037TIP3   OH2 6074   1.907   3.113   0.855
 2037TIP3    H1 6075   1.960   3.088   0.779
 2037TIP3    H2 6076   1.890   3.206   0.842
 2038TIP3   OH2 6077   2.804   3.229   4.787
 2038TIP3    H1 6078   2.864   3.301   4.768
 2038TIP3    H2 6079   2.794   3.230   4.882
 2039TIP3   OH2 6080   2.583   2.320   0.256
 2039TIP3    H1 6081   2.579   2.415   0.268
 2039TIP3    H2 6082   2.499   2.298   0.215
 2040TIP3   OH2 6083   6.568   0.201   5.800
 2040TIP3    H1 6084   6.498   0.193   5.865
 2040TIP3    H2 6085   6.551   0.284   5.757
 2041TIP3   OH2 6086   6.065   6.493   5.461
 2041TIP3    H1 6087   6.117   6.565   5.497
 2041TIP3    H2 6088   6.018   6.533   5.388
 2042TIP3   OH2 6089   4.019   2.037   5.830
 2042TIP3    H1 6090   3.965   2.094   5.776
 2042TIP3    H2 6091   4.101   2.085   5.841
 2043TIP3   OH2 6092   0.930   4.337   1.833
 2043TIP3    H1 6093   0.936   4.429   1.858
 2043TIP3    H2 6094   0.857   4.303   1.884
 2044TIP3   OH2 6095   5.068   2.837   0.460
 2044TIP3    H1 6096   5.001   2.895   0.495
 2044TIP3    H2 6097   5.150   2.887   0.470
 2045TIP3   OH2 6098   6.128   5.439   4.179
 2045TIP3    H1 6099   6.097   5.348   4.174
 2045TIP3    H2 6100   6.145   5.453   4.272
 2046TIP3   OH2 6101   1.059   0.079   1.107
 2046TIP3    H1 6102   1.097   0.107   1.190
 2046TIP3    H2 6103   1.010   0.155   1.075
 2047TIP3   OH2 6104   0.985   3.125   4.880
 2047TIP3    H1 6105   1.074   3.097   4.859
 2047TIP3    H2 6106   0.930   3.085   4.812
 2048TIP3   OH2 6107   0.311   1.363   4.700
 2048TIP3    H1 6108   0.356   1.372   4.784
 2048TIP3    H2 6109   0.331   1.275   4.670
 2049TIP3   OH2 6110   0.784   3.114   0.714
 2049TIP3    H1 6111   0.742   3.111   0.628
 2049TIP3    H2 6112   0.831   3.031   0.721
 2050TIP3   OH2 6113   6.314   3.830   2.444
 2050TIP3    H1 6114   6.299   3.809   2.536
 2050TIP3    H2 6115   6.383   3.897   2.445
 2051TIP3   OH2 6116   2.662   0.927   3.155
 2051TIP3    H1 6117   2.690   0.838   3.175
 2051TIP3    H2 6118   2.733   0.965   3.105
 2052TIP3   OH2 6119   2.061   3.485   3.243
 2052TIP3    H1 6120   2.045   3.461   3.334
 2052TIP3    H2 6121   1.983   3.533   3.216
 2053TIP3   OH2 6122   0.723   0.696   3.102
 2053TIP3    H1 6123   0.656   0.735   3.045
 2053TIP3    H2 6124   0.761   0.626   3.049
 2054TIP3   OH2 6125   0.755   1.429   5.813
 2054TIP3    H1 6126   0.720   1.340   5.822
 2054TIP3    H2 6127   0.848   1.416   5.797
 2055TIP3   OH2 6128   0.632   1.572   2.345
 2055TIP3    H1 6129   0.727   1.589   2.341
 2055TIP3    H2 6130   0.615   1.521   2.266
 2056TIP3   OH2 6131   3.380   5.165   5.299
 2056TIP3    H1 6132   3.285   5.171   5.288
 2056TIP3    H2 6133   3.407   5.255   5.319
 2057TIP3   OH2 6134   3.914   1.514   4.486
 2057TIP3    H1 6135   3.888   1.422   4.481
 2057TIP3    H2 6136   3.902   1.537   4.578
 2058TIP3   OH2 6137   3.532   5.560   1.035
 2058TIP3    H1 6138   3.544   5.647   1.075
 2058TIP3    H2 6139   3.551   5.498   1.105
 2059TIP3   OH2 6140   2.312   2.208   4.256
 2059TIP3    H1 6141   2.290   2.155   4.179
 2059TIP3    H2 6142   2.256   2.285   4.248
 2060TIP3   OH2 6143   5.375   3.908   5.793
 2060TIP3    H1 6144   5.404   3.844   5.858
 2060TIP3    H2 6145   5.453   3.923   5.739
 2061TIP3   OH2 6146   4.599   5.101   4.399
 2061TIP3    H1 6147   4.511   5.072   4.421
 2061TIP3    H2 6148   4.640   5.120   4.483
 2062TIP3   OH2 6149   0.638   2.458   1.048
 2062TIP3    H1 6150   0.672   2.372   1.022
 2062TIP3    H2 6151   0.612   2.500   0.967
 2063TIP3   OH2 6152   4.095   4.928   4.777
 2063TIP3    H1 6153   4.064   4.861   4.838
 2063TIP3    H2 6154   4.060   4.901   4.692
 2064TIP3   OH2 6155   4.317   4.235   0.544
 2064TIP3    H1 6156   4.255   4.217   0.473
 2064TIP3    H2 6157   4.262   4.266   0.616
 2065TIP3   OH2 6158   0.131   3.589   1.325
 2065TIP3    H1 6159   0.209   3.537   1.341
 2065TIP3    H2 6160   0.156   3.649   1.254
 2066TIP3   OH2 6161   6.102   3.081   4.351
 2066TIP3    H1 6162   6.117   3.000   4.398
 2066TIP3    H2 6163   6.111   3.150   4.417
 2067TIP3   OH2 6164   4.419   0.170   1.807
 2067TIP3    H1 6165   4.435   0.086   1.849
 2067TIP3    H2 6166   4.348   0.153   1.745
 2068TIP3   OH2 6167   2.689   0.653   3.612
 2068TIP3    H1 6168   2.613   0.617   3.567
 2068TIP3    H2 6169   2.706   0.736   3.568
 2069TIP3   OH2 6170   1.765   1.559   0.284
 2069TIP3    H1 6171   1.703   1.489   0.264
 2069TIP3    H2 6172   1.826   1.559   0.210
 2070TIP3   OH2 6173   5.881   4.173   5.055
 2070TIP3    H1 6174   5.821   4.123   5.000
 2070TIP3    H2 6175   5.825   4.236   5.100
 2071TIP3   OH2 6176   6.652   1.965   2.426
 2071TIP3    H1 6177   6.568   1.958   2.382
 2071TIP3    H2 6178   6.667   1.879   2.465
 2072TIP3   OH2 6179   4.816   1.439   1.011
 2072TIP3    H1 6180   4.855   1.409   0.928
 2072TIP3    H2 6181   4.821   1.535   1.006
 2073TIP3   OH2 6182   0.083   1.939   5.433
 2073TIP3    H1 6183   0.002   1.894   5.407
 2073TIP3    H2 6184   0.151   1.873   5.420
 2074TIP3   OH2 6185   6.650   1.255   3.134
 2074TIP3    H1 6186   6.580   1.201   3.098
 2074TIP3    H2 6187   6.709   1.270   3.060
 2075TIP3   OH2 6188   4.020   0.281   4.351
 2075TIP3    H1 6189   4.021   0.302   4.445
 2075TIP3    H2 6190   3.976   0.356   4.310
 2076TIP3   OH2 6191   7.143   3.985   4.876
 2076TIP3    H1 6192   7.219   3.931   4.899
 2076TIP3    H2 6193   7.179   4.057   4.826
 2077TIP3   OH2 6194   0.124   3.744   4.132
 2077TIP3    H1 6195   0.092   3.690   4.204
 2077TIP3    H2 6196   0.154   3.682   4.066
 2078TIP3   OH2 6197   3.131   4.499   5.085
 2078TIP3    H1 6198   3.180   4.581   5.098
 2078TIP3    H2 6199   3.107   4.500   4.992
 2079TIP3   OH2 6200   0.239   5.335   5.710
 2079TIP3    H1 6201   0.313   5.393   5.731
 2079TIP3    H2 6202   0.195   5.321   5.794
 2080TIP3   OH2 6203   4.902   5.120   3.089
 2080TIP3    H1 6204   4.863   5.109   3.176
 2080TIP3    H2 6205   4.991   5.086   3.099
 2081TIP3   OH2 6206   3.758   2.361   5.016
 2081TIP3    H1 6207   3.842   2.380   4.973
 2081TIP3    H2 6208   3.727   2.446   5.047
 2082TIP3   OH2 6209   6.311   1.242   1.948
 2082TIP3    H1 6210   6.224   1.272   1.976
 2082TIP3    H2 6211   6.328   1.164   2.002
 2083TIP3   OH2 6212   5.921   2.557   5.564
 2083TIP3    H1 6213   5.896   2.613   5.491
 2083TIP3    H2 6214   6.017   2.558   5.563
 2084TIP3   OH2 6215   0.488   0.434   1.011
 2084TIP3    H1 6216   0.550   0.403   0.944
 2084TIP3    H2 6217   0.486   0.365   1.077
 2085TIP3   OH2 6218   5.167   0.963   3.182
 2085TIP3    H1 6219   5.138   0.984   3.093
 2085TIP3    H2 6220   5.097   0.909   3.218
 2086TIP3   OH2 6221   1.950   4.310   2.539
 2086TIP3    H1 6222   1.855   4.304   2.525
 2086TIP3    H2 6223   1.973   4.227   2.581
 2087TIP3   OH2 6224   6.857   2.320   0.512
 2087TIP3    H1 6225   6.827   2.232   0.489
 2087TIP3    H2 6226   6.853   2.369   0.430
 2088TIP3   OH2 6227   0.611   0.602   2.785
 2088TIP3    H1 6228   0.670   0.611   2.710
 2088TIP3    H2 6229   0.596   0.692   2.814
 2089TIP3   OH2 6230   6.578   1.607   4.449
 2089TIP3    H1 6231   6.561   1.619   4.356
 2089TIP3    H2 6232   6.619   1.689   4.477
 2090TIP3   OH2 6233   3.939   6.124   1.608
 2090TIP3    H1 6234   3.927   6.146   1.516
 2090TIP3    H2 6235   4.028   6.152   1.628
 2091TIP3   OH2 6236   6.524   1.560   4.805
 2091TIP3    H1 6237   6.575   1.479   4.803
 2091TIP3    H2 6238   6.590   1.629   4.811
 2092TIP3   OH2 6239   1.913   5.170   2.855
 2092TIP3    H1 6240   1.845   5.123   2.904
 2092TIP3    H2 6241   1.871   5.252   2.828
 2093TIP3   OH2 6242   6.723   4.459   3.279
 2093TIP3    H1 6243   6.680   4.521   3.338
 2093TIP3    H2 6244   6.653   4.402   3.249
 2094TIP3   OH2 6245   2.593   0.826   5.306
 2094TIP3    H1 6246   2.621   0.879   5.231
 2094TIP3    H2 6247   2.664   0.837   5.370
 2095TIP3   OH2 6248   0.985   0.140   2.859
 2095TIP3    H1 6249   1.053   0.115   2.796
 2095TIP3    H2 6250   0.903   0.118   2.814
 2096TIP3   OH2 6251   2.243   2.929   5.890
 2096TIP3    H1 6252   2.232   3.016   5.851
 2096TIP3    H2 6253   2.248   2.946   5.984
 2097TIP3   OH2 6254   1.178   1.416   3.689
 2097TIP3    H1 6255   1.160   1.498   3.643
 2097TIP3    H2 6256   1.268   1.394   3.666
 2098TIP3   OH2 6257   4.146   2.836   1.328
 2098TIP3    H1 6258   4.209   2.819   1.398
 2098TIP3    H2 6259   4.200   2.874   1.257
 2099TIP3   OH2 6260   1.040   3.601   1.143
 2099TIP3    H1 6261   1.123   3.644   1.122
 2099TIP3    H2 6262   1.060   3.547   1.220
 2100TIP3   OH2 6263   2.531   1.202   3.852
 2100TIP3    H1 6264   2.482   1.280   3.878
 2100TIP3    H2 6265   2.582   1.178   3.929
 2101TIP3   OH2 6266   3.130   3.923   0.381
 2101TIP3    H1 6267   3.189   3.990   0.348
 2101TIP3    H2 6268   3.155   3.843   0.335
 2102TIP3   OH2 6269   0.577   6.683   1.956
 2102TIP3    H1 6270   0.549   6.769   1.927
 2102TIP3    H2 6271   0.673   6.685   1.949
 2103TIP3   OH2 6272   1.779   3.729   4.078
 2103TIP3    H1 6273   1.851   3.668   4.057
 2103TIP3    H2 6274   1.714   3.712   4.010
 2104TIP3   OH2 6275   5.465   1.417   0.057
 2104TIP3    H1 6276   5.386   1.439   0.007
 2104TIP3    H2 6277   5.461   1.322   0.067
 2105TIP3   OH2 6278   1.349   0.361   2.970
 2105TIP3    H1 6279   1.359   0.448   2.931
 2105TIP3    H2 6280   1.260   0.361   3.004
 2106TIP3   OH2 6281   5.258   0.235   2.927
 2106TIP3    H1 6282   5.305   0.162   2.967
 2106TIP3    H2 6283   5.253   0.213   2.834
 2107TIP3   OH2 6284   3.657   4.913   0.899
 2107TIP3    H1 6285   3.693   4.838   0.851
 2107TIP3    H2 6286   3.718   4.985   0.881
 2108TIP3   OH2 6287   3.430   5.069   5.539
 2108TIP3    H1 6288   3.410   5.106   5.453
 2108TIP3    H2 6289   3.346   5.071   5.586
 2109TIP3   OH2 6290   5.740   2.789   4.178
 2109TIP3    H1 6291   5.692   2.729   4.235
 2109TIP3    H2 6292   5.829   2.791   4.215
 2110TIP3   OH2 6293   1.591   3.247   4.848
 2110TIP3    H1 6294   1.618   3.321   4.794
 2110TIP3    H2 6295   1.647   3.253   4.926
 2111TIP3   OH2 6296   0.827   2.666   3.778
 2111TIP3    H1 6297   0.806   2.643   3.869
 2111TIP3    H2 6298   0.777   2.746   3.762
 2112TIP3   OH2 6299   3.648   4.510   2.864
 2112TIP3    H1 6300   3.631   4.558   2.783
 2112TIP3    H2 6301   3.679   4.424   2.835
 2113TIP3   OH2 6302   6.734   0.229   1.684
 2113TIP3    H1 6303   6.732   0.142   1.645
 2113TIP3    H2 6304   6.788   0.281   1.624
 2114TIP3   OH2 6305   4.306   5.346   0.173
 2114TIP3    H1 6306   4.375   5.322   0.111
 2114TIP3    H2 6307   4.268   5.426   0.136
 2115TIP3   OH2 6308   3.347   0.807   3.755
 2115TIP3    H1 6309   3.406   0.848   3.692
 2115TIP3    H2 6310   3.404   0.774   3.824
 2116TIP3   OH2 6311   6.590   5.079   0.078
 2116TIP3    H1 6312   6.635   5.104  -0.003
 2116TIP3    H2 6313   6.497   5.094   0.060
 2117TIP3   OH2 6314   0.746   2.280   5.423
 2117TIP3    H1 6315   0.734   2.274   5.518
 2117TIP3    H2 6316   0.822   2.226   5.404
 2118TIP3   OH2 6317   4.470   0.889   4.652
 2118TIP3    H1 6318   4.478   0.963   4.592
 2118TIP3    H2 6319   4.528   0.822   4.616
 2119TIP3   OH2 6320   5.739   4.329   3.035
 2119TIP3    H1 6321   5.683   4.326   2.958
 2119TIP3    H2 6322   5.721   4.414   3.075
 2120TIP3   OH2 6323   5.249   2.799   1.161
 2120TIP3    H1 6324   5.336   2.759   1.159
 2120TIP3    H2 6325   5.205   2.759   1.236
 2121TIP3   OH2 6326   4.392   0.947   3.920
 2121TIP3    H1 6327   4.373   1.018   3.858
 2121TIP3    H2 6328   4.376   0.867   3.871
 2122TIP3   OH2 6329   4.429   3.547   3.787
 2122TIP3    H1 6330   4.391   3.557   3.700
 2122TIP3    H2 6331   4.388   3.615   3.840
 2123TIP3   OH2 6332   0.457   4.771   3.273
 2123TIP3    H1 6333   0.431   4.685   3.305
 2123TIP3    H2 6334   0.375   4.815   3.253
 2124TIP3   OH2 6335   3.219   0.088   5.059
 2124TIP3    H1 6336   3.128   0.116   5.069
 2124TIP3    H2 6337   3.225   0.007   5.109
 2125TIP3   OH2 6338   3.761   1.300   2.400
 2125TIP3    H1 6339   3.753   1.338   2.487
 2125TIP3    H2 6340   3.683   1.244   2.391
 2126TIP3   OH2 6341   2.098   6.026   1.517
 2126TIP3    H1 6342   2.109   6.116   1.486
 2126TIP3    H2 6343   2.090   6.035   1.612
 2127TIP3   OH2 6344   1.910   5.866   2.378
 2127TIP3    H1 6345   1.937   5.943   2.328
 2127TIP3    H2 6346   1.857   5.900   2.449
 2128TIP3   OH2 6347   2.274   6.131   4.343
 2128TIP3    H1 6348   2.281   6.149   4.437
 2128TIP3    H2 6349   2.195   6.078   4.335
 2129TIP3   OH2 6350   1.100   6.441   0.111
 2129TIP3    H1 6351   1.149   6.436   0.193
 2129TIP3    H2 6352   1.154   6.393   0.049
 2130TIP3   OH2 6353   4.841   1.096   1.459
 2130TIP3    H1 6354   4.842   1.020   1.516
 2130TIP3    H2 6355   4.897   1.160   1.503
 2131TIP3   OH2 6356   2.428   6.224   2.548
 2131TIP3    H1 6357   2.399   6.185   2.629
 2131TIP3    H2 6358   2.503   6.279   2.573
 2132TIP3   OH2 6359   1.947   2.386   3.554
 2132TIP3    H1 6360   1.974   2.305   3.511
 2132TIP3    H2 6361   1.853   2.375   3.569
 2133TIP3   OH2 6362   1.372   5.854   5.530
 2133TIP3    H1 6363   1.362   5.833   5.623
 2133TIP3    H2 6364   1.466   5.858   5.516
 2134TIP3   OH2 6365   3.879   2.679   0.669
 2134TIP3    H1 6366   3.974   2.678   0.684
 2134TIP3    H2 6367   3.869   2.706   0.578
 2135TIP3   OH2 6368   0.096   4.327   5.466
 2135TIP3    H1 6369   0.135   4.280   5.540
 2135TIP3    H2 6370   0.138   4.413   5.467
 2136TIP3   OH2 6371   5.809   5.499   3.534
 2136TIP3    H1 6372   5.730   5.536   3.494
 2136TIP3    H2 6373   5.791   5.501   3.628
 2137TIP3   OH2 6374   2.557   2.667   3.411
 2137TIP3    H1 6375   2.623   2.733   3.393
 2137TIP3    H2 6376   2.577   2.636   3.499
 2138TIP3   OH2 6377   5.455   0.174   5.688
 2138TIP3    H1 6378   5.384   0.238   5.696
 2138TIP3    H2 6379   5.461   0.157   5.594
 2139TIP3   OH2 6380   0.071   0.952   2.810
 2139TIP3    H1 6381   0.154   0.991   2.837
 2139TIP3    H2 6382   0.095   0.886   2.745
 2140TIP3   OH2 6383   2.249   3.344   0.086
 2140TIP3    H1 6384   2.219   3.392   0.008
 2140TIP3    H2 6385   2.343   3.332   0.072
 2141TIP3   OH2 6386   1.431   1.547   3.603
 2141TIP3    H1 6387   1.431   1.576   3.694
 2141TIP3    H2 6388   1.377   1.611   3.557
 2142TIP3   OH2 6389   5.888   0.113   3.607
 2142TIP3    H1 6390   5.826   0.072   3.547
 2142TIP3    H2 6391   5.866   0.077   3.693
 2143TIP3   OH2 6392   4.332   6.317   2.972
 2143TIP3    H1 6393   4.257   6.277   3.016
 2143TIP3    H2 6394   4.294   6.364   2.898
 2144TIP3   OH2 6395   6.803   4.715   1.807
 2144TIP3    H1 6396   6.883   4.718   1.861
 2144TIP3    H2 6397   6.806   4.628   1.766
 2145TIP3   OH2 6398   2.271   6.482   0.852
 2145TIP3    H1 6399   2.204   6.451   0.791
 2145TIP3    H2 6400   2.263   6.424   0.928
 2146TIP3   OH2 6401   4.397   2.068   3.573
 2146TIP3    H1 6402   4.388   1.990   3.627
 2146TIP3    H2 6403   4.491   2.084   3.569
 2147TIP3   OH2 6404   6.709   6.431   4.240
 2147TIP3    H1 6405   6.673   6.510   4.282
 2147TIP3    H2 6406   6.701   6.449   4.146
 2148TIP3   OH2 6407   7.003   6.366   1.533
 2148TIP3    H1 6408   6.997   6.284   1.581
 2148TIP3    H2 6409   6.913   6.398   1.527
 2149TIP3   OH2 6410   7.094   3.195   5.705
 2149TIP3    H1 6411   7.022   3.258   5.705
 2149TIP3    H2 6412   7.163   3.238   5.654
 2150TIP3   OH2 6413   7.009   6.345   2.837
 2150TIP3    H1 6414   6.989   6.422   2.784
 2150TIP3    H2 6415   7.096   6.362   2.873
 2151TIP3   OH2 6416   7.157   1.761   3.470
 2151TIP3    H1 6417   7.142   1.677   3.512
 2151TIP3    H2 6418   7.103   1.758   3.391
 2152TIP3   OH2 6419   4.701   1.685   0.805
 2152TIP3    H1 6420   4.768   1.714   0.744
 2152TIP3    H2 6421   4.738   1.702   0.892
 2153TIP3   OH2 6422   6.291   5.773   2.910
 2153TIP3    H1 6423   6.222   5.709   2.927
 2153TIP3    H2 6424   6.354   5.761   2.982
 2154TIP3   OH2 6425   6.588   4.634   3.436
 2154TIP3    H1 6426   6.677   4.668   3.448
 2154TIP3    H2 6427   6.534   4.712   3.427
 2155TIP3   OH2 6428   6.839   3.496   5.098
 2155TIP3    H1 6429   6.914   3.458   5.052
 2155TIP3    H2 6430   6.763   3.453   5.060
 2156TIP3   OH2 6431   6.313   6.737   4.352
 2156TIP3    H1 6432   6.343   6.808   4.409
 2156TIP3    H2 6433   6.269   6.676   4.410
 2157TIP3   OH2 6434   3.575   0.387   1.053
 2157TIP3    H1 6435   3.615   0.301   1.046
 2157TIP3    H2 6436   3.646   0.448   1.033
 2158TIP3   OH2 6437   1.054   6.157   2.607
 2158TIP3    H1 6438   1.007   6.193   2.681
 2158TIP3    H2 6439   1.133   6.211   2.600
 2159TIP3   OH2 6440   5.488   0.954   4.157
 2159TIP3    H1 6441   5.399   0.923   4.140
 2159TIP3    H2 6442   5.530   0.881   4.203
 2160TIP3   OH2 6443   4.481   1.620   0.662
 2160TIP3    H1 6444   4.566   1.634   0.704
 2160TIP3    H2 6445   4.440   1.707   0.661
 2161TIP3   OH2 6446   4.231   5.087   5.030
 2161TIP3    H1 6447   4.183   5.104   4.948
 2161TIP3    H2 6448   4.174   5.124   5.098
 2162TIP3   OH2 6449   6.619   0.475   0.141
 2162TIP3    H1 6450   6.537   0.513   0.175
 2162TIP3    H2 6451   6.686   0.510   0.199
 2163TIP3   OH2 6452   1.926   2.114   3.215
 2163TIP3    H1 6453   1.871   2.050   3.170
 2163TIP3    H2 6454   1.875   2.195   3.212
 2164TIP3   OH2 6455   2.863   4.970   5.810
 2164TIP3    H1 6456   2.942   4.919   5.827
 2164TIP3    H2 6457   2.827   4.932   5.729
 2165TIP3   OH2 6458   6.912   1.261   5.752
 2165TIP3    H1 6459   6.911   1.337   5.811
 2165TIP3    H2 6460   6.852   1.199   5.793
 2166TIP3   OH2 6461   3.162   1.831   3.328
 2166TIP3    H1 6462   3.168   1.737   3.311
 2166TIP3    H2 6463   3.202   1.842   3.414
 2167TIP3   OH2 6464   1.803   5.020   3.283
 2167TIP3    H1 6465   1.804   5.044   3.190
 2167TIP3    H2 6466   1.862   4.946   3.290
 2168TIP3   OH2 6467   3.405   0.441   1.256
 2168TIP3    H1 6468   3.389   0.352   1.286
 2168TIP3    H2 6469   3.468   0.431   1.185
 2169TIP3   OH2 6470   6.040   0.498   5.725
 2169TIP3    H1 6471   5.978   0.560   5.764
 2169TIP3    H2 6472   6.001   0.476   5.640
 2170TIP3   OH2 6473   2.075   5.007   0.138
 2170TIP3    H1 6474   2.038   5.027   0.052
 2170TIP3    H2 6475   1.998   4.994   0.194
 2171TIP3   OH2 6476   2.154   6.227   3.253
 2171TIP3    H1 6477   2.065   6.252   3.275
 2171TIP3    H2 6478   2.188   6.299   3.200
 2172TIP3   OH2 6479   6.418   2.177   4.012
 2172TIP3    H1 6480   6.448   2.234   3.941
 2172TIP3    H2 6481   6.325   2.166   3.995
 2173TIP3   OH2 6482   2.445   5.522   0.943
 2173TIP3    H1 6483   2.411   5.532   0.854
 2173TIP3    H2 6484   2.475   5.432   0.948
 2174TIP3   OH2 6485   6.113   2.317   2.680
 2174TIP3    H1 6486   6.177   2.296   2.748
 2174TIP3    H2 6487   6.040   2.257   2.697
 2175TIP3   OH2 6488   4.236   4.902   5.928
 2175TIP3    H1 6489   4.244   4.812   5.961
 2175TIP3    H2 6490   4.186   4.894   5.847
 2176TIP3   OH2 6491   0.691   1.099   0.886
 2176TIP3    H1 6492   0.692   1.034   0.957
 2176TIP3    H2 6493   0.761   1.160   0.909
 2177TIP3   OH2 6494   0.922   3.841   2.761
 2177TIP3    H1 6495   1.013   3.868   2.752
 2177TIP3    H2 6496   0.877   3.918   2.795
 2178TIP3   OH2 6497   2.468   1.568   2.842
 2178TIP3    H1 6498   2.397   1.619   2.802
 2178TIP3    H2 6499   2.534   1.560   2.774
 2179TIP3   OH2 6500   6.451   3.408   4.443
 2179TIP3    H1 6501   6.535   3.362   4.450
 2179TIP3    H2 6502   6.385   3.343   4.466
 2180TIP3   OH2 6503   4.881   3.765   0.070
 2180TIP3    H1 6504   4.956   3.715   0.104
 2180TIP3    H2 6505   4.807   3.704   0.077
 2181TIP3   OH2 6506   6.333   2.871   0.724
 2181TIP3    H1 6507   6.396   2.805   0.753
 2181TIP3    H2 6508   6.381   2.953   0.726
 2182TIP3   OH2 6509   5.787   6.070   3.992
 2182TIP3    H1 6510   5.766   6.087   3.900
 2182TIP3    H2 6511   5.849   5.997   3.989
 2183TIP3   OH2 6512   4.392   4.101   5.212
 2183TIP3    H1 6513   4.482   4.126   5.191
 2183TIP3    H2 6514   4.384   4.117   5.306
 2184TIP3   OH2 6515   5.053   3.185   1.604
 2184TIP3    H1 6516   5.102   3.262   1.632
 2184TIP3    H2 6517   4.968   3.218   1.577
 2185TIP3   OH2 6518   4.332   1.579   4.890
 2185TIP3    H1 6519   4.321   1.598   4.797
 2185TIP3    H2 6520   4.254   1.615   4.931
 2186TIP3   OH2 6521   0.892   1.879   5.093
 2186TIP3    H1 6522   0.978   1.842   5.112
 2186TIP3    H2 6523   0.897   1.969   5.126
 2187TIP3   OH2 6524   3.547   6.133   4.967
 2187TIP3    H1 6525   3.607   6.165   5.035
 2187TIP3    H2 6526   3.464   6.175   4.986
 2188TIP3   OH2 6527   3.846   3.023   0.518
 2188TIP3    H1 6528   3.937   3.012   0.489
 2188TIP3    H2 6529   3.852   3.076   0.597
 2189TIP3   OH2 6530   6.793   6.674   1.327
 2189TIP3    H1 6531   6.835   6.745   1.278
 2189TIP3    H2 6532   6.758   6.615   1.260
 2190TIP3   OH2 6533   1.538   5.254   0.973
 2190TIP3    H1 6534   1.556   5.316   0.903
 2190TIP3    H2 6535   1.505   5.176   0.928
 2191TIP3   OH2 6536   1.172   1.313   4.205
 2191TIP3    H1 6537   1.092   1.282   4.247
 2191TIP3    H2 6538   1.155   1.306   4.111
 2192TIP3   OH2 6539   6.952   5.727   2.290
 2192TIP3    H1 6540   6.867   5.759   2.318
 2192TIP3    H2 6541   7.013   5.758   2.357
 2193TIP3   OH2 6542   5.791   6.386   0.253
 2193TIP3    H1 6543   5.815   6.439   0.177
 2193TIP3    H2 6544   5.757   6.304   0.216
 2194TIP3   OH2 6545   4.576   6.086   0.231
 2194TIP3    H1 6546   4.554   6.127   0.315
 2194TIP3    H2 6547   4.635   6.148   0.189
 2195TIP3   OH2 6548   5.759   6.751   3.052
 2195TIP3    H1 6549   5.815   6.676   3.029
 2195TIP3    H2 6550   5.776   6.815   2.984
 2196TIP3   OH2 6551   0.206   0.701   0.666
 2196TIP3    H1 6552   0.135   0.765   0.664
 2196TIP3    H2 6553   0.235   0.694   0.575
 2197TIP3   OH2 6554   5.730   4.145   1.659
 2197TIP3    H1 6555   5.672   4.120   1.587
 2197TIP3    H2 6556   5.705   4.236   1.679
 2198TIP3   OH2 6557   4.872   5.457   1.233
 2198TIP3    H1 6558   4.792   5.417   1.266
 2198TIP3    H2 6559   4.888   5.531   1.291
 2199TIP3   OH2 6560   3.311   2.441   3.652
 2199TIP3    H1 6561   3.271   2.354   3.651
 2199TIP3    H2 6562   3.320   2.462   3.745
 2200TIP3   OH2 6563   0.442   6.605   4.190
 2200TIP3    H1 6564   0.353   6.640   4.181
 2200TIP3    H2 6565   0.430   6.514   4.218
 2201TIP3   OH2 6566   3.521   3.159   2.280
 2201TIP3    H1 6567   3.492   3.107   2.205
 2201TIP3    H2 6568   3.484   3.246   2.265
 2202TIP3   OH2 6569   0.039   6.370   2.978
 2202TIP3    H1 6570   0.083   6.427   2.914
 2202TIP3    H2 6571   0.004   6.431   3.044
 2203TIP3   OH2 6572   2.055   3.959   4.487
 2203TIP3    H1 6573   2.034   4.045   4.524
 2203TIP3    H2 6574   2.127   3.927   4.541
 2204TIP3   OH2 6575   0.893   0.199   3.702
 2204TIP3    H1 6576   0.877   0.255   3.626
 2204TIP3    H2 6577   0.979   0.159   3.685
 2205TIP3   OH2 6578   2.525   5.093   4.112
 2205TIP3    H1 6579   2.554   5.158   4.176
 2205TIP3    H2 6580   2.536   5.009   4.156
 2206TIP3   OH2 6581   5.704   6.625   1.180
 2206TIP3    H1 6582   5.632   6.599   1.123
 2206TIP3    H2 6583   5.741   6.543   1.212
 2207TIP3   OH2 6584   2.149   4.419   2.675
 2207TIP3    H1 6585   2.054   4.418   2.669
 2207TIP3    H2 6586   2.179   4.382   2.591
 2208TIP3   OH2 6587   1.459   4.293   5.753
 2208TIP3    H1 6588   1.467   4.201   5.780
 2208TIP3    H2 6589   1.374   4.320   5.786
 2209TIP3   OH2 6590   1.723   4.201   4.184
 2209TIP3    H1 6591   1.768   4.121   4.155
 2209TIP3    H2 6592   1.735   4.201   4.279
 2210TIP3   OH2 6593   1.945   4.307   0.429
 2210TIP3    H1 6594   1.869   4.270   0.474
 2210TIP3    H2 6595   1.983   4.233   0.382
 2211TIP3   OH2 6596   6.257   0.568   1.411
 2211TIP3    H1 6597   6.189   0.635   1.408
 2211TIP3    H2 6598   6.209   0.485   1.419
 2212TIP3   OH2 6599   1.540   5.221   4.786
 2212TIP3    H1 6600   1.556   5.314   4.769
 2212TIP3    H2 6601   1.460   5.201   4.739
 2213TIP3   OH2 6602   1.449   4.990   5.491
 2213TIP3    H1 6603   1.483   4.903   5.472
 2213TIP3    H2 6604   1.451   5.035   5.406
 2214TIP3   OH2 6605   6.958   2.950   0.898
 2214TIP3    H1 6606   6.930   2.925   0.810
 2214TIP3    H2 6607   7.047   2.917   0.906
 2215TIP3   OH2 6608   5.790   2.367   2.983
 2215TIP3    H1 6609   5.713   2.318   3.011
 2215TIP3    H2 6610   5.760   2.420   2.909
 2216TIP3   OH2 6611   6.923   1.487   2.053
 2216TIP3    H1 6612   6.916   1.552   1.983
 2216TIP3    H2 6613   6.897   1.533   2.132
 2217TIP3   OH2 6614   5.730   4.856   5.800
 2217TIP3    H1 6615   5.764   4.782   5.850
 2217TIP3    H2 6616   5.673   4.904   5.861
 2218TIP3   OH2 6617   4.800   3.491   1.099
 2218TIP3    H1 6618   4.809   3.579   1.061
 2218TIP3    H2 6619   4.803   3.433   1.024
 2219TIP3   OH2 6620   1.559   2.566   0.446
 2219TIP3    H1 6621   1.609   2.499   0.400
 2219TIP3    H2 6622   1.520   2.520   0.520
 2220TIP3   OH2 6623   2.192   2.879   1.263
 2220TIP3    H1 6624   2.104   2.909   1.241
 2220TIP3    H2 6625   2.180   2.822   1.339
 2221TIP3   OH2 6626   7.039   5.833   1.254
 2221TIP3    H1 6627   7.022   5.744   1.286
 2221TIP3    H2 6628   7.023   5.828   1.160
 2222TIP3   OH2 6629   0.255   5.156   5.017
 2222TIP3    H1 6630   0.308   5.234   5.002
 2222TIP3    H2 6631   0.239   5.121   4.930
 2223TIP3   OH2 6632   4.807   5.586   0.812
 2223TIP3    H1 6633   4.792   5.529   0.736
 2223TIP3    H2 6634   4.893   5.559   0.844
 2224TIP3   OH2 6635   3.944   2.391   5.882
 2224TIP3    H1 6636   3.873   2.331   5.906
 2224TIP3    H2 6637   3.977   2.357   5.799
 2225TIP3   OH2 6638   2.191   1.007   5.868
 2225TIP3    H1 6639   2.163   1.026   5.958
 2225TIP3    H2 6640   2.274   1.055   5.859
 2226TIP3   OH2 6641   2.334   5.090   0.857
 2226TIP3    H1 6642   2.394   5.036   0.907
 2226TIP3    H2 6643   2.311   5.162   0.916
 2227TIP3   OH2 6644   3.691   2.301   1.593
 2227TIP3    H1 6645   3.763   2.307   1.656
 2227TIP3    H2 6646   3.633   2.234   1.631
 2228TIP3   OH2 6647   6.912   5.067   2.537
 2228TIP3    H1 6648   6.928   4.974   2.521
 2228TIP3    H2 6649   6.893   5.103   2.450
 2229TIP3   OH2 6650   0.988   1.210   5.210
 2229TIP3    H1 6651   1.056   1.148   5.184
 2229TIP3    H2 6652   0.906   1.162   5.201
 2230TIP3   OH2 6653   5.196   6.769   5.185
 2230TIP3    H1 6654   5.174   6.751   5.276
 2230TIP3    H2 6655   5.112   6.768   5.139
 2231TIP3   OH2 6656   1.875   5.809   4.493
 2231TIP3    H1 6657   1.901   5.718   4.508
 2231TIP3    H2 6658   1.779   5.806   4.489
 2232TIP3   OH2 6659   0.623   3.117   2.450
 2232TIP3    H1 6660   0.548   3.068   2.484
 2232TIP3    H2 6661   0.663   3.057   2.386
 2233TIP3   OH2 6662   2.133   0.371  -0.021
 2233TIP3    H1 6663   2.085   0.447  -0.053
 2233TIP3    H2 6664   2.101   0.359   0.069
 2234TIP3   OH2 6665   5.181   0.661   5.745
 2234TIP3    H1 6666   5.158   0.668   5.652
 2234TIP3    H2 6667   5.103   0.624   5.786
 2235TIP3   OH2 6668   2.355   4.998   5.763
 2235TIP3    H1 6669   2.348   4.992   5.667
 2235TIP3    H2 6670   2.393   5.084   5.778
 2236TIP3   OH2 6671   3.552   3.217   1.194
 2236TIP3    H1 6672   3.477   3.159   1.208
 2236TIP3    H2 6673   3.596   3.181   1.117
 2237TIP3   OH2 6674   5.630   0.247   5.886
 2237TIP3    H1 6675   5.580   0.201   5.820
 2237TIP3    H2 6676   5.684   0.309   5.837
 2238TIP3   OH2 6677   1.810   5.331   3.611
 2238TIP3    H1 6678   1.805   5.236   3.603
 2238TIP3    H2 6679   1.768   5.364   3.531
 2239TIP3   OH2 6680   5.438   0.768   4.793
 2239TIP3    H1 6681   5.485   0.829   4.850
 2239TIP3    H2 6682   5.441   0.809   4.706
 2240TIP3   OH2 6683   6.792   6.638   5.215
 2240TIP3    H1 6684   6.777   6.597   5.300
 2240TIP3    H2 6685   6.704   6.656   5.181
 2241TIP3   OH2 6686   3.322   1.809   1.365
 2241TIP3    H1 6687   3.380   1.794   1.439
 2241TIP3    H2 6688   3.286   1.897   1.381
 2242TIP3   OH2 6689   4.472   1.574   2.907
 2242TIP3    H1 6690   4.429   1.508   2.961
 2242TIP3    H2 6691   4.553   1.533   2.878
 2243TIP3   OH2 6692   4.087   5.161   4.009
 2243TIP3    H1 6693   4.131   5.245   4.018
 2243TIP3    H2 6694   4.153   5.097   4.036
 2244TIP3   OH2 6695   5.830   2.501  -0.001
 2244TIP3    H1 6696   5.910   2.454   0.020
 2244TIP3    H2 6697   5.767   2.474   0.066
 2245TIP3   OH2 6698   4.330   6.391   5.499
 2245TIP3    H1 6699   4.402   6.365   5.441
 2245TIP3    H2 6700   4.321   6.319   5.560
 2246TIP3   OH2 6701   3.218   6.232   5.526
 2246TIP3    H1 6702   3.291   6.197   5.576
 2246TIP3    H2 6703   3.221   6.327   5.542
 2247TIP3   OH2 6704   1.427   2.639   5.649
 2247TIP3    H1 6705   1.364   2.586   5.698
 2247TIP3    H2 6706   1.376   2.713   5.617
 2248TIP3   OH2 6707   3.746   2.111   5.710
 2248TIP3    H1 6708   3.770   2.093   5.619
 2248TIP3    H2 6709   3.757   2.027   5.754
 2249TIP3   OH2 6710   7.053   4.325   3.061
 2249TIP3    H1 6711   6.993   4.278   3.004
 2249TIP3    H2 6712   7.050   4.277   3.144
 2250TIP3   OH2 6713   3.815   3.975   0.425
 2250TIP3    H1 6714   3.826   3.984   0.520
 2250TIP3    H2 6715   3.890   4.021   0.388
 2251TIP3   OH2 6716   5.128   3.301   0.422
 2251TIP3    H1 6717   5.071   3.332   0.351
 2251TIP3    H2 6718   5.071   3.250   0.478
 2252TIP3   OH2 6719   5.515   0.483   5.041
 2252TIP3    H1 6720   5.461   0.514   4.969
 2252TIP3    H2 6721   5.456   0.481   5.116
 2253TIP3   OH2 6722   6.099   3.182   3.866
 2253TIP3    H1 6723   6.062   3.127   3.935
 2253TIP3    H2 6724   6.192   3.187   3.887
 2254TIP3   OH2 6725   6.761   1.248   0.916
 2254TIP3    H1 6726   6.769   1.162   0.958
 2254TIP3    H2 6727   6.850   1.282   0.913
 2255TIP3   OH2 6728   4.296   5.395   0.477
 2255TIP3    H1 6729   4.267   5.487   0.475
 2255TIP3    H2 6730   4.275   5.362   0.390
 2256TIP3   OH2 6731   0.848   1.403   3.067
 2256TIP3    H1 6732   0.885   1.371   3.149
 2256TIP3    H2 6733   0.904   1.366   2.999
 2257TIP3   OH2 6734   3.376   0.306   3.566
 2257TIP3    H1 6735   3.333   0.245   3.625
 2257TIP3    H2 6736   3.448   0.343   3.617
 2258TIP3   OH2 6737   5.918   3.675   5.738
 2258TIP3    H1 6738   5.961   3.751   5.699
 2258TIP3    H2 6739   5.991   3.622   5.773
 2259TIP3   OH2 6740   6.361   2.504   4.012
 2259TIP3    H1 6741   6.425   2.484   3.944
 2259TIP3    H2 6742   6.409   2.491   4.094
 2260TIP3   OH2 6743   2.112   0.200   1.837
 2260TIP3    H1 6744   2.177   0.146   1.882
 2260TIP3    H2 6745   2.045   0.217   1.903
 2261TIP3   OH2 6746   2.093   3.854   3.162
 2261TIP3    H1 6747   2.143   3.814   3.090
 2261TIP3    H2 6748   2.122   3.808   3.240
 2262TIP3   OH2 6749   0.842   6.172   3.672
 2262TIP3    H1 6750   0.880   6.259   3.671
 2262TIP3    H2 6751   0.754   6.184   3.708
 2263TIP3   OH2 6752   0.692   3.684   1.790
 2263TIP3    H1 6753   0.701   3.611   1.850
 2263TIP3    H2 6754   0.781   3.718   1.781
 2264TIP3   OH2 6755   5.628   5.552   5.004
 2264TIP3    H1 6756   5.618   5.591   5.091
 2264TIP3    H2 6757   5.539   5.539   4.972
 2265TIP3   OH2 6758   3.681   2.514   1.404
 2265TIP3    H1 6759   3.751   2.577   1.420
 2265TIP3    H2 6760   3.680   2.459   1.483
 2266TIP3   OH2 6761   4.042   3.894   3.356
 2266TIP3    H1 6762   3.976   3.950   3.316
 2266TIP3    H2 6763   4.121   3.909   3.305
 2267TIP3   OH2 6764   4.010   0.431   2.811
 2267TIP3    H1 6765   4.032   0.478   2.891
 2267TIP3    H2 6766   3.975   0.497   2.752
 2268TIP3   OH2 6767   3.485   0.021   3.821
 2268TIP3    H1 6768   3.471   0.110   3.853
 2268TIP3    H2 6769   3.442   0.019   3.735
 2269TIP3   OH2 6770   6.984   2.580   3.120
 2269TIP3    H1 6771   6.911   2.631   3.085
 2269TIP3    H2 6772   7.054   2.643   3.134
 2270TIP3   OH2 6773   4.963   3.653   4.302
 2270TIP3    H1 6774   4.974   3.558   4.297
 2270TIP3    H2 6775   4.980   3.684   4.213
 2271TIP3   OH2 6776   0.569   6.037   0.946
 2271TIP3    H1 6777   0.563   6.107   0.881
 2271TIP3    H2 6778   0.627   6.073   1.013
 2272TIP3   OH2 6779   6.663   4.134   1.164
 2272TIP3    H1 6780   6.635   4.116   1.253
 2272TIP3    H2 6781   6.595   4.095   1.109
 2273TIP3   OH2 6782   2.022   4.117   3.058
 2273TIP3    H1 6783   2.049   4.040   3.109
 2273TIP3    H2 6784   2.045   4.191   3.114
 2274TIP3   OH2 6785   5.703   3.535   3.349
 2274TIP3    H1 6786   5.743   3.497   3.427
 2274TIP3    H2 6787   5.681   3.460   3.294
 2275TIP3   OH2 6788   2.965   1.220   4.807
 2275TIP3    H1 6789   2.983   1.170   4.886
 2275TIP3    H2 6790   2.990   1.161   4.735
 2276TIP3   OH2 6791   3.353   4.682   5.587
 2276TIP3    H1 6792   3.294   4.692   5.512
 2276TIP3    H2 6793   3.349   4.589   5.609
 2277TIP3   OH2 6794   0.173   2.930   2.917
 2277TIP3    H1 6795   0.122   2.862   2.873
 2277TIP3    H2 6796   0.108   2.994   2.946
 2278TIP3   OH2 6797   5.252   2.396   3.926
 2278TIP3    H1 6798   5.320   2.463   3.930
 2278TIP3    H2 6799   5.170   2.446   3.923
 2279TIP3   OH2 6800   3.655   1.061   3.008
 2279TIP3    H1 6801   3.745   1.031   3.017
 2279TIP3    H2 6802   3.602   0.985   3.032
 2280TIP3   OH2 6803   3.107   6.118   5.815
 2280TIP3    H1 6804   3.179   6.181   5.822
 2280TIP3    H2 6805   3.049   6.154   5.748
 2281TIP3   OH2 6806   6.701   4.157   1.655
 2281TIP3    H1 6807   6.778   4.113   1.619
 2281TIP3    H2 6808   6.639   4.161   1.582
 2282TIP3   OH2 6809   5.403   6.094   3.740
 2282TIP3    H1 6810   5.494   6.067   3.751
 2282TIP3    H2 6811   5.408   6.174   3.688
 2283TIP3   OH2 6812   2.315   5.181   3.666
 2283TIP3    H1 6813   2.385   5.202   3.728
 2283TIP3    H2 6814   2.252   5.252   3.678
 2284TIP3   OH2 6815   3.511   2.314   2.379
 2284TIP3    H1 6816   3.599   2.351   2.380
 2284TIP3    H2 6817   3.458   2.375   2.430
 2285TIP3   OH2 6818   0.222   0.653   5.439
 2285TIP3    H1 6819   0.226   0.610   5.525
 2285TIP3    H2 6820   0.168   0.596   5.386
 2286TIP3   OH2 6821   0.956   0.543   4.493
 2286TIP3    H1 6822   1.046   0.576   4.492
 2286TIP3    H2 6823   0.902   0.621   4.494
 2287TIP3   OH2 6824   5.646   3.585   4.081
 2287TIP3    H1 6825   5.701   3.617   4.153
 2287TIP3    H2 6826   5.575   3.538   4.124
 2288TIP3   OH2 6827   7.124   2.343   0.886
 2288TIP3    H1 6828   7.084   2.300   0.811
 2288TIP3    H2 6829   7.153   2.428   0.852
 2289TIP3   OH2 6830   6.845   3.187   2.209
 2289TIP3    H1 6831   6.896   3.233   2.276
 2289TIP3    H2 6832   6.817   3.256   2.149
 2290TIP3   OH2 6833   7.199   3.826   4.532
 2290TIP3    H1 6834   7.145   3.884   4.479
 2290TIP3    H2 6835   7.144   3.804   4.607
 2291TIP3   OH2 6836   6.316   0.523   5.886
 2291TIP3    H1 6837   6.359   0.510   5.801
 2291TIP3    H2 6838   6.228   0.553   5.864
 2292TIP3   OH2 6839   5.709   4.878   1.369
 2292TIP3    H1 6840   5.730   4.789   1.397
 2292TIP3    H2 6841   5.777   4.899   1.305
 2293TIP3   OH2 6842   0.054   3.024   1.507
 2293TIP3    H1 6843  -0.011   2.985   1.567
 2293TIP3    H2 6844   0.003   3.085   1.453
 2294TIP3   OH2 6845   1.592   4.591   0.421
 2294TIP3    H1 6846   1.551   4.530   0.360
 2294TIP3    H2 6847   1.685   4.590   0.398
 2295TIP3   OH2 6848   1.443   1.281   3.584
 2295TIP3    H1 6849   1.527   1.235   3.591
 2295TIP3    H2 6850   1.466   1.374   3.591
 2296TIP3   OH2 6851   5.980   4.779   1.493
 2296TIP3    H1 6852   5.976   4.712   1.425
 2296TIP3    H2 6853   6.066   4.766   1.534
 2297TIP3   OH2 6854   1.988   2.395   1.118
 2297TIP3    H1 6855   2.032   2.424   1.038
 2297TIP3    H2 6856   2.017   2.457   1.185
 2298TIP3   OH2 6857   0.284   1.039   3.047
 2298TIP3    H1 6858   0.363   1.091   3.062
 2298TIP3    H2 6859   0.316   0.958   3.008
 2299TIP3   OH2 6860   0.492   2.068   2.534
 2299TIP3    H1 6861   0.575   2.089   2.492
 2299TIP3    H2 6862   0.456   2.153   2.558
 2300TIP3   OH2 6863   2.397   2.490   2.727
 2300TIP3    H1 6864   2.412   2.400   2.756
 2300TIP3    H2 6865   2.484   2.522   2.704
 2301TIP3   OH2 6866   6.866   6.559   3.899
 2301TIP3    H1 6867   6.836   6.649   3.912
 2301TIP3    H2 6868   6.785   6.508   3.894
 2302TIP3   OH2 6869   1.733   5.399   1.118
 2302TIP3    H1 6870   1.672   5.359   1.057
 2302TIP3    H2 6871   1.753   5.329   1.181
 2303TIP3   OH2 6872   3.633   4.729   4.036
 2303TIP3    H1 6873   3.631   4.818   4.070
 2303TIP3    H2 6874   3.652   4.740   3.943
 2304TIP3   OH2 6875   3.770   0.165   4.885
 2304TIP3    H1 6876   3.811   0.112   4.817
 2304TIP3    H2 6877   3.679   0.134   4.889
 2305TIP3   OH2 6878   5.838   0.783   2.262
 2305TIP3    H1 6879   5.817   0.871   2.230
 2305TIP3    H2 6880   5.763   0.729   2.235
 2306TIP3   OH2 6881   0.330   0.469   3.149
 2306TIP3    H1 6882   0.303   0.559   3.164
 2306TIP3    H2 6883   0.261   0.432   3.093
 2307TIP3   OH2 6884   3.084   3.892   2.130
 2307TIP3    H1 6885   3.004   3.917   2.178
 2307TIP3    H2 6886   3.081   3.796   2.127
 2308TIP3   OH2 6887   2.477   6.562   3.999
 2308TIP3    H1 6888   2.549   6.591   3.944
 2308TIP3    H2 6889   2.418   6.637   4.003
 2309TIP3   OH2 6890   1.656   6.484   1.634
 2309TIP3    H1 6891   1.700   6.489   1.719
 2309TIP3    H2 6892   1.718   6.524   1.573
 2310TIP3   OH2 6893   3.887   3.904   2.649
 2310TIP3    H1 6894   3.979   3.917   2.675
 2310TIP3    H2 6895   3.869   3.813   2.671
 2311TIP3   OH2 6896   5.074   3.892   2.604
 2311TIP3    H1 6897   5.089   3.887   2.698
 2311TIP3    H2 6898   4.985   3.926   2.596
 2312TIP3   OH2 6899   2.078   5.447   2.618
 2312TIP3    H1 6900   2.038   5.440   2.705
 2312TIP3    H2 6901   2.079   5.541   2.599
 2313TIP3   OH2 6902   1.748   3.496   5.780
 2313TIP3    H1 6903   1.817   3.463   5.838
 2313TIP3    H2 6904   1.777   3.584   5.756
 2314TIP3   OH2 6905   4.162   2.231   2.543
 2314TIP3    H1 6906   4.148   2.167   2.614
 2314TIP3    H2 6907   4.249   2.211   2.510
 2315TIP3   OH2 6908   3.120   2.493   5.035
 2315TIP3    H1 6909   3.110   2.588   5.036
 2315TIP3    H2 6910   3.116   2.467   5.127
 2316TIP3   OH2 6911   6.012   5.484   0.731
 2316TIP3    H1 6912   6.095   5.450   0.764
 2316TIP3    H2 6913   5.955   5.486   0.808
 2317TIP3   OH2 6914   0.201   2.488   1.464
 2317TIP3    H1 6915   0.147   2.444   1.530
 2317TIP3    H2 6916   0.285   2.504   1.508
 2318TIP3   OH2 6917   4.634   5.116   5.117
 2318TIP3    H1 6918   4.669   5.185   5.174
 2318TIP3    H2 6919   4.711   5.064   5.093
 2319TIP3   OH2 6920   1.310   5.525   5.787
 2319TIP3    H1 6921   1.398   5.543   5.754
 2319TIP3    H2 6922   1.274   5.461   5.725
 2320TIP3   OH2 6923   6.220   6.224   2.072
 2320TIP3    H1 6924   6.192   6.313   2.050
 2320TIP3    H2 6925   6.148   6.189   2.126
 2321TIP3   OH2 6926   3.657   0.760   2.504
 2321TIP3    H1 6927   3.640   0.826   2.437
 2321TIP3    H2 6928   3.629   0.678   2.464
 2322TIP3   OH2 6929   0.293   2.910   3.488
 2322TIP3    H1 6930   0.259   2.910   3.398
 2322TIP3    H2 6931   0.273   2.822   3.521
 2323TIP3   OH2 6932   4.260   1.329   3.187
 2323TIP3    H1 6933   4.212   1.295   3.111
 2323TIP3    H2 6934   4.212   1.408   3.213
 2324TIP3   OH2 6935   1.440   2.386   4.890
 2324TIP3    H1 6936   1.431   2.295   4.918
 2324TIP3    H2 6937   1.511   2.384   4.825
 2325TIP3   OH2 6938   5.852   5.138   0.740
 2325TIP3    H1 6939   5.800   5.102   0.811
 2325TIP3    H2 6940   5.805   5.219   0.716
 2326TIP3   OH2 6941   6.110   6.502   1.918
 2326TIP3    H1 6942   6.109   6.435   1.849
 2326TIP3    H2 6943   6.147   6.579   1.875
 2327TIP3   OH2 6944   6.975   2.400   3.556
 2327TIP3    H1 6945   6.907   2.465   3.573
 2327TIP3    H2 6946   7.019   2.389   3.641
 2328TIP3   OH2 6947   3.390   4.967   0.128
 2328TIP3    H1 6948   3.390   4.937   0.036
 2328TIP3    H2 6949   3.412   4.889   0.178
 2329TIP3   OH2 6950   6.345   5.006   5.080
 2329TIP3    H1 6951   6.271   5.022   5.138
 2329TIP3    H2 6952   6.324   5.055   5.000
 2330TIP3   OH2 6953   7.026   6.567   4.144
 2330TIP3    H1 6954   6.983   6.571   4.058
 2330TIP3    H2 6955   6.964   6.519   4.199
 2331TIP3   OH2 6956   7.138   3.666   4.764
 2331TIP3    H1 6957   7.195   3.713   4.824
 2331TIP3    H2 6958   7.052   3.666   4.807
 2332TIP3   OH2 6959   3.032   1.721   0.525
 2332TIP3    H1 6960   3.072   1.685   0.604
 2332TIP3    H2 6961   3.088   1.795   0.502
 2333TIP3   OH2 6962   1.630   4.984   4.617
 2333TIP3    H1 6963   1.613   5.075   4.642
 2333TIP3    H2 6964   1.702   4.989   4.554
 2334TIP3   OH2 6965   3.449   6.618   2.267
 2334TIP3    H1 6966   3.362   6.645   2.237
 2334TIP3    H2 6967   3.481   6.559   2.199
 2335TIP3   OH2 6968   1.262   3.252   1.736
 2335TIP3    H1 6969   1.322   3.238   1.663
 2335TIP3    H2 6970   1.182   3.206   1.711
 2336TIP3   OH2 6971   5.040   5.403   5.229
 2336TIP3    H1 6972   5.051   5.389   5.323
 2336TIP3    H2 6973   5.121   5.447   5.202
 2337TIP3   OH2 6974   4.053   3.295   2.913
 2337TIP3    H1 6975   4.143   3.265   2.909
 2337TIP3    H2 6976   4.001   3.214   2.908
 2338TIP3   OH2 6977   1.342   1.000   0.795
 2338TIP3    H1 6978   1.371   0.925   0.847
 2338TIP3    H2 6979   1.339   1.073   0.857
 2339TIP3   OH2 6980   1.055   3.373   4.618
 2339TIP3    H1 6981   1.033   3.419   4.537
 2339TIP3    H2 6982   1.150   3.384   4.626
 2340TIP3   OH2 6983   2.324   3.237   5.046
 2340TIP3    H1 6984   2.346   3.224   5.138
 2340TIP3    H2 6985   2.400   3.284   5.010
 2341TIP3   OH2 6986   6.044   2.961   2.606
 2341TIP3    H1 6987   6.139   2.966   2.594
 2341TIP3    H2 6988   6.032   2.975   2.700
 2342TIP3   OH2 6989   1.347   5.924   2.337
 2342TIP3    H1 6990   1.355   5.851   2.276
 2342TIP3    H2 6991   1.293   5.988   2.291
 2343TIP3   OH2 6992   1.557   3.338   3.460
 2343TIP3    H1 6993   1.618   3.280   3.507
 2343TIP3    H2 6994   1.614   3.405   3.422
 2344TIP3   OH2 6995   6.455   6.541   4.825
 2344TIP3    H1 6996   6.413   6.624   4.800
 2344TIP3    H2 6997   6.405   6.510   4.901
 2345TIP3   OH2 6998   4.124   6.563   0.493
 2345TIP3    H1 6999   4.199   6.584   0.437
 2345TIP3    H2 7000   4.076   6.645   0.501
 2346TIP3   OH2 7001   2.740  -0.009   5.307
 2346TIP3    H1 7002   2.682   0.015   5.235
 2346TIP3    H2 7003   2.790   0.070   5.325
 2347TIP3   OH2 7004   1.070   4.025   4.204
 2347TIP3    H1 7005   1.118   4.080   4.142
 2347TIP3    H2 7006   1.124   4.024   4.282
 2348TIP3   OH2 7007   2.718   3.737   0.181
 2348TIP3    H1 7008   2.731   3.725   0.087
 2348TIP3    H2 7009   2.639   3.792   0.187
 2349TIP3   OH2 7010   6.260   5.511   5.572
 2349TIP3    H1 7011   6.225   5.594   5.540
 2349TIP3    H2 7012   6.252   5.451   5.498
 2350TIP3   OH2 7013   2.754   0.307   5.611
 2350TIP3    H1 7014   2.795   0.361   5.542
 2350TIP3    H2 7015   2.783   0.347   5.693
 2351TIP3   OH2 7016   3.822   3.343   0.042
 2351TIP3    H1 7017   3.752   3.407   0.056
 2351TIP3    H2 7018   3.804   3.307  -0.045
 2352TIP3   OH2 7019   6.551   1.257   0.421
 2352TIP3    H1 7020   6.600   1.292   0.495
 2352TIP3    H2 7021   6.617   1.244   0.353
 2353TIP3   OH2 7022   6.340   6.211   1.036
 2353TIP3    H1 7023   6.320   6.261   0.957
 2353TIP3    H2 7024   6.318   6.121   1.013
 2354TIP3   OH2 7025   4.819   1.716   1.045
 2354TIP3    H1 7026   4.776   1.730   1.129
 2354TIP3    H2 7027   4.899   1.767   1.050
 2355TIP3   OH2 7028   7.066   3.122   1.285
 2355TIP3    H1 7029   6.996   3.122   1.351
 2355TIP3    H2 7030   7.026   3.162   1.208
 2356TIP3   OH2 7031   1.503   3.779   5.806
 2356TIP3    H1 7032   1.528   3.718   5.736
 2356TIP3    H2 7033   1.428   3.738   5.848
 2357TIP3   OH2 7034   0.666   2.509   1.803
 2357TIP3    H1 7035   0.624   2.556   1.731
 2357TIP3    H2 7036   0.651   2.565   1.879
 2358TIP3   OH2 7037   0.411   2.750   2.825
 2358TIP3    H1 7038   0.456   2.699   2.892
 2358TIP3    H2 7039   0.353   2.809   2.874
 2359TIP3   OH2 7040   5.704   0.504   0.917
 2359TIP3    H1 7041   5.750   0.448   0.980
 2359TIP3    H2 7042   5.618   0.463   0.908
 2360TIP3   OH2 7043   2.698   3.314   5.028
 2360TIP3    H1 7044   2.781   3.358   5.044
 2360TIP3    H2 7045   2.654   3.315   5.114
 2361TIP3   OH2 7046   1.735   6.096   3.333
 2361TIP3    H1 7047   1.727   6.084   3.238
 2361TIP3    H2 7048   1.783   6.019   3.362
 2362TIP3   OH2 7049   2.662   0.436   3.303
 2362TIP3    H1 7050   2.594   0.468   3.362
 2362TIP3    H2 7051   2.677   0.345   3.330
 2363TIP3   OH2 7052   0.692   5.678   4.085
 2363TIP3    H1 7053   0.759   5.675   4.017
 2363TIP3    H2 7054   0.709   5.759   4.133
 2364TIP3   OH2 7055   1.585   1.202   1.557
 2364TIP3    H1 7056   1.675   1.200   1.524
 2364TIP3    H2 7057   1.531   1.218   1.479
 2365TIP3   OH2 7058   4.556   3.393   1.608
 2365TIP3    H1 7059   4.505   3.430   1.536
 2365TIP3    H2 7060   4.519   3.433   1.687
 2366TIP3   OH2 7061   3.569   1.577   1.512
 2366TIP3    H1 7062   3.587   1.595   1.604
 2366TIP3    H2 7063   3.654   1.589   1.469
 2367TIP3   OH2 7064   4.297   0.995   0.950
 2367TIP3    H1 7065   4.261   1.051   0.881
 2367TIP3    H2 7066   4.245   1.018   1.028
 2368TIP3   OH2 7067   4.538   5.718   0.577
 2368TIP3    H1 7068   4.622   5.718   0.531
 2368TIP3    H2 7069   4.560   5.734   0.668
 2369TIP3   OH2 7070   5.329   0.324   4.357
 2369TIP3    H1 7071   5.241   0.291   4.376
 2369TIP3    H2 7072   5.325   0.353   4.266
 2370TIP3   OH2 7073   6.990   5.557   4.925
 2370TIP3    H1 7074   7.000   5.532   4.834
 2370TIP3    H2 7075   7.009   5.651   4.927
 2371TIP3   OH2 7076   1.278   5.342   2.374
 2371TIP3    H1 7077   1.288   5.272   2.309
 2371TIP3    H2 7078   1.192   5.379   2.357
 2372TIP3   OH2 7079   4.543   0.073   3.516
 2372TIP3    H1 7080   4.496   0.135   3.572
 2372TIP3    H2 7081   4.476   0.009   3.490
 2373TIP3   OH2 7082   5.454   6.445   2.359
 2373TIP3    H1 7083   5.511   6.397   2.300
 2373TIP3    H2 7084   5.492   6.432   2.446
 2374TIP3   OH2 7085   7.066   2.414   5.234
 2374TIP3    H1 7086   7.117   2.473   5.179
 2374TIP3    H2 7087   6.976   2.425   5.205
 2375TIP3   OH2 7088   4.131   4.484   4.630
 2375TIP3    H1 7089   4.191   4.554   4.656
 2375TIP3    H2 7090   4.044   4.524   4.633
 2376TIP3   OH2 7091   5.172   3.974   4.191
 2376TIP3    H1 7092   5.257   3.957   4.150
 2376TIP3    H2 7093   5.119   3.898   4.167
 2377TIP3   OH2 7094   2.968   4.754   4.257
 2377TIP3    H1 7095   2.975   4.779   4.165
 2377TIP3    H2 7096   2.955   4.659   4.255
 2378TIP3   OH2 7097   2.460   5.839   2.632
 2378TIP3    H1 7098   2.405   5.863   2.706
 2378TIP3    H2 7099   2.549   5.845   2.665
 2379TIP3   OH2 7100   2.922   5.232   5.698
 2379TIP3    H1 7101   2.978   5.216   5.622
 2379TIP3    H2 7102   2.911   5.146   5.738
 2380TIP3   OH2 7103   3.078   3.031   1.352
 2380TIP3    H1 7104   3.047   3.107   1.303
 2380TIP3    H2 7105   3.017   2.961   1.329
 2381TIP3   OH2 7106   6.293   2.816   4.755
 2381TIP3    H1 7107   6.383   2.794   4.781
 2381TIP3    H2 7108   6.280   2.906   4.785
 2382TIP3   OH2 7109   5.096   3.982   2.872
 2382TIP3    H1 7110   5.108   4.062   2.821
 2382TIP3    H2 7111   5.001   3.974   2.881
 2383TIP3   OH2 7112   5.887   2.343   5.710
 2383TIP3    H1 7113   5.890   2.434   5.682
 2383TIP3    H2 7114   5.810   2.307   5.665
 2384TIP3   OH2 7115   6.455   3.989   1.697
 2384TIP3    H1 7116   6.443   3.965   1.605
 2384TIP3    H2 7117   6.546   3.967   1.716
 2385TIP3   OH2 7118   5.369   1.417   0.587
 2385TIP3    H1 7119   5.389   1.483   0.521
 2385TIP3    H2 7120   5.310   1.461   0.648
 2386TIP3   OH2 7121   4.875   3.397   2.696
 2386TIP3    H1 7122   4.827   3.326   2.739
 2386TIP3    H2 7123   4.807   3.455   2.662
 2387TIP3   OH2 7124   3.330   1.159   1.921
 2387TIP3    H1 7125   3.244   1.147   1.882
 2387TIP3    H2 7126   3.379   1.210   1.856
 2388TIP3   OH2 7127   4.341   2.931   2.803
 2388TIP3    H1 7128   4.266   2.944   2.745
 2388TIP3    H2 7129   4.416   2.960   2.751
 2389TIP3   OH2 7130   7.024   5.001   2.013
 2389TIP3    H1 7131   7.067   4.918   2.031
 2389TIP3    H2 7132   6.952   5.005   2.076
 2390TIP3   OH2 7133   5.725   2.024   1.472
 2390TIP3    H1 7134   5.813   1.994   1.496
 2390TIP3    H2 7135   5.668   1.948   1.490
 2391TIP3   OH2 7136   6.091   1.159   2.239
 2391TIP3    H1 7137   6.091   1.228   2.173
 2391TIP3    H2 7138   6.082   1.078   2.189
 2392TIP3   OH2 7139   5.455   6.364   4.807
 2392TIP3    H1 7140   5.377   6.392   4.855
 2392TIP3    H2 7141   5.497   6.445   4.779
 2393TIP3   OH2 7142   7.250   0.042   0.556
 2393TIP3    H1 7143   7.212   0.130   0.544
 2393TIP3    H2 7144   7.174  -0.014   0.571
 2394TIP3   OH2 7145   2.934   1.541   3.470
 2394TIP3    H1 7146   2.999   1.568   3.406
 2394TIP3    H2 7147   2.908   1.453   3.443
 2395TIP3   OH2 7148   5.002   4.871   5.878
 2395TIP3    H1 7149   5.036   4.832   5.958
 2395TIP3    H2 7150   5.054   4.832   5.807
 2396TIP3   OH2 7151   2.213   2.451   3.933
 2396TIP3    H1 7152   2.187   2.375   3.881
 2396TIP3    H2 7153   2.196   2.526   3.877
 2397TIP3   OH2 7154   6.114   1.261   4.250
 2397TIP3    H1 7155   6.181   1.327   4.238
 2397TIP3    H2 7156   6.053   1.300   4.313
 2398TIP3   OH2 7157   4.230   4.597   3.912
 2398TIP3    H1 7158   4.295   4.666   3.908
 2398TIP3    H2 7159   4.199   4.586   3.822
 2399TIP3   OH2 7160   4.795   3.765   5.815
 2399TIP3    H1 7161   4.816   3.678   5.781
 2399TIP3    H2 7162   4.703   3.759   5.841
 2400TIP3   OH2 7163   3.724   4.124   1.924
 2400TIP3    H1 7164   3.661   4.145   1.992
 2400TIP3    H2 7165   3.798   4.182   1.940
 2401TIP3   OH2 7166   2.079   0.125   0.744
 2401TIP3    H1 7167   2.081   0.219   0.760
 2401TIP3    H2 7168   2.044   0.087   0.825
 2402TIP3   OH2 7169   2.872   5.749   0.455
 2402TIP3    H1 7170   2.866   5.820   0.392
 2402TIP3    H2 7171   2.818   5.679   0.417
 2403TIP3   OH2 7172   2.062   4.603   1.989
 2403TIP3    H1 7173   2.152   4.574   2.004
 2403TIP3    H2 7174   2.008   4.528   2.014
 2404TIP3   OH2 7175   1.154   5.790   4.711
 2404TIP3    H1 7176   1.219   5.731   4.747
 2404TIP3    H2 7177   1.083   5.791   4.775
 2405TIP3   OH2 7178   5.251   0.914   3.788
 2405TIP3    H1 7179   5.231   0.828   3.825
 2405TIP3    H2 7180   5.323   0.947   3.842
 2406TIP3   OH2 7181   1.146   1.221   0.864
 2406TIP3    H1 7182   1.056   1.221   0.896
 2406TIP3    H2 7183   1.186   1.298   0.905
 2407TIP3   OH2 7184   3.573   5.329   0.683
 2407TIP3    H1 7185   3.524   5.299   0.607
 2407TIP3    H2 7186   3.518   5.306   0.758
 2408TIP3   OH2 7187   1.581   1.390   3.863
 2408TIP3    H1 7188   1.654   1.388   3.801
 2408TIP3    H2 7189   1.555   1.299   3.872
 2409TIP3   OH2 7190   2.766   5.922   5.111
 2409TIP3    H1 7191   2.803   5.993   5.059
 2409TIP3    H2 7192   2.734   5.965   5.191
 2410TIP3   OH2 7193   4.821   0.881   1.636
 2410TIP3    H1 7194   4.772   0.886   1.718
 2410TIP3    H2 7195   4.885   0.811   1.651
 2411TIP3   OH2 7196   5.398   5.113   4.605
 2411TIP3    H1 7197   5.397   5.208   4.592
 2411TIP3    H2 7198   5.311   5.093   4.641
 2412TIP3   OH2 7199   5.597   5.020   2.388
 2412TIP3    H1 7200   5.680   4.995   2.428
 2412TIP3    H2 7201   5.538   5.032   2.461
 2413TIP3   OH2 7202   6.796   2.628   5.754
 2413TIP3    H1 7203   6.866   2.658   5.812
 2413TIP3    H2 7204   6.733   2.701   5.753
 2414TIP3   OH2 7205   2.203   5.636   4.864
 2414TIP3    H1 7206   2.243   5.550   4.877
 2414TIP3    H2 7207   2.111   5.616   4.842
 2415TIP3   OH2 7208   4.738   3.754   4.378
 2415TIP3    H1 7209   4.764   3.836   4.421
 2415TIP3    H2 7210   4.815   3.726   4.330
 2416TIP3   OH2 7211   4.782   4.426   2.130
 2416TIP3    H1 7212   4.724   4.502   2.120
 2416TIP3    H2 7213   4.737   4.355   2.084
 2417TIP3   OH2 7214   5.581   5.364   3.800
 2417TIP3    H1 7215   5.541   5.353   3.887
 2417TIP3    H2 7216   5.673   5.381   3.818
 2418TIP3   OH2 7217   4.593   1.280   2.485
 2418TIP3    H1 7218   4.645   1.332   2.423
 2418TIP3    H2 7219   4.572   1.200   2.437
 2419TIP3   OH2 7220   1.938   5.309   1.684
 2419TIP3    H1 7221   2.026   5.340   1.706
 2419TIP3    H2 7222   1.916   5.249   1.755
 2420TIP3   OH2 7223   4.476   5.486   2.332
 2420TIP3    H1 7224   4.463   5.475   2.237
 2420TIP3    H2 7225   4.388   5.480   2.369
 2421TIP3   OH2 7226   1.497   4.507   4.720
 2421TIP3    H1 7227   1.545   4.589   4.734
 2421TIP3    H2 7228   1.498   4.464   4.806
 2422TIP3   OH2 7229   3.499   4.142   4.830
 2422TIP3    H1 7230   3.577   4.197   4.837
 2422TIP3    H2 7231   3.526   4.058   4.866
 2423TIP3   OH2 7232   0.784   0.692   4.916
 2423TIP3    H1 7233   0.827   0.777   4.899
 2423TIP3    H2 7234   0.842   0.628   4.875
 2424TIP3   OH2 7235   5.053   5.886   2.944
 2424TIP3    H1 7236   4.988   5.818   2.961
 2424TIP3    H2 7237   5.137   5.843   2.958
 2425TIP3   OH2 7238   4.095   2.867   0.871
 2425TIP3    H1 7239   4.098   2.772   0.868
 2425TIP3    H2 7240   4.009   2.887   0.908
 2426TIP3   OH2 7241   1.983   2.531   3.163
 2426TIP3    H1 7242   1.914   2.592   3.190
 2426TIP3    H2 7243   2.064   2.576   3.184
 2427TIP3   OH2 7244   1.283   5.268   5.262
 2427TIP3    H1 7245   1.268   5.174   5.250
 2427TIP3    H2 7246   1.201   5.302   5.297
 2428TIP3   OH2 7247   6.606   3.107   1.359
 2428TIP3    H1 7248   6.672   3.037   1.366
 2428TIP3    H2 7249   6.645   3.170   1.298
 2429TIP3   OH2 7250   0.937   6.683   3.371
 2429TIP3    H1 7251   0.988   6.616   3.326
 2429TIP3    H2 7252   0.993   6.761   3.370
 2430TIP3   OH2 7253   4.375   1.341   5.815
 2430TIP3    H1 7254   4.341   1.357   5.727
 2430TIP3    H2 7255   4.457   1.391   5.818
 2431TIP3   OH2 7256   4.802   1.652   5.584
 2431TIP3    H1 7257   4.824   1.586   5.650
 2431TIP3    H2 7258   4.828   1.735   5.624
 2432TIP3   OH2 7259   3.843   5.303   5.391
 2432TIP3    H1 7260   3.903   5.295   5.464
 2432TIP3    H2 7261   3.834   5.398   5.377
 2433TIP3   OH2 7262   4.199   0.486   2.461
 2433TIP3    H1 7263   4.195   0.403   2.510
 2433TIP3    H2 7264   4.283   0.524   2.485
 2434TIP3   OH2 7265   5.750   5.911   2.370
 2434TIP3    H1 7266   5.784   5.861   2.295
 2434TIP3    H2 7267   5.729   5.996   2.333
 2435TIP3   OH2 7268   1.390   5.970   3.171
 2435TIP3    H1 7269   1.454   5.962   3.100
 2435TIP3    H2 7270   1.315   5.919   3.142
 2436TIP3   OH2 7271   2.227   5.251   0.232
 2436TIP3    H1 7272   2.210   5.161   0.204
 2436TIP3    H2 7273   2.246   5.243   0.326
 2437TIP3   OH2 7274   4.995   0.455   1.919
 2437TIP3    H1 7275   4.934   0.492   1.982
 2437TIP3    H2 7276   5.028   0.375   1.961
 2438TIP3   OH2 7277   3.407   4.783   4.681
 2438TIP3    H1 7278   3.356   4.719   4.732
 2438TIP3    H2 7279   3.341   4.835   4.635
 2439TIP3   OH2 7280   1.208   4.911   3.768
 2439TIP3    H1 7281   1.220   4.820   3.794
 2439TIP3    H2 7282   1.222   4.911   3.673
 2440TIP3   OH2 7283   4.701   1.455   4.810
 2440TIP3    H1 7284   4.681   1.499   4.893
 2440TIP3    H2 7285   4.785   1.492   4.784
 2441TIP3   OH2 7286   1.620   3.474   4.702
 2441TIP3    H1 7287   1.634   3.445   4.612
 2441TIP3    H2 7288   1.662   3.559   4.708
 2442TIP3   OH2 7289   6.553   2.126   5.199
 2442TIP3    H1 7290   6.643   2.095   5.196
 2442TIP3    H2 7291   6.516   2.085   5.277
 2443TIP3   OH2 7292   1.145   4.244   5.564
 2443TIP3    H1 7293   1.100   4.269   5.645
 2443TIP3    H2 7294   1.123   4.152   5.551
 2444TIP3   OH2 7295   1.686   4.213   1.124
 2444TIP3    H1 7296   1.619   4.270   1.086
 2444TIP3    H2 7297   1.659   4.124   1.098
 2445TIP3   OH2 7298   2.134   2.478   0.915
 2445TIP3    H1 7299   2.127   2.566   0.953
 2445TIP3    H2 7300   2.141   2.493   0.821
 2446TIP3   OH2 7301   5.636   3.092   5.021
 2446TIP3    H1 7302   5.732   3.090   5.013
 2446TIP3    H2 7303   5.610   3.001   5.011
 2447TIP3   OH2 7304   6.529   0.144   1.141
 2447TIP3    H1 7305   6.468   0.112   1.075
 2447TIP3    H2 7306   6.479   0.139   1.223
 2448TIP3   OH2 7307   4.906   6.728   4.583
 2448TIP3    H1 7308   4.901   6.761   4.493
 2448TIP3    H2 7309   4.997   6.696   4.591
 2449TIP3   OH2 7310   1.201   6.776   3.107
 2449TIP3    H1 7311   1.250   6.695   3.117
 2449TIP3    H2 7312   1.192   6.810   3.196
 2450TIP3   OH2 7313   2.252   5.885   2.424
 2450TIP3    H1 7314   2.326   5.898   2.365
 2450TIP3    H2 7315   2.287   5.909   2.511
 2451TIP3   OH2 7316   1.102   0.569   3.575
 2451TIP3    H1 7317   1.030   0.554   3.514
 2451TIP3    H2 7318   1.171   0.510   3.545
 2452TIP3   OH2 7319   6.121   2.555   0.517
 2452TIP3    H1 7320   6.036   2.565   0.559
 2452TIP3    H2 7321   6.184   2.582   0.584
 2453TIP3   OH2 7322   6.968   2.588   1.253
 2453TIP3    H1 7323   6.946   2.631   1.170
 2453TIP3    H2 7324   7.041   2.640   1.288
 2454TIP3   OH2 7325   5.702   1.100   5.256
 2454TIP3    H1 7326   5.690   1.005   5.265
 2454TIP3    H2 7327   5.622   1.138   5.294
 2455TIP3   OH2 7328   4.136   0.051   0.019
 2455TIP3    H1 7329   4.131   0.105  -0.060
 2455TIP3    H2 7330   4.139   0.114   0.091
 2456TIP3   OH2 7331   0.280   0.507   4.129
 2456TIP3    H1 7332   0.202   0.463   4.163
 2456TIP3    H2 7333   0.289   0.585   4.184
 2457TIP3   OH2 7334   3.385   0.329   4.280
 2457TIP3    H1 7335   3.351   0.286   4.202
 2457TIP3    H2 7336   3.344   0.283   4.353
 2458TIP3   OH2 7337   3.983   1.450   3.954
 2458TIP3    H1 7338   4.045   1.521   3.975
 2458TIP3    H2 7339   3.920   1.451   4.025
 2459TIP3   OH2 7340   5.569   0.329   3.461
 2459TIP3    H1 7341   5.515   0.408   3.462
 2459TIP3    H2 7342   5.612   0.331   3.375
 2460TIP3   OH2 7343   4.888   3.916   1.397
 2460TIP3    H1 7344   4.891   3.960   1.482
 2460TIP3    H2 7345   4.875   3.823   1.418
 2461TIP3   OH2 7346   6.769   6.382   2.427
 2461TIP3    H1 7347   6.685   6.360   2.467
 2461TIP3    H2 7348   6.783   6.313   2.362
 2462TIP3   OH2 7349   2.646   2.717   5.927
 2462TIP3    H1 7350   2.683   2.644   5.879
 2462TIP3    H2 7351   2.595   2.766   5.863
 2463TIP3   OH2 7352   3.024   0.788   0.141
 2463TIP3    H1 7353   2.996   0.858   0.200
 2463TIP3    H2 7354   3.001   0.820   0.054
 2464TIP3   OH2 7355   0.634   5.698   2.681
 2464TIP3    H1 7356   0.707   5.654   2.725
 2464TIP3    H2 7357   0.668   5.784   2.659
 2465TIP3   OH2 7358   0.483   5.313   3.438
 2465TIP3    H1 7359   0.436   5.237   3.472
 2465TIP3    H2 7360   0.465   5.383   3.501
 2466TIP3   OH2 7361   6.215   4.585   3.358
 2466TIP3    H1 7362   6.237   4.498   3.392
 2466TIP3    H2 7363   6.284   4.642   3.392
 2467TIP3   OH2 7364   1.436   3.421   1.840
 2467TIP3    H1 7365   1.510   3.383   1.793
 2467TIP3    H2 7366   1.359   3.373   1.808
 2468TIP3   OH2 7367   5.267   4.909   1.453
 2468TIP3    H1 7368   5.350   4.951   1.475
 2468TIP3    H2 7369   5.258   4.922   1.359
 2469TIP3   OH2 7370   3.948   3.198   3.375
 2469TIP3    H1 7371   3.950   3.199   3.471
 2469TIP3    H2 7372   3.890   3.270   3.351
 2470TIP3   OH2 7373   0.847   6.314   4.266
 2470TIP3    H1 7374   0.869   6.269   4.185
 2470TIP3    H2 7375   0.886   6.260   4.335
 2471TIP3   OH2 7376   5.671   2.468   2.535
 2471TIP3    H1 7377   5.740   2.532   2.520
 2471TIP3    H2 7378   5.682   2.403   2.466
 2472TIP3   OH2 7379   1.403   6.109   0.910
 2472TIP3    H1 7380   1.444   6.159   0.840
 2472TIP3    H2 7381   1.476   6.082   0.966
 2473TIP3   OH2 7382   6.020   1.150   2.872
 2473TIP3    H1 7383   6.091   1.147   2.935
 2473TIP3    H2 7384   6.048   1.092   2.801
 2474TIP3   OH2 7385   5.341   0.724   1.509
 2474TIP3    H1 7386   5.258   0.765   1.484
 2474TIP3    H2 7387   5.386   0.790   1.562
 2475TIP3   OH2 7388   5.286   3.172   2.150
 2475TIP3    H1 7389   5.197   3.205   2.159
 2475TIP3    H2 7390   5.277   3.085   2.113
 2476TIP3   OH2 7391   4.733   0.465   0.747
 2476TIP3    H1 7392   4.758   0.549   0.709
 2476TIP3    H2 7393   4.638   0.461   0.735
 2477TIP3   OH2 7394   6.971   0.408   4.490
 2477TIP3    H1 7395   6.950   0.325   4.532
 2477TIP3    H2 7396   6.954   0.474   4.557
 2478TIP3   OH2 7397   2.813   1.097   0.932
 2478TIP3    H1 7398   2.731   1.080   0.885
 2478TIP3    H2 7399   2.810   1.191   0.951
 2479TIP3   OH2 7400   0.811   4.145   0.729
 2479TIP3    H1 7401   0.890   4.125   0.678
 2479TIP3    H2 7402   0.739   4.113   0.675
 2480TIP3   OH2 7403   2.724   1.259   0.662
 2480TIP3    H1 7404   2.788   1.207   0.613
 2480TIP3    H2 7405   2.675   1.194   0.713
 2481TIP3   OH2 7406   2.178   5.299   4.901
 2481TIP3    H1 7407   2.159   5.247   4.980
 2481TIP3    H2 7408   2.093   5.326   4.869
 2482TIP3   OH2 7409   7.021   1.382   4.751
 2482TIP3    H1 7410   7.089   1.324   4.784
 2482TIP3    H2 7411   7.067   1.443   4.693
 2483TIP3   OH2 7412   2.108   0.066   5.157
 2483TIP3    H1 7413   2.176   0.026   5.103
 2483TIP3    H2 7414   2.050  -0.007   5.180
 2484TIP3   OH2 7415   2.728   3.467   2.957
 2484TIP3    H1 7416   2.683   3.443   3.039
 2484TIP3    H2 7417   2.760   3.384   2.922
 2485TIP3   OH2 7418   6.275   1.316   0.408
 2485TIP3    H1 7419   6.367   1.310   0.385
 2485TIP3    H2 7420   6.268   1.394   0.463
 2486TIP3   OH2 7421   2.407   4.845   1.308
 2486TIP3    H1 7422   2.485   4.860   1.361
 2486TIP3    H2 7423   2.438   4.798   1.231
 2487TIP3   OH2 7424   5.839   2.678   2.871
 2487TIP3    H1 7425   5.813   2.719   2.789
 2487TIP3    H2 7426   5.775   2.711   2.935
 2488TIP3   OH2 7427   2.839   5.977   1.743
 2488TIP3    H1 7428   2.887   5.913   1.795
 2488TIP3    H2 7429   2.853   5.951   1.653
 2489TIP3   OH2 7430   0.408   3.850   3.000
 2489TIP3    H1 7431   0.372   3.825   2.915
 2489TIP3    H2 7432   0.467   3.778   3.023
 2490TIP3   OH2 7433   4.784   5.795   3.805
 2490TIP3    H1 7434   4.690   5.809   3.812
 2490TIP3    H2 7435   4.807   5.746   3.884
 2491TIP3   OH2 7436   2.910   4.664   5.251
 2491TIP3    H1 7437   2.875   4.582   5.216
 2491TIP3    H2 7438   2.893   4.660   5.345
 2492TIP3   OH2 7439   3.837   3.320   3.748
 2492TIP3    H1 7440   3.902   3.253   3.724
 2492TIP3    H2 7441   3.836   3.380   3.673
 2493TIP3   OH2 7442   4.693   5.899   1.772
 2493TIP3    H1 7443   4.678   5.850   1.691
 2493TIP3    H2 7444   4.672   5.990   1.750
 2494TIP3   OH2 7445   4.484   3.160   1.877
 2494TIP3    H1 7446   4.557   3.219   1.894
 2494TIP3    H2 7447   4.406   3.216   1.877
 2495TIP3   OH2 7448   1.634   3.080   2.244
 2495TIP3    H1 7449   1.589   3.107   2.164
 2495TIP3    H2 7450   1.564   3.064   2.307
 2496TIP3   OH2 7451   5.291   6.096   0.967
 2496TIP3    H1 7452   5.313   6.188   0.985
 2496TIP3    H2 7453   5.330   6.047   1.039
 2497TIP3   OH2 7454   6.015   3.796   3.006
 2497TIP3    H1 7455   5.933   3.770   2.964
 2497TIP3    H2 7456   6.011   3.757   3.093
 2498TIP3   OH2 7457   5.628   3.735   2.305
 2498TIP3    H1 7458   5.626   3.656   2.360
 2498TIP3    H2 7459   5.660   3.704   2.220
 2499TIP3   OH2 7460   1.093   0.189   4.898
 2499TIP3    H1 7461   1.117   0.261   4.956
 2499TIP3    H2 7462   1.024   0.143   4.944
 2500TIP3   OH2 7463   1.838   5.855   3.410
 2500TIP3    H1 7464   1.930   5.828   3.407
 2500TIP3    H2 7465   1.802   5.808   3.485
 2501TIP3   OH2 7466   0.039   4.387   4.943
 2501TIP3    H1 7467   0.099   4.348   4.879
 2501TIP3    H2 7468  -0.003   4.459   4.896
 2502TIP3   OH2 7469   4.365   3.687   4.003
 2502TIP3    H1 7470   4.322   3.735   4.074
 2502TIP3    H2 7471   4.442   3.648   4.044
 2503TIP3   OH2 7472   6.612   2.002   4.860
 2503TIP3    H1 7473   6.645   1.935   4.920
 2503TIP3    H2 7474   6.640   1.972   4.774
 2504TIP3   OH2 7475   2.759   2.686   0.204
 2504TIP3    H1 7476   2.689   2.676   0.269
 2504TIP3    H2 7477   2.836   2.648   0.247
 2505TIP3   OH2 7478   6.544   3.584   5.434
 2505TIP3    H1 7479   6.545   3.621   5.346
 2505TIP3    H2 7480   6.633   3.551   5.447
 2506TIP3   OH2 7481   3.520   1.841   2.942
 2506TIP3    H1 7482   3.476   1.915   2.900
 2506TIP3    H2 7483   3.455   1.805   3.002
 2507TIP3   OH2 7484   0.283   1.752   0.040
 2507TIP3    H1 7485   0.341   1.682   0.010
 2507TIP3    H2 7486   0.288   1.747   0.135
 2508TIP3   OH2 7487   1.511   5.408   1.387
 2508TIP3    H1 7488   1.552   5.359   1.316
 2508TIP3    H2 7489   1.519   5.500   1.362
 2509TIP3   OH2 7490   3.736   4.810   3.783
 2509TIP3    H1 7491   3.794   4.748   3.740
 2509TIP3    H2 7492   3.657   4.810   3.728
 2510TIP3   OH2 7493   4.288   6.676   5.544
 2510TIP3    H1 7494   4.269   6.588   5.512
 2510TIP3    H2 7495   4.266   6.674   5.637
 2511TIP3   OH2 7496   2.124   5.523   1.699
 2511TIP3    H1 7497   2.175   5.557   1.772
 2511TIP3    H2 7498   2.033   5.539   1.723
 2512TIP3   OH2 7499   0.956   3.349   5.554
 2512TIP3    H1 7500   0.931   3.442   5.557
 2512TIP3    H2 7501   0.878   3.302   5.584
 2513TIP3   OH2 7502   4.324   6.685   4.032
 2513TIP3    H1 7503   4.277   6.708   4.113
 2513TIP3    H2 7504   4.401   6.742   4.033
 2514TIP3   OH2 7505   0.742   4.274   5.893
 2514TIP3    H1 7506   0.686   4.196   5.900
 2514TIP3    H2 7507   0.779   4.269   5.805
 2515TIP3   OH2 7508   6.885   0.059   3.572
 2515TIP3    H1 7509   6.852   0.108   3.497
 2515TIP3    H2 7510   6.979   0.076   3.573
 2516TIP3   OH2 7511   4.966   3.350   4.287
 2516TIP3    H1 7512   4.955   3.293   4.363
 2516TIP3    H2 7513   5.039   3.311   4.238
 2517TIP3   OH2 7514   2.781   1.422   2.960
 2517TIP3    H1 7515   2.854   1.409   3.020
 2517TIP3    H2 7516   2.705   1.438   3.016
 2518TIP3   OH2 7517   3.595   5.041   1.762
 2518TIP3    H1 7518   3.522   5.083   1.808
 2518TIP3    H2 7519   3.620   5.103   1.694
 2519TIP3   OH2 7520   3.812   2.643   2.967
 2519TIP3    H1 7521   3.845   2.586   3.037
 2519TIP3    H2 7522   3.721   2.659   2.990
 2520TIP3   OH2 7523   6.302   1.833   3.140
 2520TIP3    H1 7524   6.309   1.745   3.103
 2520TIP3    H2 7525   6.360   1.832   3.216
 2521TIP3   OH2 7526   3.958   4.918   2.879
 2521TIP3    H1 7527   3.875   4.953   2.845
 2521TIP3    H2 7528   3.969   4.835   2.832
 2522TIP3   OH2 7529   4.831   5.490   5.656
 2522TIP3    H1 7530   4.760   5.553   5.650
 2522TIP3    H2 7531   4.892   5.529   5.720
 2523TIP3   OH2 7532   5.416   5.756   5.351
 2523TIP3    H1 7533   5.391   5.747   5.443
 2523TIP3    H2 7534   5.368   5.832   5.320
 2524TIP3   OH2 7535   7.099   4.261   2.375
 2524TIP3    H1 7536   7.091   4.217   2.290
 2524TIP3    H2 7537   7.029   4.326   2.375
 2525TIP3   OH2 7538   1.741   5.234   5.411
 2525TIP3    H1 7539   1.773   5.249   5.322
 2525TIP3    H2 7540   1.653   5.271   5.411
 2526TIP3   OH2 7541   7.218   3.161   3.306
 2526TIP3    H1 7542   7.267   3.083   3.280
 2526TIP3    H2 7543   7.281   3.214   3.354
 2527TIP3   OH2 7544   4.562   3.962   0.392
 2527TIP3    H1 7545   4.590   4.013   0.468
 2527TIP3    H2 7546   4.643   3.926   0.356
 2528TIP3   OH2 7547   6.446   6.461   2.914
 2528TIP3    H1 7548   6.414   6.495   2.997
 2528TIP3    H2 7549   6.450   6.537   2.856
 2529TIP3   OH2 7550   1.890   6.805   2.740
 2529TIP3    H1 7551   1.852   6.859   2.809
 2529TIP3    H2 7552   1.943   6.740   2.786
 2530TIP3   OH2 7553   6.817   3.669   5.778
 2530TIP3    H1 7554   6.837   3.761   5.761
 2530TIP3    H2 7555   6.827   3.660   5.873
 2531TIP3   OH2 7556   4.169   2.380   0.170
 2531TIP3    H1 7557   4.256   2.363   0.206
 2531TIP3    H2 7558   4.145   2.297   0.127
 2532TIP3   OH2 7559   3.887   4.333   3.253
 2532TIP3    H1 7560   3.935   4.264   3.297
 2532TIP3    H2 7561   3.855   4.389   3.323
 2533TIP3   OH2 7562   2.221   1.475   5.296
 2533TIP3    H1 7563   2.258   1.460   5.208
 2533TIP3    H2 7564   2.251   1.562   5.320
 2534TIP3   OH2 7565   6.631   4.728   3.044
 2534TIP3    H1 7566   6.602   4.741   2.953
 2534TIP3    H2 7567   6.557   4.756   3.097
 2535TIP3   OH2 7568   2.461   0.524   3.476
 2535TIP3    H1 7569   2.400   0.586   3.515
 2535TIP3    H2 7570   2.448   0.443   3.525
 2536TIP3   OH2 7571   1.411   4.791   4.055
 2536TIP3    H1 7572   1.353   4.848   4.104
 2536TIP3    H2 7573   1.353   4.735   4.003
 2537TIP3   OH2 7574   2.393   2.727   2.485
 2537TIP3    H1 7575   2.433   2.670   2.550
 2537TIP3    H2 7576   2.400   2.815   2.521
 2538TIP3   OH2 7577   6.700   1.804   0.583
 2538TIP3    H1 7578   6.610   1.776   0.603
 2538TIP3    H2 7579   6.731   1.740   0.518
 2539TIP3   OH2 7580   6.577   3.631   4.333
 2539TIP3    H1 7581   6.619   3.593   4.256
 2539TIP3    H2 7582   6.525   3.559   4.370
 2540TIP3   OH2 7583   2.040   4.006   4.779
 2540TIP3    H1 7584   2.010   4.022   4.869
 2540TIP3    H2 7585   2.095   4.082   4.759
 2541TIP3   OH2 7586   3.279   1.276   2.713
 2541TIP3    H1 7587   3.323   1.198   2.748
 2541TIP3    H2 7588   3.269   1.334   2.789
 2542TIP3   OH2 7589   2.955   2.294   0.866
 2542TIP3    H1 7590   2.906   2.307   0.785
 2542TIP3    H2 7591   2.990   2.205   0.859
 2543TIP3   OH2 7592   3.639   3.324   0.801
 2543TIP3    H1 7593   3.578   3.397   0.789
 2543TIP3    H2 7594   3.697   3.353   0.871
 2544TIP3   OH2 7595   1.263   5.755   1.523
 2544TIP3    H1 7596   1.320   5.702   1.579
 2544TIP3    H2 7597   1.323   5.815   1.478
 2545TIP3   OH2 7598   2.412   3.792   2.077
 2545TIP3    H1 7599   2.457   3.787   1.993
 2545TIP3    H2 7600   2.392   3.884   2.089
 2546TIP3   OH2 7601   4.001   4.670   4.845
 2546TIP3    H1 7602   4.012   4.583   4.883
 2546TIP3    H2 7603   3.906   4.682   4.839
 2547TIP3   OH2 7604   4.323   5.932   1.569
 2547TIP3    H1 7605   4.324   6.003   1.634
 2547TIP3    H2 7606   4.259   5.870   1.604
 2548TIP3   OH2 7607   0.108   3.115   0.730
 2548TIP3    H1 7608   0.123   3.054   0.659
 2548TIP3    H2 7609   0.059   3.187   0.690
 2549TIP3   OH2 7610   6.036   1.280   4.886
 2549TIP3    H1 7611   5.952   1.236   4.880
 2549TIP3    H2 7612   6.023   1.349   4.951
 2550TIP3   OH2 7613   5.542   3.902   4.720
 2550TIP3    H1 7614   5.633   3.889   4.694
 2550TIP3    H2 7615   5.499   3.938   4.642
 2551TIP3   OH2 7616   6.313   0.210   0.894
 2551TIP3    H1 7617   6.294   0.295   0.855
 2551TIP3    H2 7618   6.345   0.158   0.820
 2552TIP3   OH2 7619   3.584   2.235   3.202
 2552TIP3    H1 7620   3.574   2.255   3.109
 2552TIP3    H2 7621   3.506   2.273   3.243
 2553TIP3   OH2 7622   3.225   4.292   2.662
 2553TIP3    H1 7623   3.277   4.219   2.626
 2553TIP3    H2 7624   3.163   4.313   2.593
 2554TIP3   OH2 7625   1.627   0.543   2.056
 2554TIP3    H1 7626   1.707   0.589   2.082
 2554TIP3    H2 7627   1.569   0.612   2.023
 2555TIP3   OH2 7628   5.040   0.783   4.500
 2555TIP3    H1 7629   4.977   0.837   4.452
 2555TIP3    H2 7630   5.012   0.790   4.591
 2556TIP3   OH2 7631   1.599   4.109   0.353
 2556TIP3    H1 7632   1.684   4.099   0.395
 2556TIP3    H2 7633   1.620   4.134   0.263
 2557TIP3   OH2 7634   2.237   1.222   1.032
 2557TIP3    H1 7635   2.196   1.269   0.959
 2557TIP3    H2 7636   2.317   1.271   1.049
 2558TIP3   OH2 7637   4.562   4.426   0.687
 2558TIP3    H1 7638   4.556   4.522   0.696
 2558TIP3    H2 7639   4.609   4.398   0.765
 2559TIP3   OH2 7640   5.808   4.215   2.026
 2559TIP3    H1 7641   5.832   4.191   2.116
 2559TIP3    H2 7642   5.782   4.307   2.032
 2560TIP3   OH2 7643   3.628   1.333   3.582
 2560TIP3    H1 7644   3.695   1.265   3.590
 2560TIP3    H2 7645   3.666   1.396   3.520
 2561TIP3   OH2 7646   5.877   5.945   0.313
 2561TIP3    H1 7647   5.827   5.867   0.286
 2561TIP3    H2 7648   5.968   5.923   0.293
 2562TIP3   OH2 7649   0.412   2.126   3.859
 2562TIP3    H1 7650   0.460   2.206   3.836
 2562TIP3    H2 7651   0.355   2.153   3.931
 2563TIP3   OH2 7652   5.415   1.652   4.925
 2563TIP3    H1 7653   5.369   1.602   4.993
 2563TIP3    H2 7654   5.371   1.630   4.844
 2564TIP3   OH2 7655   7.197   5.391   0.148
 2564TIP3    H1 7656   7.189   5.407   0.054
 2564TIP3    H2 7657   7.140   5.457   0.188
 2565TIP3   OH2 7658   1.905   4.387   1.109
 2565TIP3    H1 7659   1.947   4.372   1.024
 2565TIP3    H2 7660   1.831   4.326   1.111
 2566TIP3   OH2 7661   5.825   1.352   1.133
 2566TIP3    H1 7662   5.780   1.277   1.096
 2566TIP3    H2 7663   5.901   1.316   1.177
 2567TIP3   OH2 7664   1.780   0.547   4.697
 2567TIP3    H1 7665   1.875   0.563   4.699
 2567TIP3    H2 7666   1.745   0.604   4.765
 2568TIP3   OH2 7667   5.490   3.596   0.462
 2568TIP3    H1 7668   5.543   3.538   0.408
 2568TIP3    H2 7669   5.510   3.684   0.429
 2569TIP3   OH2 7670   6.514   3.672   2.293
 2569TIP3    H1 7671   6.538   3.732   2.222
 2569TIP3    H2 7672   6.444   3.718   2.340
 2570TIP3   OH2 7673   6.012   3.769   0.479
 2570TIP3    H1 7674   6.048   3.720   0.554
 2570TIP3    H2 7675   5.922   3.739   0.472
 2571TIP3   OH2 7676   4.442   6.719   1.397
 2571TIP3    H1 7677   4.381   6.701   1.469
 2571TIP3    H2 7678   4.486   6.800   1.423
 2572TIP3   OH2 7679   1.059   2.815   3.751
 2572TIP3    H1 7680   0.987   2.794   3.811
 2572TIP3    H2 7681   1.030   2.782   3.666
 2573TIP3   OH2 7682   3.529   2.153   3.757
 2573TIP3    H1 7683   3.599   2.164   3.821
 2573TIP3    H2 7684   3.448   2.154   3.809
 2574TIP3   OH2 7685   3.604   4.850   1.169
 2574TIP3    H1 7686   3.625   4.887   1.083
 2574TIP3    H2 7687   3.687   4.814   1.201
 2575TIP3   OH2 7688   0.119   4.037   2.462
 2575TIP3    H1 7689   0.064   3.993   2.527
 2575TIP3    H2 7690   0.079   4.123   2.452
 2576TIP3   OH2 7691   2.732   0.149   0.912
 2576TIP3    H1 7692   2.791   0.196   0.970
 2576TIP3    H2 7693   2.648   0.147   0.959
 2577TIP3   OH2 7694   0.391   4.481   3.326
 2577TIP3    H1 7695   0.338   4.404   3.304
 2577TIP3    H2 7696   0.433   4.458   3.409
 2578TIP3   OH2 7697   0.559   3.897   3.761
 2578TIP3    H1 7698   0.487   3.955   3.787
 2578TIP3    H2 7699   0.603   3.876   3.843
 2579TIP3   OH2 7700   3.369   3.276   4.238
 2579TIP3    H1 7701   3.370   3.182   4.221
 2579TIP3    H2 7702   3.415   3.314   4.163
 2580TIP3   OH2 7703   5.545   1.410   5.753
 2580TIP3    H1 7704   5.488   1.448   5.686
 2580TIP3    H2 7705   5.486   1.362   5.810
 2581TIP3   OH2 7706   3.349   2.863   3.400
 2581TIP3    H1 7707   3.271   2.874   3.454
 2581TIP3    H2 7708   3.402   2.941   3.418
 2582TIP3   OH2 7709   5.462   5.404   5.888
 2582TIP3    H1 7710   5.476   5.328   5.945
 2582TIP3    H2 7711   5.528   5.395   5.819
 2583TIP3   OH2 7712   3.477   2.737   4.467
 2583TIP3    H1 7713   3.457   2.669   4.532
 2583TIP3    H2 7714   3.409   2.803   4.479
 2584TIP3   OH2 7715   4.913   0.265   0.687
 2584TIP3    H1 7716   4.832   0.218   0.663
 2584TIP3    H2 7717   4.882   0.343   0.733
 2585TIP3   OH2 7718   1.108   5.299   2.939
 2585TIP3    H1 7719   1.030   5.263   2.898
 2585TIP3    H2 7720   1.175   5.297   2.870
 2586TIP3   OH2 7721   2.393   3.687   5.492
 2586TIP3    H1 7722   2.469   3.745   5.488
 2586TIP3    H2 7723   2.339   3.723   5.562
 2587TIP3   OH2 7724   3.128   0.341   2.983
 2587TIP3    H1 7725   3.221   0.333   2.962
 2587TIP3    H2 7726   3.123   0.417   3.042
 2588TIP3   OH2 7727   4.643   0.778   0.987
 2588TIP3    H1 7728   4.566   0.804   1.038
 2588TIP3    H2 7729   4.679   0.861   0.954
 2589TIP3   OH2 7730   4.106   3.094   5.767
 2589TIP3    H1 7731   4.102   3.116   5.860
 2589TIP3    H2 7732   4.184   3.139   5.735
 2590TIP3   OH2 7733   2.396   0.453   1.379
 2590TIP3    H1 7734   2.415   0.450   1.472
 2590TIP3    H2 7735   2.478   0.428   1.336
 2591TIP3   OH2 7736   0.589   2.858   1.358
 2591TIP3    H1 7737   0.653   2.835   1.291
 2591TIP3    H2 7738   0.515   2.800   1.342
 2592TIP3   OH2 7739   4.922   4.872   4.403
 2592TIP3    H1 7740   4.967   4.791   4.424
 2592TIP3    H2 7741   4.859   4.883   4.475
 2593TIP3   OH2 7742   1.499   1.194   0.986
 2593TIP3    H1 7743   1.548   1.159   1.061
 2593TIP3    H2 7744   1.414   1.219   1.023
 2594TIP3   OH2 7745   5.154   1.561   5.332
 2594TIP3    H1 7746   5.071   1.545   5.288
 2594TIP3    H2 7747   5.149   1.651   5.363
 2595TIP3   OH2 7748   5.650   4.701   0.329
 2595TIP3    H1 7749   5.597   4.689   0.250
 2595TIP3    H2 7750   5.725   4.753   0.300
 2596TIP3   OH2 7751   4.366   3.146   4.858
 2596TIP3    H1 7752   4.351   3.231   4.818
 2596TIP3    H2 7753   4.346   3.159   4.950
 2597TIP3   OH2 7754   3.311   2.447   4.407
 2597TIP3    H1 7755   3.393   2.484   4.440
 2597TIP3    H2 7756   3.302   2.484   4.319
 2598TIP3   OH2 7757   2.861   1.824   5.822
 2598TIP3    H1 7758   2.824   1.908   5.849
 2598TIP3    H2 7759   2.820   1.806   5.737
 2599TIP3   OH2 7760   4.904   3.599   0.706
 2599TIP3    H1 7761   4.930   3.636   0.622
 2599TIP3    H2 7762   4.810   3.616   0.712
 2600TIP3   OH2 7763   3.713   3.777   1.909
 2600TIP3    H1 7764   3.624   3.748   1.932
 2600TIP3    H2 7765   3.730   3.851   1.969
 2601TIP3   OH2 7766   4.103   4.530   1.315
 2601TIP3    H1 7767   4.177   4.585   1.292
 2601TIP3    H2 7768   4.049   4.528   1.235
 2602TIP3   OH2 7769   0.802   6.583   4.287
 2602TIP3    H1 7770   0.797   6.509   4.227
 2602TIP3    H2 7771   0.895   6.603   4.294
 2603TIP3   OH2 7772   4.648   0.677   4.596
 2603TIP3    H1 7773   4.641   0.584   4.616
 2603TIP3    H2 7774   4.643   0.681   4.500
 2604TIP3   OH2 7775   2.519   0.145   1.533
 2604TIP3    H1 7776   2.426   0.149   1.555
 2604TIP3    H2 7777   2.549   0.235   1.539
 2605TIP3   OH2 7778   0.333   5.496   3.586
 2605TIP3    H1 7779   0.362   5.586   3.570
 2605TIP3    H2 7780   0.259   5.504   3.645
 2606TIP3   OH2 7781   6.105   6.467   0.073
 2606TIP3    H1 7782   6.144   6.475   0.160
 2606TIP3    H2 7783   6.014   6.494   0.085
 2607TIP3   OH2 7784   6.307   4.918   0.866
 2607TIP3    H1 7785   6.256   4.984   0.820
 2607TIP3    H2 7786   6.281   4.835   0.827
 2608TIP3   OH2 7787   0.872   4.772   1.507
 2608TIP3    H1 7788   0.945   4.716   1.481
 2608TIP3    H2 7789   0.815   4.715   1.559
 2609TIP3   OH2 7790   0.524   6.108   2.361
 2609TIP3    H1 7791   0.450   6.063   2.321
 2609TIP3    H2 7792   0.507   6.201   2.344
 2610TIP3   OH2 7793   3.249   1.824   3.062
 2610TIP3    H1 7794   3.220   1.824   3.153
 2610TIP3    H2 7795   3.252   1.916   3.037
 2611TIP3   OH2 7796   3.436   2.072   0.181
 2611TIP3    H1 7797   3.503   2.080   0.248
 2611TIP3    H2 7798   3.403   1.982   0.189
 2612TIP3   OH2 7799   5.075   2.157   1.076
 2612TIP3    H1 7800   4.993   2.182   1.117
 2612TIP3    H2 7801   5.142   2.198   1.130
 2613TIP3   OH2 7802   5.282   4.987   4.049
 2613TIP3    H1 7803   5.354   4.929   4.025
 2613TIP3    H2 7804   5.319   5.044   4.116
 2614TIP3   OH2 7805   2.791   0.693   3.260
 2614TIP3    H1 7806   2.823   0.735   3.340
 2614TIP3    H2 7807   2.750   0.612   3.290
 2615TIP3   OH2 7808   4.760   3.648   2.942
 2615TIP3    H1 7809   4.706   3.581   2.901
 2615TIP3    H2 7810   4.781   3.612   3.029
 2616TIP3   OH2 7811   0.046   0.502   5.305
 2616TIP3    H1 7812  -0.031   0.456   5.337
 2616TIP3    H2 7813   0.100   0.433   5.265
 2617TIP3   OH2 7814   0.213   1.416   1.822
 2617TIP3    H1 7815   0.262   1.418   1.904
 2617TIP3    H2 7816   0.136   1.361   1.841
 2618TIP3   OH2 7817   6.220   4.437   4.288
 2618TIP3    H1 7818   6.299   4.429   4.235
 2618TIP3    H2 7819   6.249   4.478   4.369
 2619TIP3   OH2 7820   1.478   0.214   3.926
 2619TIP3    H1 7821   1.449   0.145   3.866
 2619TIP3    H2 7822   1.437   0.192   4.009
 2620TIP3   OH2 7823   6.476   1.182   0.680
 2620TIP3    H1 7824   6.494   1.209   0.590
 2620TIP3    H2 7825   6.561   1.152   0.713
 2621TIP3   OH2 7826   3.193   5.706   0.998
 2621TIP3    H1 7827   3.222   5.633   0.943
 2621TIP3    H2 7828   3.263   5.770   0.990
 2622TIP3   OH2 7829   5.789   3.924   4.235
 2622TIP3    H1 7830   5.717   3.958   4.288
 2622TIP3    H2 7831   5.825   3.853   4.287
 2623TIP3   OH2 7832   4.156   6.522   5.779
 2623TIP3    H1 7833   4.130   6.435   5.749
 2623TIP3    H2 7834   4.074   6.562   5.809
 2624TIP3   OH2 7835   3.593   5.031   3.412
 2624TIP3    H1 7836   3.523   4.995   3.358
 2624TIP3    H2 7837   3.669   4.977   3.392
 2625TIP3   OH2 7838   5.243   3.987   3.110
 2625TIP3    H1 7839   5.327   3.976   3.066
 2625TIP3    H2 7840   5.178   3.986   3.040
 2626TIP3   OH2 7841   6.019   2.797   0.423
 2626TIP3    H1 7842   6.071   2.717   0.428
 2626TIP3    H2 7843   6.051   2.841   0.344
 2627TIP3   OH2 7844   1.423   5.260   3.068
 2627TIP3    H1 7845   1.484   5.239   3.138
 2627TIP3    H2 7846   1.370   5.181   3.058
 2628TIP3   OH2 7847   1.176   6.711   0.581
 2628TIP3    H1 7848   1.127   6.665   0.649
 2628TIP3    H2 7849   1.180   6.802   0.611
 2629TIP3   OH2 7850   0.425   4.718   0.517
 2629TIP3    H1 7851   0.469   4.645   0.561
 2629TIP3    H2 7852   0.361   4.749   0.580
 2630TIP3   OH2 7853   4.119   3.312   4.506
 2630TIP3    H1 7854   4.170   3.350   4.578
 2630TIP3    H2 7855   4.054   3.379   4.485
 2631TIP3   OH2 7856   1.355   5.827   5.035
 2631TIP3    H1 7857   1.448   5.840   5.053
 2631TIP3    H2 7858   1.351   5.746   4.984
 2632TIP3   OH2 7859   4.107   1.093   3.713
 2632TIP3    H1 7860   4.182   1.052   3.669
 2632TIP3    H2 7861   4.056   1.019   3.747
 2633TIP3   OH2 7862   3.284   6.613   3.112
 2633TIP3    H1 7863   3.320   6.696   3.080
 2633TIP3    H2 7864   3.223   6.586   3.044
 2634TIP3   OH2 7865   4.177   3.561   4.212
 2634TIP3    H1 7866   4.259   3.536   4.255
 2634TIP3    H2 7867   4.153   3.484   4.160
 2635TIP3   OH2 7868   3.428   6.846   1.885
 2635TIP3    H1 7869   3.474   6.778   1.836
 2635TIP3    H2 7870   3.339   6.811   1.897
 2636TIP3   OH2 7871   1.053   1.939   2.608
 2636TIP3    H1 7872   1.127   1.879   2.618
 2636TIP3    H2 7873   0.976   1.882   2.605
 2637TIP3   OH2 7874   7.019   4.603   3.947
 2637TIP3    H1 7875   7.011   4.675   3.885
 2637TIP3    H2 7876   7.026   4.644   4.033
 2638TIP3   OH2 7877   5.703   5.730   3.288
 2638TIP3    H1 7878   5.619   5.765   3.318
 2638TIP3    H2 7879   5.685   5.694   3.201
 2639TIP3   OH2 7880   6.411   0.662   2.422
 2639TIP3    H1 7881   6.474   0.637   2.355
 2639TIP3    H2 7882   6.331   0.682   2.374
 2640TIP3   OH2 7883   6.568   3.436   3.745
 2640TIP3    H1 7884   6.600   3.524   3.723
 2640TIP3    H2 7885   6.526   3.406   3.665
 2641TIP3   OH2 7886   5.927   4.672   0.473
 2641TIP3    H1 7887   5.885   4.587   0.485
 2641TIP3    H2 7888   6.012   4.651   0.435
 2642TIP3   OH2 7889   0.480   0.594   0.183
 2642TIP3    H1 7890   0.487   0.677   0.231
 2642TIP3    H2 7891   0.466   0.621   0.092
 2643TIP3   OH2 7892   4.555   5.064   2.151
 2643TIP3    H1 7893   4.590   5.012   2.224
 2643TIP3    H2 7894   4.576   5.014   2.073
 2644TIP3   OH2 7895   4.092   1.737   3.513
 2644TIP3    H1 7896   4.055   1.670   3.572
 2644TIP3    H2 7897   4.017   1.793   3.491
 2645TIP3   OH2 7898   0.934   1.221   1.264
 2645TIP3    H1 7899   0.860   1.180   1.310
 2645TIP3    H2 7900   1.011   1.187   1.310
 2646TIP3   OH2 7901   3.890   3.144   1.246
 2646TIP3    H1 7902   3.837   3.108   1.317
 2646TIP3    H2 7903   3.876   3.239   1.251
 2647TIP3   OH2 7904   2.846   5.872   2.019
 2647TIP3    H1 7905   2.823   5.811   2.089
 2647TIP3    H2 7906   2.920   5.921   2.053
 2648TIP3   OH2 7907   6.310   6.249   1.310
 2648TIP3    H1 7908   6.315   6.231   1.216
 2648TIP3    H2 7909   6.397   6.280   1.333
 2649TIP3   OH2 7910   1.759   0.054   3.023
 2649TIP3    H1 7911   1.728   0.002   2.949
 2649TIP3    H2 7912   1.699   0.033   3.094
 2650TIP3   OH2 7913   7.066   1.321   0.256
 2650TIP3    H1 7914   7.150   1.305   0.214
 2650TIP3    H2 7915   7.031   1.398   0.212
 2651TIP3   OH2 7916   3.009   4.972   2.952
 2651TIP3    H1 7917   3.085   5.025   2.978
 2651TIP3    H2 7918   2.952   4.973   3.028
 2652TIP3   OH2 7919   4.277   2.014   5.548
 2652TIP3    H1 7920   4.339   2.064   5.602
 2652TIP3    H2 7921   4.244   2.077   5.485
 2653TIP3   OH2 7922   4.150   0.153   1.356
 2653TIP3    H1 7923   4.239   0.130   1.328
 2653TIP3    H2 7924   4.137   0.242   1.324
 2654TIP3   OH2 7925   3.483   2.806   5.585
 2654TIP3    H1 7926   3.400   2.849   5.607
 2654TIP3    H2 7927   3.550   2.857   5.630
 2655TIP3   OH2 7928   0.644   3.284   5.225
 2655TIP3    H1 7929   0.560   3.316   5.260
 2655TIP3    H2 7930   0.663   3.206   5.277
 2656TIP3   OH2 7931   0.762   4.442   2.197
 2656TIP3    H1 7932   0.847   4.464   2.236
 2656TIP3    H2 7933   0.698   4.487   2.253
 2657TIP3   OH2 7934   4.366   0.250   5.236
 2657TIP3    H1 7935   4.457   0.235   5.211
 2657TIP3    H2 7936   4.365   0.338   5.274
 2658TIP3   OH2 7937   0.440   0.120   3.816
 2658TIP3    H1 7938   0.389   0.165   3.883
 2658TIP3    H2 7939   0.518   0.174   3.805
 2659TIP3   OH2 7940   6.306   4.977   0.075
 2659TIP3    H1 7941   6.302   4.954   0.168
 2659TIP3    H2 7942   6.350   4.902   0.034
 2660TIP3   OH2 7943   6.246   1.521   3.451
 2660TIP3    H1 7944   6.226   1.614   3.435
 2660TIP3    H2 7945   6.333   1.509   3.414
 2661TIP3   OH2 7946   0.144   4.059   5.607
 2661TIP3    H1 7947   0.063   4.040   5.560
 2661TIP3    H2 7948   0.208   4.076   5.538
 2662TIP3   OH2 7949   5.703   0.722   2.013
 2662TIP3    H1 7950   5.681   0.729   1.920
 2662TIP3    H2 7951   5.743   0.635   2.022
 2663TIP3   OH2 7952   3.401   6.631   3.782
 2663TIP3    H1 7953   3.473   6.664   3.836
 2663TIP3    H2 7954   3.443   6.577   3.716
 2664TIP3   OH2 7955   5.369   3.171   0.348
 2664TIP3    H1 7956   5.411   3.208   0.270
 2664TIP3    H2 7957   5.286   3.218   0.355
 2665TIP3   OH2 7958   2.122   3.874   4.224
 2665TIP3    H1 7959   2.113   3.923   4.306
 2665TIP3    H2 7960   2.089   3.787   4.244
 2666TIP3   OH2 7961   3.799   6.792   4.579
 2666TIP3    H1 7962   3.705   6.809   4.573
 2666TIP3    H2 7963   3.829   6.848   4.650
 2667TIP3   OH2 7964   4.233   0.591   3.609
 2667TIP3    H1 7965   4.191   0.509   3.635
 2667TIP3    H2 7966   4.164   0.640   3.564
 2668TIP3   OH2 7967   6.134   3.524   2.856
 2668TIP3    H1 7968   6.177   3.499   2.938
 2668TIP3    H2 7969   6.053   3.568   2.884
 2669TIP3   OH2 7970   6.617   1.672   1.549
 2669TIP3    H1 7971   6.682   1.603   1.560
 2669TIP3    H2 7972   6.607   1.681   1.454
 2670TIP3   OH2 7973   3.027   5.414   0.598
 2670TIP3    H1 7974   3.016   5.403   0.503
 2670TIP3    H2 7975   2.938   5.405   0.633
 2671TIP3   OH2 7976   1.549   4.224   1.389
 2671TIP3    H1 7977   1.616   4.280   1.350
 2671TIP3    H2 7978   1.583   4.202   1.476
 2672TIP3   OH2 7979   3.383   0.947   4.630
 2672TIP3    H1 7980   3.415   0.857   4.623
 2672TIP3    H2 7981   3.364   0.973   4.540
 2673TIP3   OH2 7982   4.687   3.596   1.948
 2673TIP3    H1 7983   4.598   3.622   1.972
 2673TIP3    H2 7984   4.702   3.637   1.864
 2674TIP3   OH2 7985   2.625   6.807   4.146
 2674TIP3    H1 7986   2.566   6.738   4.115
 2674TIP3    H2 7987   2.580   6.844   4.222
 2675TIP3   OH2 7988   4.000   1.525   5.508
 2675TIP3    H1 7989   4.024   1.615   5.533
 2675TIP3    H2 7990   4.021   1.519   5.415
 2676TIP3   OH2 7991   6.752   6.033   0.671
 2676TIP3    H1 7992   6.668   5.997   0.700
 2676TIP3    H2 7993   6.757   6.119   0.713
 2677TIP3   OH2 7994   2.273   2.332   4.980
 2677TIP3    H1 7995   2.332   2.306   4.909
 2677TIP3    H2 7996   2.269   2.428   4.973
 2678TIP3   OH2 7997   6.108   5.011   1.714
 2678TIP3    H1 7998   6.074   4.947   1.776
 2678TIP3    H2 7999   6.201   4.990   1.706
 2679TIP3   OH2 8000   2.331   3.593   1.387
 2679TIP3    H1 8001   2.423   3.568   1.398
 2679TIP3    H2 8002   2.310   3.564   1.298
 2680TIP3   OH2 8003   7.032   5.897   1.905
 2680TIP3    H1 8004   7.030   5.849   1.823
 2680TIP3    H2 8005   7.123   5.893   1.933
 2681TIP3   OH2 8006   6.607   1.547   1.295
 2681TIP3    H1 8007   6.685   1.494   1.280
 2681TIP3    H2 8008   6.552   1.493   1.353
 2682TIP3   OH2 8009   7.155   4.101   0.532
 2682TIP3    H1 8010   7.115   4.060   0.608
 2682TIP3    H2 8011   7.119   4.053   0.457
 2683TIP3   OH2 8012   5.169   6.160   3.896
 2683TIP3    H1 8013   5.093   6.119   3.855
 2683TIP3    H2 8014   5.242   6.136   3.839
 2684TIP3   OH2 8015   6.963   0.056   5.767
 2684TIP3    H1 8016   6.876   0.028   5.795
 2684TIP3    H2 8017   6.982   0.003   5.690
 2685TIP3   OH2 8018   6.613   2.279   1.715
 2685TIP3    H1 8019   6.694   2.251   1.672
 2685TIP3    H2 8020   6.643   2.329   1.792
 2686TIP3   OH2 8021   3.793   0.174   4.191
 2686TIP3    H1 8022   3.727   0.145   4.255
 2686TIP3    H2 8023   3.849   0.234   4.240
 2687TIP3   OH2 8024   4.260   0.119   2.999
 2687TIP3    H1 8025   4.170   0.130   2.967
 2687TIP3    H2 8026   4.274   0.194   3.056
 2688TIP3   OH2 8027   0.874   1.575   1.799
 2688TIP3    H1 8028   0.895   1.598   1.889
 2688TIP3    H2 8029   0.932   1.629   1.746
 2689TIP3   OH2 8030   3.415   4.896   0.551
 2689TIP3    H1 8031   3.388   4.863   0.637
 2689TIP3    H2 8032   3.510   4.885   0.549
 2690TIP3   OH2 8033   5.701   5.741   0.316
 2690TIP3    H1 8034   5.620   5.695   0.297
 2690TIP3    H2 8035   5.771   5.684   0.284
 2691TIP3   OH2 8036   2.235   4.375   0.099
 2691TIP3    H1 8037   2.265   4.293   0.138
 2691TIP3    H2 8038   2.253   4.366   0.006
 2692TIP3   OH2 8039   4.984   3.301   2.242
 2692TIP3    H1 8040   5.026   3.327   2.324
 2692TIP3    H2 8041   4.891   3.301   2.261
 2693TIP3   OH2 8042   3.450   0.772   0.941
 2693TIP3    H1 8043   3.381   0.814   0.889
 2693TIP3    H2 8044   3.505   0.728   0.876
 2694TIP3   OH2 8045   2.280   1.366   0.079
 2694TIP3    H1 8046   2.283   1.433   0.010
 2694TIP3    H2 8047   2.212   1.397   0.139
 2695TIP3   OH2 8048   1.525   1.365   4.835
 2695TIP3    H1 8049   1.461   1.431   4.863
 2695TIP3    H2 8050   1.497   1.341   4.747
 2696TIP3   OH2 8051   3.275   2.319   0.090
 2696TIP3    H1 8052   3.343   2.378   0.121
 2696TIP3    H2 8053   3.311   2.231   0.103
 2697TIP3   OH2 8054   5.355   5.011   0.385
 2697TIP3    H1 8055   5.284   5.037   0.327
 2697TIP3    H2 8056   5.346   4.916   0.393
 2698TIP3   OH2 8057   2.553   1.789   3.844
 2698TIP3    H1 8058   2.567   1.727   3.772
 2698TIP3    H2 8059   2.601   1.867   3.817
 2699TIP3   OH2 8060   0.226   1.924   2.210
 2699TIP3    H1 8061   0.163   1.897   2.276
 2699TIP3    H2 8062   0.200   1.878   2.131
 2700TIP3   OH2 8063   3.748   3.669   1.007
 2700TIP3    H1 8064   3.712   3.605   1.068
 2700TIP3    H2 8065   3.733   3.630   0.921
 2701TIP3   OH2 8066   2.821   5.254   4.431
 2701TIP3    H1 8067   2.888   5.248   4.500
 2701TIP3    H2 8068   2.853   5.195   4.362
 2702TIP3   OH2 8069   6.571   4.357   5.607
 2702TIP3    H1 8070   6.664   4.366   5.584
 2702TIP3    H2 8071   6.547   4.269   5.578
 2703TIP3   OH2 8072   5.405   1.737   0.332
 2703TIP3    H1 8073   5.479   1.752   0.273
 2703TIP3    H2 8074   5.384   1.823   0.368
 2704TIP3   OH2 8075   0.718   5.808   1.016
 2704TIP3    H1 8076   0.665   5.794   1.095
 2704TIP3    H2 8077   0.661   5.858   0.958
 2705TIP3   OH2 8078   5.662   4.068   4.485
 2705TIP3    H1 8079   5.601   4.019   4.431
 2705TIP3    H2 8080   5.607   4.129   4.534
 2706TIP3   OH2 8081   2.017   1.050   5.655
 2706TIP3    H1 8082   2.068   1.027   5.578
 2706TIP3    H2 8083   2.075   1.030   5.729
 2707TIP3   OH2 8084   3.106   4.160   4.528
 2707TIP3    H1 8085   3.161   4.187   4.455
 2707TIP3    H2 8086   3.074   4.073   4.504
 2708TIP3   OH2 8087   1.738   4.712   2.995
 2708TIP3    H1 8088   1.831   4.705   2.973
 2708TIP3    H2 8089   1.698   4.634   2.956
 2709TIP3   OH2 8090   3.995   6.619   3.272
 2709TIP3    H1 8091   3.913   6.657   3.301
 2709TIP3    H2 8092   4.060   6.651   3.334
 2710TIP3   OH2 8093   4.422   0.294   5.571
 2710TIP3    H1 8094   4.486   0.342   5.518
 2710TIP3    H2 8095   4.468   0.279   5.654
 2711TIP3   OH2 8096   4.072   2.219   4.318
 2711TIP3    H1 8097   4.026   2.256   4.243
 2711TIP3    H2 8098   4.090   2.128   4.294
 2712TIP3   OH2 8099   1.466   6.524   2.962
 2712TIP3    H1 8100   1.401   6.462   2.931
 2712TIP3    H2 8101   1.547   6.498   2.917
 2713TIP3   OH2 8102   5.145   0.887   1.393
 2713TIP3    H1 8103   5.229   0.917   1.359
 2713TIP3    H2 8104   5.087   0.887   1.318
 2714TIP3   OH2 8105   4.967   0.411   2.907
 2714TIP3    H1 8106   4.995   0.346   2.843
 2714TIP3    H2 8107   4.954   0.362   2.988
 2715TIP3   OH2 8108   5.705   4.690   1.570
 2715TIP3    H1 8109   5.689   4.643   1.653
 2715TIP3    H2 8110   5.795   4.721   1.578
 2716TIP3   OH2 8111   2.781   6.186   0.057
 2716TIP3    H1 8112   2.782   6.240  -0.023
 2716TIP3    H2 8113   2.863   6.207   0.100
 2717TIP3   OH2 8114   6.007   5.131   2.105
 2717TIP3    H1 8115   5.930   5.135   2.049
 2717TIP3    H2 8116   6.025   5.223   2.128
 2718TIP3   OH2 8117   2.854   4.655   1.763
 2718TIP3    H1 8118   2.869   4.583   1.703
 2718TIP3    H2 8119   2.939   4.669   1.805
 2719TIP3   OH2 8120   0.337   4.554   3.781
 2719TIP3    H1 8121   0.337   4.592   3.869
 2719TIP3    H2 8122   0.246   4.528   3.766
 2720TIP3   OH2 8123   5.523   3.450   4.293
 2720TIP3    H1 8124   5.469   3.375   4.319
 2720TIP3    H2 8125   5.610   3.429   4.328
 2721TIP3   OH2 8126   4.174   0.726   1.640
 2721TIP3    H1 8127   4.225   0.720   1.721
 2721TIP3    H2 8128   4.216   0.664   1.581
 2722TIP3   OH2 8129   3.014   3.069   2.608
 2722TIP3    H1 8130   2.969   2.985   2.593
 2722TIP3    H2 8131   2.958   3.133   2.564
 2723TIP3   OH2 8132   1.187   3.458   2.442
 2723TIP3    H1 8133   1.091   3.461   2.441
 2723TIP3    H2 8134   1.209   3.428   2.530
 2724TIP3   OH2 8135   2.865   1.246   5.096
 2724TIP3    H1 8136   2.938   1.295   5.133
 2724TIP3    H2 8137   2.792   1.308   5.097
 2725TIP3   OH2 8138   6.507   4.135   0.679
 2725TIP3    H1 8139   6.546   4.153   0.593
 2725TIP3    H2 8140   6.572   4.166   0.742
 2726TIP3   OH2 8141   2.780   3.575   4.545
 2726TIP3    H1 8142   2.686   3.557   4.555
 2726TIP3    H2 8143   2.802   3.627   4.622
 2727TIP3   OH2 8144   0.824   4.168   4.184
 2727TIP3    H1 8145   0.785   4.142   4.268
 2727TIP3    H2 8146   0.908   4.121   4.182
 2728TIP3   OH2 8147   6.120   3.860   5.117
 2728TIP3    H1 8148   6.214   3.848   5.104
 2728TIP3    H2 8149   6.080   3.830   5.035
 2729TIP3   OH2 8150   1.500   6.163   5.212
 2729TIP3    H1 8151   1.496   6.200   5.300
 2729TIP3    H2 8152   1.439   6.217   5.161
 2730TIP3   OH2 8153   6.871   5.226   2.275
 2730TIP3    H1 8154   6.871   5.303   2.331
 2730TIP3    H2 8155   6.826   5.254   2.195
 2731TIP3   OH2 8156   4.970   4.305   5.236
 2731TIP3    H1 8157   4.954   4.283   5.144
 2731TIP3    H2 8158   5.002   4.224   5.275
 2732TIP3   OH2 8159   0.077   1.620   2.225
 2732TIP3    H1 8160   0.060   1.669   2.144
 2732TIP3    H2 8161   0.159   1.574   2.209
 2733TIP3   OH2 8162   6.827   5.779   2.828
 2733TIP3    H1 8163   6.816   5.706   2.889
 2733TIP3    H2 8164   6.886   5.839   2.872
 2734TIP3   OH2 8165   0.540   4.547   5.687
 2734TIP3    H1 8166   0.591   4.495   5.626
 2734TIP3    H2 8167   0.605   4.600   5.733
 2735TIP3   OH2 8168   2.250   0.224   1.613
 2735TIP3    H1 8169   2.198   0.190   1.540
 2735TIP3    H2 8170   2.189   0.231   1.685
 2736TIP3   OH2 8171   2.988   4.733   3.454
 2736TIP3    H1 8172   3.056   4.763   3.393
 2736TIP3    H2 8173   3.020   4.759   3.540
 2737TIP3   OH2 8174   5.077   2.027   5.293
 2737TIP3    H1 8175   4.996   2.078   5.291
 2737TIP3    H2 8176   5.106   2.025   5.202
 2738TIP3   OH2 8177   5.769   2.481   4.282
 2738TIP3    H1 8178   5.779   2.427   4.361
 2738TIP3    H2 8179   5.699   2.542   4.304
 2739TIP3   OH2 8180   5.027   5.752   3.634
 2739TIP3    H1 8181   4.951   5.754   3.693
 2739TIP3    H2 8182   5.097   5.794   3.683
 2740TIP3   OH2 8183   3.178   5.035   1.202
 2740TIP3    H1 8184   3.171   5.107   1.265
 2740TIP3    H2 8185   3.096   4.988   1.211
 2741TIP3   OH2 8186   5.310   1.038   2.768
 2741TIP3    H1 8187   5.323   1.133   2.766
 2741TIP3    H2 8188   5.263   1.018   2.687
 2742TIP3   OH2 8189   1.216   3.664   1.972
 2742TIP3    H1 8190   1.261   3.677   1.888
 2742TIP3    H2 8191   1.195   3.753   2.001
 2743TIP3   OH2 8192   3.035   3.981   1.042
 2743TIP3    H1 8193   3.076   4.057   1.002
 2743TIP3    H2 8194   3.019   4.007   1.132
 2744TIP3   OH2 8195   2.885   2.109   2.151
 2744TIP3    H1 8196   2.912   2.067   2.232
 2744TIP3    H2 8197   2.940   2.069   2.083
 2745TIP3   OH2 8198   2.494   5.782   0.600
 2745TIP3    H1 8199   2.581   5.817   0.580
 2745TIP3    H2 8200   2.436   5.825   0.538
 2746TIP3   OH2 8201   5.425   1.080   4.773
 2746TIP3    H1 8202   5.508   1.081   4.725
 2746TIP3    H2 8203   5.447   1.045   4.859
 2747TIP3   OH2 8204   4.443   0.742   2.414
 2747TIP3    H1 8205   4.387   0.713   2.342
 2747TIP3    H2 8206   4.530   0.708   2.392
 2748TIP3   OH2 8207   6.302   5.728   1.824
 2748TIP3    H1 8208   6.326   5.726   1.731
 2748TIP3    H2 8209   6.270   5.639   1.842
 2749TIP3   OH2 8210   0.350   0.963   1.073
 2749TIP3    H1 8211   0.280   0.980   1.136
 2749TIP3    H2 8212   0.381   0.875   1.094
 2750TIP3   OH2 8213   3.377   6.689   1.416
 2750TIP3    H1 8214   3.463   6.728   1.432
 2750TIP3    H2 8215   3.393   6.595   1.418
 2751TIP3   OH2 8216   6.180   0.364   5.176
 2751TIP3    H1 8217   6.109   0.378   5.113
 2751TIP3    H2 8218   6.249   0.424   5.148
 2752TIP3   OH2 8219   4.621   0.705   4.302
 2752TIP3    H1 8220   4.600   0.612   4.296
 2752TIP3    H2 8221   4.646   0.730   4.213
 2753TIP3   OH2 8222   1.511   1.425   2.955
 2753TIP3    H1 8223   1.558   1.366   2.897
 2753TIP3    H2 8224   1.571   1.437   3.030
 2754TIP3   OH2 8225   4.166   1.648   1.315
 2754TIP3    H1 8226   4.202   1.645   1.403
 2754TIP3    H2 8227   4.102   1.720   1.317
 2755TIP3   OH2 8228   5.182   4.808   1.865
 2755TIP3    H1 8229   5.190   4.903   1.863
 2755TIP3    H2 8230   5.105   4.789   1.811
 2756TIP3   OH2 8231   0.770   6.555   1.115
 2756TIP3    H1 8232   0.860   6.539   1.144
 2756TIP3    H2 8233   0.773   6.642   1.075
 2757TIP3   OH2 8234   2.723   2.916   4.052
 2757TIP3    H1 8235   2.747   2.962   4.132
 2757TIP3    H2 8236   2.772   2.833   4.056
 2758TIP3   OH2 8237   1.087   3.603   3.795
 2758TIP3    H1 8238   1.126   3.674   3.743
 2758TIP3    H2 8239   1.078   3.530   3.733
 2759TIP3   OH2 8240   0.372   3.805   5.642
 2759TIP3    H1 8241   0.361   3.872   5.710
 2759TIP3    H2 8242   0.422   3.849   5.574
 2760TIP3   OH2 8243   6.420   3.273   2.411
 2760TIP3    H1 8244   6.362   3.312   2.345
 2760TIP3    H2 8245   6.390   3.309   2.494
 2761TIP3   OH2 8246   5.999   1.356   3.130
 2761TIP3    H1 8247   6.073   1.322   3.179
 2761TIP3    H2 8248   6.037   1.422   3.071
 2762TIP3   OH2 8249   0.655   3.723   5.062
 2762TIP3    H1 8250   0.707   3.700   5.139
 2762TIP3    H2 8251   0.646   3.641   5.014
 2763TIP3   OH2 8252   1.834   3.680   2.546
 2763TIP3    H1 8253   1.777   3.748   2.581
 2763TIP3    H2 8254   1.802   3.599   2.584
 2764TIP3   OH2 8255   5.305   5.793   3.111
 2764TIP3    H1 8256   5.286   5.875   3.157
 2764TIP3    H2 8257   5.230   5.737   3.129
 2765TIP3   OH2 8258   6.021   4.406   5.460
 2765TIP3    H1 8259   6.080   4.337   5.490
 2765TIP3    H2 8260   5.951   4.407   5.526
 2766TIP3   OH2 8261   7.040   0.654   4.995
 2766TIP3    H1 8262   6.989   0.588   5.043
 2766TIP3    H2 8263   7.037   0.731   5.051
 2767TIP3   OH2 8264   2.908   4.066   0.576
 2767TIP3    H1 8265   2.832   4.019   0.611
 2767TIP3    H2 8266   2.930   4.019   0.496
 2768TIP3   OH2 8267   3.501   2.624   4.894
 2768TIP3    H1 8268   3.593   2.648   4.895
 2768TIP3    H2 8269   3.463   2.669   4.969
 2769TIP3   OH2 8270   3.628   2.614   3.862
 2769TIP3    H1 8271   3.547   2.568   3.883
 2769TIP3    H2 8272   3.636   2.681   3.929
 2770TIP3   OH2 8273   5.880   3.990   3.293
 2770TIP3    H1 8274   5.840   3.991   3.206
 2770TIP3    H2 8275   5.886   4.083   3.317
 2771TIP3   OH2 8276   0.800   4.453   1.183
 2771TIP3    H1 8277   0.864   4.389   1.216
 2771TIP3    H2 8278   0.811   4.451   1.088
 2772TIP3   OH2 8279   5.202   2.566   4.371
 2772TIP3    H1 8280   5.211   2.630   4.442
 2772TIP3    H2 8281   5.234   2.484   4.408
 2773TIP3   OH2 8282   6.346   4.952   0.343
 2773TIP3    H1 8283   6.303   4.951   0.428
 2773TIP3    H2 8284   6.389   5.037   0.339
 2774TIP3   OH2 8285   6.144   4.995   0.561
 2774TIP3    H1 8286   6.137   5.090   0.569
 2774TIP3    H2 8287   6.056   4.965   0.541
 2775TIP3   OH2 8288   2.631   2.691   4.344
 2775TIP3    H1 8289   2.615   2.604   4.379
 2775TIP3    H2 8290   2.647   2.678   4.251
 2776TIP3   OH2 8291   2.315   6.539   2.342
 2776TIP3    H1 8292   2.323   6.634   2.336
 2776TIP3    H2 8293   2.350   6.506   2.260
 2777TIP3   OH2 8294   5.856   3.654   2.535
 2777TIP3    H1 8295   5.909   3.685   2.462
 2777TIP3    H2 8296   5.877   3.561   2.541
 2778TIP3   OH2 8297   5.418   5.810   3.400
 2778TIP3    H1 8298   5.361   5.738   3.427
 2778TIP3    H2 8299   5.358   5.881   3.378
 2779TIP3   OH2 8300   5.316   5.584   1.708
 2779TIP3    H1 8301   5.346   5.518   1.770
 2779TIP3    H2 8302   5.222   5.569   1.700
 2780TIP3   OH2 8303   2.806   1.331   2.690
 2780TIP3    H1 8304   2.755   1.364   2.764
 2780TIP3    H2 8305   2.897   1.340   2.718
 2781TIP3   OH2 8306   0.199   5.614   3.827
 2781TIP3    H1 8307   0.175   5.544   3.888
 2781TIP3    H2 8308   0.275   5.656   3.867
 2782TIP3   OH2 8309   6.513   2.616   2.899
 2782TIP3    H1 8310   6.435   2.575   2.861
 2782TIP3    H2 8311   6.585   2.587   2.843
 2783TIP3   OH2 8312   1.518   0.211   3.171
 2783TIP3    H1 8313   1.464   0.266   3.113
 2783TIP3    H2 8314   1.587   0.269   3.202
 2784TIP3   OH2 8315   0.988   4.569   2.374
 2784TIP3    H1 8316   0.952   4.526   2.451
 2784TIP3    H2 8317   0.956   4.659   2.380
 2785TIP3   OH2 8318   1.545   2.570   1.631
 2785TIP3    H1 8319   1.496   2.642   1.592
 2785TIP3    H2 8320   1.637   2.590   1.613
 2786TIP3   OH2 8321   3.775   5.980   5.518
 2786TIP3    H1 8322   3.858   5.938   5.495
 2786TIP3    H2 8323   3.709   5.914   5.503
 2787TIP3   OH2 8324   6.840   4.964   2.199
 2787TIP3    H1 8325   6.777   4.910   2.247
 2787TIP3    H2 8326   6.831   5.051   2.237
 2788TIP3   OH2 8327   5.907   0.730   5.847
 2788TIP3    H1 8328   5.978   0.783   5.883
 2788TIP3    H2 8329   5.834   0.791   5.838
 2789TIP3   OH2 8330   3.166   4.609   1.760
 2789TIP3    H1 8331   3.261   4.599   1.762
 2789TIP3    H2 8332   3.136   4.544   1.697
 2790TIP3   OH2 8333   3.491   1.281   2.171
 2790TIP3    H1 8334   3.473   1.286   2.265
 2790TIP3    H2 8335   3.405   1.293   2.130
 2791TIP3   OH2 8336   5.279   2.664   2.148
 2791TIP3    H1 8337   5.269   2.607   2.224
 2791TIP3    H2 8338   5.194   2.660   2.104
 2792TIP3   OH2 8339   4.421   3.669   1.964
 2792TIP3    H1 8340   4.373   3.745   1.998
 2792TIP3    H2 8341   4.398   3.667   1.871
 2793TIP3   OH2 8342   5.587   4.007   1.944
 2793TIP3    H1 8343   5.506   4.058   1.951
 2793TIP3    H2 8344   5.653   4.063   1.985
 2794TIP3   OH2 8345   5.445   5.369   4.028
 2794TIP3    H1 8346   5.461   5.445   4.084
 2794TIP3    H2 8347   5.433   5.296   4.090
 2795TIP3   OH2 8348   6.432   4.075   3.742
 2795TIP3    H1 8349   6.518   4.064   3.700
 2795TIP3    H2 8350   6.370   4.044   3.677
 2796TIP3   OH2 8351   2.209   6.149   5.138
 2796TIP3    H1 8352   2.281   6.107   5.185
 2796TIP3    H2 8353   2.243   6.164   5.050
 2797TIP3   OH2 8354   1.945   6.149   4.113
 2797TIP3    H1 8355   1.877   6.134   4.178
 2797TIP3    H2 8356   1.955   6.065   4.068
 2798TIP3   OH2 8357   6.183   0.038   3.565
 2798TIP3    H1 8358   6.149  -0.050   3.546
 2798TIP3    H2 8359   6.109   0.084   3.604
 2799TIP3   OH2 8360   1.906   6.576   3.650
 2799TIP3    H1 8361   1.977   6.544   3.706
 2799TIP3    H2 8362   1.947   6.591   3.565
 2800TIP3   OH2 8363   6.381   0.318   2.002
 2800TIP3    H1 8364   6.327   0.368   1.941
 2800TIP3    H2 8365   6.432   0.384   2.049
 2801TIP3   OH2 8366   2.031   5.875   0.263
 2801TIP3    H1 8367   1.949   5.824   0.267
 2801TIP3    H2 8368   2.091   5.818   0.214
 2802TIP3   OH2 8369   2.837   4.200   2.618
 2802TIP3    H1 8370   2.795   4.169   2.698
 2802TIP3    H2 8371   2.771   4.185   2.550
 2803TIP3   OH2 8372   5.165   3.661   1.519
 2803TIP3    H1 8373   5.090   3.603   1.503
 2803TIP3    H2 8374   5.214   3.659   1.437
 2804TIP3   OH2 8375   4.054   2.409   3.074
 2804TIP3    H1 8376   4.055   2.373   2.985
 2804TIP3    H2 8377   4.137   2.455   3.081
 2805TIP3   OH2 8378   6.264   6.036   0.635
 2805TIP3    H1 8379   6.220   5.961   0.595
 2805TIP3    H2 8380   6.198   6.075   0.692
 2806TIP3   OH2 8381   2.719   2.943   5.297
 2806TIP3    H1 8382   2.668   2.862   5.290
 2806TIP3    H2 8383   2.761   2.937   5.383
 2807TIP3   OH2 8384   3.421   4.350   3.517
 2807TIP3    H1 8385   3.393   4.442   3.521
 2807TIP3    H2 8386   3.350   4.305   3.472
 2808TIP3   OH2 8387   6.945   5.439   5.179
 2808TIP3    H1 8388   7.001   5.361   5.174
 2808TIP3    H2 8389   6.959   5.484   5.096
 2809TIP3   OH2 8390   0.318   1.192   3.551
 2809TIP3    H1 8391   0.375   1.215   3.624
 2809TIP3    H2 8392   0.378   1.159   3.483
 2810TIP3   OH2 8393   0.196   3.638   5.476
 2810TIP3    H1 8394   0.124   3.652   5.537
 2810TIP3    H2 8395   0.273   3.672   5.520
 2811TIP3   OH2 8396   0.718   2.316   2.177
 2811TIP3    H1 8397   0.735   2.289   2.267
 2811TIP3    H2 8398   0.796   2.366   2.152
 2812TIP3   OH2 8399   6.335   2.389   1.450
 2812TIP3    H1 8400   6.414   2.434   1.481
 2812TIP3    H2 8401   6.363   2.346   1.369
 2813TIP3   OH2 8402   3.905   3.501   5.221
 2813TIP3    H1 8403   3.973   3.525   5.284
 2813TIP3    H2 8404   3.917   3.407   5.206
 2814TIP3   OH2 8405   3.530   2.918   4.697
 2814TIP3    H1 8406   3.540   2.854   4.626
 2814TIP3    H2 8407   3.437   2.914   4.720
 2815TIP3   OH2 8408   2.546   3.937   5.537
 2815TIP3    H1 8409   2.499   3.985   5.604
 2815TIP3    H2 8410   2.587   4.004   5.483
 2816TIP3   OH2 8411   6.578   2.834   4.850
 2816TIP3    H1 8412   6.606   2.744   4.832
 2816TIP3    H2 8413   6.654   2.874   4.894
 2817TIP3   OH2 8414   0.205   0.703   3.528
 2817TIP3    H1 8415   0.156   0.623   3.548
 2817TIP3    H2 8416   0.142   0.759   3.484
 2818TIP3   OH2 8417   5.908   5.481   1.870
 2818TIP3    H1 8418   5.909   5.390   1.839
 2818TIP3    H2 8419   5.999   5.509   1.866
 2819TIP3   OH2 8420   3.186   5.401   2.546
 2819TIP3    H1 8421   3.163   5.485   2.587
 2819TIP3    H2 8422   3.139   5.336   2.597
 2820TIP3   OH2 8423   6.634   3.685   1.183
 2820TIP3    H1 8424   6.595   3.618   1.240
 2820TIP3    H2 8425   6.562   3.744   1.163
 2821TIP3   OH2 8426   5.888   1.697   4.591
 2821TIP3    H1 8427   5.978   1.708   4.563
 2821TIP3    H2 8428   5.871   1.603   4.581
 2822TIP3   OH2 8429   4.343   1.126   3.523
 2822TIP3    H1 8430   4.388   1.124   3.438
 2822TIP3    H2 8431   4.327   1.034   3.544
 2823TIP3   OH2 8432   2.485   3.874   0.238
 2823TIP3    H1 8433   2.441   3.930   0.174
 2823TIP3    H2 8434   2.469   3.917   0.322
 2824TIP3   OH2 8435   7.156   1.882   0.454
 2824TIP3    H1 8436   7.122   1.880   0.544
 2824TIP3    H2 8437   7.114   1.807   0.411
 2825TIP3   OH2 8438   4.278   3.442   5.090
 2825TIP3    H1 8439   4.344   3.511   5.083
 2825TIP3    H2 8440   4.208   3.469   5.031
 2826TIP3   OH2 8441   4.737   6.792   2.205
 2826TIP3    H1 8442   4.820   6.839   2.192
 2826TIP3    H2 8443   4.720   6.749   2.122
 2827TIP3   OH2 8444   3.930   2.876   1.167
 2827TIP3    H1 8445   4.002   2.856   1.226
 2827TIP3    H2 8446   3.919   2.971   1.173
 2828TIP3   OH2 8447   3.877   1.208   0.055
 2828TIP3    H1 8448   3.879   1.154  -0.024
 2828TIP3    H2 8449   3.852   1.146   0.124
 2829TIP3   OH2 8450   1.383   5.276   0.198
 2829TIP3    H1 8451   1.398   5.370   0.190
 2829TIP3    H2 8452   1.292   5.268   0.225
 2830TIP3   OH2 8453   3.769   5.243   5.771
 2830TIP3    H1 8454   3.746   5.167   5.825
 2830TIP3    H2 8455   3.833   5.291   5.822
 2831TIP3   OH2 8456   0.978   5.182   0.241
 2831TIP3    H1 8457   1.042   5.204   0.308
 2831TIP3    H2 8458   0.922   5.116   0.282
 2832TIP3   OH2 8459   2.672   5.223   4.680
 2832TIP3    H1 8460   2.714   5.238   4.595
 2832TIP3    H2 8461   2.624   5.141   4.669
 2833TIP3   OH2 8462   1.436   5.691   3.004
 2833TIP3    H1 8463   1.387   5.612   3.025
 2833TIP3    H2 8464   1.521   5.679   3.047
 2834TIP3   OH2 8465   5.272   1.842   2.023
 2834TIP3    H1 8466   5.310   1.755   2.034
 2834TIP3    H2 8467   5.263   1.853   1.928
 2835TIP3   OH2 8468   0.043   3.709   0.433
 2835TIP3    H1 8469  -0.034   3.709   0.490
 2835TIP3    H2 8470   0.115   3.735   0.491
 2836TIP3   OH2 8471   5.484   1.141   3.619
 2836TIP3    H1 8472   5.524   1.085   3.686
 2836TIP3    H2 8473   5.420   1.084   3.576
 2837TIP3   OH2 8474   3.639   0.385   4.089
 2837TIP3    H1 8475   3.553   0.367   4.127
 2837TIP3    H2 8476   3.698   0.324   4.133
 2838TIP3   OH2 8477   3.484   5.711   1.554
 2838TIP3    H1 8478   3.505   5.618   1.563
 2838TIP3    H2 8479   3.429   5.716   1.476
 2839TIP3   OH2 8480   1.864   1.228   0.129
 2839TIP3    H1 8481   1.960   1.223   0.129
 2839TIP3    H2 8482   1.835   1.137   0.123
 2840TIP3   OH2 8483   2.877   5.428   2.799
 2840TIP3    H1 8484   2.927   5.487   2.855
 2840TIP3    H2 8485   2.944   5.383   2.747
 2841TIP3   OH2 8486   7.109   3.460   1.865
 2841TIP3    H1 8487   7.083   3.521   1.935
 2841TIP3    H2 8488   7.027   3.419   1.837
 2842TIP3   OH2 8489   1.577   3.008   5.030
 2842TIP3    H1 8490   1.612   3.097   5.022
 2842TIP3    H2 8491   1.485   3.017   5.004
 2843TIP3   OH2 8492   6.598   3.629   0.585
 2843TIP3    H1 8493   6.543   3.590   0.652
 2843TIP3    H2 8494   6.646   3.699   0.631
 2844TIP3   OH2 8495   3.490   4.238   0.539
 2844TIP3    H1 8496   3.519   4.229   0.449
 2844TIP3    H2 8497   3.404   4.280   0.532
 2845TIP3   OH2 8498   6.094   3.772   1.329
 2845TIP3    H1 8499   6.122   3.823   1.253
 2845TIP3    H2 8500   6.025   3.715   1.294
 2846TIP3   OH2 8501   0.822   6.446   0.085
 2846TIP3    H1 8502   0.809   6.359   0.123
 2846TIP3    H2 8503   0.917   6.460   0.090
 2847TIP3   OH2 8504   6.475   2.945   1.536
 2847TIP3    H1 8505   6.536   3.002   1.488
 2847TIP3    H2 8506   6.467   2.868   1.481
 2848TIP3   OH2 8507   5.857   6.315   2.722
 2848TIP3    H1 8508   5.933   6.258   2.735
 2848TIP3    H2 8509   5.883   6.399   2.760
 2849TIP3   OH2 8510   4.502   1.371   3.357
 2849TIP3    H1 8511   4.520   1.431   3.430
 2849TIP3    H2 8512   4.420   1.402   3.320
 2850TIP3   OH2 8513   2.839   2.351   2.281
 2850TIP3    H1 8514   2.833   2.285   2.212
 2850TIP3    H2 8515   2.926   2.389   2.271
 2851TIP3   OH2 8516   2.305   5.855   1.328
 2851TIP3    H1 8517   2.337   5.770   1.297
 2851TIP3    H2 8518   2.302   5.845   1.424
 2852TIP3   OH2 8519   2.784   6.349   5.359
 2852TIP3    H1 8520   2.755   6.419   5.417
 2852TIP3    H2 8521   2.713   6.339   5.296
 2853TIP3   OH2 8522   4.096   1.573   0.328
 2853TIP3    H1 8523   4.046   1.533   0.257
 2853TIP3    H2 8524   4.186   1.577   0.295
 2854TIP3   OH2 8525   0.029   2.022   4.805
 2854TIP3    H1 8526   0.061   2.099   4.851
 2854TIP3    H2 8527   0.031   2.047   4.712
 2855TIP3   OH2 8528   1.568   5.118   3.804
 2855TIP3    H1 8529   1.584   5.028   3.832
 2855TIP3    H2 8530   1.478   5.137   3.832
 2856TIP3   OH2 8531   5.540   2.492   5.316
 2856TIP3    H1 8532   5.514   2.418   5.262
 2856TIP3    H2 8533   5.590   2.548   5.257
 2857TIP3   OH2 8534   1.473   5.436   2.841
 2857TIP3    H1 8535   1.423   5.491   2.781
 2857TIP3    H2 8536   1.416   5.424   2.917
 2858TIP3   OH2 8537   4.680   6.386   2.711
 2858TIP3    H1 8538   4.694   6.437   2.632
 2858TIP3    H2 8539   4.657   6.299   2.680
 2859TIP3   OH2 8540   4.533   6.155   1.322
 2859TIP3    H1 8541   4.563   6.068   1.295
 2859TIP3    H2 8542   4.461   6.138   1.382
 2860TIP3   OH2 8543   2.365   5.347   2.289
 2860TIP3    H1 8544   2.380   5.256   2.267
 2860TIP3    H2 8545   2.337   5.346   2.381
 2861TIP3   OH2 8546   0.128   6.516   2.742
 2861TIP3    H1 8547   0.208   6.562   2.714
 2861TIP3    H2 8548   0.058   6.578   2.724
 2862TIP3   OH2 8549   4.592   6.160   3.940
 2862TIP3    H1 8550   4.630   6.156   3.852
 2862TIP3    H2 8551   4.574   6.253   3.955
 2863TIP3   OH2 8552   4.284   3.559   0.754
 2863TIP3    H1 8553   4.354   3.621   0.774
 2863TIP3    H2 8554   4.289   3.547   0.659
 2864TIP3   OH2 8555   6.781   2.012   5.223
 2864TIP3    H1 8556   6.861   1.998   5.173
 2864TIP3    H2 8557   6.806   1.999   5.314
 2865TIP3   OH2 8558   4.863   4.831   5.308
 2865TIP3    H1 8559   4.895   4.744   5.332
 2865TIP3    H2 8560   4.778   4.837   5.352
 2866TIP3   OH2 8561   7.047   1.750   5.402
 2866TIP3    H1 8562   7.036   1.667   5.356
 2866TIP3    H2 8563   7.088   1.727   5.485
 2867TIP3   OH2 8564   6.670   2.621   2.180
 2867TIP3    H1 8565   6.738   2.633   2.246
 2867TIP3    H2 8566   6.599   2.576   2.225
 2868TIP3   OH2 8567   1.353   4.896   4.415
 2868TIP3    H1 8568   1.445   4.908   4.437
 2868TIP3    H2 8569   1.344   4.935   4.328
 2869TIP3   OH2 8570   4.754   6.271   5.666
 2869TIP3    H1 8571   4.723   6.362   5.669
 2869TIP3    H2 8572   4.800   6.259   5.749
 2870TIP3   OH2 8573   2.245   2.682   5.294
 2870TIP3    H1 8574   2.229   2.758   5.350
 2870TIP3    H2 8575   2.159   2.642   5.284
 2871TIP3   OH2 8576   2.158   0.747   5.859
 2871TIP3    H1 8577   2.181   0.732   5.768
 2871TIP3    H2 8578   2.190   0.835   5.878
 2872TIP3   OH2 8579   3.976   4.745   0.853
 2872TIP3    H1 8580   3.930   4.662   0.867
 2872TIP3    H2 8581   4.037   4.750   0.927
 2873TIP3   OH2 8582   4.449   6.700   2.126
 2873TIP3    H1 8583   4.444   6.656   2.041
 2873TIP3    H2 8584   4.443   6.793   2.105
 2874TIP3   OH2 8585   6.522   4.832   4.644
 2874TIP3    H1 8586   6.487   4.916   4.613
 2874TIP3    H2 8587   6.612   4.852   4.669
 2875TIP3   OH2 8588   4.411   2.729   3.620
 2875TIP3    H1 8589   4.417   2.698   3.529
 2875TIP3    H2 8590   4.447   2.818   3.617
 2876TIP3   OH2 8591   0.512   3.404   0.082
 2876TIP3    H1 8592   0.460   3.468   0.033
 2876TIP3    H2 8593   0.479   3.409   0.171
 2877TIP3   OH2 8594   4.529   4.446   0.243
 2877TIP3    H1 8595   4.517   4.351   0.239
 2877TIP3    H2 8596   4.452   4.478   0.290
 2878TIP3   OH2 8597   4.885   4.211   3.912
 2878TIP3    H1 8598   4.966   4.182   3.870
 2878TIP3    H2 8599   4.836   4.130   3.928
 2879TIP3   OH2 8600   4.331   3.913   5.537
 2879TIP3    H1 8601   4.352   3.911   5.444
 2879TIP3    H2 8602   4.347   4.004   5.563
 2880TIP3   OH2 8603   6.336   3.222   0.225
 2880TIP3    H1 8604   6.288   3.218   0.142
 2880TIP3    H2 8605   6.424   3.190   0.203
 2881TIP3   OH2 8606   1.377   0.511   0.359
 2881TIP3    H1 8607   1.347   0.573   0.426
 2881TIP3    H2 8608   1.470   0.498   0.377
 2882TIP3   OH2 8609   6.384   1.212   5.083
 2882TIP3    H1 8610   6.363   1.297   5.045
 2882TIP3    H2 8611   6.474   1.221   5.115
 2883TIP3   OH2 8612   2.984   4.096   3.440
 2883TIP3    H1 8613   2.961   4.068   3.529
 2883TIP3    H2 8614   2.934   4.176   3.426
 2884TIP3   OH2 8615   1.720   4.688   2.673
 2884TIP3    H1 8616   1.717   4.650   2.585
 2884TIP3    H2 8617   1.766   4.623   2.726
 2885TIP3   OH2 8618   5.491   4.651   5.278
 2885TIP3    H1 8619   5.496   4.725   5.218
 2885TIP3    H2 8620   5.551   4.586   5.241
 2886TIP3   OH2 8621   5.449   5.005   2.609
 2886TIP3    H1 8622   5.423   5.070   2.675
 2886TIP3    H2 8623   5.369   4.955   2.592
 2887TIP3   OH2 8624   4.620   1.111   4.179
 2887TIP3    H1 8625   4.579   1.197   4.166
 2887TIP3    H2 8626   4.699   1.113   4.126
 2888TIP3   OH2 8627   4.476   2.363   0.314
 2888TIP3    H1 8628   4.502   2.454   0.325
 2888TIP3    H2 8629   4.504   2.340   0.225
 2889TIP3   OH2 8630   1.168   0.531   5.393
 2889TIP3    H1 8631   1.135   0.578   5.316
 2889TIP3    H2 8632   1.100   0.545   5.460
 2890TIP3   OH2 8633   3.474   5.476   2.210
 2890TIP3    H1 8634   3.529   5.553   2.220
 2890TIP3    H2 8635   3.388   5.504   2.241
 2891TIP3   OH2 8636   6.688   1.392   0.652
 2891TIP3    H1 8637   6.748   1.343   0.707
 2891TIP3    H2 8638   6.664   1.469   0.704
 2892TIP3   OH2 8639   1.858   0.511   1.144
 2892TIP3    H1 8640   1.838   0.561   1.065
 2892TIP3    H2 8641   1.772   0.491   1.182
 2893TIP3   OH2 8642   3.562   0.745   1.781
 2893TIP3    H1 8643   3.565   0.819   1.720
 2893TIP3    H2 8644   3.482   0.698   1.756
 2894TIP3   OH2 8645   0.083   0.308   2.242
 2894TIP3    H1 8646   0.102   0.353   2.324
 2894TIP3    H2 8647   0.051   0.376   2.184
 2895TIP3   OH2 8648   4.874   5.358   1.933
 2895TIP3    H1 8649   4.912   5.307   2.005
 2895TIP3    H2 8650   4.814   5.297   1.890
 2896TIP3   OH2 8651   5.341   1.922   3.619
 2896TIP3    H1 8652   5.363   1.837   3.580
 2896TIP3    H2 8653   5.304   1.901   3.704
 2897TIP3   OH2 8654   7.247   6.088   0.486
 2897TIP3    H1 8655   7.254   6.178   0.453
 2897TIP3    H2 8656   7.166   6.055   0.448
 2898TIP3   OH2 8657   1.740   4.316   3.319
 2898TIP3    H1 8658   1.766   4.280   3.235
 2898TIP3    H2 8659   1.667   4.260   3.348
 2899TIP3   OH2 8660   3.798   4.865   0.116
 2899TIP3    H1 8661   3.820   4.796   0.054
 2899TIP3    H2 8662   3.774   4.940   0.061
 2900TIP3   OH2 8663   1.636   0.590   2.926
 2900TIP3    H1 8664   1.689   0.588   3.005
 2900TIP3    H2 8665   1.664   0.671   2.881
 2901TIP3   OH2 8666   5.243   4.350   4.909
 2901TIP3    H1 8667   5.305   4.286   4.942
 2901TIP3    H2 8668   5.244   4.338   4.814
 2902TIP3   OH2 8669   3.791   3.383   5.868
 2902TIP3    H1 8670   3.826   3.368   5.780
 2902TIP3    H2 8671   3.859   3.351   5.927
 2903TIP3   OH2 8672   4.802   2.714   5.006
 2903TIP3    H1 8673   4.818   2.783   5.071
 2903TIP3    H2 8674   4.723   2.743   4.959
 2904TIP3   OH2 8675   6.864   5.360   0.125
 2904TIP3    H1 8676   6.787   5.403   0.089
 2904TIP3    H2 8677   6.937   5.395   0.074
 2905TIP3   OH2 8678   0.292   1.062   4.682
 2905TIP3    H1 8679   0.213   1.026   4.643
 2905TIP3    H2 8680   0.359   0.994   4.668
 2906TIP3   OH2 8681   1.984   4.456   2.229
 2906TIP3    H1 8682   2.037   4.524   2.271
 2906TIP3    H2 8683   1.973   4.389   2.296
 2907TIP3   OH2 8684   3.455   3.689   2.064
 2907TIP3    H1 8685   3.452   3.785   2.062
 2907TIP3    H2 8686   3.380   3.662   2.011
 2908TIP3   OH2 8687   0.441   1.215   0.922
 2908TIP3    H1 8688   0.379   1.146   0.943
 2908TIP3    H2 8689   0.527   1.177   0.939
 2909TIP3   OH2 8690   3.204   1.814   2.225
 2909TIP3    H1 8691   3.134   1.806   2.160
 2909TIP3    H2 8692   3.185   1.746   2.290
 2910TIP3   OH2 8693   0.894   0.015   3.317
 2910TIP3    H1 8694   0.837   0.091   3.308
 2910TIP3    H2 8695   0.897  -0.025   3.230
 2911TIP3   OH2 8696   4.752   1.844   1.748
 2911TIP3    H1 8697   4.833   1.797   1.768
 2911TIP3    H2 8698   4.684   1.793   1.792
 2912TIP3   OH2 8699   2.437   1.446   1.052
 2912TIP3    H1 8700   2.408   1.483   0.969
 2912TIP3    H2 8701   2.391   1.498   1.119
 2913TIP3   OH2 8702   0.097   5.778   4.198
 2913TIP3    H1 8703   0.027   5.722   4.165
 2913TIP3    H2 8704   0.161   5.718   4.234
 2914TIP3   OH2 8705   1.428   4.582   0.819
 2914TIP3    H1 8706   1.374   4.606   0.894
 2914TIP3    H2 8707   1.465   4.665   0.788
 2915TIP3   OH2 8708   0.510   1.197   1.463
 2915TIP3    H1 8709   0.428   1.149   1.457
 2915TIP3    H2 8710   0.578   1.131   1.453
 2916TIP3   OH2 8711   3.651   1.053   5.028
 2916TIP3    H1 8712   3.617   1.088   5.110
 2916TIP3    H2 8713   3.718   0.990   5.055
 2917TIP3   OH2 8714   6.100   6.381   3.165
 2917TIP3    H1 8715   6.170   6.350   3.222
 2917TIP3    H2 8716   6.024   6.328   3.188
 2918TIP3   OH2 8717   5.455   4.631   4.565
 2918TIP3    H1 8718   5.453   4.569   4.492
 2918TIP3    H2 8719   5.413   4.710   4.531
 2919TIP3   OH2 8720   6.904   2.646   2.335
 2919TIP3    H1 8721   6.947   2.712   2.280
 2919TIP3    H2 8722   6.863   2.697   2.405
 2920TIP3   OH2 8723   5.060   3.513   2.051
 2920TIP3    H1 8724   5.097   3.565   2.122
 2920TIP3    H2 8725   5.022   3.437   2.094
 2921TIP3   OH2 8726   6.145   0.133   3.955
 2921TIP3    H1 8727   6.114   0.128   4.046
 2921TIP3    H2 8728   6.117   0.219   3.925
 2922TIP3   OH2 8729   3.915   4.177   5.712
 2922TIP3    H1 8730   3.876   4.156   5.627
 2922TIP3    H2 8731   3.849   4.228   5.758
 2923TIP3   OH2 8732   5.213   5.378   4.757
 2923TIP3    H1 8733   5.148   5.404   4.693
 2923TIP3    H2 8734   5.205   5.283   4.764
 2924TIP3   OH2 8735   1.772   3.691   4.747
 2924TIP3    H1 8736   1.794   3.768   4.694
 2924TIP3    H2 8737   1.839   3.689   4.816
 2925TIP3   OH2 8738   5.518   6.396   4.082
 2925TIP3    H1 8739   5.563   6.407   3.998
 2925TIP3    H2 8740   5.426   6.409   4.062
 2926TIP3   OH2 8741   2.311   6.230   3.683
 2926TIP3    H1 8742   2.327   6.323   3.696
 2926TIP3    H2 8743   2.397   6.189   3.691
 2927TIP3   OH2 8744   5.505   1.628   2.267
 2927TIP3    H1 8745   5.551   1.697   2.218
 2927TIP3    H2 8746   5.523   1.548   2.218
 2928TIP3   OH2 8747   5.860   6.178   4.226
 2928TIP3    H1 8748   5.901   6.264   4.225
 2928TIP3    H2 8749   5.836   6.162   4.135
 2929TIP3   OH2 8750   6.722   3.043   4.678
 2929TIP3    H1 8751   6.798   3.030   4.735
 2929TIP3    H2 8752   6.735   3.130   4.640
 2930TIP3   OH2 8753   4.439   3.462   0.199
 2930TIP3    H1 8754   4.356   3.499   0.169
 2930TIP3    H2 8755   4.430   3.368   0.186
 2931TIP3   OH2 8756   3.501   0.929   2.036
 2931TIP3    H1 8757   3.432   0.889   1.982
 2931TIP3    H2 8758   3.500   1.021   2.011
 2932TIP3   OH2 8759   1.275   4.176   1.088
 2932TIP3    H1 8760   1.247   4.226   1.011
 2932TIP3    H2 8761   1.335   4.235   1.134
 2933TIP3   OH2 8762   5.151   1.091   4.885
 2933TIP3    H1 8763   5.154   1.000   4.915
 2933TIP3    H2 8764   5.214   1.094   4.813
 2934TIP3   OH2 8765   1.226   4.646   3.853
 2934TIP3    H1 8766   1.242   4.592   3.776
 2934TIP3    H2 8767   1.192   4.586   3.918
 2935TIP3   OH2 8768   6.863   1.729   4.670
 2935TIP3    H1 8769   6.941   1.771   4.706
 2935TIP3    H2 8770   6.898   1.663   4.610
 2936TIP3   OH2 8771   3.393   6.400   1.384
 2936TIP3    H1 8772   3.341   6.355   1.317
 2936TIP3    H2 8773   3.333   6.415   1.457
 2937TIP3   OH2 8774   5.409   6.075   0.283
 2937TIP3    H1 8775   5.496   6.040   0.304
 2937TIP3    H2 8776   5.403   6.156   0.334
 2938TIP3   OH2 8777   6.203   1.632   5.853
 2938TIP3    H1 8778   6.134   1.675   5.802
 2938TIP3    H2 8779   6.225   1.695   5.922
 2939TIP3   OH2 8780   3.062   0.674   0.673
 2939TIP3    H1 8781   3.028   0.595   0.632
 2939TIP3    H2 8782   2.987   0.735   0.671
 2940TIP3   OH2 8783   2.546   4.937   5.507
 2940TIP3    H1 8784   2.456   4.959   5.484
 2940TIP3    H2 8785   2.590   4.924   5.423
 2941TIP3   OH2 8786   1.733   3.004   3.733
 2941TIP3    H1 8787   1.821   2.968   3.724
 2941TIP3    H2 8788   1.720   3.015   3.827
 2942TIP3   OH2 8789   2.823   0.097   3.313
 2942TIP3    H1 8790   2.852   0.122   3.225
 2942TIP3    H2 8791   2.806   0.003   3.307
 2943TIP3   OH2 8792   2.051   1.222   2.339
 2943TIP3    H1 8793   2.129   1.190   2.292
 2943TIP3    H2 8794   2.045   1.314   2.313
 2944TIP3   OH2 8795   6.007   0.666   4.636
 2944TIP3    H1 8796   5.913   0.678   4.631
 2944TIP3    H2 8797   6.035   0.718   4.711
 2945TIP3   OH2 8798   4.499   5.590   5.941
 2945TIP3    H1 8799   4.517   5.514   5.885
 2945TIP3    H2 8800   4.490   5.663   5.880
 2946TIP3   OH2 8801   3.549   6.363   2.144
 2946TIP3    H1 8802   3.563   6.269   2.135
 2946TIP3    H2 8803   3.462   6.379   2.108
 2947TIP3   OH2 8804   1.067   6.256   5.190
 2947TIP3    H1 8805   1.108   6.328   5.238
 2947TIP3    H2 8806   1.134   6.188   5.186
 2948TIP3   OH2 8807   1.933   3.806   2.023
 2948TIP3    H1 8808   2.011   3.854   1.995
 2948TIP3    H2 8809   1.940   3.721   1.981
 2949TIP3   OH2 8810   0.239   6.218   0.980
 2949TIP3    H1 8811   0.333   6.233   0.982
 2949TIP3    H2 8812   0.215   6.231   0.888
 2950TIP3   OH2 8813   3.997   5.795   4.692
 2950TIP3    H1 8814   3.966   5.880   4.723
 2950TIP3    H2 8815   4.063   5.817   4.626
 2951TIP3   OH2 8816   4.308   1.408   0.950
 2951TIP3    H1 8817   4.227   1.445   0.984
 2951TIP3    H2 8818   4.317   1.446   0.862
 2952TIP3   OH2 8819   7.144   1.083   1.980
 2952TIP3    H1 8820   7.054   1.081   1.948
 2952TIP3    H2 8821   7.197   1.084   1.901
 2953TIP3   OH2 8822   0.175   4.452   0.372
 2953TIP3    H1 8823   0.101   4.394   0.356
 2953TIP3    H2 8824   0.144   4.539   0.349
 2954TIP3   OH2 8825   5.626   5.421   5.670
 2954TIP3    H1 8826   5.692   5.488   5.652
 2954TIP3    H2 8827   5.665   5.340   5.638
 2955TIP3   OH2 8828   3.907   4.712   2.703
 2955TIP3    H1 8829   3.822   4.674   2.680
 2955TIP3    H2 8830   3.969   4.639   2.695
 2956TIP3   OH2 8831   2.524   3.211   1.602
 2956TIP3    H1 8832   2.587   3.239   1.535
 2956TIP3    H2 8833   2.532   3.277   1.671
 2957TIP3   OH2 8834   5.327   2.749   4.833
 2957TIP3    H1 8835   5.301   2.659   4.810
 2957TIP3    H2 8836   5.252   2.783   4.882
 2958TIP3   OH2 8837   3.048   0.992   2.858
 2958TIP3    H1 8838   3.056   0.897   2.848
 2958TIP3    H2 8839   3.136   1.025   2.839
 2959TIP3   OH2 8840   0.606   6.162   3.829
 2959TIP3    H1 8841   0.570   6.089   3.879
 2959TIP3    H2 8842   0.548   6.235   3.848
 2960TIP3   OH2 8843   4.958   0.512   4.367
 2960TIP3    H1 8844   4.866   0.488   4.380
 2960TIP3    H2 8845   4.967   0.596   4.411
 2961TIP3   OH2 8846   4.986   4.220   3.640
 2961TIP3    H1 8847   4.929   4.146   3.657
 2961TIP3    H2 8848   5.042   4.192   3.568
 2962TIP3   OH2 8849   1.167   4.382   0.905
 2962TIP3    H1 8850   1.221   4.378   0.825
 2962TIP3    H2 8851   1.135   4.472   0.909
 2963TIP3   OH2 8852   3.060   2.647   3.244
 2963TIP3    H1 8853   3.144   2.643   3.197
 2963TIP3    H2 8854   3.035   2.739   3.239
 2964TIP3   OH2 8855   0.570   5.822   3.765
 2964TIP3    H1 8856   0.637   5.815   3.697
 2964TIP3    H2 8857   0.526   5.737   3.764
 2965TIP3   OH2 8858   2.815   0.271   1.653
 2965TIP3    H1 8859   2.860   0.213   1.592
 2965TIP3    H2 8860   2.779   0.212   1.720
 2966TIP3   OH2 8861   1.630   3.161   3.171
 2966TIP3    H1 8862   1.615   3.174   3.077
 2966TIP3    H2 8863   1.725   3.159   3.180
 2967TIP3   OH2 8864   2.975   3.504   3.729
 2967TIP3    H1 8865   2.930   3.586   3.751
 2967TIP3    H2 8866   2.918   3.462   3.666
 2968TIP3   OH2 8867   2.990   1.073   0.226
 2968TIP3    H1 8868   3.048   1.148   0.236
 2968TIP3    H2 8869   2.993   1.053   0.132
 2969TIP3   OH2 8870   7.199   2.252   3.986
 2969TIP3    H1 8871   7.217   2.331   4.037
 2969TIP3    H2 8872   7.250   2.263   3.905
 2970TIP3   OH2 8873   7.102   0.917   3.908
 2970TIP3    H1 8874   7.008   0.909   3.890
 2970TIP3    H2 8875   7.143   0.919   3.821
 2971TIP3   OH2 8876   4.826   0.158   3.850
 2971TIP3    H1 8877   4.789   0.245   3.865
 2971TIP3    H2 8878   4.921   0.172   3.855
 2972TIP3   OH2 8879   1.843   0.681   2.154
 2972TIP3    H1 8880   1.853   0.656   2.246
 2972TIP3    H2 8881   1.867   0.774   2.152
 2973TIP3   OH2 8882   4.520   1.034   2.401
 2973TIP3    H1 8883   4.538   0.940   2.407
 2973TIP3    H2 8884   4.552   1.059   2.314
 2974TIP3   OH2 8885   4.890   5.758   2.493
 2974TIP3    H1 8886   4.827   5.741   2.424
 2974TIP3    H2 8887   4.931   5.674   2.510
 2975TIP3   OH2 8888   4.248   4.089   4.710
 2975TIP3    H1 8889   4.300   4.072   4.789
 2975TIP3    H2 8890   4.285   4.030   4.644
 2976TIP3   OH2 8891   3.267   6.285   2.942
 2976TIP3    H1 8892   3.288   6.242   3.025
 2976TIP3    H2 8893   3.337   6.350   2.930
 2977TIP3   OH2 8894   1.654   3.568   1.929
 2977TIP3    H1 8895   1.573   3.529   1.897
 2977TIP3    H2 8896   1.670   3.642   1.870
 2978TIP3   OH2 8897   5.098   3.262   5.629
 2978TIP3    H1 8898   5.174   3.209   5.654
 2978TIP3    H2 8899   5.132   3.351   5.620
 2979TIP3   OH2 8900   3.535   3.150   0.628
 2979TIP3    H1 8901   3.511   3.225   0.573
 2979TIP3    H2 8902   3.582   3.188   0.702
 2980TIP3   OH2 8903   2.669   3.993   5.812
 2980TIP3    H1 8904   2.614   3.917   5.824
 2980TIP3    H2 8905   2.611   4.068   5.824
 2981TIP3   OH2 8906   3.903   3.574   2.158
 2981TIP3    H1 8907   3.839   3.505   2.175
 2981TIP3    H2 8908   3.905   3.583   2.062
 2982TIP3   OH2 8909   0.530   4.505   1.243
 2982TIP3    H1 8910   0.472   4.431   1.259
 2982TIP3    H2 8911   0.618   4.466   1.237
 2983TIP3   OH2 8912   6.059   2.531   4.252
 2983TIP3    H1 8913   6.114   2.457   4.276
 2983TIP3    H2 8914   5.971   2.494   4.241
 2984TIP3   OH2 8915   6.877   1.444   2.412
 2984TIP3    H1 8916   6.786   1.444   2.440
 2984TIP3    H2 8917   6.899   1.352   2.401
 2985TIP3   OH2 8918   2.680   0.849   1.875
 2985TIP3    H1 8919   2.612   0.823   1.936
 2985TIP3    H2 8920   2.633   0.870   1.794
 2986TIP3   OH2 8921   2.451   0.176   1.916
 2986TIP3    H1 8922   2.425   0.089   1.888
 2986TIP3    H2 8923   2.541   0.186   1.885
 2987TIP3   OH2 8924   3.029   4.613   0.058
 2987TIP3    H1 8925   3.106   4.558   0.043
 2987TIP3    H2 8926   2.956   4.551   0.060
 2988TIP3   OH2 8927   1.904   0.492   4.002
 2988TIP3    H1 8928   1.830   0.529   4.050
 2988TIP3    H2 8929   1.867   0.415   3.959
 2989TIP3   OH2 8930   4.771   1.650   2.139
 2989TIP3    H1 8931   4.845   1.685   2.090
 2989TIP3    H2 8932   4.726   1.593   2.077
 2990TIP3   OH2 8933   4.220   4.348   4.390
 2990TIP3    H1 8934   4.175   4.416   4.340
 2990TIP3    H2 8935   4.212   4.375   4.481
 2991TIP3   OH2 8936   7.279   1.890   1.610
 2991TIP3    H1 8937   7.271   1.963   1.672
 2991TIP3    H2 8938   7.189   1.872   1.582
 2992TIP3   OH2 8939   0.945   2.680   4.489
 2992TIP3    H1 8940   0.923   2.765   4.526
 2992TIP3    H2 8941   0.967   2.699   4.398
 2993TIP3   OH2 8942   2.410   6.131   1.155
 2993TIP3    H1 8943   2.385   6.220   1.181
 2993TIP3    H2 8944   2.425   6.085   1.238
 2994TIP3   OH2 8945   1.387   1.241   5.836
 2994TIP3    H1 8946   1.468   1.280   5.803
 2994TIP3    H2 8947   1.356   1.186   5.764
 2995TIP3   OH2 8948   5.480   6.097   5.078
 2995TIP3    H1 8949   5.428   6.173   5.050
 2995TIP3    H2 8950   5.526   6.127   5.156
 2996TIP3   OH2 8951   0.410   0.822   3.383
 2996TIP3    H1 8952   0.490   0.865   3.413
 2996TIP3    H2 8953   0.395   0.751   3.445
 2997TIP3   OH2 8954   2.439   3.202   1.298
 2997TIP3    H1 8955   2.471   3.165   1.380
 2997TIP3    H2 8956   2.491   3.159   1.230
 2998TIP3   OH2 8957   4.102   1.893   3.030
 2998TIP3    H1 8958   4.167   1.824   3.038
 2998TIP3    H2 8959   4.041   1.877   3.102
 2999TIP3   OH2 8960   0.207   5.352   3.929
 2999TIP3    H1 8961   0.123   5.316   3.958
 2999TIP3    H2 8962   0.273   5.301   3.974
 3000TIP3   OH2 8963   1.952   0.565   4.441
 3000TIP3    H1 8964   1.859   0.588   4.440
 3000TIP3    H2 8965   1.955   0.477   4.404
 3001TIP3   OH2 8966   0.125   2.126   0.367
 3001TIP3    H1 8967   0.067   2.052   0.383
 3001TIP3    H2 8968   0.066   2.201   0.357
 3002TIP3   OH2 8969   6.632   5.114   2.647
 3002TIP3    H1 8970   6.643   5.142   2.738
 3002TIP3    H2 8971   6.714   5.069   2.625
 3003TIP3   OH2 8972   0.567   0.448   0.728
 3003TIP3    H1 8973   0.509   0.371   0.731
 3003TIP3    H2 8974   0.566   0.475   0.636
 3004TIP3   OH2 8975   2.540   3.377   2.159
 3004TIP3    H1 8976   2.491   3.304   2.196
 3004TIP3    H2 8977   2.627   3.341   2.140
 3005TIP3   OH2 8978  -0.021   0.704   1.900
 3005TIP3    H1 8979  -0.083   0.738   1.965
 3005TIP3    H2 8980   0.062   0.697   1.949
 3006TIP3   OH2 8981   0.516   2.409   4.740
 3006TIP3    H1 8982   0.553   2.357   4.810
 3006TIP3    H2 8983   0.585   2.471   4.716
 3007TIP3   OH2 8984   1.730   4.569   0.858
 3007TIP3    H1 8985   1.711   4.501   0.923
 3007TIP3    H2 8986   1.686   4.539   0.778
 3008TIP3   OH2 8987   6.654   4.622   5.711
 3008TIP3    H1 8988   6.695   4.708   5.720
 3008TIP3    H2 8989   6.602   4.628   5.631
 3009TIP3   OH2 8990   4.570   6.669   1.712
 3009TIP3    H1 8991   4.475   6.660   1.718
 3009TIP3    H2 8992   4.600   6.581   1.688
 3010TIP3   OH2 8993   7.041   1.169   3.176
 3010TIP3    H1 8994   7.060   1.184   3.084
 3010TIP3    H2 8995   7.115   1.117   3.208
 3011TIP3   OH2 8996   0.397   4.089   2.354
 3011TIP3    H1 8997   0.487   4.115   2.332
 3011TIP3    H2 8998   0.377   4.137   2.434
 3012TIP3   OH2 8999   1.394   4.903   3.205
 3012TIP3    H1 9000   1.364   4.940   3.122
 3012TIP3    H2 9001   1.325   4.841   3.230
 3013TIP3   OH2 9002   3.205   0.887   0.821
 3013TIP3    H1 9003   3.157   0.806   0.806
 3013TIP3    H2 9004   3.148   0.956   0.788
 3014TIP3   OH2 9005   1.112   2.863   3.011
 3014TIP3    H1 9006   1.118   2.813   2.930
 3014TIP3    H2 9007   1.061   2.940   2.988
 3015TIP3   OH2 9008   2.820   1.564   0.921
 3015TIP3    H1 9009   2.893   1.526   0.873
 3015TIP3    H2 9010   2.766   1.608   0.854
 3016TIP3   OH2 9011   4.441   1.979   4.792
 3016TIP3    H1 9012   4.390   1.973   4.711
 3016TIP3    H2 9013   4.380   1.950   4.860
 3017TIP3   OH2 9014   0.587   1.780   5.887
 3017TIP3    H1 9015   0.496   1.784   5.858
 3017TIP3    H2 9016   0.636   1.760   5.808
 3018TIP3   OH2 9017   0.321   6.513   5.319
 3018TIP3    H1 9018   0.336   6.607   5.306
 3018TIP3    H2 9019   0.226   6.504   5.325
 3019TIP3   OH2 9020   3.188   2.892   4.226
 3019TIP3    H1 9021   3.135   2.824   4.267
 3019TIP3    H2 9022   3.124   2.947   4.180
 3020TIP3   OH2 9023   7.107   1.262   0.641
 3020TIP3    H1 9024   7.156   1.274   0.723
 3020TIP3    H2 9025   7.045   1.335   0.639
 3021TIP3   OH2 9026   2.540   1.916   1.747
 3021TIP3    H1 9027   2.509   1.986   1.804
 3021TIP3    H2 9028   2.620   1.884   1.789
 3022TIP3   OH2 9029   4.263   3.466   3.557
 3022TIP3    H1 9030   4.259   3.379   3.516
 3022TIP3    H2 9031   4.207   3.521   3.502
 3023TIP3   OH2 9032   0.026   6.722   4.593
 3023TIP3    H1 9033   0.067   6.645   4.552
 3023TIP3    H2 9034   0.093   6.790   4.587
 3024TIP3   OH2 9035   4.706   4.159   3.437
 3024TIP3    H1 9036   4.736   4.077   3.477
 3024TIP3    H2 9037   4.785   4.198   3.400
 3025TIP3   OH2 9038   4.780   3.448   5.095
 3025TIP3    H1 9039   4.833   3.525   5.078
 3025TIP3    H2 9040   4.730   3.435   5.014
 3026TIP3   OH2 9041   6.973   1.576   4.323
 3026TIP3    H1 9042   6.887   1.552   4.291
 3026TIP3    H2 9043   6.995   1.657   4.278
 3027TIP3   OH2 9044   3.928   6.741   0.422
 3027TIP3    H1 9045   3.971   6.799   0.359
 3027TIP3    H2 9046   3.887   6.673   0.368
 3028TIP3   OH2 9047   4.944   2.631   3.063
 3028TIP3    H1 9048   4.949   2.539   3.090
 3028TIP3    H2 9049   4.883   2.670   3.125
 3029TIP3   OH2 9050   2.054   6.284   1.160
 3029TIP3    H1 9051   2.077   6.352   1.224
 3029TIP3    H2 9052   1.994   6.226   1.207
 3030TIP3   OH2 9053   6.722   0.854   3.584
 3030TIP3    H1 9054   6.788   0.799   3.543
 3030TIP3    H2 9055   6.639   0.811   3.563
 3031TIP3   OH2 9056   0.897   5.420   1.750
 3031TIP3    H1 9057   0.921   5.381   1.835
 3031TIP3    H2 9058   0.981   5.440   1.708
 3032TIP3   OH2 9059   1.942   0.771   3.871
 3032TIP3    H1 9060   1.979   0.859   3.871
 3032TIP3    H2 9061   1.980   0.729   3.948
 3033TIP3   OH2 9062   2.233   5.252   2.524
 3033TIP3    H1 9063   2.169   5.316   2.554
 3033TIP3    H2 9064   2.181   5.180   2.489
 3034TIP3   OH2 9065   2.734   1.707   0.703
 3034TIP3    H1 9066   2.803   1.685   0.640
 3034TIP3    H2 9067   2.676   1.766   0.655
 3035TIP3   OH2 9068   6.465   3.897   4.251
 3035TIP3    H1 9069   6.464   3.901   4.156
 3035TIP3    H2 9070   6.495   3.808   4.271
 3036TIP3   OH2 9071   6.829   3.668   1.677
 3036TIP3    H1 9072   6.817   3.577   1.705
 3036TIP3    H2 9073   6.920   3.672   1.648
 3037TIP3   OH2 9074   7.105   1.449   1.460
 3037TIP3    H1 9075   7.181   1.400   1.430
 3037TIP3    H2 9076   7.136   1.500   1.535
 3038TIP3   OH2 9077   0.809   4.813   2.444
 3038TIP3    H1 9078   0.732   4.832   2.391
 3038TIP3    H2 9079   0.790   4.854   2.529
 3039TIP3   OH2 9080   0.024   0.728   5.809
 3039TIP3    H1 9081  -0.064   0.706   5.777
 3039TIP3    H2 9082   0.074   0.648   5.796
 3040TIP3   OH2 9083   5.689   1.146   1.028
 3040TIP3    H1 9084   5.600   1.117   1.045
 3040TIP3    H2 9085   5.687   1.181   0.938
 3041TIP3   OH2 9086   0.175   4.930   4.077
 3041TIP3    H1 9087   0.244   4.982   4.117
 3041TIP3    H2 9088   0.185   4.945   3.983
 3042TIP3   OH2 9089   3.835   0.472   1.459
 3042TIP3    H1 9090   3.770   0.404   1.439
 3042TIP3    H2 9091   3.788   0.554   1.446
 3043TIP3   OH2 9092   2.125   0.900   2.968
 3043TIP3    H1 9093   2.135   0.992   2.942
 3043TIP3    H2 9094   2.059   0.902   3.037
 3044TIP3   OH2 9095   6.046   1.593   2.193
 3044TIP3    H1 9096   6.109   1.557   2.255
 3044TIP3    H2 9097   6.096   1.655   2.140
 3045TIP3   OH2 9098   1.227   5.430   4.120
 3045TIP3    H1 9099   1.244   5.353   4.174
 3045TIP3    H2 9100   1.312   5.454   4.084
 3046TIP3   OH2 9101   0.927   5.461   2.589
 3046TIP3    H1 9102   0.904   5.489   2.677
 3046TIP3    H2 9103   0.860   5.501   2.533
 3047TIP3   OH2 9104   6.480  -0.007   4.004
 3047TIP3    H1 9105   6.485   0.072   4.058
 3047TIP3    H2 9106   6.572  -0.032   3.990
 3048TIP3   OH2 9107   5.008   1.932   3.645
 3048TIP3    H1 9108   5.059   1.991   3.699
 3048TIP3    H2 9109   4.922   1.974   3.638
 3049TIP3   OH2 9110   1.619   0.066   4.542
 3049TIP3    H1 9111   1.611   0.157   4.514
 3049TIP3    H2 9112   1.713   0.049   4.543
 3050TIP3   OH2 9113   1.937   1.658   5.007
 3050TIP3    H1 9114   1.917   1.750   5.028
 3050TIP3    H2 9115   1.909   1.609   5.084
 3051TIP3   OH2 9116   4.414   2.218   5.693
 3051TIP3    H1 9117   4.466   2.212   5.613
 3051TIP3    H2 9118   4.374   2.305   5.689
 3052TIP3   OH2 9119   4.971   3.133   4.482
 3052TIP3    H1 9120   4.971   3.120   4.577
 3052TIP3    H2 9121   5.058   3.105   4.454
 3053TIP3   OH2 9122   1.954   4.843   5.848
 3053TIP3    H1 9123   1.961   4.747   5.842
 3053TIP3    H2 9124   1.972   4.875   5.760
 3054TIP3   OH2 9125   0.030   6.401   1.366
 3054TIP3    H1 9126   0.104   6.452   1.401
 3054TIP3    H2 9127  -0.040   6.413   1.430
 3055TIP3   OH2 9128   6.435   5.570   4.776
 3055TIP3    H1 9129   6.445   5.491   4.830
 3055TIP3    H2 9130   6.509   5.568   4.715
 3056TIP3   OH2 9131   5.867   5.729   2.860
 3056TIP3    H1 9132   5.831   5.778   2.786
 3056TIP3    H2 9133   5.899   5.796   2.920
 3057TIP3   OH2 9134   3.507   2.851   2.898
 3057TIP3    H1 9135   3.547   2.871   2.983
 3057TIP3    H2 9136   3.421   2.817   2.920
 3058TIP3   OH2 9137   4.735   6.278   3.443
 3058TIP3    H1 9138   4.676   6.350   3.417
 3058TIP3    H2 9139   4.686   6.199   3.422
 3059TIP3   OH2 9140   6.581   1.276   5.598
 3059TIP3    H1 9141   6.660   1.320   5.565
 3059TIP3    H2 9142   6.537   1.343   5.650
 3060TIP3   OH2 9143   2.389   5.493   2.860
 3060TIP3    H1 9144   2.460   5.551   2.888
 3060TIP3    H2 9145   2.428   5.440   2.789
 3061TIP3   OH2 9146   4.006   0.515   5.823
 3061TIP3    H1 9147   3.969   0.459   5.891
 3061TIP3    H2 9148   4.061   0.577   5.871
 3062TIP3   OH2 9149   4.869   2.532   3.537
 3062TIP3    H1 9150   4.928   2.474   3.489
 3062TIP3    H2 9151   4.790   2.480   3.552
 3063TIP3   OH2 9152   5.878   1.517   1.779
 3063TIP3    H1 9153   5.942   1.584   1.801
 3063TIP3    H2 9154   5.839   1.547   1.697
 3064TIP3   OH2 9155   4.918   2.334   1.955
 3064TIP3    H1 9156   4.987   2.388   1.916
 3064TIP3    H2 9157   4.860   2.397   1.998
 3065TIP3   OH2 9158   1.676   6.595   3.794
 3065TIP3    H1 9159   1.673   6.499   3.793
 3065TIP3    H2 9160   1.750   6.617   3.737
 3066TIP3   OH2 9161   1.792   0.169   0.189
 3066TIP3    H1 9162   1.708   0.131   0.211
 3066TIP3    H2 9163   1.856   0.103   0.215
 3067TIP3   OH2 9164   5.336   2.336   4.424
 3067TIP3    H1 9165   5.338   2.320   4.330
 3067TIP3    H2 9166   5.425   2.365   4.446
 3068TIP3   OH2 9167   1.994   1.979   2.266
 3068TIP3    H1 9168   1.920   1.919   2.269
 3068TIP3    H2 9169   2.019   1.991   2.357
 3069TIP3   OH2 9170   4.987   4.571   5.194
 3069TIP3    H1 9171   4.993   4.481   5.225
 3069TIP3    H2 9172   5.074   4.590   5.158
 3070TIP3   OH2 9173   6.675   0.855   0.776
 3070TIP3    H1 9174   6.641   0.766   0.760
 3070TIP3    H2 9175   6.678   0.895   0.689
 3071TIP3   OH2 9176   1.956   1.124   1.982
 3071TIP3    H1 9177   1.918   1.212   1.980
 3071TIP3    H2 9178   2.047   1.138   2.010
 3072TIP3   OH2 9179   0.895   5.777   5.151
 3072TIP3    H1 9180   0.879   5.734   5.234
 3072TIP3    H2 9181   0.884   5.870   5.169
 3073TIP3   OH2 9182   5.408   2.857   4.240
 3073TIP3    H1 9183   5.458   2.849   4.159
 3073TIP3    H2 9184   5.456   2.920   4.292
 3074TIP3   OH2 9185   0.040   4.881   1.004
 3074TIP3    H1 9186   0.053   4.866   1.098
 3074TIP3    H2 9187  -0.054   4.868   0.990
 3075TIP3   OH2 9188   3.857   4.518   0.375
 3075TIP3    H1 9189   3.922   4.452   0.403
 3075TIP3    H2 9190   3.792   4.518   0.445
 3076TIP3   OH2 9191   4.012   0.371   4.611
 3076TIP3    H1 9192   3.918   0.387   4.620
 3076TIP3    H2 9193   4.053   0.453   4.640
 3077TIP3   OH2 9194   4.735   5.141   1.133
 3077TIP3    H1 9195   4.725   5.230   1.100
 3077TIP3    H2 9196   4.828   5.133   1.155
 3078TIP3   OH2 9197   1.913   3.291   4.223
 3078TIP3    H1 9198   1.960   3.225   4.274
 3078TIP3    H2 9199   1.822   3.262   4.225
 3079TIP3   OH2 9200   4.293   0.400   4.934
 3079TIP3    H1 9201   4.242   0.325   4.964
 3079TIP3    H2 9202   4.303   0.455   5.012
 3080TIP3   OH2 9203   1.888   3.990   4.095
 3080TIP3    H1 9204   1.968   3.949   4.127
 3080TIP3    H2 9205   1.837   3.918   4.059
 3081TIP3   OH2 9206   7.099   0.927   5.150
 3081TIP3    H1 9207   7.183   0.881   5.152
 3081TIP3    H2 9208   7.122   1.018   5.131
 3082TIP3   OH2 9209   5.428   0.459   1.522
 3082TIP3    H1 9210   5.378   0.539   1.541
 3082TIP3    H2 9211   5.365   0.402   1.478
 3083TIP3   OH2 9212   4.080   3.889   1.630
 3083TIP3    H1 9213   4.069   3.978   1.664
 3083TIP3    H2 9214   4.059   3.896   1.537
 3084TIP3   OH2 9215   4.259   3.759   5.292
 3084TIP3    H1 9216   4.201   3.688   5.320
 3084TIP3    H2 9217   4.302   3.726   5.213
 3085TIP3   OH2 9218   4.877   1.809   2.576
 3085TIP3    H1 9219   4.942   1.861   2.528
 3085TIP3    H2 9220   4.820   1.774   2.509
 3086TIP3   OH2 9221   5.948   2.988   5.348
 3086TIP3    H1 9222   5.969   3.073   5.310
 3086TIP3    H2 9223   5.880   2.953   5.291
 3087TIP3   OH2 9224   4.208   5.975   5.155
 3087TIP3    H1 9225   4.277   5.998   5.217
 3087TIP3    H2 9226   4.131   6.024   5.185
 3088TIP3   OH2 9227   2.987   1.205   1.333
 3088TIP3    H1 9228   3.076   1.228   1.306
 3088TIP3    H2 9229   2.996   1.119   1.375
 3089TIP3   OH2 9230   5.171   4.806   2.316
 3089TIP3    H1 9231   5.157   4.741   2.385
 3089TIP3    H2 9232   5.192   4.754   2.238
 3090TIP3   OH2 9233   7.075   4.072   1.431
 3090TIP3    H1 9234   7.021   4.144   1.400
 3090TIP3    H2 9235   7.161   4.111   1.447
 3091TIP3   OH2 9236   4.773   3.146   2.419
 3091TIP3    H1 9237   4.803   3.139   2.510
 3091TIP3    H2 9238   4.738   3.234   2.411
 3092TIP3   OH2 9239   2.375   6.769   3.637
 3092TIP3    H1 9240   2.380   6.836   3.705
 3092TIP3    H2 9241   2.327   6.811   3.565
 3093TIP3   OH2 9242   1.001   1.033   0.732
 3093TIP3    H1 9243   1.008   1.027   0.637
 3093TIP3    H2 9244   1.068   1.097   0.757
 3094TIP3   OH2 9245   0.251   2.485   2.339
 3094TIP3    H1 9246   0.312   2.468   2.267
 3094TIP3    H2 9247   0.296   2.550   2.393
 3095TIP3   OH2 9248   1.780   6.787   0.574
 3095TIP3    H1 9249   1.829   6.840   0.511
 3095TIP3    H2 9250   1.846   6.750   0.632
 3096TIP3   OH2 9251   7.222   6.339   1.867
 3096TIP3    H1 9252   7.291   6.389   1.824
 3096TIP3    H2 9253   7.232   6.250   1.832
 3097TIP3   OH2 9254   3.463   5.194   5.038
 3097TIP3    H1 9255   3.511   5.115   5.012
 3097TIP3    H2 9256   3.459   5.188   5.134
 3098TIP3   OH2 9257   5.275   1.416   1.767
 3098TIP3    H1 9258   5.328   1.464   1.831
 3098TIP3    H2 9259   5.286   1.466   1.686
 3099TIP3   OH2 9260   4.771   1.873   5.310
 3099TIP3    H1 9261   4.854   1.825   5.311
 3099TIP3    H2 9262   4.746   1.879   5.402
 3100TIP3   OH2 9263   6.249   3.140   2.051
 3100TIP3    H1 9264   6.217   3.097   1.972
 3100TIP3    H2 9265   6.279   3.069   2.107
 3101TIP3   OH2 9266   3.747   2.735   3.314
 3101TIP3    H1 9267   3.837   2.706   3.328
 3101TIP3    H2 9268   3.712   2.749   3.401
 3102TIP3   OH2 9269   5.041   2.321   0.704
 3102TIP3    H1 9270   4.994   2.335   0.621
 3102TIP3    H2 9271   5.123   2.369   0.693
 3103TIP3   OH2 9272   4.628   2.317   4.337
 3103TIP3    H1 9273   4.603   2.240   4.285
 3103TIP3    H2 9274   4.664   2.281   4.418
 3104TIP3   OH2 9275   0.344   1.425   2.054
 3104TIP3    H1 9276   0.364   1.367   2.128
 3104TIP3    H2 9277   0.423   1.477   2.042
 3105TIP3   OH2 9278   1.258   4.830   4.718
 3105TIP3    H1 9279   1.225   4.744   4.744
 3105TIP3    H2 9280   1.297   4.866   4.797
 3106TIP3   OH2 9281   2.806   5.002   1.960
 3106TIP3    H1 9282   2.892   4.959   1.959
 3106TIP3    H2 9283   2.822   5.088   1.921
 3107TIP3   OH2 9284   2.597   2.377   1.416
 3107TIP3    H1 9285   2.617   2.285   1.435
 3107TIP3    H2 9286   2.636   2.426   1.488
 3108TIP3   OH2 9287   3.570   5.786   5.499
 3108TIP3    H1 9288   3.479   5.783   5.527
 3108TIP3    H2 9289   3.620   5.756   5.575
 3109TIP3   OH2 9290   0.079   6.559   3.535
 3109TIP3    H1 9291   0.024   6.573   3.612
 3109TIP3    H2 9292   0.032   6.493   3.484
 3110TIP3   OH2 9293   5.780   0.402   3.667
 3110TIP3    H1 9294   5.840   0.330   3.690
 3110TIP3    H2 9295   5.717   0.362   3.608
 3111TIP3   OH2 9296   1.239   2.864   1.201
 3111TIP3    H1 9297   1.251   2.801   1.272
 3111TIP3    H2 9298   1.305   2.932   1.218
 3112TIP3   OH2 9299   7.084   4.579   2.777
 3112TIP3    H1 9300   6.995   4.546   2.793
 3112TIP3    H2 9301   7.098   4.643   2.846
 3113TIP3   OH2 9302   6.798   5.793   3.249
 3113TIP3    H1 9303   6.743   5.857   3.295
 3113TIP3    H2 9304   6.859   5.846   3.198
 3114TIP3   OH2 9305   4.815   0.916   5.813
 3114TIP3    H1 9306   4.745   0.862   5.774
 3114TIP3    H2 9307   4.825   0.882   5.902
 3115TIP3   OH2 9308   6.221   6.713   0.986
 3115TIP3    H1 9309   6.146   6.671   1.030
 3115TIP3    H2 9310   6.280   6.736   1.058
 3116TIP3   OH2 9311   5.008   2.225   1.445
 3116TIP3    H1 9312   4.951   2.196   1.516
 3116TIP3    H2 9313   5.079   2.271   1.488
 3117TIP3   OH2 9314   2.679   0.905   0.556
 3117TIP3    H1 9315   2.585   0.892   0.538
 3117TIP3    H2 9316   2.711   0.950   0.478
 3118TIP3   OH2 9317   4.498   3.698   0.581
 3118TIP3    H1 9318   4.567   3.709   0.515
 3118TIP3    H2 9319   4.503   3.778   0.634
 3119TIP3   OH2 9320   3.690   1.193   0.667
 3119TIP3    H1 9321   3.671   1.099   0.660
 3119TIP3    H2 9322   3.785   1.198   0.664
 3120TIP3   OH2 9323   3.114   3.142   4.555
 3120TIP3    H1 9324   3.052   3.082   4.596
 3120TIP3    H2 9325   3.062   3.220   4.536
 3121TIP3   OH2 9326   2.802   6.761   1.528
 3121TIP3    H1 9327   2.821   6.669   1.544
 3121TIP3    H2 9328   2.780   6.797   1.614
 3122TIP3   OH2 9329   0.174   4.869   4.664
 3122TIP3    H1 9330   0.164   4.957   4.701
 3122TIP3    H2 9331   0.098   4.821   4.698
 3123TIP3   OH2 9332   4.488   5.606   1.069
 3123TIP3    H1 9333   4.508   5.530   1.014
 3123TIP3    H2 9334   4.432   5.660   1.014
 3124TIP3   OH2 9335   1.973   0.662   0.170
 3124TIP3    H1 9336   1.893   0.690   0.215
 3124TIP3    H2 9337   1.945   0.639   0.082
 3125TIP3   OH2 9338   0.154   1.859   3.157
 3125TIP3    H1 9339   0.197   1.801   3.094
 3125TIP3    H2 9340   0.195   1.838   3.241
 3126TIP3   OH2 9341   3.600   2.231   4.643
 3126TIP3    H1 9342   3.686   2.259   4.612
 3126TIP3    H2 9343   3.614   2.212   4.736
 3127TIP3   OH2 9344   1.654   3.447   4.429
 3127TIP3    H1 9345   1.597   3.513   4.391
 3127TIP3    H2 9346   1.638   3.368   4.377
 3128TIP3   OH2 9347   7.116   6.425   4.768
 3128TIP3    H1 9348   7.034   6.442   4.722
 3128TIP3    H2 9349   7.162   6.509   4.765
 3129TIP3   OH2 9350   6.042   2.734   1.450
 3129TIP3    H1 9351   6.079   2.777   1.527
 3129TIP3    H2 9352   5.953   2.711   1.477
 3130TIP3   OH2 9353   2.185   3.975   0.336
 3130TIP3    H1 9354   2.171   4.000   0.427
 3130TIP3    H2 9355   2.233   4.048   0.298
 3131TIP3   OH2 9356   6.401   0.630   0.687
 3131TIP3    H1 9357   6.494   0.608   0.693
 3131TIP3    H2 9358   6.382   0.626   0.593
 3132TIP3   OH2 9359   1.606   6.031   5.813
 3132TIP3    H1 9360   1.641   5.962   5.756
 3132TIP3    H2 9361   1.621   6.112   5.764
 3133TIP3   OH2 9362   1.317   1.745   0.302
 3133TIP3    H1 9363   1.342   1.698   0.223
 3133TIP3    H2 9364   1.317   1.837   0.275
 3134TIP3   OH2 9365   1.392   3.991   1.441
 3134TIP3    H1 9366   1.436   4.060   1.391
 3134TIP3    H2 9367   1.319   4.036   1.484
 3135TIP3   OH2 9368   6.179   4.088   0.809
 3135TIP3    H1 9369   6.086   4.066   0.808
 3135TIP3    H2 9370   6.219   4.026   0.748
 3136TIP3   OH2 9371   1.327   4.963   1.877
 3136TIP3    H1 9372   1.363   5.050   1.887
 3136TIP3    H2 9373   1.366   4.912   1.948
 3137TIP3   OH2 9374   1.237   4.896   2.712
 3137TIP3    H1 9375   1.281   4.811   2.708
 3137TIP3    H2 9376   1.230   4.923   2.620
 3138TIP3   OH2 9377   1.367   4.257   0.029
 3138TIP3    H1 9378   1.439   4.264   0.091
 3138TIP3    H2 9379   1.409   4.246  -0.056
 3139TIP3   OH2 9380   6.822   4.095   5.737
 3139TIP3    H1 9381   6.867   4.162   5.789
 3139TIP3    H2 9382   6.776   4.042   5.802
 3140TIP3   OH2 9383   5.442   3.965   3.324
 3140TIP3    H1 9384   5.519   4.023   3.315
 3140TIP3    H2 9385   5.393   3.977   3.243
 3141TIP3   OH2 9386   2.298   4.383   2.428
 3141TIP3    H1 9387   2.389   4.410   2.417
 3141TIP3    H2 9388   2.280   4.330   2.350
 3142TIP3   OH2 9389   2.727   5.946   0.584
 3142TIP3    H1 9390   2.784   5.876   0.551
 3142TIP3    H2 9391   2.743   6.019   0.525
 3143TIP3   OH2 9392   2.042   1.311   1.551
 3143TIP3    H1 9393   2.084   1.369   1.614
 3143TIP3    H2 9394   2.105   1.305   1.479
 3144TIP3   OH2 9395   3.100   6.719   1.205
 3144TIP3    H1 9396   3.057   6.760   1.131
 3144TIP3    H2 9397   3.191   6.750   1.201
 3145TIP3   OH2 9398   6.541   2.525   1.561
 3145TIP3    H1 9399   6.563   2.443   1.605
 3145TIP3    H2 9400   6.520   2.586   1.632
 3146TIP3   OH2 9401   2.535   1.803   1.098
 3146TIP3    H1 9402   2.493   1.752   1.029
 3146TIP3    H2 9403   2.621   1.825   1.063
 3147TIP3   OH2 9404   0.035   5.626   2.906
 3147TIP3    H1 9405   0.060   5.674   2.827
 3147TIP3    H2 9406   0.036   5.693   2.975
 3148TIP3   OH2 9407   4.573   4.142   4.468
 3148TIP3    H1 9408   4.656   4.136   4.515
 3148TIP3    H2 9409   4.525   4.063   4.494
 3149TIP3   OH2 9410   6.249   4.076   5.807
 3149TIP3    H1 9411   6.314   4.140   5.837
 3149TIP3    H2 9412   6.284   3.992   5.836
 3150TIP3   OH2 9413   5.234   4.551   4.186
 3150TIP3    H1 9414   5.204   4.638   4.163
 3150TIP3    H2 9415   5.227   4.500   4.105
 3151TIP3   OH2 9416   2.216   0.560   0.216
 3151TIP3    H1 9417   2.128   0.598   0.210
 3151TIP3    H2 9418   2.201   0.474   0.254
 3152TIP3   OH2 9419   2.080   1.943   0.625
 3152TIP3    H1 9420   2.061   1.982   0.710
 3152TIP3    H2 9421   2.037   1.858   0.627
 3153TIP3   OH2 9422   4.135   3.989   5.169
 3153TIP3    H1 9423   4.152   3.913   5.226
 3153TIP3    H2 9424   4.221   4.028   5.155
 3154TIP3   OH2 9425   3.090   5.645   5.733
 3154TIP3    H1 9426   3.171   5.612   5.771
 3154TIP3    H2 9427   3.021   5.598   5.780
 3155TIP3   OH2 9428   2.924   1.800   4.888
 3155TIP3    H1 9429   3.003   1.748   4.877
 3155TIP3    H2 9430   2.923   1.860   4.813
 3156TIP3   OH2 9431   7.036   6.549   3.153
 3156TIP3    H1 9432   6.971   6.505   3.208
 3156TIP3    H2 9433   6.985   6.615   3.105
 3157TIP3   OH2 9434   3.314   6.560   4.904
 3157TIP3    H1 9435   3.285   6.481   4.859
 3157TIP3    H2 9436   3.300   6.543   4.997
 3158TIP3   OH2 9437   5.910   2.501   2.136
 3158TIP3    H1 9438   5.971   2.484   2.065
 3158TIP3    H2 9439   5.914   2.423   2.191
 3159TIP3   OH2 9440   1.391   3.252   4.115
 3159TIP3    H1 9441   1.393   3.169   4.067
 3159TIP3    H2 9442   1.389   3.319   4.047
 3160TIP3   OH2 9443   1.190   0.549   1.664
 3160TIP3    H1 9444   1.192   0.488   1.738
 3160TIP3    H2 9445   1.106   0.531   1.622
 3161TIP3   OH2 9446   6.635   4.530   4.837
 3161TIP3    H1 9447   6.641   4.446   4.883
 3161TIP3    H2 9448   6.652   4.508   4.745
 3162TIP3   OH2 9449   2.857   0.410   3.664
 3162TIP3    H1 9450   2.830   0.497   3.634
 3162TIP3    H2 9451   2.949   0.421   3.689
 3163TIP3   OH2 9452   1.638   1.295   5.757
 3163TIP3    H1 9453   1.687   1.337   5.687
 3163TIP3    H2 9454   1.645   1.201   5.738
 3164TIP3   OH2 9455   1.644   3.250   1.736
 3164TIP3    H1 9456   1.649   3.319   1.670
 3164TIP3    H2 9457   1.708   3.185   1.708
 3165TIP3   OH2 9458   6.504   5.418   4.459
 3165TIP3    H1 9459   6.456   5.411   4.377
 3165TIP3    H2 9460   6.458   5.359   4.519
 3166TIP3   OH2 9461   2.954   0.132   3.080
 3166TIP3    H1 9462   3.012   0.057   3.091
 3166TIP3    H2 9463   3.011   0.204   3.055
 3167TIP3   OH2 9464   1.268   0.094   2.452
 3167TIP3    H1 9465   1.277   0.189   2.443
 3167TIP3    H2 9466   1.295   0.059   2.367
 3168TIP3   OH2 9467   2.131   4.918   0.844
 3168TIP3    H1 9468   2.054   4.933   0.898
 3168TIP3    H2 9469   2.176   5.002   0.841
 3169TIP3   OH2 9470   6.580   6.321   5.722
 3169TIP3    H1 9471   6.597   6.249   5.661
 3169TIP3    H2 9472   6.484   6.329   5.723
 3170TIP3   OH2 9473   3.492   4.708   1.393
 3170TIP3    H1 9474   3.524   4.766   1.324
 3170TIP3    H2 9475   3.486   4.764   1.470
 3171TIP3   OH2 9476   1.316   0.393   3.627
 3171TIP3    H1 9477   1.358   0.441   3.699
 3171TIP3    H2 9478   1.390   0.358   3.576
 3172TIP3   OH2 9479   2.969   2.899   2.903
 3172TIP3    H1 9480   2.942   2.912   2.994
 3172TIP3    H2 9481   2.960   2.986   2.863
 3173TIP3   OH2 9482   3.822   2.927   1.747
 3173TIP3    H1 9483   3.908   2.904   1.712
 3173TIP3    H2 9484   3.819   2.884   1.833
 3174TIP3   OH2 9485   5.259   2.509   4.703
 3174TIP3    H1 9486   5.166   2.525   4.687
 3174TIP3    H2 9487   5.264   2.415   4.721
 3175TIP3   OH2 9488   2.127   0.021   3.481
 3175TIP3    H1 9489   2.043   0.054   3.513
 3175TIP3    H2 9490   2.160   0.092   3.425
 3176TIP3   OH2 9491   0.630   3.393   0.404
 3176TIP3    H1 9492   0.708   3.337   0.402
 3176TIP3    H2 9493   0.664   3.481   0.389
 3177TIP3   OH2 9494   3.722   1.411   2.644
 3177TIP3    H1 9495   3.733   1.334   2.700
 3177TIP3    H2 9496   3.645   1.456   2.681
 3178TIP3   OH2 9497   3.735   3.463   0.411
 3178TIP3    H1 9498   3.799   3.444   0.480
 3178TIP3    H2 9499   3.775   3.534   0.360
 3179TIP3   OH2 9500   0.765   3.770   1.475
 3179TIP3    H1 9501   0.785   3.781   1.382
 3179TIP3    H2 9502   0.783   3.678   1.493
 3180TIP3   OH2 9503   4.755   0.019   2.677
 3180TIP3    H1 9504   4.827   0.076   2.705
 3180TIP3    H2 9505   4.677   0.058   2.716
 3181TIP3   OH2 9506   6.660   3.416   2.347
 3181TIP3    H1 9507   6.631   3.502   2.315
 3181TIP3    H2 9508   6.580   3.376   2.383
 3182TIP3   OH2 9509   4.361   5.870   0.966
 3182TIP3    H1 9510   4.295   5.884   0.899
 3182TIP3    H2 9511   4.321   5.905   1.046
 3183TIP3   OH2 9512   1.033   2.151   5.600
 3183TIP3    H1 9513   1.018   2.095   5.524
 3183TIP3    H2 9514   0.962   2.130   5.661
 3184TIP3   OH2 9515   1.011   2.964   0.664
 3184TIP3    H1 9516   1.079   3.018   0.704
 3184TIP3    H2 9517   1.056   2.914   0.596
 3185TIP3   OH2 9518   6.293   6.063   5.335
 3185TIP3    H1 9519   6.346   6.003   5.282
 3185TIP3    H2 9520   6.301   6.147   5.291
 3186TIP3   OH2 9521   2.377   2.077   4.743
 3186TIP3    H1 9522   2.451   2.017   4.758
 3186TIP3    H2 9523   2.409   2.162   4.774
 3187TIP3   OH2 9524   3.483   0.925   2.351
 3187TIP3    H1 9525   3.391   0.912   2.330
 3187TIP3    H2 9526   3.523   0.948   2.267
 3188TIP3   OH2 9527   0.620   0.472   4.625
 3188TIP3    H1 9528   0.615   0.520   4.542
 3188TIP3    H2 9529   0.534   0.486   4.665
 3189TIP3   OH2 9530   1.096   1.326   3.935
 3189TIP3    H1 9531   1.122   1.340   3.844
 3189TIP3    H2 9532   1.008   1.362   3.940
 3190TIP3   OH2 9533   2.502   4.756   5.788
 3190TIP3    H1 9534   2.503   4.762   5.884
 3190TIP3    H2 9535   2.522   4.844   5.758
 3191TIP3   OH2 9536   1.413   6.769   2.844
 3191TIP3    H1 9537   1.443   6.713   2.916
 3191TIP3    H2 9538   1.455   6.732   2.766
 3192TIP3   OH2 9539   7.148   4.293   0.326
 3192TIP3    H1 9540   7.148   4.253   0.413
 3192TIP3    H2 9541   7.184   4.224   0.269
 3193TIP3   OH2 9542   4.166   2.823   4.463
 3193TIP3    H1 9543   4.148   2.908   4.424
 3193TIP3    H2 9544   4.151   2.760   4.392
 3194TIP3   OH2 9545   3.544   2.355   1.240
 3194TIP3    H1 9546   3.581   2.425   1.293
 3194TIP3    H2 9547   3.487   2.306   1.300
 3195TIP3   OH2 9548   5.950   4.474   4.284
 3195TIP3    H1 9549   6.044   4.473   4.265
 3195TIP3    H2 9550   5.916   4.395   4.242
 3196TIP3   OH2 9551   3.513   0.084   3.355
 3196TIP3    H1 9552   3.475   0.165   3.323
 3196TIP3    H2 9553   3.575   0.111   3.423
 3197TIP3   OH2 9554   2.932   6.044   2.222
 3197TIP3    H1 9555   2.841   6.054   2.247
 3197TIP3    H2 9556   2.974   6.003   2.298
 3198TIP3   OH2 9557   0.703   3.191   5.614
 3198TIP3    H1 9558   0.692   3.146   5.531
 3198TIP3    H2 9559   0.655   3.137   5.677
 3199TIP3   OH2 9560   4.829   3.218   4.077
 3199TIP3    H1 9561   4.877   3.294   4.110
 3199TIP3    H2 9562   4.737   3.244   4.081
 3200TIP3   OH2 9563   2.853   2.219   1.238
 3200TIP3    H1 9564   2.781   2.159   1.259
 3200TIP3    H2 9565   2.929   2.162   1.228
 3201TIP3   OH2 9566   6.211   3.698   3.701
 3201TIP3    H1 9567   6.134   3.721   3.753
 3201TIP3    H2 9568   6.237   3.612   3.734
 3202TIP3   OH2 9569   1.882   0.047   4.576
 3202TIP3    H1 9570   1.955  -0.015   4.569
 3202TIP3    H2 9571   1.914   0.115   4.635
 3203TIP3   OH2 9572   0.002   2.726   2.386
 3203TIP3    H1 9573   0.075   2.737   2.324
 3203TIP3    H2 9574  -0.039   2.643   2.360
 3204TIP3   OH2 9575   0.974   5.840   3.416
 3204TIP3    H1 9576   1.050   5.896   3.433
 3204TIP3    H2 9577   1.006   5.777   3.351
 3205TIP3   OH2 9578   1.085   1.303   0.249
 3205TIP3    H1 9579   1.096   1.311   0.344
 3205TIP3    H2 9580   0.991   1.288   0.236
 3206TIP3   OH2 9581   6.489   0.248   0.271
 3206TIP3    H1 9582   6.535   0.312   0.217
 3206TIP3    H2 9583   6.508   0.163   0.231
 3207TIP3   OH2 9584   0.663   1.934   2.287
 3207TIP3    H1 9585   0.716   1.856   2.304
 3207TIP3    H2 9586   0.604   1.908   2.216
 3208TIP3   OH2 9587   5.887   1.938   5.895
 3208TIP3    H1 9588   5.949   2.002   5.860
 3208TIP3    H2 9589   5.920   1.853   5.864
 3209TIP3   OH2 9590   2.841   6.382   1.121
 3209TIP3    H1 9591   2.757   6.354   1.087
 3209TIP3    H2 9592   2.865   6.458   1.068
 3210TIP3   OH2 9593   2.908   3.994   0.003
 3210TIP3    H1 9594   2.964   4.046  -0.054
 3210TIP3    H2 9595   2.900   4.045   0.083
 3211TIP3   OH2 9596   5.645   4.830   0.582
 3211TIP3    H1 9597   5.626   4.777   0.505
 3211TIP3    H2 9598   5.708   4.896   0.551
 3212TIP3   OH2 9599   1.218   4.946   3.491
 3212TIP3    H1 9600   1.191   4.891   3.418
 3212TIP3    H2 9601   1.308   4.919   3.510
 3213TIP3   OH2 9602   2.680   3.424   0.630
 3213TIP3    H1 9603   2.603   3.474   0.656
 3213TIP3    H2 9604   2.703   3.372   0.707
 3214TIP3   OH2 9605   6.438   1.651   3.905
 3214TIP3    H1 9606   6.526   1.620   3.925
 3214TIP3    H2 9607   6.429   1.733   3.952
 3215TIP3   OH2 9608   3.517   4.722   0.226
 3215TIP3    H1 9609   3.577   4.647   0.227
 3215TIP3    H2 9610   3.574   4.798   0.237
 3216TIP3   OH2 9611   6.704   2.911   2.789
 3216TIP3    H1 9612   6.635   2.882   2.848
 3216TIP3    H2 9613   6.667   2.988   2.745
 3217TIP3   OH2 9614   2.840   2.318   0.356
 3217TIP3    H1 9615   2.909   2.290   0.296
 3217TIP3    H2 9616   2.758   2.300   0.311
 3218TIP3   OH2 9617   1.831   6.649   1.469
 3218TIP3    H1 9618   1.904   6.630   1.410
 3218TIP3    H2 9619   1.769   6.699   1.415
 3219TIP3   OH2 9620   4.537   0.144   2.811
 3219TIP3    H1 9621   4.447   0.135   2.778
 3219TIP3    H2 9622   4.545   0.237   2.832
 3220TIP3   OH2 9623   1.846   1.938   4.546
 3220TIP3    H1 9624   1.816   2.018   4.503
 3220TIP3    H2 9625   1.927   1.915   4.500
 3221TIP3   OH2 9626   5.392   3.844   4.128
 3221TIP3    H1 9627   5.450   3.838   4.052
 3221TIP3    H2 9628   5.360   3.755   4.140
 3222TIP3   OH2 9629   5.762   5.908   0.865
 3222TIP3    H1 9630   5.778   5.889   0.958
 3222TIP3    H2 9631   5.823   5.851   0.818
 3223TIP3   OH2 9632   1.080   2.747   3.275
 3223TIP3    H1 9633   1.174   2.729   3.283
 3223TIP3    H2 9634   1.072   2.790   3.190
 3224TIP3   OH2 9635   5.408   3.348   3.867
 3224TIP3    H1 9636   5.413   3.300   3.949
 3224TIP3    H2 9637   5.377   3.284   3.803
 3225TIP3   OH2 9638   6.927   4.215   4.920
 3225TIP3    H1 9639   6.951   4.182   5.006
 3225TIP3    H2 9640   6.982   4.167   4.859
 3226TIP3   OH2 9641   4.464   6.688   2.536
 3226TIP3    H1 9642   4.558   6.675   2.525
 3226TIP3    H2 9643   4.446   6.771   2.493
 3227TIP3   OH2 9644   4.814   5.239   5.910
 3227TIP3    H1 9645   4.883   5.303   5.896
 3227TIP3    H2 9646   4.734   5.283   5.885
 3228TIP3   OH2 9647   4.397   5.217   4.700
 3228TIP3    H1 9648   4.476   5.253   4.741
 3228TIP3    H2 9649   4.397   5.125   4.726
 3229TIP3   OH2 9650   6.435   1.459   1.732
 3229TIP3    H1 9651   6.512   1.514   1.748
 3229TIP3    H2 9652   6.399   1.443   1.819
 3230TIP3   OH2 9653   3.184   0.147   0.401
 3230TIP3    H1 9654   3.153   0.228   0.441
 3230TIP3    H2 9655   3.256   0.174   0.345
 3231TIP3   OH2 9656   3.416   2.888   2.406
 3231TIP3    H1 9657   3.401   2.973   2.366
 3231TIP3    H2 9658   3.348   2.880   2.473
 3232TIP3   OH2 9659   0.006   2.563   1.079
 3232TIP3    H1 9660   0.037   2.473   1.092
 3232TIP3    H2 9661   0.008   2.575   0.984
 3233TIP3   OH2 9662   4.134   4.496   3.650
 3233TIP3    H1 9663   4.188   4.420   3.673
 3233TIP3    H2 9664   4.167   4.523   3.564
 3234TIP3   OH2 9665   2.904   1.652   1.228
 3234TIP3    H1 9666   2.839   1.607   1.173
 3234TIP3    H2 9667   2.924   1.589   1.297
 3235TIP3   OH2 9668   3.926   0.935   4.024
 3235TIP3    H1 9669   3.831   0.934   4.033
 3235TIP3    H2 9670   3.953   1.022   4.052
 3236TIP3   OH2 9671   1.335   2.427   3.769
 3236TIP3    H1 9672   1.302   2.472   3.691
 3236TIP3    H2 9673   1.358   2.339   3.739
 3237TIP3   OH2 9674   4.568   5.839   1.535
 3237TIP3    H1 9675   4.476   5.867   1.537
 3237TIP3    H2 9676   4.595   5.856   1.444
 3238TIP3   OH2 9677   3.049   5.500   5.234
 3238TIP3    H1 9678   3.062   5.571   5.172
 3238TIP3    H2 9679   2.954   5.494   5.246
 3239TIP3   OH2 9680   0.855   4.297   2.736
 3239TIP3    H1 9681   0.864   4.386   2.702
 3239TIP3    H2 9682   0.763   4.275   2.721
 3240TIP3   OH2 9683   3.635   3.660   0.137
 3240TIP3    H1 9684   3.698   3.722   0.099
 3240TIP3    H2 9685   3.656   3.659   0.230
 3241TIP3   OH2 9686   3.744   0.205   5.389
 3241TIP3    H1 9687   3.687   0.182   5.316
 3241TIP3    H2 9688   3.721   0.296   5.408
 3242TIP3   OH2 9689   0.785   3.547   5.221
 3242TIP3    H1 9690   0.859   3.505   5.177
 3242TIP3    H2 9691   0.733   3.474   5.254
 3243TIP3   OH2 9692   5.803   1.942   5.165
 3243TIP3    H1 9693   5.731   1.903   5.115
 3243TIP3    H2 9694   5.864   1.870   5.180
 3244TIP3   OH2 9695   5.612   2.258   5.138
 3244TIP3    H1 9696   5.693   2.241   5.089
 3244TIP3    H2 9697   5.542   2.247   5.074
 3245TIP3   OH2 9698   3.968   5.541   3.455
 3245TIP3    H1 9699   3.951   5.527   3.548
 3245TIP3    H2 9700   3.935   5.462   3.412
 3246TIP3   OH2 9701   1.534   2.006  -0.008
 3246TIP3    H1 9702   1.481   2.083   0.011
 3246TIP3    H2 9703   1.594   1.999   0.066
 3247TIP3   OH2 9704   1.160   5.762   0.838
 3247TIP3    H1 9705   1.131   5.763   0.930
 3247TIP3    H2 9706   1.236   5.704   0.838
 3248TIP3   OH2 9707   0.177   1.821   2.658
 3248TIP3    H1 9708   0.141   1.903   2.693
 3248TIP3    H2 9709   0.106   1.784   2.606
 3249TIP3   OH2 9710   3.539   3.936   3.024
 3249TIP3    H1 9711   3.477   4.005   3.048
 3249TIP3    H2 9712   3.598   3.978   2.961
 3250TIP3   OH2 9713   5.928   5.589   3.279
 3250TIP3    H1 9714   5.901   5.516   3.224
 3250TIP3    H2 9715   5.848   5.640   3.292
 3251TIP3   OH2 9716   6.765   6.277   0.846
 3251TIP3    H1 9717   6.763   6.372   0.857
 3251TIP3    H2 9718   6.834   6.248   0.906
 3252TIP3   OH2 9719   6.048   1.617   3.249
 3252TIP3    H1 9720   5.980   1.565   3.206
 3252TIP3    H2 9721   6.061   1.574   3.333
 3253TIP3   OH2 9722   0.294   4.413   4.606
 3253TIP3    H1 9723   0.249   4.340   4.649
 3253TIP3    H2 9724   0.282   4.396   4.512
 3254TIP3   OH2 9725   7.014   0.380   1.795
 3254TIP3    H1 9726   7.105   0.348   1.795
 3254TIP3    H2 9727   6.966   0.315   1.846
 3255TIP3   OH2 9728   2.923   4.181   5.377
 3255TIP3    H1 9729   2.955   4.093   5.358
 3255TIP3    H2 9730   2.980   4.238   5.325
 3256TIP3   OH2 9731   5.084   4.844   1.163
 3256TIP3    H1 9732   5.062   4.811   1.076
 3256TIP3    H2 9733   5.147   4.914   1.147
 3257TIP3   OH2 9734   1.558   3.891   4.626
 3257TIP3    H1 9735   1.497   3.963   4.613
 3257TIP3    H2 9736   1.583   3.865   4.537
 3258TIP3   OH2 9737   4.851   3.700   3.225
 3258TIP3    H1 9738   4.823   3.768   3.164
 3258TIP3    H2 9739   4.776   3.688   3.284
 3259TIP3   OH2 9740   6.310   1.267   2.574
 3259TIP3    H1 9741   6.223   1.302   2.558
 3259TIP3    H2 9742   6.322   1.201   2.506
 3260TIP3   OH2 9743   2.768   2.961   5.570
 3260TIP3    H1 9744   2.770   2.956   5.666
 3260TIP3    H2 9745   2.677   2.945   5.547
 3261TIP3   OH2 9746   2.344   1.420   2.017
 3261TIP3    H1 9747   2.415   1.407   2.080
 3261TIP3    H2 9748   2.370   1.498   1.968
 3262TIP3   OH2 9749   6.082   5.155   4.220
 3262TIP3    H1 9750   6.096   5.063   4.198
 3262TIP3    H2 9751   6.018   5.153   4.291
 3263TIP3   OH2 9752   2.987   0.017   3.554
 3263TIP3    H1 9753   2.955   0.038   3.641
 3263TIP3    H2 9754   2.979   0.099   3.505
 3264TIP3   OH2 9755   5.129   4.476   3.912
 3264TIP3    H1 9756   5.169   4.561   3.900
 3264TIP3    H2 9757   5.058   4.491   3.974
 3265TIP3   OH2 9758   5.995   5.880   5.428
 3265TIP3    H1 9759   5.976   5.964   5.385
 3265TIP3    H2 9760   5.978   5.897   5.521
 3266TIP3   OH2 9761   3.760   2.220   3.900
 3266TIP3    H1 9762   3.837   2.166   3.917
 3266TIP3    H2 9763   3.754   2.278   3.976
 3267TIP3   OH2 9764   1.607   6.341   3.817
 3267TIP3    H1 9765   1.670   6.292   3.869
 3267TIP3    H2 9766   1.591   6.285   3.740
 3268TIP3   OH2 9767   3.981   6.344   0.983
 3268TIP3    H1 9768   4.010   6.270   1.037
 3268TIP3    H2 9769   3.962   6.413   1.046
 3269TIP3   OH2 9770   4.363   3.947   1.801
 3269TIP3    H1 9771   4.316   3.866   1.784
 3269TIP3    H2 9772   4.386   3.981   1.715
 3270TIP3   OH2 9773   6.014   5.585   2.609
 3270TIP3    H1 9774   6.019   5.626   2.523
 3270TIP3    H2 9775   5.996   5.658   2.669
 3271TIP3   OH2 9776   0.275   0.729   3.146
 3271TIP3    H1 9777   0.297   0.788   3.219
 3271TIP3    H2 9778   0.335   0.755   3.076
 3272TIP3   OH2 9779   1.523   2.943   0.037
 3272TIP3    H1 9780   1.552   2.886  -0.034
 3272TIP3    H2 9781   1.448   2.897   0.074
 3273TIP3   OH2 9782   6.750   6.328   5.409
 3273TIP3    H1 9783   6.800   6.278   5.345
 3273TIP3    H2 9784   6.806   6.334   5.486
 3274TIP3   OH2 9785   3.679   0.827   5.718
 3274TIP3    H1 9786   3.729   0.789   5.646
 3274TIP3    H2 9787   3.740   0.827   5.792
 3275TIP3   OH2 9788   4.891   3.164   5.049
 3275TIP3    H1 9789   4.884   3.086   5.105
 3275TIP3    H2 9790   4.860   3.236   5.105
 3276TIP3   OH2 9791   1.814   3.843   0.683
 3276TIP3    H1 9792   1.822   3.924   0.733
 3276TIP3    H2 9793   1.896   3.797   0.699
 3277TIP3   OH2 9794   7.022   1.540   0.092
 3277TIP3    H1 9795   6.949   1.593   0.061
 3277TIP3    H2 9796   7.091   1.554   0.027
 3278TIP3   OH2 9797   0.125   6.618   5.022
 3278TIP3    H1 9798   0.147   6.559   4.949
 3278TIP3    H2 9799   0.131   6.563   5.100
 3279TIP3   OH2 9800   2.530   1.906   2.989
 3279TIP3    H1 9801   2.477   1.882   3.065
 3279TIP3    H2 9802   2.540   2.001   2.995
 3280TIP3   OH2 9803   4.465   0.493   5.386
 3280TIP3    H1 9804   4.488   0.566   5.328
 3280TIP3    H2 9805   4.378   0.516   5.420
 3281TIP3   OH2 9806   4.250   4.497   2.322
 3281TIP3    H1 9807   4.219   4.464   2.238
 3281TIP3    H2 9808   4.278   4.419   2.370
 3282TIP3   OH2 9809   1.037   2.532   2.480
 3282TIP3    H1 9810   1.074   2.619   2.497
 3282TIP3    H2 9811   0.969   2.522   2.547
 3283TIP3   OH2 9812   6.402   5.413   3.878
 3283TIP3    H1 9813   6.437   5.490   3.835
 3283TIP3    H2 9814   6.438   5.339   3.829
 3284TIP3   OH2 9815   4.039   4.408   4.956
 3284TIP3    H1 9816   4.116   4.369   4.999
 3284TIP3    H2 9817   4.014   4.344   4.890
 3285TIP3   OH2 9818   3.443   1.602   0.964
 3285TIP3    H1 9819   3.491   1.680   0.936
 3285TIP3    H2 9820   3.497   1.529   0.934
 3286TIP3   OH2 9821   4.742   3.900   3.597
 3286TIP3    H1 9822   4.785   3.841   3.534
 3286TIP3    H2 9823   4.738   3.849   3.678
 3287TIP3   OH2 9824   7.226   3.860   2.611
 3287TIP3    H1 9825   7.189   3.778   2.578
 3287TIP3    H2 9826   7.267   3.836   2.694
 3288TIP3   OH2 9827   0.597   4.230   5.313
 3288TIP3    H1 9828   0.560   4.252   5.228
 3288TIP3    H2 9829   0.553   4.288   5.375
 3289TIP3   OH2 9830   4.732   4.067   5.453
 3289TIP3    H1 9831   4.787   4.068   5.532
 3289TIP3    H2 9832   4.696   3.979   5.450
 3290TIP3   OH2 9833   0.471   1.434   3.381
 3290TIP3    H1 9834   0.537   1.367   3.397
 3290TIP3    H2 9835   0.412   1.428   3.456
 3291TIP3   OH2 9836   7.026   6.513   0.508
 3291TIP3    H1 9837   7.019   6.421   0.531
 3291TIP3    H2 9838   7.038   6.558   0.592
 3292TIP3   OH2 9839   6.111   0.985   3.088
 3292TIP3    H1 9840   6.202   1.015   3.086
 3292TIP3    H2 9841   6.088   0.985   3.181
 3293TIP3   OH2 9842   2.973   3.138   0.395
 3293TIP3    H1 9843   2.892   3.110   0.437
 3293TIP3    H2 9844   3.031   3.160   0.469
 3294TIP3   OH2 9845   0.445   0.087   2.744
 3294TIP3    H1 9846   0.456   0.178   2.716
 3294TIP3    H2 9847   0.432   0.092   2.838
 3295TIP3   OH2 9848   6.580   4.740   2.251
 3295TIP3    H1 9849   6.542   4.728   2.165
 3295TIP3    H2 9850   6.519   4.798   2.297
 3296TIP3   OH2 9851   5.484   2.736   1.492
 3296TIP3    H1 9852   5.438   2.819   1.498
 3296TIP3    H2 9853   5.416   2.670   1.505
 3297TIP3   OH2 9854   2.883   1.633   0.023
 3297TIP3    H1 9855   2.876   1.545   0.063
 3297TIP3    H2 9856   2.839   1.624  -0.061
 3298TIP3   OH2 9857   3.510   4.474   5.001
 3298TIP3    H1 9858   3.452   4.513   4.935
 3298TIP3    H2 9859   3.572   4.421   4.950
 3299TIP3   OH2 9860   0.406   4.852   2.894
 3299TIP3    H1 9861   0.394   4.765   2.932
 3299TIP3    H2 9862   0.328   4.865   2.840
 3300TIP3   OH2 9863   0.017   1.267   4.469
 3300TIP3    H1 9864   0.066   1.275   4.551
 3300TIP3    H2 9865   0.084   1.271   4.400
 3301TIP3   OH2 9866   0.582   1.177   4.586
 3301TIP3    H1 9867   0.560   1.109   4.649
 3301TIP3    H2 9868   0.558   1.140   4.501
 3302TIP3   OH2 9869   3.522   5.946   4.196
 3302TIP3    H1 9870   3.489   5.914   4.280
 3302TIP3    H2 9871   3.550   6.036   4.214
 3303TIP3   OH2 9872   5.817   0.650   0.693
 3303TIP3    H1 9873   5.894   0.604   0.660
 3303TIP3    H2 9874   5.782   0.593   0.762
 3304TIP3   OH2 9875   1.062   0.485   0.323
 3304TIP3    H1 9876   1.006   0.420   0.364
 3304TIP3    H2 9877   1.069   0.456   0.232
 3305TIP3   OH2 9878   0.273   0.426   5.139
 3305TIP3    H1 9879   0.355   0.452   5.099
 3305TIP3    H2 9880   0.206   0.475   5.091
 3306TIP3   OH2 9881   2.122   2.729   1.531
 3306TIP3    H1 9882   2.041   2.779   1.531
 3306TIP3    H2 9883   2.155   2.736   1.620
 3307TIP3   OH2 9884   2.067   4.408   0.668
 3307TIP3    H1 9885   2.014   4.348   0.616
 3307TIP3    H2 9886   2.104   4.470   0.605
 3308TIP3   OH2 9887   5.440   5.295   2.735
 3308TIP3    H1 9888   5.361   5.327   2.690
 3308TIP3    H2 9889   5.414   5.289   2.827
 3309TIP3   OH2 9890   5.817   0.863   2.528
 3309TIP3    H1 9891   5.852   0.790   2.580
 3309TIP3    H2 9892   5.849   0.846   2.439
 3310TIP3   OH2 9893   4.497   0.195   4.150
 3310TIP3    H1 9894   4.445   0.128   4.106
 3310TIP3    H2 9895   4.518   0.157   4.236
 3311TIP3   OH2 9896   5.786   5.468   2.514
 3311TIP3    H1 9897   5.866   5.522   2.519
 3311TIP3    H2 9898   5.768   5.462   2.420
 3312TIP3   OH2 9899   2.827   3.957   2.469
 3312TIP3    H1 9900   2.923   3.959   2.469
 3312TIP3    H2 9901   2.802   4.021   2.402
 3313TIP3   OH2 9902   5.317   0.545   0.449
 3313TIP3    H1 9903   5.317   0.474   0.384
 3313TIP3    H2 9904   5.409   0.550   0.478
 3314TIP3   OH2 9905   6.316   4.925   1.157
 3314TIP3    H1 9906   6.402   4.887   1.175
 3314TIP3    H2 9907   6.313   4.930   1.061
 3315TIP3   OH2 9908   6.660   5.137   1.176
 3315TIP3    H1 9909   6.719   5.188   1.122
 3315TIP3    H2 9910   6.682   5.046   1.156
 3316TIP3   OH2 9911   5.307   5.276   1.457
 3316TIP3    H1 9912   5.379   5.225   1.493
 3316TIP3    H2 9913   5.327   5.282   1.364
 3317TIP3   OH2 9914   1.966   1.759   2.578
 3317TIP3    H1 9915   1.890   1.741   2.523
 3317TIP3    H2 9916   1.975   1.854   2.577
 3318TIP3   OH2 9917   2.528   0.452   2.655
 3318TIP3    H1 9918   2.447   0.405   2.675
 3318TIP3    H2 9919   2.518   0.536   2.701
 3319TIP3   OH2 9920   0.981   2.208   2.250
 3319TIP3    H1 9921   0.902   2.210   2.303
 3319TIP3    H2 9922   1.049   2.244   2.306
 3320TIP3   OH2 9923  -0.020   4.118   2.150
 3320TIP3    H1 9924   0.031   4.160   2.080
 3320TIP3    H2 9925   0.046   4.077   2.206
 3321TIP3   OH2 9926   5.350   4.742   2.676
 3321TIP3    H1 9927   5.317   4.695   2.599
 3321TIP3    H2 9928   5.283   4.729   2.743
 3322TIP3   OH2 9929   1.995   6.015   2.174
 3322TIP3    H1 9930   1.926   6.073   2.207
 3322TIP3    H2 9931   2.076   6.065   2.187
 3323TIP3   OH2 9932   1.139   3.538   5.277
 3323TIP3    H1 9933   1.206   3.489   5.326
 3323TIP3    H2 9934   1.102   3.474   5.216
 3324TIP3   OH2 9935   1.969   5.008   1.146
 3324TIP3    H1 9936   1.994   4.918   1.167
 3324TIP3    H2 9937   2.048   5.059   1.161
 3325TIP3   OH2 9938   4.227   4.775   0.524
 3325TIP3    H1 9939   4.280   4.853   0.507
 3325TIP3    H2 9940   4.155   4.780   0.462
 3326TIP3   OH2 9941   2.439   0.831   4.710
 3326TIP3    H1 9942   2.366   0.842   4.649
 3326TIP3    H2 9943   2.417   0.887   4.785
 3327TIP3   OH2 9944   2.723   0.143   1.874
 3327TIP3    H1 9945   2.751   0.052   1.868
 3327TIP3    H2 9946   2.791   0.186   1.925
 3328TIP3   OH2 9947   3.655   1.100   3.403
 3328TIP3    H1 9948   3.646   1.120   3.309
 3328TIP3    H2 9949   3.627   1.181   3.447
 3329TIP3   OH2 9950   3.222   1.212   4.143
 3329TIP3    H1 9951   3.242   1.122   4.119
 3329TIP3    H2 9952   3.256   1.264   4.070
 3330TIP3   OH2 9953   4.003   4.248   4.713
 3330TIP3    H1 9954   4.037   4.320   4.660
 3330TIP3    H2 9955   4.074   4.184   4.715
 3331TIP3   OH2 9956   6.646   4.818   0.387
 3331TIP3    H1 9957   6.624   4.741   0.333
 3331TIP3    H2 9958   6.562   4.846   0.423
 3332TIP3   OH2 9959   4.338   6.297   2.109
 3332TIP3    H1 9960   4.319   6.207   2.135
 3332TIP3    H2 9961   4.421   6.317   2.153
 3333TIP3   OH2 9962   6.170   4.018   2.096
 3333TIP3    H1 9963   6.167   3.949   2.029
 3333TIP3    H2 9964   6.261   4.049   2.093
 3334TIP3   OH2 9965   4.787   5.456   4.738
 3334TIP3    H1 9966   4.720   5.511   4.777
 3334TIP3    H2 9967   4.763   5.450   4.646
 3335TIP3   OH2 9968   7.195   4.823   1.275
 3335TIP3    H1 9969   7.133   4.892   1.300
 3335TIP3    H2 9970   7.164   4.745   1.322
 3336TIP3   OH2 9971   3.936   4.847   5.782
 3336TIP3    H1 9972   4.022   4.834   5.743
 3336TIP3    H2 9973   3.883   4.775   5.746
 3337TIP3   OH2 9974   4.999   0.376   0.129
 3337TIP3    H1 9975   5.075   0.325   0.159
 3337TIP3    H2 9976   4.946   0.313   0.081
 3338TIP3   OH2 9977   7.093   5.375   0.913
 3338TIP3    H1 9978   7.047   5.450   0.878
 3338TIP3    H2 9979   7.177   5.410   0.944
 3339TIP3   OH2 9980   2.811   6.272   3.086
 3339TIP3    H1 9981   2.859   6.189   3.091
 3339TIP3    H2 9982   2.879   6.339   3.087
 3340TIP3   OH2 9983   4.119   0.270   0.221
 3340TIP3    H1 9984   4.110   0.223   0.303
 3340TIP3    H2 9985   4.068   0.351   0.233
 3341TIP3   OH2 9986   6.166   4.281   0.406
 3341TIP3    H1 9987   6.082   4.235   0.409
 3341TIP3    H2 9988   6.225   4.222   0.359
 3342TIP3   OH2 9989   3.115   5.224   1.370
 3342TIP3    H1 9990   3.163   5.307   1.375
 3342TIP3    H2 9991   3.041   5.236   1.429
 3343TIP3   OH2 9992   5.470   6.154   0.035
 3343TIP3    H1 9993   5.413   6.150   0.112
 3343TIP3    H2 9994   5.554   6.183   0.069
 3344TIP3   OH2 9995   0.771   0.801   0.302
 3344TIP3    H1 9996   0.763   0.742   0.227
 3344TIP3    H2 9997   0.685   0.843   0.309
 3345TIP3   OH2 9998   2.313   0.068   0.574
 3345TIP3    H1 9999   2.239   0.075   0.635
 3345TIP3    H210000   2.384   0.114   0.618
 3346TIP3   OH210001   5.494   2.456   3.697
 3346TIP3    H110002   5.482   2.494   3.784
 3346TIP3    H210003   5.477   2.362   3.710
 3347TIP3   OH210004   3.522   5.972   2.501
 3347TIP3    H110005   3.580   5.977   2.425
 3347TIP3    H210006   3.449   5.919   2.472
 3348TIP3   OH210007   2.962   5.663   4.267
 3348TIP3    H110008   3.049   5.677   4.306
 3348TIP3    H210009   2.901   5.675   4.340
 3349TIP3   OH210010   2.085   2.749   0.954
 3349TIP3    H110011   1.997   2.725   0.927
 3349TIP3    H210012   2.094   2.841   0.929
 3350TIP3   OH210013   0.667   1.026   2.487
 3350TIP3    H110014   0.661   1.110   2.532
 3350TIP3    H210015   0.726   0.974   2.542
 3351TIP3   OH210016   0.526   2.382   2.536
 3351TIP3    H110017   0.542   2.385   2.630
 3351TIP3    H210018   0.453   2.443   2.521
 3352TIP3   OH210019   1.254   3.285   2.677
 3352TIP3    H110020   1.227   3.302   2.767
 3352TIP3    H210021   1.296   3.200   2.680
 3353TIP3   OH210022   1.405   1.580   3.884
 3353TIP3    H110023   1.454   1.643   3.938
 3353TIP3    H210024   1.462   1.503   3.880
 3354TIP3   OH210025   0.286   2.322   2.009
 3354TIP3    H110026   0.315   2.398   2.060
 3354TIP3    H210027   0.322   2.247   2.057
 3355TIP3   OH210028   2.031   4.674   2.934
 3355TIP3    H110029   2.052   4.740   2.869
 3355TIP3    H210030   2.048   4.717   3.018
 3356TIP3   OH210031   6.815   2.482   5.207
 3356TIP3    H110032   6.796   2.529   5.288
 3356TIP3    H210033   6.766   2.400   5.216
 3357TIP3   OH210034   5.703   0.404   2.990
 3357TIP3    H110035   5.706   0.426   3.083
 3357TIP3    H210036   5.792   0.418   2.959
 3358TIP3   OH210037   3.400   4.370   4.671
 3358TIP3    H110038   3.474   4.389   4.613
 3358TIP3    H210039   3.415   4.280   4.700
 3359TIP3   OH210040   5.674   2.860   3.004
 3359TIP3    H110041   5.578   2.861   2.996
 3359TIP3    H210042   5.689   2.844   3.097
 3360TIP3   OH210043   4.354   4.483   1.072
 3360TIP3    H110044   4.366   4.414   1.137
 3360TIP3    H210045   4.442   4.511   1.050
 3361TIP3   OH210046   5.697   1.553   0.073
 3361TIP3    H110047   5.633   1.490   0.106
 3361TIP3    H210048   5.776   1.536   0.125
 3362TIP3   OH210049   1.068   4.126   2.839
 3362TIP3    H110050   1.139   4.087   2.789
 3362TIP3    H210051   1.025   4.185   2.777
 3363TIP3   OH210052   0.455   0.834   0.313
 3363TIP3    H110053   0.481   0.911   0.365
 3363TIP3    H210054   0.372   0.859   0.273
 3364TIP3   OH210055   4.291   5.305   5.267
 3364TIP3    H110056   4.208   5.334   5.230
 3364TIP3    H210057   4.327   5.245   5.202
 3365TIP3   OH210058   5.887   1.172   0.559
 3365TIP3    H110059   5.821   1.205   0.498
 3365TIP3    H210060   5.936   1.108   0.508
 3366TIP3   OH210061   3.459   6.008   2.889
 3366TIP3    H110062   3.495   6.059   2.962
 3366TIP3    H210063   3.524   5.940   2.873
 3367TIP3   OH210064   2.481   6.057   4.158
 3367TIP3    H110065   2.420   6.091   4.224
 3367TIP3    H210066   2.498   6.131   4.100
 3368TIP3   OH210067   6.488   5.026   3.225
 3368TIP3    H110068   6.532   5.006   3.307
 3368TIP3    H210069   6.435   4.948   3.207
 3369TIP3   OH210070   5.354   0.133   1.427
 3369TIP3    H110071   5.287   0.197   1.451
 3369TIP3    H210072   5.319   0.049   1.457
 3370TIP3   OH210073   5.803   5.469   2.923
 3370TIP3    H110074   5.814   5.563   2.913
 3370TIP3    H210075   5.754   5.442   2.846
 3371TIP3   OH210076   4.228   0.301   2.691
 3371TIP3    H110077   4.200   0.211   2.679
 3371TIP3    H210078   4.147   0.350   2.706
 3372TIP3   OH210079   2.179   3.211   3.665
 3372TIP3    H110080   2.257   3.196   3.718
 3372TIP3    H210081   2.202   3.176   3.579
 3373TIP3   OH210082   1.615   2.243   3.826
 3373TIP3    H110083   1.683   2.242   3.893
 3373TIP3    H210084   1.606   2.335   3.802
 3374TIP3   OH210085   0.148   4.694   4.198
 3374TIP3    H110086   0.154   4.771   4.141
 3374TIP3    H210087   0.056   4.692   4.226
 3375TIP3   OH210088   5.877   6.284   0.640
 3375TIP3    H110089   5.801   6.280   0.698
 3375TIP3    H210090   5.877   6.200   0.595
 3376TIP3   OH210091   2.981   5.294   1.904
 3376TIP3    H110092   3.070   5.325   1.888
 3376TIP3    H210093   2.950   5.348   1.977
 3377TIP3   OH210094   2.170   3.023   4.829
 3377TIP3    H110095   2.080   3.040   4.803
 3377TIP3    H210096   2.220   3.095   4.789
 3378TIP3   OH210097   0.925   1.793   4.735
 3378TIP3    H110098   0.854   1.833   4.785
 3378TIP3    H210099   0.892   1.791   4.645
 3379TIP3   OH210100   4.153   6.368   3.279
 3379TIP3    H110101   4.079   6.423   3.255
 3379TIP3    H210102   4.143   6.290   3.224
 3380TIP3   OH210103   5.963   0.426   5.014
 3380TIP3    H110104   5.992   0.349   4.965
 3380TIP3    H210105   5.884   0.396   5.059
 3381TIP3   OH210106   1.492   1.322   1.315
 3381TIP3    H110107   1.526   1.403   1.354
 3381TIP3    H210108   1.569   1.278   1.280
 3382TIP3   OH210109   6.085   5.258   0.568
 3382TIP3    H110110   6.106   5.319   0.498
 3382TIP3    H210111   6.006   5.294   0.609
 3383TIP3   OH210112   3.719   5.025   3.056
 3383TIP3    H110113   3.769   5.059   3.131
 3383TIP3    H210114   3.672   5.101   3.023
 3384TIP3   OH210115   5.482   2.633   5.864
 3384TIP3    H110116   5.534   2.659   5.788
 3384TIP3    H210117   5.400   2.681   5.856
 3385TIP3   OH210118   0.639   2.804   1.075
 3385TIP3    H110119   0.671   2.872   1.015
 3385TIP3    H210120   0.590   2.744   1.020
 3386TIP3   OH210121   1.098   6.007   0.428
 3386TIP3    H110122   1.026   5.980   0.370
 3386TIP3    H210123   1.071   6.091   0.463
 3387TIP3   OH210124   5.129   1.694   0.062
 3387TIP3    H110125   5.035   1.680   0.051
 3387TIP3    H210126   5.138   1.789   0.074
 3388TIP3   OH210127   1.083   5.437   1.216
 3388TIP3    H110128   1.096   5.532   1.216
 3388TIP3    H210129   0.988   5.426   1.208
 3389TIP3   OH210130   1.278   4.670   1.039
 3389TIP3    H110131   1.294   4.758   1.071
 3389TIP3    H210132   1.239   4.624   1.114
 3390TIP3   OH210133   5.349   6.639   2.656
 3390TIP3    H110134   5.335   6.726   2.693
 3390TIP3    H210135   5.262   6.610   2.629
 3391TIP3   OH210136   3.578   4.759   5.363
 3391TIP3    H110137   3.662   4.798   5.388
 3391TIP3    H210138   3.534   4.741   5.446
 3392TIP3   OH210139   7.177   6.100   3.714
 3392TIP3    H110140   7.219   6.021   3.748
 3392TIP3    H210141   7.222   6.172   3.757
 3393TIP3   OH210142   0.743   2.729   5.198
 3393TIP3    H110143   0.755   2.705   5.106
 3393TIP3    H210144   0.681   2.802   5.196
 3394TIP3   OH210145   1.735   4.648   1.261
 3394TIP3    H110146   1.653   4.600   1.250
 3394TIP3    H210147   1.790   4.590   1.314
 3395TIP3   OH210148   3.285   2.936   2.681
 3395TIP3    H110149   3.226   3.003   2.646
 3395TIP3    H210150   3.260   2.928   2.773
 3396TIP3   OH210151   0.570   5.204   1.295
 3396TIP3    H110152   0.494   5.157   1.331
 3396TIP3    H210153   0.633   5.205   1.367
 3397TIP3   OH210154   2.354   4.678   1.643
 3397TIP3    H110155   2.447   4.654   1.641
 3397TIP3    H210156   2.353   4.768   1.677
 3398TIP3   OH210157   4.825   3.131   0.301
 3398TIP3    H110158   4.744   3.170   0.334
 3398TIP3    H210159   4.868   3.202   0.253
 3399TIP3   OH210160   2.797   3.540   0.965
 3399TIP3    H110161   2.868   3.604   0.960
 3399TIP3    H210162   2.841   3.455   0.956
 3400TIP3   OH210163   0.440   1.912   3.428
 3400TIP3    H110164   0.387   1.849   3.477
 3400TIP3    H210165   0.503   1.945   3.493
 3401TIP3   OH210166   2.235   2.925   3.514
 3401TIP3    H110167   2.233   2.833   3.486
 3401TIP3    H210168   2.192   2.973   3.444
 3402TIP3   OH210169   5.920   3.721   4.356
 3402TIP3    H110170   6.005   3.693   4.389
 3402TIP3    H210171   5.856   3.673   4.409
 3403TIP3   OH210172   0.772   1.801   3.615
 3403TIP3    H110173   0.723   1.720   3.632
 3403TIP3    H210174   0.823   1.816   3.695
 3404TIP3   OH210175   6.633   5.511   1.848
 3404TIP3    H110176   6.660   5.513   1.756
 3404TIP3    H210177   6.646   5.601   1.878
 3405TIP3   OH210178   6.144   0.187   2.290
 3405TIP3    H110179   6.217   0.238   2.326
 3405TIP3    H210180   6.135   0.217   2.200
 3406TIP3   OH210181   1.305   2.892   3.589
 3406TIP3    H110182   1.231   2.852   3.633
 3406TIP3    H210183   1.267   2.936   3.513
 3407TIP3   OH210184   4.891   5.373   2.944
 3407TIP3    H110185   4.898   5.287   2.985
 3407TIP3    H210186   4.893   5.354   2.850
 3408TIP3   OH210187   5.889   3.423   1.113
 3408TIP3    H110188   5.883   3.376   1.196
 3408TIP3    H210189   5.911   3.356   1.049
 3409TIP3   OH210190   3.797   6.281   1.920
 3409TIP3    H110191   3.736   6.223   1.964
 3409TIP3    H210192   3.748   6.315   1.845
 3410TIP3   OH210193   6.965   0.748   2.047
 3410TIP3    H110194   7.009   0.825   2.081
 3410TIP3    H210195   6.949   0.693   2.123
 3411TIP3   OH210196   5.628   6.122   3.266
 3411TIP3    H110197   5.558   6.185   3.248
 3411TIP3    H210198   5.632   6.067   3.188
 3412TIP3   OH210199   0.354   3.286   1.797
 3412TIP3    H110200   0.406   3.208   1.817
 3412TIP3    H210201   0.318   3.268   1.710
 3413TIP3   OH210202   2.562   0.232   0.681
 3413TIP3    H110203   2.511   0.282   0.745
 3413TIP3    H210204   2.636   0.199   0.731
 3414TIP3   OH210205   2.588   0.337   4.236
 3414TIP3    H110206   2.597   0.362   4.144
 3414TIP3    H210207   2.625   0.249   4.240
 3415TIP3   OH210208   0.405   1.717   3.659
 3415TIP3    H110209   0.410   1.759   3.745
 3415TIP3    H210210   0.385   1.626   3.677
 3416TIP3   OH210211   1.227   4.990   5.289
 3416TIP3    H110212   1.154   4.929   5.277
 3416TIP3    H210213   1.289   4.942   5.344
 3417TIP3   OH210214   3.742   2.548   4.374
 3417TIP3    H110215   3.743   2.636   4.412
 3417TIP3    H210216   3.758   2.562   4.281
 3418TIP3   OH210217   4.052   0.305   5.618
 3418TIP3    H110218   4.018   0.362   5.687
 3418TIP3    H210219   4.038   0.354   5.537
 3419TIP3   OH210220   5.223   1.882   2.852
 3419TIP3    H110221   5.134   1.869   2.885
 3419TIP3    H210222   5.270   1.919   2.927
 3420TIP3   OH210223   6.899   1.262   1.660
 3420TIP3    H110224   6.831   1.329   1.664
 3420TIP3    H210225   6.981   1.311   1.654
 3421TIP3   OH210226   1.078   6.598   3.954
 3421TIP3    H110227   0.993   6.556   3.939
 3421TIP3    H210228   1.074   6.679   3.905
 3422TIP3   OH210229   3.935   3.629   2.471
 3422TIP3    H110230   3.875   3.619   2.398
 3422TIP3    H210231   3.878   3.645   2.547
 3423TIP3   OH210232   7.002   6.300   0.662
 3423TIP3    H110233   6.934   6.233   0.657
 3423TIP3    H210234   7.037   6.292   0.751
 3424TIP3   OH210235   3.806   3.219   5.388
 3424TIP3    H110236   3.741   3.208   5.319
 3424TIP3    H210237   3.890   3.221   5.342
 3425TIP3   OH210238   4.543   5.108   0.420
 3425TIP3    H110239   4.613   5.145   0.367
 3425TIP3    H210240   4.486   5.064   0.356
 3426TIP3   OH210241   3.217   5.943   0.188
 3426TIP3    H110242   3.270   6.014   0.223
 3426TIP3    H210243   3.187   5.976   0.103
 3427TIP3   OH210244   5.096   5.774   3.928
 3427TIP3    H110245   5.167   5.794   3.866
 3427TIP3    H210246   5.059   5.860   3.950
 3428TIP3   OH210247   0.628   4.121   0.403
 3428TIP3    H110248   0.551   4.162   0.441
 3428TIP3    H210249   0.596   4.076   0.325
 3429TIP3   OH210250   1.337   3.460   0.850
 3429TIP3    H110251   1.252   3.499   0.833
 3429TIP3    H210252   1.317   3.379   0.897
 3430TIP3   OH210253   1.819   6.136   0.889
 3430TIP3    H110254   1.832   6.230   0.901
 3430TIP3    H210255   1.771   6.129   0.806
 3431TIP3   OH210256   2.931   3.488   0.540
 3431TIP3    H110257   2.905   3.577   0.517
 3431TIP3    H210258   2.853   3.449   0.577
 3432TIP3   OH210259   4.090   1.579   1.018
 3432TIP3    H110260   3.998   1.594   1.001
 3432TIP3    H210261   4.104   1.607   1.108
 3433TIP3   OH210262   3.172   1.551   3.274
 3433TIP3    H110263   3.103   1.487   3.257
 3433TIP3    H210264   3.254   1.503   3.263
 3434TIP3   OH210265   3.406   1.803   4.518
 3434TIP3    H110266   3.422   1.711   4.537
 3434TIP3    H210267   3.434   1.815   4.428
 3435TIP3   OH210268   4.213   1.319   1.293
 3435TIP3    H110269   4.236   1.318   1.386
 3435TIP3    H210270   4.189   1.410   1.275
 3436TIP3   OH210271   2.752   0.339   5.290
 3436TIP3    H110272   2.732   0.349   5.197
 3436TIP3    H210273   2.719   0.420   5.330
 3437TIP3   OH210274   5.803   5.291   0.345
 3437TIP3    H110275   5.826   5.306   0.254
 3437TIP3    H210276   5.748   5.365   0.369
 3438TIP3   OH210277   2.019   5.136   3.092
 3438TIP3    H110278   2.017   5.148   2.997
 3438TIP3    H210279   2.000   5.223   3.128
 3439TIP3   OH210280   1.226   1.686   2.180
 3439TIP3    H110281   1.183   1.709   2.262
 3439TIP3    H210282   1.185   1.741   2.114
 3440TIP3   OH210283   3.178   2.345   4.807
 3440TIP3    H110284   3.209   2.266   4.850
 3440TIP3    H210285   3.166   2.408   4.878
 3441TIP3   OH210286   1.329   5.883   5.792
 3441TIP3    H110287   1.291   5.801   5.824
 3441TIP3    H210288   1.403   5.899   5.850
 3442TIP3   OH210289   2.393   2.875   0.077
 3442TIP3    H110290   2.441   2.957   0.064
 3442TIP3    H210291   2.450   2.808   0.039
 3443TIP3   OH210292   4.596   1.506   0.143
 3443TIP3    H110293   4.547   1.588   0.139
 3443TIP3    H210294   4.553   1.455   0.211
 3444TIP3   OH210295   7.028   1.270   0.957
 3444TIP3    H110296   7.088   1.328   0.909
 3444TIP3    H210297   7.083   1.229   1.024
 3445TIP3   OH210298   1.965   6.270   1.999
 3445TIP3    H110299   1.918   6.343   2.039
 3445TIP3    H210300   1.901   6.200   1.993
 3446TIP3   OH210301   2.583   0.625   1.063
 3446TIP3    H110302   2.669   0.657   1.037
 3446TIP3    H210303   2.528   0.704   1.064
 3447TIP3   OH210304   0.588   0.628   4.410
 3447TIP3    H110305   0.561   0.607   4.321
 3447TIP3    H210306   0.671   0.675   4.399
 3448TIP3   OH210307   1.962   4.255   3.465
 3448TIP3    H110308   1.979   4.163   3.445
 3448TIP3    H210309   1.879   4.275   3.422
 3449TIP3   OH210310   6.172   0.408   4.814
 3449TIP3    H110311   6.150   0.388   4.905
 3449TIP3    H210312   6.091   0.394   4.765
 3450TIP3   OH210313   1.974   4.044   0.036
 3450TIP3    H110314   1.920   4.113  -0.002
 3450TIP3    H210315   1.917   4.001   0.100
 3451TIP3   OH210316   5.035   0.635   0.299
 3451TIP3    H110317   5.028   0.587   0.217
 3451TIP3    H210318   4.990   0.581   0.364
 3452TIP3   OH210319   0.826   4.547   2.576
 3452TIP3    H110320   0.840   4.621   2.635
 3452TIP3    H210321   0.736   4.520   2.593
 3453TIP3   OH210322   5.344   1.534   2.993
 3453TIP3    H110323   5.358   1.546   2.899
 3453TIP3    H210324   5.421   1.486   3.023
 3454TIP3   OH210325   3.223   3.920   4.973
 3454TIP3    H110326   3.172   3.920   4.892
 3454TIP3    H210327   3.249   4.011   4.985
 3455TIP3   OH210328   0.069   6.395   0.482
 3455TIP3    H110329   0.000   6.455   0.512
 3455TIP3    H210330   0.074   6.411   0.387
 3456TIP3   OH210331   4.542   2.608   5.880
 3456TIP3    H110332   4.458   2.619   5.925
 3456TIP3    H210333   4.549   2.684   5.823
 3457TIP3   OH210334   2.794   3.841   1.664
 3457TIP3    H110335   2.748   3.837   1.580
 3457TIP3    H210336   2.883   3.869   1.641
 3458TIP3   OH210337   3.782   2.638   4.816
 3458TIP3    H110338   3.836   2.697   4.762
 3458TIP3    H210339   3.841   2.565   4.838
 3459TIP3   OH210340   2.472   1.676   1.962
 3459TIP3    H110341   2.551   1.706   1.917
 3459TIP3    H210342   2.488   1.696   2.054
 3460TIP3   OH210343   7.117   4.513   5.629
 3460TIP3    H110344   7.174   4.589   5.616
 3460TIP3    H210345   7.058   4.540   5.699
 3461TIP3   OH210346   5.226   2.366   2.624
 3461TIP3    H110347   5.133   2.387   2.633
 3461TIP3    H210348   5.267   2.450   2.603
 3462TIP3   OH210349   4.671   0.417   5.537
 3462TIP3    H110350   4.717   0.350   5.487
 3462TIP3    H210351   4.623   0.467   5.472
 3463TIP3   OH210352   4.663   1.888   0.362
 3463TIP3    H110353   4.673   1.982   0.350
 3463TIP3    H210354   4.568   1.874   0.362
 3464TIP3   OH210355   1.675   4.815   4.316
 3464TIP3    H110356   1.643   4.851   4.233
 3464TIP3    H210357   1.614   4.744   4.337
 3465TIP3   OH210358   1.956   1.738   1.225
 3465TIP3    H110359   2.023   1.779   1.279
 3465TIP3    H210360   2.000   1.716   1.143
 3466TIP3   OH210361   4.186   3.779   4.872
 3466TIP3    H110362   4.119   3.848   4.873
 3466TIP3    H210363   4.263   3.820   4.910
 3467TIP3   OH210364   1.588   5.417   0.756
 3467TIP3    H110365   1.559   5.369   0.678
 3467TIP3    H210366   1.682   5.430   0.742
 3468TIP3   OH210367   4.331   6.707   5.242
 3468TIP3    H110368   4.286   6.637   5.195
 3468TIP3    H210369   4.385   6.749   5.176
 3469TIP3   OH210370   5.201   3.403   1.704
 3469TIP3    H110371   5.258   3.373   1.775
 3469TIP3    H210372   5.159   3.482   1.738
 3470TIP3   OH210373   3.014   5.533   3.443
 3470TIP3    H110374   2.957   5.570   3.375
 3470TIP3    H210375   3.060   5.609   3.479
 3471TIP3   OH210376   1.640   4.688   5.198
 3471TIP3    H110377   1.575   4.655   5.261
 3471TIP3    H210378   1.724   4.660   5.234
 3472TIP3   OH210379   0.057   1.521   2.545
 3472TIP3    H110380   0.150   1.509   2.565
 3472TIP3    H210381   0.052   1.522   2.450
 3473TIP3   OH210382   6.361   4.869   1.753
 3473TIP3    H110383   6.360   4.897   1.844
 3473TIP3    H210384   6.452   4.842   1.738
 3474TIP3   OH210385   0.758   1.927   2.920
 3474TIP3    H110386   0.784   1.850   2.972
 3474TIP3    H210387   0.689   1.894   2.862
 3475TIP3   OH210388   0.457   2.601   4.407
 3475TIP3    H110389   0.481   2.537   4.340
 3475TIP3    H210390   0.535   2.654   4.419
 3476TIP3   OH210391   1.235   1.631   0.831
 3476TIP3    H110392   1.142   1.642   0.855
 3476TIP3    H210393   1.282   1.637   0.914
 3477TIP3   OH210394   4.393   0.621   1.867
 3477TIP3    H110395   4.435   0.560   1.808
 3477TIP3    H210396   4.341   0.565   1.926
 3478TIP3   OH210397   6.379   3.084   3.741
 3478TIP3    H110398   6.315   3.056   3.676
 3478TIP3    H210399   6.459   3.037   3.717
 3479TIP3   OH210400   4.163   3.669   2.247
 3479TIP3    H110401   4.214   3.634   2.320
 3479TIP3    H210402   4.095   3.604   2.232
 3480TIP3   OH210403   7.010   5.517   1.953
 3480TIP3    H110404   7.078   5.583   1.970
 3480TIP3    H210405   6.930   5.568   1.943
 3481TIP3   OH210406   7.123   6.554   3.771
 3481TIP3    H110407   7.042   6.536   3.819
 3481TIP3    H210408   7.137   6.648   3.782
 3482TIP3   OH210409   2.760   4.126   1.463
 3482TIP3    H110410   2.718   4.134   1.378
 3482TIP3    H210411   2.705   4.178   1.522
 3483TIP3   OH210412   1.339   1.990   1.215
 3483TIP3    H110413   1.422   2.038   1.221
 3483TIP3    H210414   1.274   2.051   1.250
 3484TIP3   OH210415   0.319   5.830   1.707
 3484TIP3    H110416   0.349   5.741   1.691
 3484TIP3    H210417   0.376   5.885   1.653
 3485TIP3   OH210418   6.500   3.528   2.546
 3485TIP3    H110419   6.480   3.599   2.607
 3485TIP3    H210420   6.510   3.572   2.461
 3486TIP3   OH210421   2.101   4.611   0.220
 3486TIP3    H110422   2.133   4.522   0.208
 3486TIP3    H210423   2.174   4.667   0.194
 3487TIP3   OH210424   3.393   2.261   4.153
 3487TIP3    H110425   3.381   2.168   4.173
 3487TIP3    H210426   3.453   2.292   4.221
 3488TIP3   OH210427   5.560   2.537   3.295
 3488TIP3    H110428   5.504   2.518   3.219
 3488TIP3    H210429   5.642   2.567   3.257
 3489TIP3   OH210430   5.523   4.552   2.357
 3489TIP3    H110431   5.427   4.549   2.360
 3489TIP3    H210432   5.551   4.516   2.441
 3490TIP3   OH210433   3.155   2.390   1.908
 3490TIP3    H110434   3.246   2.411   1.928
 3490TIP3    H210435   3.141   2.425   1.820
 3491TIP3   OH210436   3.227   2.254   5.764
 3491TIP3    H110437   3.271   2.328   5.805
 3491TIP3    H210438   3.292   2.218   5.703
 3492TIP3   OH210439   1.871   1.799   5.609
 3492TIP3    H110440   1.803   1.846   5.656
 3492TIP3    H210441   1.919   1.751   5.676
 3493TIP3   OH210442   3.231   5.377   4.477
 3493TIP3    H110443   3.173   5.352   4.550
 3493TIP3    H210444   3.181   5.355   4.398
 3494TIP3   OH210445   4.150   3.359   0.313
 3494TIP3    H110446   4.134   3.371   0.219
 3494TIP3    H210447   4.159   3.265   0.324
 3495TIP3   OH210448   0.737   5.943   4.784
 3495TIP3    H110449   0.739   5.944   4.688
 3495TIP3    H210450   0.644   5.950   4.807
 3496TIP3   OH210451   6.905   1.559   5.762
 3496TIP3    H110452   6.828   1.567   5.705
 3496TIP3    H210453   6.979   1.562   5.701
 3497TIP3   OH210454   5.631   2.811   0.834
 3497TIP3    H110455   5.640   2.718   0.856
 3497TIP3    H210456   5.573   2.846   0.902
 3498TIP3   OH210457   6.275   4.583   2.432
 3498TIP3    H110458   6.206   4.628   2.482
 3498TIP3    H210459   6.312   4.651   2.376
 3499TIP3   OH210460   3.614   3.045   0.972
 3499TIP3    H110461   3.700   3.043   0.930
 3499TIP3    H210462   3.602   2.957   1.006
 3500TIP3   OH210463   6.069   0.798   5.179
 3500TIP3    H110464   6.028   0.736   5.239
 3500TIP3    H210465   5.997   0.855   5.151
 3501TIP3   OH210466   3.376   6.147   0.259
 3501TIP3    H110467   3.312   6.202   0.305
 3501TIP3    H210468   3.434   6.208   0.214
 3502TIP3   OH210469   0.683   0.203   4.516
 3502TIP3    H110470   0.602   0.235   4.475
 3502TIP3    H210471   0.734   0.168   4.443
 3503TIP3   OH210472   4.328   3.029   1.585
 3503TIP3    H110473   4.421   3.036   1.608
 3503TIP3    H210474   4.291   3.113   1.611
 3504TIP3   OH210475   1.465   0.823   3.888
 3504TIP3    H110476   1.549   0.783   3.862
 3504TIP3    H210477   1.449   0.789   3.976
 3505TIP3   OH210478   5.684   6.701   4.393
 3505TIP3    H110479   5.616   6.680   4.329
 3505TIP3    H210480   5.721   6.783   4.362
 3506TIP3   OH210481   1.924   6.228   2.544
 3506TIP3    H110482   1.851   6.214   2.483
 3506TIP3    H210483   2.001   6.201   2.494
 3507TIP3   OH210484   0.419   4.534   5.320
 3507TIP3    H110485   0.415   4.557   5.227
 3507TIP3    H210486   0.478   4.598   5.359
 3508TIP3   OH210487   5.926   5.824   3.921
 3508TIP3    H110488   5.917   5.816   4.016
 3508TIP3    H210489   5.968   5.743   3.893
 3509TIP3   OH210490   4.721   3.301   4.556
 3509TIP3    H110491   4.805   3.258   4.542
 3509TIP3    H210492   4.697   3.278   4.646
 3510TIP3   OH210493   3.423   3.453   3.025
 3510TIP3    H110494   3.466   3.384   3.076
 3510TIP3    H210495   3.341   3.470   3.072
 3511TIP3   OH210496   6.013   5.305   2.438
 3511TIP3    H110497   5.938   5.351   2.476
 3511TIP3    H210498   6.079   5.307   2.507
 3512TIP3   OH210499   6.672   5.356   0.594
 3512TIP3    H110500   6.658   5.266   0.564
 3512TIP3    H210501   6.730   5.394   0.528
 3513TIP3   OH210502   4.061   2.222   3.821
 3513TIP3    H110503   4.141   2.215   3.872
 3513TIP3    H210504   4.069   2.305   3.774
 3514TIP3   OH210505   3.402   2.586   3.455
 3514TIP3    H110506   3.379   2.540   3.535
 3514TIP3    H210507   3.338   2.656   3.448
 3515TIP3   OH210508   0.543   6.562   1.263
 3515TIP3    H110509   0.548   6.478   1.309
 3515TIP3    H210510   0.614   6.557   1.199
 3516TIP3   OH210511   6.666   3.709   3.225
 3516TIP3    H110512   6.729   3.659   3.275
 3516TIP3    H210513   6.683   3.686   3.133
 3517TIP3   OH210514   3.553   0.736   4.988
 3517TIP3    H110515   3.637   0.780   5.001
 3517TIP3    H210516   3.563   0.652   5.033
 3518TIP3   OH210517   3.484   3.872   5.676
 3518TIP3    H110518   3.488   3.816   5.598
 3518TIP3    H210519   3.569   3.917   5.676
 3519TIP3   OH210520   5.791   6.518   0.928
 3519TIP3    H110521   5.795   6.437   0.979
 3519TIP3    H210522   5.699   6.545   0.933
 3520TIP3   OH210523   2.939   6.209   1.625
 3520TIP3    H110524   2.860   6.209   1.570
 3520TIP3    H210525   2.977   6.122   1.611
 3521TIP3   OH210526   5.889   0.083   2.287
 3521TIP3    H110527   5.902  -0.011   2.303
 3521TIP3    H210528   5.976   0.121   2.293
 3522TIP3   OH210529   6.526   3.436   2.922
 3522TIP3    H110530   6.450   3.465   2.972
 3522TIP3    H210531   6.600   3.444   2.983
 3523TIP3   OH210532   2.605   6.469   1.397
 3523TIP3    H110533   2.631   6.500   1.311
 3523TIP3    H210534   2.655   6.389   1.410
 3524TIP3   OH210535   6.848   5.052   4.491
 3524TIP3    H110536   6.899   5.133   4.492
 3524TIP3    H210537   6.864   5.014   4.405
 3525TIP3   OH210538   3.727   3.784   4.394
 3525TIP3    H110539   3.806   3.818   4.353
 3525TIP3    H210540   3.738   3.802   4.488
 3526TIP3   OH210541   4.530   1.600   5.543
 3526TIP3    H110542   4.513   1.564   5.630
 3526TIP3    H210543   4.621   1.630   5.546
 3527TIP3   OH210544   5.743   2.965   4.478
 3527TIP3    H110545   5.682   2.909   4.525
 3527TIP3    H210546   5.819   2.909   4.461
 3528TIP3   OH210547   3.089   1.156   2.480
 3528TIP3    H110548   3.150   1.180   2.410
 3528TIP3    H210549   3.096   1.227   2.544
 3529TIP3   OH210550   5.843   0.800   5.512
 3529TIP3    H110551   5.873   0.720   5.469
 3529TIP3    H210552   5.811   0.771   5.597
 3530TIP3   OH210553   7.092   2.827   3.079
 3530TIP3    H110554   7.062   2.915   3.101
 3530TIP3    H210555   7.048   2.806   2.997
 3531TIP3   OH210556   3.037   5.181   3.997
 3531TIP3    H110557   2.996   5.106   3.954
 3531TIP3    H210558   2.964   5.232   4.031
 3532TIP3   OH210559   2.037   0.386   0.829
 3532TIP3    H110560   2.061   0.458   0.771
 3532TIP3    H210561   1.941   0.379   0.821
 3533TIP3   OH210562   3.441   3.878   4.443
 3533TIP3    H110563   3.380   3.872   4.370
 3533TIP3    H210564   3.527   3.859   4.405
 3534TIP3   OH210565   5.575   2.735   0.430
 3534TIP3    H110566   5.512   2.798   0.395
 3534TIP3    H210567   5.617   2.697   0.354
 3535TIP3   OH210568   2.508   2.527   2.347
 3535TIP3    H110569   2.550   2.485   2.422
 3535TIP3    H210570   2.455   2.597   2.385
 3536TIP3   OH210571   6.867   4.379   4.671
 3536TIP3    H110572   6.950   4.375   4.622
 3536TIP3    H210573   6.884   4.330   4.751
 3537TIP3   OH210574   5.200   0.500   1.043
 3537TIP3    H110575   5.251   0.553   1.105
 3537TIP3    H210576   5.115   0.543   1.038
 3538TIP3   OH210577   1.624   0.231   0.405
 3538TIP3    H110578   1.576   0.176   0.468
 3538TIP3    H210579   1.714   0.229   0.435
 3539TIP3   OH210580   6.435   6.574   2.169
 3539TIP3    H110581   6.441   6.523   2.088
 3539TIP3    H210582   6.370   6.528   2.221
 3540TIP3   OH210583   0.319   5.413   4.967
 3540TIP3    H110584   0.372   5.449   4.895
 3540TIP3    H210585   0.254   5.481   4.985
 3541TIP3   OH210586   6.570   1.728   1.072
 3541TIP3    H110587   6.578   1.696   1.162
 3541TIP3    H210588   6.496   1.789   1.075
 3542TIP3   OH210589   0.457   5.620   3.934
 3542TIP3    H110590   0.473   5.547   3.875
 3542TIP3    H210591   0.540   5.633   3.980
 3543TIP3   OH210592   3.882   3.838   2.181
 3543TIP3    H110593   3.952   3.846   2.117
 3543TIP3    H210594   3.847   3.750   2.167
 3544TIP3   OH210595   2.316   5.917   0.932
 3544TIP3    H110596   2.366   5.860   0.873
 3544TIP3    H210597   2.380   5.947   0.996
 3545TIP3   OH210598   1.648   0.473   1.320
 3545TIP3    H110599   1.596   0.394   1.310
 3545TIP3    H210600   1.730   0.444   1.360
 3546TIP3   OH210601   7.170   2.171   5.244
 3546TIP3    H110602   7.150   2.262   5.221
 3546TIP3    H210603   7.219   2.176   5.326
 3547TIP3   OH210604   1.614   5.908   1.873
 3547TIP3    H110605   1.680   5.888   1.940
 3547TIP3    H210606   1.665   5.933   1.796
 3548TIP3   OH210607   2.471   6.694   0.478
 3548TIP3    H110608   2.462   6.735   0.564
 3548TIP3    H210609   2.446   6.603   0.492
 3549TIP3   OH210610   1.210   2.978   2.287
 3549TIP3    H110611   1.290   2.930   2.264
 3549TIP3    H210612   1.241   3.066   2.310
 3550TIP3   OH210613   1.789   6.435   2.129
 3550TIP3    H110614   1.822   6.500   2.191
 3550TIP3    H210615   1.728   6.483   2.074
 3551TIP3   OH210616   0.092   6.243   5.072
 3551TIP3    H110617   0.070   6.253   4.979
 3551TIP3    H210618   0.184   6.218   5.072
 3552TIP3   OH210619   4.079   5.341   2.689
 3552TIP3    H110620   4.096   5.378   2.776
 3552TIP3    H210621   4.111   5.408   2.628
 3553TIP3   OH210622   5.827   2.074   4.512
 3553TIP3    H110623   5.836   2.026   4.594
 3553TIP3    H210624   5.912   2.115   4.498
 3554TIP3   OH210625   7.106   2.266   3.355
 3554TIP3    H110626   7.115   2.182   3.399
 3554TIP3    H210627   7.049   2.318   3.411
 3555TIP3   OH210628   5.382   6.110   2.311
 3555TIP3    H110629   5.309   6.116   2.249
 3555TIP3    H210630   5.460   6.123   2.257
 3556TIP3   OH210631   4.532   1.302   1.769
 3556TIP3    H110632   4.536   1.219   1.721
 3556TIP3    H210633   4.524   1.369   1.701
 3557TIP3   OH210634   2.406   2.589   1.346
 3557TIP3    H110635   2.437   2.501   1.367
 3557TIP3    H210636   2.481   2.633   1.306
 3558TIP3   OH210637   5.126   4.971   3.811
 3558TIP3    H110638   5.178   4.899   3.776
 3558TIP3    H210639   5.189   5.023   3.863
 3559TIP3   OH210640   6.503   5.248   1.594
 3559TIP3    H110641   6.536   5.160   1.572
 3559TIP3    H210642   6.505   5.295   1.511
 3560TIP3   OH210643   7.083   0.170   2.390
 3560TIP3    H110644   7.078   0.097   2.328
 3560TIP3    H210645   7.160   0.219   2.363
 3561TIP3   OH210646   0.521   3.922   1.787
 3561TIP3    H110647   0.503   3.915   1.881
 3561TIP3    H210648   0.600   3.871   1.774
 3562TIP3   OH210649   7.162   4.578   0.957
 3562TIP3    H110650   7.104   4.653   0.976
 3562TIP3    H210651   7.232   4.586   1.021
 3563TIP3   OH210652   7.145   2.226   1.135
 3563TIP3    H110653   7.142   2.273   1.052
 3563TIP3    H210654   7.223   2.260   1.179
 3564TIP3   OH210655   6.071   1.336   0.739
 3564TIP3    H110656   6.126   1.311   0.813
 3564TIP3    H210657   6.020   1.257   0.719
 3565TIP3   OH210658   1.144   0.448   4.251
 3565TIP3    H110659   1.166   0.528   4.299
 3565TIP3    H210660   1.064   0.470   4.203
 3566TIP3   OH210661   4.798   3.951   3.999
 3566TIP3    H110662   4.797   3.901   3.918
 3566TIP3    H210663   4.706   3.956   4.026
 3567TIP3   OH210664   1.534   3.312   0.348
 3567TIP3    H110665   1.503   3.361   0.425
 3567TIP3    H210666   1.457   3.306   0.291
 3568TIP3   OH210667   3.667   2.758   0.828
 3568TIP3    H110668   3.590   2.799   0.788
 3568TIP3    H210669   3.726   2.742   0.754
 3569TIP3   OH210670   2.104   1.474   0.960
 3569TIP3    H110671   2.012   1.451   0.969
 3569TIP3    H210672   2.107   1.568   0.982
 3570TIP3   OH210673   1.702   2.494   2.960
 3570TIP3    H110674   1.748   2.423   2.915
 3570TIP3    H210675   1.704   2.469   3.052
 3571TIP3   OH210676   3.145   0.471   1.240
 3571TIP3    H110677   3.114   0.498   1.153
 3571TIP3    H210678   3.241   0.476   1.233
 3572TIP3   OH210679   2.328   1.119   0.663
 3572TIP3    H110680   2.310   1.210   0.684
 3572TIP3    H210681   2.323   1.114   0.568
 3573TIP3   OH210682   3.611   6.680   2.046
 3573TIP3    H110683   3.587   6.632   1.968
 3573TIP3    H210684   3.552   6.755   2.048
 3574TIP3   OH210685   5.145   5.002   3.183
 3574TIP3    H110686   5.218   4.940   3.179
 3574TIP3    H210687   5.102   4.984   3.266
 3575TIP3   OH210688   0.496   3.406   5.631
 3575TIP3    H110689   0.475   3.313   5.633
 3575TIP3    H210690   0.467   3.436   5.545
 3576TIP3   OH210691   0.663   5.614   3.158
 3576TIP3    H110692   0.569   5.629   3.152
 3576TIP3    H210693   0.690   5.666   3.234
 3577TIP3   OH210694   6.927   0.946   4.179
 3577TIP3    H110695   6.859   0.986   4.233
 3577TIP3    H210696   6.934   1.003   4.102
 3578TIP3   OH210697   3.587   6.238   3.439
 3578TIP3    H110698   3.576   6.288   3.358
 3578TIP3    H210699   3.585   6.146   3.411
 3579TIP3   OH210700   5.659   2.868   1.710
 3579TIP3    H110701   5.569   2.862   1.676
 3579TIP3    H210702   5.665   2.797   1.774
 3580TIP3   OH210703   1.035   4.616   0.885
 3580TIP3    H110704   0.958   4.662   0.850
 3580TIP3    H210705   1.063   4.671   0.958
 3581TIP3   OH210706   4.005   5.360   5.624
 3581TIP3    H110707   4.088   5.314   5.625
 3581TIP3    H210708   3.983   5.373   5.716
 3582TIP3   OH210709   7.173   5.707   2.118
 3582TIP3    H110710   7.215   5.624   2.139
 3582TIP3    H210711   7.094   5.708   2.171
 3583TIP3   OH210712   0.096   0.887   1.308
 3583TIP3    H110713   0.014   0.865   1.352
 3583TIP3    H210714   0.083   0.857   1.218
 3584TIP3   OH210715   6.384   2.985   5.757
 3584TIP3    H110716   6.397   3.010   5.848
 3584TIP3    H210717   6.468   2.950   5.729
 3585TIP3   OH210718   6.419   2.530   5.073
 3585TIP3    H110719   6.474   2.512   5.149
 3585TIP3    H210720   6.393   2.622   5.083
 3586TIP3   OH210721   5.742   1.799   3.078
 3586TIP3    H110722   5.764   1.884   3.117
 3586TIP3    H210723   5.649   1.789   3.094
 3587TIP3   OH210724   1.982   2.687   0.071
 3587TIP3    H110725   1.894   2.706   0.103
 3587TIP3    H210726   2.040   2.730   0.133
 3588TIP3   OH210727   3.569   4.764   3.568
 3588TIP3    H110728   3.500   4.791   3.507
 3588TIP3    H210729   3.650   4.777   3.519
 3589TIP3   OH210730   1.789   0.113   1.313
 3589TIP3    H110731   1.882   0.100   1.296
 3589TIP3    H210732   1.775   0.076   1.400
 3590TIP3   OH210733   3.613   3.337   4.929
 3590TIP3    H110734   3.695   3.314   4.885
 3590TIP3    H210735   3.544   3.299   4.874
 3591TIP3   OH210736   0.134   1.998   0.093
 3591TIP3    H110737   0.184   2.041   0.162
 3591TIP3    H210738   0.157   1.905   0.101
 3592TIP3   OH210739   0.838   1.773   2.027
 3592TIP3    H110740   0.907   1.832   2.056
 3592TIP3    H210741   0.778   1.829   1.977
 3593TIP3   OH210742   2.163   2.724   2.257
 3593TIP3    H110743   2.112   2.803   2.238
 3593TIP3    H210744   2.217   2.748   2.332
 3594TIP3   OH210745   0.520   0.226   0.426
 3594TIP3    H110746   0.612   0.202   0.425
 3594TIP3    H210747   0.473   0.144   0.409
 3595TIP3   OH210748   6.739   2.569   3.584
 3595TIP3    H110749   6.710   2.488   3.627
 3595TIP3    H210750   6.704   2.639   3.640
 3596TIP3   OH210751   2.898   2.763   1.831
 3596TIP3    H110752   2.967   2.736   1.771
 3596TIP3    H210753   2.823   2.709   1.807
 3597TIP3   OH210754   1.860   0.577   2.420
 3597TIP3    H110755   1.857   0.483   2.403
 3597TIP3    H210756   1.883   0.584   2.512
 3598TIP3   OH210757   3.831   1.647   2.548
 3598TIP3    H110758   3.840   1.654   2.643
 3598TIP3    H210759   3.794   1.560   2.534
 3599TIP3   OH210760   2.408   0.441   0.825
 3599TIP3    H110761   2.358   0.522   0.823
 3599TIP3    H210762   2.469   0.453   0.898
 3600TIP3   OH210763   1.785   2.877   0.909
 3600TIP3    H110764   1.844   2.950   0.932
 3600TIP3    H210765   1.720   2.876   0.979
 3601TIP3   OH210766   1.320   2.438   4.604
 3601TIP3    H110767   1.352   2.408   4.689
 3601TIP3    H210768   1.390   2.493   4.569
 3602TIP3   OH210769   1.515   4.382   0.989
 3602TIP3    H110770   1.485   4.416   1.073
 3602TIP3    H210771   1.483   4.445   0.925
 3603TIP3   OH210772   5.685   6.354   4.555
 3603TIP3    H110773   5.617   6.383   4.494
 3603TIP3    H210774   5.711   6.434   4.601
 3604TIP3   OH210775   0.577   4.783   4.434
 3604TIP3    H110776   0.587   4.870   4.472
 3604TIP3    H210777   0.483   4.774   4.419
 3605TIP3   OH210778   3.902  -0.018   5.431
 3605TIP3    H110779   3.837   0.050   5.419
 3605TIP3    H210780   3.956   0.013   5.504
 3606TIP3   OH210781   0.392   3.078   0.141
 3606TIP3    H110782   0.460   3.012   0.130
 3606TIP3    H210783   0.381   3.116   0.053
 3607TIP3   OH210784   3.427   0.210   0.254
 3607TIP3    H110785   3.487   0.142   0.286
 3607TIP3    H210786   3.410   0.186   0.163
 3608TIP3   OH210787   0.581   6.803   4.335
 3608TIP3    H110788   0.618   6.792   4.423
 3608TIP3    H210789   0.558   6.714   4.308
 3609TIP3   OH210790   5.158   4.152   1.937
 3609TIP3    H110791   5.185   4.179   1.850
 3609TIP3    H210792   5.198   4.215   1.996
 3610TIP3   OH210793   1.884   2.712   3.979
 3610TIP3    H110794   1.862   2.742   4.068
 3610TIP3    H210795   1.799   2.708   3.934
 3611TIP3   OH210796   2.873   4.164   5.853
 3611TIP3    H110797   2.817   4.090   5.829
 3611TIP3    H210798   2.919   4.187   5.772
 3612TIP3   OH210799   6.164   2.852   3.698
 3612TIP3    H110800   6.182   2.856   3.792
 3612TIP3    H210801   6.236   2.799   3.662
 3613TIP3   OH210802   5.530   2.435   0.242
 3613TIP3    H110803   5.507   2.381   0.318
 3613TIP3    H210804   5.606   2.486   0.272
 3614TIP3   OH210805   2.286   4.165   1.898
 3614TIP3    H110806   2.310   4.208   1.981
 3614TIP3    H210807   2.191   4.175   1.892
 3615TIP3   OH210808   5.097   5.958   5.645
 3615TIP3    H110809   5.132   5.913   5.568
 3615TIP3    H210810   5.092   5.890   5.712
 3616TIP3   OH210811   1.547   0.119   0.855
 3616TIP3    H110812   1.546   0.031   0.893
 3616TIP3    H210813   1.471   0.162   0.894
 3617TIP3   OH210814   7.124   1.947   3.174
 3617TIP3    H110815   7.220   1.948   3.173
 3617TIP3    H210816   7.101   1.861   3.207
 3618TIP3   OH210817   2.369   3.954   5.320
 3618TIP3    H110818   2.377   4.049   5.318
 3618TIP3    H210819   2.416   3.929   5.400
 3619TIP3   OH210820   6.035   1.443   1.509
 3619TIP3    H110821   6.053   1.521   1.457
 3619TIP3    H210822   5.940   1.444   1.522
 3620TIP3   OH210823   4.185   0.337   1.124
 3620TIP3    H110824   4.114   0.391   1.158
 3620TIP3    H210825   4.143   0.256   1.095
 3621TIP3   OH210826   6.777   5.823   1.059
 3621TIP3    H110827   6.751   5.751   1.117
 3621TIP3    H210828   6.744   5.797   0.973
 3622TIP3   OH210829   6.171   6.736   2.247
 3622TIP3    H110830   6.243   6.695   2.199
 3622TIP3    H210831   6.104   6.668   2.253
 3623TIP3   OH210832   5.357   3.419   5.632
 3623TIP3    H110833   5.408   3.411   5.551
 3623TIP3    H210834   5.347   3.329   5.663
 3624TIP3   OH210835   1.958   0.937   2.480
 3624TIP3    H110836   2.000   1.023   2.481
 3624TIP3    H210837   1.956   0.910   2.572
 3625TIP3   OH210838   4.227   0.907   5.075
 3625TIP3    H110839   4.295   0.952   5.124
 3625TIP3    H210840   4.191   0.843   5.138
 3626TIP3   OH210841   6.252   1.295   3.594
 3626TIP3    H110842   6.265   1.366   3.531
 3626TIP3    H210843   6.330   1.298   3.650
 3627TIP3   OH210844   1.920   2.720   2.763
 3627TIP3    H110845   1.889   2.706   2.673
 3627TIP3    H210846   2.001   2.670   2.768
 3628TIP3   OH210847   6.471   5.787   3.124
 3628TIP3    H110848   6.546   5.737   3.156
 3628TIP3    H210849   6.503   5.878   3.122
 3629TIP3   OH210850   5.610   3.734   2.668
 3629TIP3    H110851   5.660   3.790   2.727
 3629TIP3    H210852   5.676   3.691   2.614
 3630TIP3   OH210853   3.339   3.994   1.808
 3630TIP3    H110854   3.370   3.983   1.718
 3630TIP3    H210855   3.268   4.059   1.801
 3631TIP3   OH210856   6.165   6.545   2.583
 3631TIP3    H110857   6.125   6.503   2.659
 3631TIP3    H210858   6.110   6.517   2.509
 3632TIP3   OH210859   5.039   5.409   5.870
 3632TIP3    H110860   5.098   5.394   5.797
 3632TIP3    H210861   5.096   5.413   5.947
 3633TIP3   OH210862   1.561   5.547   5.063
 3633TIP3    H110863   1.494   5.480   5.047
 3633TIP3    H210864   1.589   5.533   5.153
 3634TIP3   OH210865   2.627   3.055   1.123
 3634TIP3    H110866   2.608   2.996   1.195
 3634TIP3    H210867   2.720   3.041   1.104
 3635TIP3   OH210868   6.618   1.349   4.578
 3635TIP3    H110869   6.562   1.278   4.549
 3635TIP3    H210870   6.584   1.427   4.534
 3636TIP3   OH210871   6.862   3.952   1.036
 3636TIP3    H110872   6.786   3.991   1.079
 3636TIP3    H210873   6.895   3.888   1.098
 3637TIP3   OH210874   5.989   5.914   2.573
 3637TIP3    H110875   5.925   5.925   2.502
 3637TIP3    H210876   5.943   5.943   2.652
 3638TIP3   OH210877   3.235   2.274   0.667
 3638TIP3    H110878   3.156   2.317   0.633
 3638TIP3    H210879   3.206   2.184   0.683
 3639TIP3   OH210880   6.210   1.443   4.493
 3639TIP3    H110881   6.127   1.410   4.526
 3639TIP3    H210882   6.271   1.430   4.566
 3640TIP3   OH210883   0.761   2.232   0.963
 3640TIP3    H110884   0.844   2.191   0.937
 3640TIP3    H210885   0.697   2.161   0.959
 3641TIP3   OH210886   4.938  -0.002   3.311
 3641TIP3    H110887   4.860   0.044   3.281
 3641TIP3    H210888   4.992  -0.011   3.232
 3642TIP3   OH210889   5.753   6.579   2.422
 3642TIP3    H110890   5.719   6.531   2.346
 3642TIP3    H210891   5.681   6.578   2.485
 3643TIP3   OH210892   5.747   4.082   0.327
 3643TIP3    H110893   5.697   4.033   0.262
 3643TIP3    H210894   5.682   4.134   0.374
 3644TIP3   OH210895   3.858   6.390   2.195
 3644TIP3    H110896   3.827   6.368   2.107
 3644TIP3    H210897   3.841   6.484   2.203
 3645TIP3   OH210898   0.205   6.029   5.893
 3645TIP3    H110899   0.246   6.068   5.816
 3645TIP3    H210900   0.274   5.976   5.932
 3646TIP3   OH210901   5.898   1.698   0.828
 3646TIP3    H110902   5.828   1.646   0.867
 3646TIP3    H210903   5.962   1.709   0.898
 3647TIP3   OH210904   5.623   4.478   0.503
 3647TIP3    H110905   5.618   4.538   0.429
 3647TIP3    H210906   5.717   4.464   0.516
 3648TIP3   OH210907   5.250   1.439   4.047
 3648TIP3    H110908   5.345   1.429   4.053
 3648TIP3    H210909   5.216   1.350   4.042
 3649TIP3   OH210910   6.149   4.166   1.372
 3649TIP3    H110911   6.121   4.094   1.317
 3649TIP3    H210912   6.127   4.245   1.323
 3650TIP3   OH210913   4.357   4.942   4.734
 3650TIP3    H110914   4.265   4.922   4.750
 3650TIP3    H210915   4.397   4.939   4.821
 3651TIP3   OH210916   6.758   5.215   3.166
 3651TIP3    H110917   6.665   5.240   3.170
 3651TIP3    H210918   6.757   5.120   3.182
 3652TIP3   OH210919   2.418   1.093   3.135
 3652TIP3    H110920   2.503   1.049   3.131
 3652TIP3    H210921   2.430   1.171   3.080
 3653TIP3   OH210922   6.356   3.906   0.651
 3653TIP3    H110923   6.383   3.855   0.575
 3653TIP3    H210924   6.396   3.992   0.638
 3654TIP3   OH210925   1.542   2.501   2.703
 3654TIP3    H110926   1.596   2.466   2.774
 3654TIP3    H210927   1.566   2.447   2.627
 3655TIP3   OH210928   6.358   5.193   3.495
 3655TIP3    H110929   6.393   5.182   3.407
 3655TIP3    H210930   6.410   5.264   3.533
 3656TIP3   OH210931   0.024   0.514   1.129
 3656TIP3    H110932   0.001   0.522   1.222
 3656TIP3    H210933   0.026   0.605   1.098
 3657TIP3   OH210934   2.908   5.671   2.553
 3657TIP3    H110935   2.984   5.664   2.611
 3657TIP3    H210936   2.892   5.765   2.545
 3658TIP3   OH210937   6.086   1.560   4.959
 3658TIP3    H110938   6.074   1.597   4.872
 3658TIP3    H210939   6.181   1.552   4.968
 3659TIP3   OH210940   6.153   4.473   5.082
 3659TIP3    H110941   6.146   4.410   5.011
 3659TIP3    H210942   6.245   4.469   5.109
 3660TIP3   OH210943   7.148   6.163   4.169
 3660TIP3    H110944   7.069   6.142   4.120
 3660TIP3    H210945   7.140   6.114   4.251
 3661TIP3   OH210946   3.593   5.693   4.359
 3661TIP3    H110947   3.628   5.763   4.414
 3661TIP3    H210948   3.572   5.623   4.421
 3662TIP3   OH210949   5.292   1.152   0.583
 3662TIP3    H110950   5.309   1.245   0.564
 3662TIP3    H210951   5.211   1.133   0.537
 3663TIP3   OH210952   7.139   1.634   1.009
 3663TIP3    H110953   7.058   1.600   1.046
 3663TIP3    H210954   7.203   1.564   1.023
 3664TIP3   OH210955   0.811   6.556   3.895
 3664TIP3    H110956   0.756   6.503   3.954
 3664TIP3    H210957   0.790   6.646   3.918
 3665TIP3   OH210958   5.977   2.164   1.755
 3665TIP3    H110959   5.924   2.196   1.682
 3665TIP3    H210960   6.067   2.173   1.725
 3666TIP3   OH210961   2.066   3.994   2.532
 3666TIP3    H110962   2.159   3.971   2.533
 3666TIP3    H210963   2.031   3.957   2.613
 3667TIP3   OH210964   6.585   5.224   3.722
 3667TIP3    H110965   6.666   5.224   3.772
 3667TIP3    H210966   6.612   5.246   3.633
 3668TIP3   OH210967   4.305   2.459   0.828
 3668TIP3    H110968   4.321   2.365   0.831
 3668TIP3    H210969   4.289   2.484   0.919
 3669TIP3   OH210970   4.990   2.496   0.964
 3669TIP3    H110971   4.902   2.522   0.991
 3669TIP3    H210972   4.976   2.446   0.883
 3670TIP3   OH210973   4.479   4.041   5.787
 3670TIP3    H110974   4.565   4.039   5.829
 3670TIP3    H210975   4.467   4.132   5.762
 3671TIP3   OH210976   5.085   1.148   2.629
 3671TIP3    H110977   5.165   1.169   2.579
 3671TIP3    H210978   5.014   1.176   2.572
 3672TIP3   OH210979   1.772   4.810   0.945
 3672TIP3    H110980   1.797   4.788   1.035
 3672TIP3    H210981   1.746   4.727   0.906
 3673TIP3   OH210982   1.943   1.761   5.327
 3673TIP3    H110983   1.878   1.828   5.346
 3673TIP3    H210984   1.919   1.687   5.384
 3674TIP3   OH210985   4.085   2.586   1.056
 3674TIP3    H110986   4.056   2.672   1.089
 3674TIP3    H210987   4.011   2.528   1.074
 3675TIP3   OH210988   5.233   1.622   4.711
 3675TIP3    H110989   5.155   1.569   4.695
 3675TIP3    H210990   5.222   1.699   4.654
 3676TIP3   OH210991   2.279   0.416   2.745
 3676TIP3    H110992   2.255   0.326   2.725
 3676TIP3    H210993   2.250   0.429   2.836
 3677TIP3   OH210994   1.704   5.844   0.289
 3677TIP3    H110995   1.711   5.935   0.258
 3677TIP3    H210996   1.617   5.816   0.259
 3678TIP3   OH210997   4.507   1.092   1.556
 3678TIP3    H110998   4.562   1.014   1.562
 3678TIP3    H210999   4.462   1.083   1.473
 3679TIP3   OH211000   0.328   1.953   5.094
 3679TIP3    H111001   0.334   1.956   4.999
 3679TIP3    H211002   0.302   1.863   5.113
 3680TIP3   OH211003   6.682   3.949   0.420
 3680TIP3    H111004   6.671   4.025   0.364
 3680TIP3    H211005   6.776   3.948   0.441
 3681TIP3   OH211006   2.275   6.131   4.627
 3681TIP3    H111007   2.316   6.130   4.714
 3681TIP3    H211008   2.235   6.044   4.619
 3682TIP3   OH211009   1.341   3.436   5.433
 3682TIP3    H111010   1.406   3.410   5.497
 3682TIP3    H211011   1.335   3.362   5.372
 3683TIP3   OH211012   0.205   1.037   2.079
 3683TIP3    H111013   0.129   0.982   2.098
 3683TIP3    H211014   0.257   1.035   2.159
 3684TIP3   OH211015   5.424   2.623   5.523
 3684TIP3    H111016   5.509   2.663   5.541
 3684TIP3    H211017   5.436   2.577   5.440
 3685TIP3   OH211018   3.284   2.042   3.847
 3685TIP3    H111019   3.298   2.031   3.753
 3685TIP3    H211020   3.191   2.022   3.860
 3686TIP3   OH211021   4.659   3.462   0.598
 3686TIP3    H111022   4.581   3.516   0.605
 3686TIP3    H211023   4.698   3.486   0.514
 3687TIP3   OH211024   1.167   4.270   2.580
 3687TIP3    H111025   1.243   4.281   2.523
 3687TIP3    H211026   1.197   4.302   2.665
 3688TIP3   OH211027   5.971   3.382   2.459
 3688TIP3    H111028   6.020   3.444   2.406
 3688TIP3    H211029   6.026   3.367   2.535
 3689TIP3   OH211030   4.804   4.898   4.640
 3689TIP3    H111031   4.728   4.849   4.671
 3689TIP3    H211032   4.784   4.989   4.661
 3690TIP3   OH211033   0.514   5.265   5.304
 3690TIP3    H111034   0.473   5.347   5.332
 3690TIP3    H211035   0.557   5.288   5.222
 3691TIP3   OH211036   1.875   4.114   1.717
 3691TIP3    H111037   1.925   4.109   1.799
 3691TIP3    H211038   1.919   4.182   1.666
 3692TIP3   OH211039   0.342   5.890   0.876
 3692TIP3    H111040   0.267   5.950   0.866
 3692TIP3    H211041   0.416   5.947   0.897
 3693TIP3   OH211042   2.752   1.765   3.076
 3693TIP3    H111043   2.725   1.678   3.103
 3693TIP3    H211044   2.673   1.805   3.039
 3694TIP3   OH211045   2.652   2.032   1.228
 3694TIP3    H111046   2.614   1.957   1.274
 3694TIP3    H211047   2.581   2.064   1.172
 3695TIP3   OH211048   6.940   1.671   2.281
 3695TIP3    H111049   6.953   1.744   2.341
 3695TIP3    H211050   6.922   1.596   2.337
 3696TIP3   OH211051   3.771   5.309   4.304
 3696TIP3    H111052   3.786   5.393   4.261
 3696TIP3    H211053   3.750   5.332   4.395
 3697TIP3   OH211054   5.642   6.437   1.640
 3697TIP3    H111055   5.605   6.349   1.632
 3697TIP3    H211056   5.703   6.443   1.566
 3698TIP3   OH211057   6.079   3.621   2.355
 3698TIP3    H111058   6.102   3.620   2.262
 3698TIP3    H211059   6.126   3.698   2.389
 3699TIP3   OH211060   5.443   1.658   5.264
 3699TIP3    H111061   5.505   1.602   5.217
 3699TIP3    H211062   5.360   1.611   5.260
 3700TIP3   OH211063   0.472   4.320   4.167
 3700TIP3    H111064   0.390   4.368   4.153
 3700TIP3    H211065   0.535   4.388   4.192
 3701TIP3   OH211066   2.317   4.949   1.755
 3701TIP3    H111067   2.271   4.985   1.678
 3701TIP3    H211068   2.384   5.014   1.776
 3702TIP3   OH211069   3.409   2.683   0.080
 3702TIP3    H111070   3.348   2.751   0.052
 3702TIP3    H211071   3.439   2.711   0.167
 3703TIP3   OH211072   2.672   4.095   2.813
 3703TIP3    H111073   2.656   4.160   2.881
 3703TIP3    H211074   2.586   4.058   2.794
 3704TIP3   OH211075   5.338   1.437   5.089
 3704TIP3    H111076   5.261   1.381   5.098
 3704TIP3    H211077   5.376   1.412   5.004
 3705TIP3   OH211078   6.412   1.407   1.431
 3705TIP3    H111079   6.426   1.323   1.474
 3705TIP3    H211080   6.357   1.456   1.491
 3706TIP3   OH211081   5.717   3.687   5.559
 3706TIP3    H111082   5.662   3.611   5.579
 3706TIP3    H211083   5.778   3.692   5.632
 3707TIP3   OH211084   0.444   1.301   4.276
 3707TIP3    H111085   0.364   1.249   4.263
 3707TIP3    H211086   0.416   1.376   4.328
 3708TIP3   OH211087   4.838   6.604   3.412
 3708TIP3    H111088   4.819   6.565   3.327
 3708TIP3    H211089   4.772   6.569   3.471
 3709TIP3   OH211090   5.879   3.950   1.409
 3709TIP3    H111091   5.872   4.001   1.490
 3709TIP3    H211092   5.957   3.896   1.421
 3710TIP3   OH211093   3.867   0.050   3.256
 3710TIP3    H111094   3.892   0.063   3.165
 3710TIP3    H211095   3.868  -0.045   3.268
 3711TIP3   OH211096   0.921   2.492   2.111
 3711TIP3    H111097   0.920   2.459   2.021
 3711TIP3    H211098   1.012   2.483   2.139
 3712TIP3   OH211099   1.547   3.889   4.907
 3712TIP3    H111100   1.535   3.911   4.815
 3712TIP3    H211101   1.544   3.793   4.909
 3713TIP3   OH211102   5.101   1.146   2.252
 3713TIP3    H111103   5.139   1.143   2.339
 3713TIP3    H211104   5.105   1.239   2.228
 3714TIP3   OH211105   1.530   3.438   1.551
 3714TIP3    H111106   1.437   3.457   1.545
 3714TIP3    H211107   1.571   3.502   1.492
 3715TIP3   OH211108   2.012   3.061   4.408
 3715TIP3    H111109   1.936   3.040   4.463
 3715TIP3    H211110   2.049   2.976   4.385
 3716TIP3   OH211111   2.403   1.552   1.624
 3716TIP3    H111112   2.454   1.579   1.548
 3716TIP3    H211113   2.454   1.584   1.699
 3717TIP3   OH211114   0.290   3.320   4.252
 3717TIP3    H111115   0.311   3.414   4.248
 3717TIP3    H211116   0.359   3.283   4.308
 3718TIP3   OH211117   2.456   3.623   4.008
 3718TIP3    H111118   2.508   3.702   3.989
 3718TIP3    H211119   2.443   3.626   4.103
 3719TIP3   OH211120   2.718   5.280   4.956
 3719TIP3    H111121   2.746   5.370   4.937
 3719TIP3    H211122   2.697   5.243   4.870
 3720TIP3   OH211123   6.579   0.397   2.907
 3720TIP3    H111124   6.630   0.358   2.837
 3720TIP3    H211125   6.587   0.335   2.980
 3721TIP3   OH211126   2.339   0.489   4.197
 3721TIP3    H111127   2.415   0.436   4.223
 3721TIP3    H211128   2.264   0.430   4.206
 3722TIP3   OH211129   0.152   2.041   3.812
 3722TIP3    H111130   0.237   2.075   3.785
 3722TIP3    H211131   0.147   1.954   3.773
 3723TIP3   OH211132   6.473   1.861   2.670
 3723TIP3    H111133   6.480   1.818   2.584
 3723TIP3    H211134   6.394   1.822   2.709
 3724TIP3   OH211135   6.526   2.103   0.441
 3724TIP3    H111136   6.512   2.048   0.518
 3724TIP3    H211137   6.500   2.047   0.367
 3725TIP3   OH211138   3.947   3.343   0.574
 3725TIP3    H111139   4.006   3.307   0.508
 3725TIP3    H211140   3.980   3.309   0.657
 3726TIP3   OH211141   0.496   1.049   0.076
 3726TIP3    H111142   0.525   1.024   0.164
 3726TIP3    H211143   0.445   0.975   0.045
 3727TIP3   OH211144   6.382   1.124   4.638
 3727TIP3    H111145   6.364   1.054   4.701
 3727TIP3    H211146   6.338   1.200   4.675
 3728TIP3   OH211147   1.526   0.757   4.658
 3728TIP3    H111148   1.435   0.785   4.647
 3728TIP3    H211149   1.578   0.830   4.624
 3729TIP3   OH211150   6.366   2.637   5.433
 3729TIP3    H111151   6.399   2.554   5.398
 3729TIP3    H211152   6.429   2.702   5.402
 3730TIP3   OH211153   6.521   4.494   1.942
 3730TIP3    H111154   6.602   4.445   1.955
 3730TIP3    H211155   6.545   4.585   1.959
 3731TIP3   OH211156   6.547   5.002   5.823
 3731TIP3    H111157   6.541   5.096   5.844
 3731TIP3    H211158   6.552   4.999   5.727
 3732TIP3   OH211159   4.514   4.957   3.543
 3732TIP3    H111160   4.490   4.866   3.527
 3732TIP3    H211161   4.586   4.974   3.482
 3733TIP3   OH211162   1.048   1.777   1.645
 3733TIP3    H111163   1.013   1.821   1.568
 3733TIP3    H211164   1.135   1.748   1.619
 3734TIP3   OH211165   3.474   3.124   3.448
 3734TIP3    H111166   3.418   3.200   3.435
 3734TIP3    H211167   3.559   3.161   3.473
 3735TIP3   OH211168   0.378   1.321   0.102
 3735TIP3    H111169   0.439   1.389   0.128
 3735TIP3    H211170   0.405   1.244   0.152
 3736TIP3   OH211171   1.366   0.229   1.760
 3736TIP3    H111172   1.284   0.262   1.797
 3736TIP3    H211173   1.417   0.202   1.836
 3737TIP3   OH211174   6.496   4.967   3.709
 3737TIP3    H111175   6.525   5.056   3.730
 3737TIP3    H211176   6.403   4.966   3.731
 3738TIP3   OH211177   4.284   3.200   5.184
 3738TIP3    H111178   4.190   3.192   5.171
 3738TIP3    H211179   4.302   3.294   5.170
 3739TIP3   OH211180   5.924   3.608   3.802
 3739TIP3    H111181   5.915   3.693   3.758
 3739TIP3    H211182   5.865   3.614   3.877
 3740TIP3   OH211183   1.719   2.011   5.690
 3740TIP3    H111184   1.630   2.005   5.655
 3740TIP3    H211185   1.710   2.067   5.767
 3741TIP3   OH211186   1.476   4.579   5.388
 3741TIP3    H111187   1.484   4.485   5.407
 3741TIP3    H211188   1.401   4.608   5.440
 3742TIP3   OH211189   3.584   5.199   2.787
 3742TIP3    H111190   3.584   5.243   2.701
 3742TIP3    H211191   3.557   5.267   2.848
 3743TIP3   OH211192   5.542   0.458   2.251
 3743TIP3    H111193   5.504   0.538   2.288
 3743TIP3    H211194   5.633   0.460   2.278
 3744TIP3   OH211195   5.266   2.834   5.828
 3744TIP3    H111196   5.205   2.860   5.897
 3744TIP3    H211197   5.237   2.881   5.750
 3745TIP3   OH211198   2.117   1.125   0.155
 3745TIP3    H111199   2.147   1.139   0.065
 3745TIP3    H211200   2.141   1.033   0.173
 3746TIP3   OH211201   0.233   0.940   5.442
 3746TIP3    H111202   0.327   0.959   5.443
 3746TIP3    H211203   0.228   0.844   5.439
 3747TIP3   OH211204   4.382   2.984   2.143
 3747TIP3    H111205   4.380   3.016   2.233
 3747TIP3    H211206   4.474   2.990   2.117
 3748TIP3   OH211207   2.933   1.962   4.657
 3748TIP3    H111208   2.893   2.019   4.592
 3748TIP3    H211209   3.026   1.985   4.656
 3749TIP3   OH211210   2.586   1.852   1.480
 3749TIP3    H111211   2.563   1.863   1.572
 3749TIP3    H211212   2.573   1.759   1.463
 3750TIP3   OH211213   5.639   4.159   0.993
 3750TIP3    H111214   5.715   4.178   0.937
 3750TIP3    H211215   5.661   4.199   1.077
 3751TIP3   OH211216   3.824   3.506   3.931
 3751TIP3    H111217   3.851   3.484   3.841
 3751TIP3    H211218   3.843   3.599   3.939
 3752TIP3   OH211219   0.946   0.492   1.517
 3752TIP3    H111220   0.869   0.540   1.485
 3752TIP3    H211221   0.919   0.400   1.515
 3753TIP3   OH211222   1.902   2.892   5.316
 3753TIP3    H111223   1.870   2.825   5.376
 3753TIP3    H211224   1.832   2.958   5.315
 3754TIP3   OH211225   6.227   1.530   2.479
 3754TIP3    H111226   6.147   1.478   2.477
 3754TIP3    H211227   6.279   1.498   2.405
 3755TIP3   OH211228   0.181   3.977   4.010
 3755TIP3    H111229   0.095   4.016   3.997
 3755TIP3    H211230   0.165   3.904   4.069
 3756TIP3   OH211231   4.008   1.192   4.111
 3756TIP3    H111232   4.095   1.166   4.141
 3756TIP3    H211233   4.003   1.286   4.130
 3757TIP3   OH211234   1.732   2.755   2.974
 3757TIP3    H111235   1.789   2.799   2.912
 3757TIP3    H211236   1.731   2.664   2.946
 3758TIP3   OH211237   6.847   1.975   2.166
 3758TIP3    H111238   6.867   1.995   2.257
 3758TIP3    H211239   6.932   1.957   2.125
 3759TIP3   OH211240   5.506   6.202   1.611
 3759TIP3    H111241   5.522   6.111   1.585
 3759TIP3    H211242   5.501   6.199   1.706
 3760TIP3   OH211243   1.555   1.723   5.837
 3760TIP3    H111244   1.567   1.807   5.793
 3760TIP3    H211245   1.643   1.687   5.845
 3761TIP3   OH211246   6.876   2.367   1.066
 3761TIP3    H111247   6.970   2.375   1.048
 3761TIP3    H211248   6.837   2.443   1.021
 3762TIP3   OH211249   5.118   2.597   5.579
 3762TIP3    H111250   5.122   2.545   5.660
 3762TIP3    H211251   5.204   2.638   5.572
 3763TIP3   OH211252   4.666   2.932   2.183
 3763TIP3    H111253   4.717   2.941   2.263
 3763TIP3    H211254   4.722   2.966   2.113
 3764TIP3   OH211255   6.390   3.874   1.456
 3764TIP3    H111256   6.297   3.852   1.444
 3764TIP3    H211257   6.424   3.882   1.367
 3765TIP3   OH211258   4.916   5.659   1.413
 3765TIP3    H111259   4.921   5.614   1.498
 3765TIP3    H211260   4.893   5.749   1.435
 3766TIP3   OH211261   6.169   2.323   5.849
 3766TIP3    H111262   6.122   2.314   5.766
 3766TIP3    H211263   6.127   2.397   5.892
 3767TIP3   OH211264   4.421   4.313   5.761
 3767TIP3    H111265   4.509   4.345   5.782
 3767TIP3    H211266   4.363   4.384   5.787
 3768TIP3   OH211267   2.985   1.249   3.561
 3768TIP3    H111268   3.060   1.206   3.602
 3768TIP3    H211269   2.981   1.213   3.473
 3769TIP3   OH211270   5.660   0.766   4.270
 3769TIP3    H111271   5.602   0.704   4.226
 3769TIP3    H211272   5.748   0.734   4.251
 3770TIP3   OH211273   4.638   6.377   4.949
 3770TIP3    H111274   4.719   6.372   4.999
 3770TIP3    H211275   4.664   6.355   4.859
 3771TIP3   OH211276   2.956   1.267   4.185
 3771TIP3    H111277   3.042   1.227   4.172
 3771TIP3    H211278   2.899   1.223   4.122
 3772TIP3   OH211279   2.898   4.328   4.510
 3772TIP3    H111280   2.978   4.275   4.520
 3772TIP3    H211281   2.828   4.263   4.506
 3773TIP3   OH211282   1.409   4.237   4.678
 3773TIP3    H111283   1.403   4.330   4.699
 3773TIP3    H211284   1.499   4.225   4.647
 3774TIP3   OH211285   1.998   2.207   5.021
 3774TIP3    H111286   1.972   2.252   4.940
 3774TIP3    H211287   2.077   2.160   4.997
 3775TIP3   OH211288   4.931   6.111   3.050
 3775TIP3    H111289   4.957   6.023   3.021
 3775TIP3    H211290   4.842   6.100   3.083
 3776TIP3   OH211291   6.409   1.611   0.241
 3776TIP3    H111292   6.364   1.614   0.326
 3776TIP3    H211293   6.338   1.604   0.177
 3777TIP3   OH211294   0.548   0.244   3.538
 3777TIP3    H111295   0.603   0.296   3.480
 3777TIP3    H211296   0.569   0.275   3.626
 3778TIP3   OH211297   1.947   5.707   3.866
 3778TIP3    H111298   1.981   5.620   3.886
 3778TIP3    H211299   2.009   5.768   3.907
 3779TIP3   OH211300   3.485   2.905   4.247
 3779TIP3    H111301   3.504   2.878   4.337
 3779TIP3    H211302   3.395   2.873   4.232
 3780TIP3   OH211303   1.131   6.213   4.760
 3780TIP3    H111304   1.099   6.274   4.827
 3780TIP3    H211305   1.212   6.179   4.796
 3781TIP3   OH211306   6.420   2.478   4.808
 3781TIP3    H111307   6.464   2.393   4.800
 3781TIP3    H211308   6.430   2.502   4.900
 3782TIP3   OH211309   4.404   6.189   0.486
 3782TIP3    H111310   4.383   6.101   0.454
 3782TIP3    H211311   4.380   6.186   0.579
 3783TIP3   OH211312   3.868   0.070   1.998
 3783TIP3    H111313   3.883   0.028   1.913
 3783TIP3    H211314   3.920   0.018   2.060
 3784TIP3   OH211315   6.345   4.533   3.047
 3784TIP3    H111316   6.331   4.560   2.956
 3784TIP3    H211317   6.356   4.438   3.042
 3785TIP3   OH211318   2.471   3.512   1.702
 3785TIP3    H111319   2.484   3.601   1.735
 3785TIP3    H211320   2.376   3.502   1.694
 3786TIP3   OH211321   3.935   6.140   5.109
 3786TIP3    H111322   3.988   6.192   5.170
 3786TIP3    H211323   3.903   6.204   5.046
 3787TIP3   OH211324   0.605   1.422   1.633
 3787TIP3    H111325   0.575   1.347   1.582
 3787TIP3    H211326   0.538   1.488   1.621
 3788TIP3   OH211327   4.652   6.360   0.276
 3788TIP3    H111328   4.742   6.332   0.263
 3788TIP3    H211329   4.650   6.395   0.365
 3789TIP3   OH211330   6.886   1.304   4.979
 3789TIP3    H111331   6.962   1.287   5.034
 3789TIP3    H211332   6.923   1.334   4.896
 3790TIP3   OH211333   6.353   3.186   1.612
 3790TIP3    H111334   6.393   3.101   1.594
 3790TIP3    H211335   6.425   3.241   1.644
 3791TIP3   OH211336   3.451   6.465   0.802
 3791TIP3    H111337   3.537   6.424   0.797
 3791TIP3    H211338   3.463   6.538   0.863
 3792TIP3   OH211339   6.047   6.297   3.795
 3792TIP3    H111340   5.960   6.335   3.801
 3792TIP3    H211341   6.075   6.287   3.887
 3793TIP3   OH211342   4.994   5.823   5.112
 3793TIP3    H111343   5.050   5.834   5.035
 3793TIP3    H211344   4.960   5.911   5.129
 3794TIP3   OH211345   1.338   4.931   1.125
 3794TIP3    H111346   1.382   4.939   1.210
 3794TIP3    H211347   1.281   5.007   1.121
 3795TIP3   OH211348   6.745   0.609   1.941
 3795TIP3    H111349   6.813   0.671   1.966
 3795TIP3    H211350   6.735   0.622   1.847
 3796TIP3   OH211351   1.373   3.745   1.730
 3796TIP3    H111352   1.365   3.831   1.772
 3796TIP3    H211353   1.466   3.736   1.711
 3797TIP3   OH211354   5.703   0.536   3.231
 3797TIP3    H111355   5.752   0.615   3.204
 3797TIP3    H211356   5.652   0.564   3.307
 3798TIP3   OH211357   4.079   0.163   5.073
 3798TIP3    H111358   4.037   0.107   5.007
 3798TIP3    H211359   4.023   0.240   5.078
 3799TIP3   OH211360   0.990   3.583   1.797
 3799TIP3    H111361   1.019   3.540   1.877
 3799TIP3    H211362   0.921   3.526   1.762
 3800TIP3   OH211363   6.136   5.400   3.751
 3800TIP3    H111364   6.224   5.396   3.788
 3800TIP3    H211365   6.147   5.376   3.659
 3801TIP3   OH211366   6.864   5.458   2.676
 3801TIP3    H111367   6.954   5.432   2.655
 3801TIP3    H211368   6.873   5.519   2.749
 3802TIP3   OH211369   0.111   5.947   0.732
 3802TIP3    H111370   0.034   6.005   0.733
 3802TIP3    H211371   0.089   5.879   0.668
 3803TIP3   OH211372   0.345   2.614   2.565
 3803TIP3    H111373   0.270   2.669   2.588
 3803TIP3    H211374   0.405   2.624   2.639
 3804TIP3   OH211375   3.718   5.482   0.489
 3804TIP3    H111376   3.805   5.447   0.471
 3804TIP3    H211377   3.678   5.419   0.548
 3805TIP3   OH211378   0.493   6.342   1.009
 3805TIP3    H111379   0.496   6.429   0.969
 3805TIP3    H211380   0.584   6.313   1.009
 3806TIP3   OH211381   7.015   3.615   0.886
 3806TIP3    H111382   7.078   3.591   0.818
 3806TIP3    H211383   7.036   3.557   0.960
 3807TIP3   OH211384   5.832   6.434   5.118
 3807TIP3    H111385   5.739   6.420   5.100
 3807TIP3    H211386   5.857   6.359   5.172
 3808TIP3   OH211387   6.990   3.344   0.471
 3808TIP3    H111388   6.947   3.288   0.535
 3808TIP3    H211389   7.083   3.327   0.482
 3809TIP3   OH211390   5.048   0.048   5.767
 3809TIP3    H111391   5.027   0.060   5.674
 3809TIP3    H211392   5.109   0.120   5.787
 3810TIP3   OH211393   2.422   0.729   5.079
 3810TIP3    H111394   2.462   0.772   5.156
 3810TIP3    H211395   2.436   0.636   5.095
 3811TIP3   OH211396   5.006   0.503   1.634
 3811TIP3    H111397   4.945   0.472   1.701
 3811TIP3    H211398   5.035   0.589   1.665
 3812TIP3   OH211399   0.205   0.065   2.218
 3812TIP3    H111400   0.183   0.158   2.216
 3812TIP3    H211401   0.222   0.046   2.310
 3813TIP3   OH211402   2.824   5.058   3.679
 3813TIP3    H111403   2.871   5.140   3.688
 3813TIP3    H211404   2.752   5.064   3.741
 3814TIP3   OH211405   6.385   5.969   3.365
 3814TIP3    H111406   6.388   5.982   3.270
 3814TIP3    H211407   6.301   5.926   3.381
 3815TIP3   OH211408   4.306   2.225   1.580
 3815TIP3    H111409   4.379   2.210   1.520
 3815TIP3    H211410   4.347   2.241   1.665
 3816TIP3   OH211411   5.693   4.004   0.072
 3816TIP3    H111412   5.691   3.913   0.101
 3816TIP3    H211413   5.786   4.025   0.065
 3817TIP3   OH211414   0.789   4.550   3.858
 3817TIP3    H111415   0.767   4.464   3.821
 3817TIP3    H211416   0.788   4.536   3.953
 3818TIP3   OH211417   3.807   3.659   2.712
 3818TIP3    H111418   3.725   3.608   2.716
 3818TIP3    H211419   3.864   3.617   2.776
 3819TIP3   OH211420   4.018   6.645   0.832
 3819TIP3    H111421   3.934   6.687   0.814
 3819TIP3    H211422   4.013   6.561   0.785
 3820TIP3   OH211423   3.291   2.499   5.391
 3820TIP3    H111424   3.252   2.429   5.339
 3820TIP3    H211425   3.219   2.561   5.406
 3821TIP3   OH211426   0.051   6.380   2.178
 3821TIP3    H111427   0.140   6.377   2.141
 3821TIP3    H211428   0.064   6.369   2.272
 3822TIP3   OH211429   3.008   5.007   2.171
 3822TIP3    H111430   2.986   5.090   2.215
 3822TIP3    H211431   2.960   4.941   2.221
 3823TIP3   OH211432   2.923   5.674   1.012
 3823TIP3    H111433   2.865   5.671   0.935
 3823TIP3    H211434   3.011   5.671   0.975
 3824TIP3   OH211435   2.812   3.231   5.501
 3824TIP3    H111436   2.884   3.258   5.557
 3824TIP3    H211437   2.807   3.136   5.512
 3825TIP3   OH211438   1.738   4.001   2.054
 3825TIP3    H111439   1.791   3.922   2.052
 3825TIP3    H211440   1.674   3.990   1.984
 3826TIP3   OH211441   0.396   3.057   4.966
 3826TIP3    H111442   0.479   3.012   4.953
 3826TIP3    H211443   0.405   3.139   4.917
 3827TIP3   OH211444   3.425   0.259   3.900
 3827TIP3    H111445   3.456   0.347   3.882
 3827TIP3    H211446   3.354   0.271   3.963
 3828TIP3   OH211447   6.530   2.115   4.440
 3828TIP3    H111448   6.566   2.083   4.357
 3828TIP3    H211449   6.605   2.156   4.483
 3829TIP3   OH211450   1.888   2.406   3.887
 3829TIP3    H111451   1.935   2.380   3.808
 3829TIP3    H211452   1.835   2.481   3.859
 3830TIP3   OH211453   1.006   1.000   1.062
 3830TIP3    H111454   1.042   1.017   0.974
 3830TIP3    H211455   1.001   1.086   1.103
 3831TIP3   OH211456   4.012   6.417   1.807
 3831TIP3    H111457   4.065   6.367   1.745
 3831TIP3    H211458   3.957   6.351   1.851
 3832TIP3   OH211459   4.130   0.340   3.714
 3832TIP3    H111460   4.086   0.273   3.662
 3832TIP3    H211461   4.063   0.368   3.777
 3833TIP3   OH211462   3.684   1.943   3.122
 3833TIP3    H111463   3.646   1.912   3.040
 3833TIP3    H211464   3.649   2.031   3.134
 3834TIP3   OH211465   5.732   0.939   5.766
 3834TIP3    H111466   5.651   0.982   5.793
 3834TIP3    H211467   5.758   0.985   5.686
 3835TIP3   OH211468   0.188   2.236   4.572
 3835TIP3    H111469   0.156   2.174   4.507
 3835TIP3    H211470   0.283   2.228   4.568
 3836TIP3   OH211471   4.729   5.473   0.576
 3836TIP3    H111472   4.753   5.454   0.486
 3836TIP3    H211473   4.648   5.425   0.591
 3837TIP3   OH211474   3.565   5.358   0.132
 3837TIP3    H111475   3.562   5.454   0.129
 3837TIP3    H211476   3.573   5.331   0.041
 3838TIP3   OH211477   6.966   5.182   0.302
 3838TIP3    H111478   7.046   5.168   0.252
 3838TIP3    H211479   6.915   5.243   0.249
 3839TIP3   OH211480   2.593   4.452   5.405
 3839TIP3    H111481   2.662   4.431   5.467
 3839TIP3    H211482   2.538   4.516   5.450
 3840TIP3   OH211483   0.092   0.355   0.809
 3840TIP3    H111484   0.138   0.272   0.820
 3840TIP3    H211485   0.157   0.422   0.832
 3841TIP3   OH211486   3.206   4.466   4.477
 3841TIP3    H111487   3.246   4.422   4.552
 3841TIP3    H211488   3.204   4.400   4.408
 3842TIP3   OH211489   7.163   5.363   2.636
 3842TIP3    H111490   7.185   5.378   2.728
 3842TIP3    H211491   7.183   5.271   2.621
 3843TIP3   OH211492   5.468   4.192   2.289
 3843TIP3    H111493   5.456   4.097   2.288
 3843TIP3    H211494   5.484   4.215   2.197
 3844TIP3   OH211495   2.841   4.846   2.299
 3844TIP3    H111496   2.850   4.850   2.394
 3844TIP3    H211497   2.750   4.823   2.284
 3845TIP3   OH211498   1.571   1.809   1.475
 3845TIP3    H111499   1.554   1.854   1.393
 3845TIP3    H211500   1.661   1.832   1.497
 3846TIP3   OH211501   5.591   3.979   3.963
 3846TIP3    H111502   5.678   3.940   3.971
 3846TIP3    H211503   5.607   4.066   3.927
 3847TIP3   OH211504   6.997   2.788   2.797
 3847TIP3    H111505   7.023   2.829   2.715
 3847TIP3    H211506   6.917   2.834   2.823
 3848TIP3   OH211507   1.584   1.532   1.431
 3848TIP3    H111508   1.677   1.523   1.411
 3848TIP3    H211509   1.569   1.627   1.430
 3849TIP3   OH211510   2.046   0.545   4.802
 3849TIP3    H111511   2.122   0.535   4.744
 3849TIP3    H211512   2.065   0.623   4.854
 3850TIP3   OH211513   4.291   3.788   1.353
 3850TIP3    H111514   4.290   3.867   1.298
 3850TIP3    H211515   4.380   3.753   1.342
 3851TIP3   OH211516   2.566   4.641   1.854
 3851TIP3    H111517   2.645   4.654   1.803
 3851TIP3    H211518   2.576   4.554   1.893
 3852TIP3   OH211519   0.740   4.700   5.477
 3852TIP3    H111520   0.789   4.731   5.553
 3852TIP3    H211521   0.657   4.748   5.479
 3853TIP3   OH211522   1.391   2.723   1.400
 3853TIP3    H111523   1.323   2.678   1.450
 3853TIP3    H211524   1.430   2.654   1.346
 3854TIP3   OH211525   5.685   1.241   0.756
 3854TIP3    H111526   5.608   1.225   0.701
 3854TIP3    H211527   5.747   1.172   0.732
 3855TIP3   OH211528   0.593   3.715   0.189
 3855TIP3    H111529   0.629   3.742   0.274
 3855TIP3    H211530   0.670   3.705   0.133
 3856TIP3   OH211531   6.766   0.247   5.174
 3856TIP3    H111532   6.774   0.210   5.086
 3856TIP3    H211533   6.675   0.277   5.179
 3857TIP3   OH211534   6.288   4.443   1.794
 3857TIP3    H111535   6.246   4.525   1.769
 3857TIP3    H211536   6.380   4.467   1.808
 3858TIP3   OH211537   3.137   0.509   4.676
 3858TIP3    H111538   3.082   0.579   4.709
 3858TIP3    H211539   3.126   0.437   4.738
 3859TIP3   OH211540   5.314  -0.034   1.028
 3859TIP3    H111541   5.266  -0.086   0.964
 3859TIP3    H211542   5.253   0.036   1.052
 3860TIP3   OH211543   5.637   1.811   0.195
 3860TIP3    H111544   5.642   1.744   0.126
 3860TIP3    H211545   5.696   1.779   0.263
 3861TIP3   OH211546   6.580   3.155   0.125
 3861TIP3    H111547   6.555   3.063   0.112
 3861TIP3    H211548   6.665   3.162   0.082
 3862TIP3   OH211549   6.830   6.772   0.006
 3862TIP3    H111550   6.910   6.824   0.016
 3862TIP3    H211551   6.798   6.761   0.095
 3863TIP3   OH211552   3.891   4.218   1.124
 3863TIP3    H111553   3.831   4.163   1.075
 3863TIP3    H211554   3.961   4.158   1.151
 3864TIP3   OH211555   1.663   2.986   5.722
 3864TIP3    H111556   1.684   2.907   5.771
 3864TIP3    H211557   1.715   2.980   5.642
 3865TIP3   OH211558   3.158   3.516   4.616
 3865TIP3    H111559   3.197   3.588   4.665
 3865TIP3    H211560   3.093   3.479   4.675
 3866TIP3   OH211561   3.709   2.344   2.706
 3866TIP3    H111562   3.622   2.384   2.704
 3866TIP3    H211563   3.765   2.406   2.660
 3867TIP3   OH211564   3.022   4.678   0.884
 3867TIP3    H111565   3.002   4.759   0.838
 3867TIP3    H211566   2.937   4.635   0.896
 3868TIP3   OH211567   2.303   4.330   5.663
 3868TIP3    H111568   2.224   4.278   5.648
 3868TIP3    H211569   2.363   4.270   5.706
 3869TIP3   OH211570   2.035   3.197   2.979
 3869TIP3    H111571   2.017   3.113   2.935
 3869TIP3    H211572   2.114   3.229   2.937
 3870TIP3   OH211573   1.727   0.268  -0.054
 3870TIP3    H111574   1.687   0.354  -0.045
 3870TIP3    H211575   1.760   0.247   0.034
 3871TIP3   OH211576   2.564   4.926   3.367
 3871TIP3    H111577   2.646   4.975   3.360
 3871TIP3    H211578   2.590   4.834   3.361
 3872TIP3   OH211579   2.750   3.284   5.805
 3872TIP3    H111580   2.780   3.194   5.796
 3872TIP3    H211581   2.797   3.319   5.881
 3873TIP3   OH211582   0.771   4.686   4.578
 3873TIP3    H111583   0.747   4.631   4.653
 3873TIP3    H211584   0.691   4.692   4.527
 3874TIP3   OH211585   6.358   0.812   0.431
 3874TIP3    H111586   6.409   0.876   0.380
 3874TIP3    H211587   6.354   0.849   0.519
 3875TIP3   OH211588   1.991   1.691   0.705
 3875TIP3    H111589   1.906   1.678   0.662
 3875TIP3    H211590   2.051   1.633   0.658
 3876TIP3   OH211591   2.061   4.272   0.908
 3876TIP3    H111592   2.041   4.329   0.834
 3876TIP3    H211593   2.151   4.294   0.932
 3877TIP3   OH211594   4.495   0.413   1.722
 3877TIP3    H111595   4.460   0.327   1.746
 3877TIP3    H211596   4.525   0.402   1.632
 3878TIP3   OH211597   4.619   5.628   0.205
 3878TIP3    H111598   4.639   5.696   0.140
 3878TIP3    H211599   4.635   5.546   0.159
 3879TIP3   OH211600   5.408   2.173   2.687
 3879TIP3    H111601   5.379   2.096   2.638
 3879TIP3    H211602   5.349   2.243   2.658
 3880TIP3   OH211603   0.617   2.032   3.220
 3880TIP3    H111604   0.683   2.098   3.244
 3880TIP3    H211605   0.571   2.014   3.302
 3881TIP3   OH211606   1.718   1.274   0.795
 3881TIP3    H111607   1.657   1.231   0.855
 3881TIP3    H211608   1.708   1.367   0.813
 3882TIP3   OH211609   3.740   1.003   1.849
 3882TIP3    H111610   3.676   0.937   1.878
 3882TIP3    H211611   3.721   1.080   1.902
 3883TIP3   OH211612   7.014   6.629   0.761
 3883TIP3    H111613   6.934   6.581   0.784
 3883TIP3    H211614   7.030   6.686   0.836
 3884TIP3   OH211615   3.260   6.762   4.035
 3884TIP3    H111616   3.264   6.668   4.018
 3884TIP3    H211617   3.173   6.788   4.004
 3885TIP3   OH211618   1.793   1.826   0.898
 3885TIP3    H111619   1.737   1.754   0.926
 3885TIP3    H211620   1.873   1.783   0.867
 3886TIP3   OH211621   1.604   1.358   4.143
 3886TIP3    H111622   1.539   1.294   4.112
 3886TIP3    H211623   1.624   1.411   4.065
 3887TIP3   OH211624   5.269   3.884   3.806
 3887TIP3    H111625   5.344   3.937   3.834
 3887TIP3    H211626   5.302   3.794   3.805
 3888TIP3   OH211627   2.612   3.687   0.447
 3888TIP3    H111628   2.703   3.699   0.421
 3888TIP3    H211629   2.568   3.768   0.421
 3889TIP3   OH211630   4.097   5.468   5.138
 3889TIP3    H111631   4.081   5.536   5.203
 3889TIP3    H211632   4.149   5.511   5.070
 3890TIP3   OH211633   2.523   4.186   0.893
 3890TIP3    H111634   2.577   4.109   0.912
 3890TIP3    H211635   2.527   4.195   0.798
 3891TIP3   OH211636   1.296   4.302   5.224
 3891TIP3    H111637   1.273   4.211   5.245
 3891TIP3    H211638   1.359   4.327   5.292
 3892TIP3   OH211639   4.421   0.069   1.316
 3892TIP3    H111640   4.444  -0.020   1.342
 3892TIP3    H211641   4.502   0.119   1.327
 3893TIP3   OH211642   5.144   0.513   2.131
 3893TIP3    H111643   5.224   0.485   2.087
 3893TIP3    H211644   5.103   0.575   2.070
 3894TIP3   OH211645   1.007   1.065   1.731
 3894TIP3    H111646   1.042   0.980   1.758
 3894TIP3    H211647   1.014   1.120   1.810
 3895TIP3   OH211648   5.271   4.318   2.506
 3895TIP3    H111649   5.338   4.252   2.523
 3895TIP3    H211650   5.227   4.287   2.426
 3896TIP3   OH211651   5.157   4.532   3.111
 3896TIP3    H111652   5.239   4.482   3.114
 3896TIP3    H211653   5.161   4.588   3.189
 3897TIP3   OH211654   2.138   5.384   3.759
 3897TIP3    H111655   2.058   5.436   3.769
 3897TIP3    H211656   2.185   5.398   3.842
 3898TIP3   OH211657   6.447   1.788   3.355
 3898TIP3    H111658   6.541   1.771   3.347
 3898TIP3    H211659   6.433   1.803   3.448
 3899TIP3   OH211660   2.702   5.337   2.600
 3899TIP3    H111661   2.749   5.396   2.660
 3899TIP3    H211662   2.623   5.313   2.647
 3900TIP3   OH211663   0.365   2.699   1.320
 3900TIP3    H111664   0.289   2.754   1.337
 3900TIP3    H211665   0.343   2.652   1.239
 3901TIP3   OH211666   6.838   4.580   1.097
 3901TIP3    H111667   6.764   4.583   1.036
 3901TIP3    H211668   6.905   4.636   1.058
 3902TIP3   OH211669   3.780   0.743   2.882
 3902TIP3    H111670   3.789   0.807   2.953
 3902TIP3    H211671   3.691   0.710   2.891
 3903TIP3   OH211672   3.757   2.442   0.900
 3903TIP3    H111673   3.685   2.380   0.891
 3903TIP3    H211674   3.796   2.445   0.812
 3904TIP3   OH211675   0.142   3.237   5.336
 3904TIP3    H111676   0.131   3.301   5.266
 3904TIP3    H211677   0.234   3.210   5.330
 3905TIP3   OH211678   0.194   2.067   0.680
 3905TIP3    H111679   0.196   2.079   0.585
 3905TIP3    H211680   0.121   2.122   0.710
 3906TIP3   OH211681   0.070   2.974   1.218
 3906TIP3    H111682   0.076   2.989   1.313
 3906TIP3    H211683  -0.019   3.000   1.195
 3907TIP3   OH211684   5.789   1.198   3.061
 3907TIP3    H111685   5.858   1.153   3.013
 3907TIP3    H211686   5.834   1.266   3.110
 3908TIP3   OH211687   6.445   1.700   5.602
 3908TIP3    H111688   6.439   1.620   5.654
 3908TIP3    H211689   6.359   1.711   5.563
 3909TIP3   OH211690   3.626   4.478   0.550
 3909TIP3    H111691   3.662   4.399   0.590
 3909TIP3    H211692   3.543   4.450   0.512
 3910TIP3   OH211693   2.663   4.487   4.183
 3910TIP3    H111694   2.680   4.447   4.098
 3910TIP3    H211695   2.750   4.501   4.221
 3911TIP3   OH211696   6.042   0.511   0.196
 3911TIP3    H111697   6.094   0.439   0.232
 3911TIP3    H211698   5.961   0.470   0.166
 3912TIP3   OH211699   4.916   2.839   2.862
 3912TIP3    H111700   4.988   2.786   2.895
 3912TIP3    H211701   4.887   2.890   2.938
 3913TIP3   OH211702   2.461   6.581   2.732
 3913TIP3    H111703   2.399   6.520   2.691
 3913TIP3    H211704   2.436   6.667   2.698
 3914TIP3   OH211705   5.301   0.413   5.632
 3914TIP3    H111706   5.350   0.454   5.561
 3914TIP3    H211707   5.275   0.485   5.689
 3915TIP3   OH211708   1.740   1.213   2.894
 3915TIP3    H111709   1.802   1.227   2.966
 3915TIP3    H211710   1.708   1.124   2.908
 3916TIP3   OH211711   5.445   2.963   1.003
 3916TIP3    H111712   5.385   2.907   1.052
 3916TIP3    H211713   5.397   3.045   0.991
 3917TIP3   OH211714   1.553   0.811   0.557
 3917TIP3    H111715   1.540   0.864   0.635
 3917TIP3    H211716   1.482   0.838   0.498
 3918TIP3   OH211717   3.675   1.498   0.173
 3918TIP3    H111718   3.647   1.576   0.125
 3918TIP3    H211719   3.766   1.484   0.146
 3919TIP3   OH211720   5.958   2.413   4.584
 3919TIP3    H111721   6.013   2.491   4.575
 3919TIP3    H211722   6.012   2.342   4.551
 3920TIP3   OH211723   6.999   0.595   4.726
 3920TIP3    H111724   6.947   0.515   4.724
 3920TIP3    H211725   7.001   0.620   4.818
 3921TIP3   OH211726   4.057   1.701   1.595
 3921TIP3    H111727   4.010   1.631   1.640
 3921TIP3    H211728   3.993   1.740   1.536
 3922TIP3   OH211729   2.438   2.806   5.739
 3922TIP3    H111730   2.373   2.856   5.788
 3922TIP3    H211731   2.402   2.718   5.734
 3923TIP3   OH211732   5.784   6.418   3.783
 3923TIP3    H111733   5.841   6.478   3.735
 3923TIP3    H211734   5.717   6.473   3.822
 3924TIP3   OH211735   3.646   3.085   4.058
 3924TIP3    H111736   3.643   3.018   3.989
 3924TIP3    H211737   3.588   3.051   4.126
 3925TIP3   OH211738   2.446   6.846   4.553
 3925TIP3    H111739   2.460   6.753   4.567
 3925TIP3    H211740   2.389   6.851   4.477
 3926TIP3   OH211741   5.341   0.987   3.401
 3926TIP3    H111742   5.306   0.969   3.314
 3926TIP3    H211743   5.264   0.996   3.457
 3927TIP3   OH211744   0.185   2.646   3.564
 3927TIP3    H111745   0.232   2.577   3.515
 3927TIP3    H211746   0.164   2.605   3.648
 3928TIP3   OH211747   6.444   0.941   4.138
 3928TIP3    H111748   6.376   0.984   4.189
 3928TIP3    H211749   6.484   1.011   4.087
 3929TIP3   OH211750   6.486   3.598   1.550
 3929TIP3    H111751   6.434   3.617   1.472
 3929TIP3    H211752   6.547   3.671   1.557
 3930TIP3   OH211753   4.614   4.823   4.334
 3930TIP3    H111754   4.556   4.782   4.398
 3930TIP3    H211755   4.613   4.916   4.357
 3931TIP3   OH211756   1.536   4.305   5.457
 3931TIP3    H111757   1.514   4.257   5.537
 3931TIP3    H211758   1.625   4.276   5.436
 3932TIP3   OH211759   5.026   5.564   4.089
 3932TIP3    H111760   5.051   5.627   4.022
 3932TIP3    H211761   4.944   5.597   4.124
 3933TIP3   OH211762   4.537   3.135   4.413
 3933TIP3    H111763   4.573   3.208   4.463
 3933TIP3    H211764   4.474   3.094   4.472
 3934TIP3   OH211765   5.301   0.720   4.493
 3934TIP3    H111766   5.207   0.735   4.484
 3934TIP3    H211767   5.307   0.629   4.523
 3935TIP3   OH211768   2.014   0.221   2.839
 3935TIP3    H111769   1.967   0.249   2.760
 3935TIP3    H211770   1.957   0.248   2.911
 3936TIP3   OH211771   2.316   5.632   1.886
 3936TIP3    H111772   2.348   5.601   1.970
 3936TIP3    H211773   2.280   5.719   1.905
 3937TIP3   OH211774   3.312   3.393   0.703
 3937TIP3    H111775   3.342   3.438   0.782
 3937TIP3    H211776   3.386   3.397   0.643
 3938TIP3   OH211777   1.934   4.022   3.334
 3938TIP3    H111778   1.892   3.983   3.258
 3938TIP3    H211779   2.028   4.019   3.314
 3939TIP3   OH211780   4.899   6.227   4.159
 3939TIP3    H111781   4.877   6.196   4.247
 3939TIP3    H211782   4.950   6.155   4.121
 3940TIP3   OH211783   3.248   1.181   0.527
 3940TIP3    H111784   3.170   1.233   0.507
 3940TIP3    H211785   3.237   1.157   0.619
 3941TIP3   OH211786   0.937   1.587   5.276
 3941TIP3    H111787   0.982   1.505   5.296
 3941TIP3    H211788   0.999   1.635   5.222
 3942TIP3   OH211789   1.016   1.850   2.313
 3942TIP3    H111790   1.068   1.895   2.379
 3942TIP3    H211791   1.002   1.916   2.244
 3943TIP3   OH211792   1.403   0.635   0.814
 3943TIP3    H111793   1.479   0.689   0.789
 3943TIP3    H211794   1.327   0.689   0.792
 3944TIP3   OH211795   1.367   3.049   1.544
 3944TIP3    H111796   1.412   3.025   1.624
 3944TIP3    H211797   1.394   2.983   1.480
 3945TIP3   OH211798   5.212   6.486   4.895
 3945TIP3    H111799   5.145   6.478   4.827
 3945TIP3    H211800   5.169   6.533   4.966
 3946TIP3   OH211801   6.507   2.646   1.163
 3946TIP3    H111802   6.583   2.594   1.187
 3946TIP3    H211803   6.473   2.679   1.246
 3947TIP3   OH211804   0.315   4.272   5.225
 3947TIP3    H111805   0.310   4.355   5.272
 3947TIP3    H211806   0.228   4.262   5.185
 3948TIP3   OH211807   3.628   1.246   4.630
 3948TIP3    H111808   3.613   1.169   4.574
 3948TIP3    H211809   3.568   1.234   4.704
 3949TIP3   OH211810   0.663   6.032   1.455
 3949TIP3    H111811   0.617   6.089   1.516
 3949TIP3    H211812   0.735   5.994   1.507
 3950TIP3   OH211813   0.212   0.141   4.777
 3950TIP3    H111814   0.208   0.180   4.690
 3950TIP3    H211815   0.213   0.046   4.761
 3951TIP3   OH211816   6.271   6.480   0.309
 3951TIP3    H111817   6.285   6.544   0.379
 3951TIP3    H211818   6.221   6.410   0.349
 3952TIP3   OH211819   0.557   4.540   0.658
 3952TIP3    H111820   0.609   4.503   0.586
 3952TIP3    H211821   0.513   4.464   0.697
 3953TIP3   OH211822   1.754   5.124   2.610
 3953TIP3    H111823   1.669   5.121   2.654
 3953TIP3    H211824   1.744   5.066   2.534
 3954TIP3   OH211825   2.135   5.271   5.328
 3954TIP3    H111826   2.175   5.232   5.250
 3954TIP3    H211827   2.045   5.291   5.302
 3955TIP3   OH211828   6.907   0.008   5.024
 3955TIP3    H111829   6.876  -0.020   4.937
 3955TIP3    H211830   6.939   0.097   5.010
 3956TIP3   OH211831   1.820   5.208   4.889
 3956TIP3    H111832   1.869   5.282   4.853
 3956TIP3    H211833   1.733   5.215   4.848
 3957TIP3   OH211834   2.245   3.231   2.504
 3957TIP3    H111835   2.273   3.320   2.483
 3957TIP3    H211836   2.149   3.235   2.504
 3958TIP3   OH211837   2.200   5.048   1.515
 3958TIP3    H111838   2.114   5.084   1.491
 3958TIP3    H211839   2.242   5.029   1.431
 3959TIP3   OH211840   3.504   1.126   1.335
 3959TIP3    H111841   3.542   1.209   1.306
 3959TIP3    H211842   3.513   1.068   1.259
 3960TIP3   OH211843   2.729   1.190   4.529
 3960TIP3    H111844   2.723   1.120   4.595
 3960TIP3    H211845   2.689   1.266   4.571
 3961TIP3   OH211846   5.651   4.815   3.014
 3961TIP3    H111847   5.634   4.766   2.933
 3961TIP3    H211848   5.672   4.903   2.984
 3962TIP3   OH211849   4.133   2.364   2.800
 3962TIP3    H111850   4.228   2.365   2.802
 3962TIP3    H211851   4.111   2.355   2.707
 3963TIP3   OH211852   6.422   5.128   5.606
 3963TIP3    H111853   6.378   5.046   5.581
 3963TIP3    H211854   6.460   5.160   5.524
 3964TIP3   OH211855   1.945   0.233   3.122
 3964TIP3    H111856   1.908   0.266   3.204
 3964TIP3    H211857   1.883   0.166   3.093
 3965TIP3   OH211858   6.707   4.969   0.850
 3965TIP3    H111859   6.765   5.044   0.866
 3965TIP3    H211860   6.750   4.919   0.781
 3966TIP3   OH211861   4.249   5.453   1.581
 3966TIP3    H111862   4.259   5.515   1.509
 3966TIP3    H211863   4.155   5.438   1.587
 3967TIP3   OH211864   1.846   2.749   1.191
 3967TIP3    H111865   1.874   2.822   1.135
 3967TIP3    H211866   1.752   2.762   1.203
 3968TIP3   OH211867   2.928   4.380   2.913
 3968TIP3    H111868   2.903   4.386   2.821
 3968TIP3    H211869   2.895   4.461   2.952
 3969TIP3   OH211870   1.279   3.618   5.900
 3969TIP3    H111871   1.327   3.544   5.863
 3969TIP3    H211872   1.191   3.584   5.918
 3970TIP3   OH211873   2.651   0.081   5.048
 3970TIP3    H111874   2.619  -0.005   5.019
 3970TIP3    H211875   2.667   0.129   4.967
 3971TIP3   OH211876   1.670   2.523   0.134
 3971TIP3    H111877   1.722   2.493   0.208
 3971TIP3    H211878   1.707   2.608   0.112
 3972TIP3   OH211879   3.479   1.275   0.413
 3972TIP3    H111880   3.402   1.237   0.455
 3972TIP3    H211881   3.553   1.244   0.466
 3973TIP3   OH211882   2.927   2.935   0.216
 3973TIP3    H111883   2.942   3.004   0.281
 3973TIP3    H211884   2.849   2.888   0.248
 3974TIP3   OH211885   4.212   5.162   5.581
 3974TIP3    H111886   4.171   5.136   5.499
 3974TIP3    H211887   4.237   5.080   5.623
 3975TIP3   OH211888   7.007   5.141   5.307
 3975TIP3    H111889   7.100   5.132   5.329
 3975TIP3    H211890   6.998   5.098   5.222
 3976TIP3   OH211891   1.687   0.750   4.876
 3976TIP3    H111892   1.638   0.791   4.948
 3976TIP3    H211893   1.628   0.754   4.801
 3977TIP3   OH211894   2.399   4.645   5.073
 3977TIP3    H111895   2.489   4.623   5.049
 3977TIP3    H211896   2.370   4.706   5.005
 3978TIP3   OH211897   6.789   1.451   5.454
 3978TIP3    H111898   6.862   1.485   5.403
 3978TIP3    H211899   6.723   1.425   5.388
 3979TIP3   OH211900   0.229   2.236   2.458
 3979TIP3    H111901   0.253   2.318   2.414
 3979TIP3    H211902   0.286   2.170   2.419
 3980TIP3   OH211903   4.426   3.184   0.189
 3980TIP3    H111904   4.489   3.144   0.248
 3980TIP3    H211905   4.342   3.145   0.214
 3981TIP3   OH211906   4.459   6.077   0.766
 3981TIP3    H111907   4.519   6.038   0.830
 3981TIP3    H211908   4.429   6.003   0.713
 3982TIP3   OH211909   6.883   6.442   0.121
 3982TIP3    H111910   6.800   6.410   0.156
 3982TIP3    H211911   6.862   6.473   0.032
 3983TIP3   OH211912   5.244   4.657   5.439
 3983TIP3    H111913   5.317   4.643   5.378
 3983TIP3    H211914   5.225   4.750   5.432
 3984TIP3   OH211915   1.415   5.546   0.173
 3984TIP3    H111916   1.419   5.610   0.244
 3984TIP3    H211917   1.400   5.597   0.094
 3985TIP3   OH211918   6.816   2.958   1.984
 3985TIP3    H111919   6.834   3.049   2.006
 3985TIP3    H211920   6.734   2.937   2.029
 3986TIP3   OH211921   0.298   2.948   1.050
 3986TIP3    H111922   0.243   2.973   1.124
 3986TIP3    H211923   0.304   2.853   1.055
 3987TIP3   OH211924   7.131   6.165   1.299
 3987TIP3    H111925   7.184   6.241   1.321
 3987TIP3    H211926   7.191   6.105   1.256
 3988TIP3   OH211927   3.520   4.090   5.299
 3988TIP3    H111928   3.432   4.058   5.318
 3988TIP3    H211929   3.505   4.173   5.253
 3989TIP3   OH211930   1.038   3.074   1.718
 3989TIP3    H111931   1.081   3.009   1.775
 3989TIP3    H211932   1.054   3.041   1.630
 3990TIP3   OH211933   1.637   0.410   5.571
 3990TIP3    H111934   1.549   0.388   5.603
 3990TIP3    H211935   1.632   0.396   5.477
 3991TIP3   OH211936   5.612   6.768   0.939
 3991TIP3    H111937   5.696   6.793   0.977
 3991TIP3    H211938   5.583   6.847   0.893
 3992TIP3   OH211939   5.378   2.836   1.766
 3992TIP3    H111940   5.382   2.919   1.813
 3992TIP3    H211941   5.284   2.821   1.753
 3993TIP3   OH211942   3.172   3.176   3.693
 3993TIP3    H111943   3.141   3.177   3.602
 3993TIP3    H211944   3.233   3.250   3.698
 3994TIP3   OH211945   3.133   2.340   3.088
 3994TIP3    H111946   3.173   2.253   3.102
 3994TIP3    H211947   3.044   2.331   3.123
 3995TIP3   OH211948   0.670   0.959   3.228
 3995TIP3    H111949   0.731   0.897   3.267
 3995TIP3    H211950   0.614   0.907   3.171
 3996TIP3   OH211951   6.753   2.145   2.942
 3996TIP3    H111952   6.800   2.077   2.894
 3996TIP3    H211953   6.821   2.188   2.995
 3997TIP3   OH211954   5.945   6.244   4.551
 3997TIP3    H111955   5.977   6.262   4.463
 3997TIP3    H211956   5.851   6.230   4.541
 3998TIP3   OH211957   4.061   2.278   2.101
 3998TIP3    H111958   4.150   2.261   2.131
 3998TIP3    H211959   4.050   2.373   2.110
 3999TIP3   OH211960   5.766   4.567   4.846
 3999TIP3    H111961   5.721   4.483   4.836
 3999TIP3    H211962   5.798   4.587   4.758
 4000TIP3   OH211963   3.207   0.939   2.315
 4000TIP3    H111964   3.142   0.978   2.374
 4000TIP3    H211965   3.186   0.976   2.229
 4001TIP3   OH211966   6.177   4.586   0.382
 4001TIP3    H111967   6.174   4.492   0.399
 4001TIP3    H211968   6.204   4.594   0.291
 4002TIP3   OH211969   1.530   2.738   0.772
 4002TIP3    H111970   1.440   2.752   0.804
 4002TIP3    H211971   1.566   2.671   0.830
 4003TIP3   OH211972   6.588   0.409   0.515
 4003TIP3    H111973   6.652   0.464   0.470
 4003TIP3    H211974   6.573   0.337   0.455
 4004TIP3   OH211975   4.579   2.888   5.205
 4004TIP3    H111976   4.595   2.853   5.293
 4004TIP3    H211977   4.487   2.914   5.206
 4005TIP3   OH211978   4.290   0.731   0.973
 4005TIP3    H111979   4.375   0.687   0.981
 4005TIP3    H211980   4.312   0.821   0.950
 4006TIP3   OH211981   1.662   2.805   0.449
 4006TIP3    H111982   1.605   2.878   0.471
 4006TIP3    H211983   1.611   2.727   0.471
 4007TIP3   OH211984   4.610   6.680   0.566
 4007TIP3    H111985   4.579   6.677   0.656
 4007TIP3    H211986   4.601   6.590   0.534
 4008TIP3   OH211987   3.697   2.582   1.962
 4008TIP3    H111988   3.753   2.654   1.933
 4008TIP3    H211989   3.608   2.611   1.940
 4009TIP3   OH211990   1.802   1.631   5.850
 4009TIP3    H111991   1.793   1.579   5.770
 4009TIP3    H211992   1.835   1.569   5.915
 4010TIP3   OH211993   2.877   1.815   1.470
 4010TIP3    H111994   2.906   1.869   1.397
 4010TIP3    H211995   2.784   1.800   1.454
 4011TIP3   OH211996   6.346   2.415   2.540
 4011TIP3    H111997   6.381   2.329   2.517
 4011TIP3    H211998   6.423   2.472   2.542
 4012TIP3   OH211999   7.173   4.697   3.582
 4012TIP3    H112000   7.080   4.717   3.577
 4012TIP3    H212001   7.211   4.739   3.505
 4013TIP3   OH212002   0.632   5.796   5.429
 4013TIP3    H112003   0.649   5.702   5.418
 4013TIP3    H212004   0.718   5.837   5.429
 4014TIP3   OH212005   0.159   0.015   0.124
 4014TIP3    H112006   0.252   0.029   0.107
 4014TIP3    H212007   0.156  -0.065   0.176
 4015TIP3   OH212008   2.423   1.167   1.299
 4015TIP3    H112009   2.401   1.101   1.364
 4015TIP3    H212010   2.465   1.119   1.228
 4016TIP3   OH212011   1.625   4.756   3.259
 4016TIP3    H112012   1.645   4.763   3.165
 4016TIP3    H212013   1.560   4.824   3.275
 4017TIP3   OH212014   1.148   2.786   2.495
 4017TIP3    H112015   1.202   2.790   2.573
 4017TIP3    H212016   1.147   2.876   2.461
 4018TIP3   OH212017   0.187   3.218  -0.012
 4018TIP3    H112018   0.102   3.227   0.031
 4018TIP3    H212019   0.210   3.307  -0.039
 4019TIP3   OH212020   0.872   1.356   2.538
 4019TIP3    H112021   0.880   1.355   2.442
 4019TIP3    H212022   0.782   1.327   2.555
 4020TIP3   OH212023   4.811   1.458   5.759
 4020TIP3    H112024   4.852   1.465   5.845
 4020TIP3    H212025   4.828   1.368   5.731
 4021TIP3   OH212026   2.069   3.240   5.928
 4021TIP3    H112027   2.152   3.214   5.890
 4021TIP3    H212028   2.070   3.336   5.923
 4022TIP3   OH212029   0.591   0.595   4.107
 4022TIP3    H112030   0.586   0.500   4.112
 4022TIP3    H212031   0.633   0.612   4.023
 4023TIP3   OH212032   0.375   5.521   0.077
 4023TIP3    H112033   0.448   5.582   0.069
 4023TIP3    H212034   0.322   5.557   0.148
 4024TIP3   OH212035   4.991   1.642   4.568
 4024TIP3    H112036   4.938   1.700   4.622
 4024TIP3    H212037   5.042   1.701   4.512
 4025TIP3   OH212038   1.495   5.971   4.693
 4025TIP3    H112039   1.547   5.915   4.635
 4025TIP3    H212040   1.406   5.967   4.657
 4026TIP3   OH212041   6.257   1.021   3.505
 4026TIP3    H112042   6.216   1.077   3.571
 4026TIP3    H212043   6.336   1.069   3.479
 4027TIP3   OH212044   3.456   2.925   3.859
 4027TIP3    H112045   3.542   2.935   3.817
 4027TIP3    H212046   3.404   2.877   3.795
 4028TIP3   OH212047   1.376   2.672   3.217
 4028TIP3    H112048   1.409   2.757   3.187
 4028TIP3    H212049   1.380   2.616   3.139
 4029TIP3   OH212050   7.130   1.863   5.788
 4029TIP3    H112051   7.061   1.823   5.734
 4029TIP3    H212052   7.085   1.930   5.839
 4030TIP3   OH212053   4.144   2.843   2.404
 4030TIP3    H112054   4.136   2.926   2.450
 4030TIP3    H212055   4.169   2.780   2.472
 4031TIP3   OH212056   6.489   4.209   5.860
 4031TIP3    H112057   6.505   4.255   5.778
 4031TIP3    H212058   6.555   4.244   5.920
 4032TIP3   OH212059   5.127   4.916   5.371
 4032TIP3    H112060   5.151   5.005   5.345
 4032TIP3    H212061   5.048   4.897   5.321
 4033TIP3   OH212062   7.187   5.743   3.707
 4033TIP3    H112063   7.278   5.728   3.735
 4033TIP3    H212064   7.185   5.712   3.616
 4034TIP3   OH212065   1.494   6.674   2.601
 4034TIP3    H112066   1.421   6.668   2.538
 4034TIP3    H212067   1.529   6.585   2.605
 4035TIP3   OH212068   3.648   5.418   3.359
 4035TIP3    H112069   3.662   5.492   3.418
 4035TIP3    H212070   3.634   5.344   3.417
 4036TIP3   OH212071   3.759   0.092   2.416
 4036TIP3    H112072   3.769   0.164   2.354
 4036TIP3    H212073   3.665   0.090   2.434
 4037TIP3   OH212074   0.244   3.993   3.575
 4037TIP3    H112075   0.262   4.025   3.663
 4037TIP3    H212076   0.322   4.017   3.524
 4038TIP3   OH212077   0.227   4.025   5.872
 4038TIP3    H112078   0.196   4.073   5.795
 4038TIP3    H212079   0.153   3.969   5.896
 4039TIP3   OH212080   6.054   5.886   1.611
 4039TIP3    H112081   6.146   5.876   1.588
 4039TIP3    H212082   6.041   5.981   1.617
 4040TIP3   OH212083   1.040   2.778   2.778
 4040TIP3    H112084   0.996   2.848   2.729
 4040TIP3    H212085   0.976   2.707   2.781
 4041TIP3   OH212086   6.289   2.922   0.418
 4041TIP3    H112087   6.382   2.939   0.406
 4041TIP3    H212088   6.276   2.926   0.513
 4042TIP3   OH212089   5.517   0.236   2.545
 4042TIP3    H112090   5.577   0.280   2.484
 4042TIP3    H212091   5.435   0.227   2.496
 4043TIP3   OH212092   2.809   2.954   1.541
 4043TIP3    H112093   2.798   2.985   1.631
 4043TIP3    H212094   2.868   2.879   1.548
 4044TIP3   OH212095   0.620   5.640   5.093
 4044TIP3    H112096   0.656   5.559   5.129
 4044TIP3    H212097   0.695   5.700   5.090
 4045TIP3   OH212098   4.319   0.577   5.163
 4045TIP3    H112099   4.367   0.648   5.205
 4045TIP3    H212100   4.227   0.596   5.180
 4046TIP3   OH212101   5.692   3.375   2.362
 4046TIP3    H112102   5.697   3.443   2.295
 4046TIP3    H212103   5.783   3.361   2.388
 4047TIP3   OH212104   2.042   5.268   2.170
 4047TIP3    H112105   1.946   5.276   2.166
 4047TIP3    H212106   2.066   5.320   2.247
 4048TIP3   OH212107   6.394   5.661   2.645
 4048TIP3    H112108   6.481   5.697   2.663
 4048TIP3    H212109   6.355   5.649   2.731
 4049TIP3   OH212110   6.927   1.548   3.444
 4049TIP3    H112111   7.007   1.508   3.478
 4049TIP3    H212112   6.892   1.483   3.382
 4050TIP3   OH212113   2.523   3.323   5.240
 4050TIP3    H112114   2.559   3.275   5.315
 4050TIP3    H212115   2.438   3.353   5.270
 4051TIP3   OH212116   2.968   6.493   0.727
 4051TIP3    H112117   2.903   6.545   0.774
 4051TIP3    H212118   3.036   6.475   0.792
 4052TIP3   OH212119   1.251   2.918   1.832
 4052TIP3    H112120   1.339   2.897   1.802
 4052TIP3    H212121   1.234   2.857   1.904
 4053TIP3   OH212122   5.237   6.432   4.594
 4053TIP3    H112123   5.282   6.516   4.597
 4053TIP3    H212124   5.263   6.387   4.674
 4054TIP3   OH212125   1.490   4.491   5.034
 4054TIP3    H112126   1.476   4.424   5.101
 4054TIP3    H212127   1.555   4.550   5.071
 4055TIP3   OH212128   4.280   6.512   2.414
 4055TIP3    H112129   4.228   6.576   2.365
 4055TIP3    H212130   4.362   6.558   2.433
 4056TIP3   OH212131   5.342   3.203   2.846
 4056TIP3    H112132   5.340   3.128   2.786
 4056TIP3    H212133   5.269   3.258   2.817
 4057TIP3   OH212134   6.906   3.700   0.327
 4057TIP3    H112135   6.926   3.790   0.349
 4057TIP3    H212136   6.824   3.705   0.278
 4058TIP3   OH212137   1.745   6.410   2.926
 4058TIP3    H112138   1.836   6.396   2.898
 4058TIP3    H212139   1.747   6.400   3.021
 4059TIP3   OH212140   4.693   6.623   5.035
 4059TIP3    H112141   4.649   6.550   4.992
 4059TIP3    H212142   4.634   6.698   5.021
 4060TIP3   OH212143   0.611   0.280   4.853
 4060TIP3    H112144   0.585   0.356   4.905
 4060TIP3    H212145   0.565   0.206   4.893
 4061TIP3   OH212146   4.980   4.258   3.309
 4061TIP3    H112147   5.064   4.229   3.345
 4061TIP3    H212148   5.001   4.335   3.256
 4062TIP3   OH212149   1.906   3.095   4.780
 4062TIP3    H112150   1.894   3.061   4.869
 4062TIP3    H212151   1.907   3.190   4.791
 4063TIP3   OH212152   3.995   1.548   3.676
 4063TIP3    H112153   4.072   1.497   3.651
 4063TIP3    H212154   3.962   1.505   3.754
 4064TIP3   OH212155   2.532   4.187   0.599
 4064TIP3    H112156   2.472   4.249   0.556
 4064TIP3    H212157   2.617   4.229   0.596
 4065TIP3   OH212158   6.190   1.594   0.063
 4065TIP3    H112159   6.127   1.648   0.110
 4065TIP3    H212160   6.162   1.598  -0.029
 4066TIP3   OH212161   0.834   0.252   1.473
 4066TIP3    H112162   0.835   0.229   1.380
 4066TIP3    H212163   0.750   0.296   1.485
 4067TIP3   OH212164   3.803   0.259   3.434
 4067TIP3    H112165   3.823   0.185   3.376
 4067TIP3    H212166   3.756   0.220   3.507
 4068TIP3   OH212167   3.361   0.571   1.699
 4068TIP3    H112168   3.293   0.636   1.682
 4068TIP3    H212169   3.350   0.507   1.629
 4069TIP3   OH212170   4.913   0.963   4.320
 4069TIP3    H112171   4.921   1.058   4.324
 4069TIP3    H212172   4.820   0.946   4.336
 4070TIP3   OH212173   6.380   0.548   1.674
 4070TIP3    H112174   6.475   0.540   1.661
 4070TIP3    H212175   6.344   0.543   1.586
 4071TIP3   OH212176   0.887  -0.004  -0.006
 4071TIP3    H112177   0.862   0.058  -0.075
 4071TIP3    H212178   0.899   0.051   0.072
 4072TIP3   OH212179   1.504   3.881   2.204
 4072TIP3    H112180   1.484   3.792   2.232
 4072TIP3    H212181   1.600   3.887   2.211
 4073TIP3   OH212182   5.121   2.812   0.796
 4073TIP3    H112183   5.163   2.820   0.881
 4073TIP3    H212184   5.148   2.890   0.748
 4074TIP3   OH212185   2.899   1.142   3.930
 4074TIP3    H112186   2.827   1.105   3.981
 4074TIP3    H212187   2.882   1.113   3.840
 4075TIP3   OH212188   5.145   5.713   5.534
 4075TIP3    H112189   5.208   5.682   5.598
 4075TIP3    H212190   5.127   5.637   5.478
 4076TIP3   OH212191   0.461   0.687   1.815
 4076TIP3    H112192   0.520   0.761   1.806
 4076TIP3    H212193   0.376   0.720   1.786
 4077TIP3   OH212194   0.487   3.629   0.517
 4077TIP3    H112195   0.568   3.582   0.498
 4077TIP3    H212196   0.429   3.608   0.444
 4078TIP3   OH212197   4.580   3.509   1.298
 4078TIP3    H112198   4.627   3.490   1.217
 4078TIP3    H212199   4.553   3.600   1.288
 4079TIP3   OH212200   6.108   3.195   5.259
 4079TIP3    H112201   6.133   3.254   5.330
 4079TIP3    H212202   6.064   3.252   5.196
 4080TIP3   OH212203   1.544   0.284   3.534
 4080TIP3    H112204   1.597   0.297   3.455
 4080TIP3    H212205   1.599   0.316   3.605
 4081TIP3   OH212206   4.627   5.416   1.762
 4081TIP3    H112207   4.677   5.337   1.740
 4081TIP3    H212208   4.584   5.441   1.680
 4082TIP3   OH212209   1.141   5.865   3.902
 4082TIP3    H112210   1.233   5.849   3.880
 4082TIP3    H212211   1.120   5.949   3.861
 4083TIP3   OH212212   0.379   0.301   5.363
 4083TIP3    H112213   0.423   0.218   5.342
 4083TIP3    H212214   0.354   0.337   5.278
 4084TIP3   OH212215   6.025   2.793   4.937
 4084TIP3    H112216   6.082   2.853   4.986
 4084TIP3    H212217   6.076   2.772   4.859
 4085TIP3   OH212218   3.249   5.514   0.014
 4085TIP3    H112219   3.198   5.451  -0.037
 4085TIP3    H212220   3.217   5.503   0.104
 4086TIP3   OH212221   6.090   4.964   3.238
 4086TIP3    H112222   6.077   4.955   3.332
 4086TIP3    H212223   6.084   5.059   3.222
 4087TIP3   OH212224   1.557   2.306  -0.026
 4087TIP3    H112225   1.562   2.383   0.031
 4087TIP3    H212226   1.635   2.256  -0.005
 4088TIP3   OH212227   2.535   6.286   4.475
 4088TIP3    H112228   2.552   6.306   4.383
 4088TIP3    H212229   2.543   6.191   4.480
 4089TIP3   OH212230   0.629   1.425   1.035
 4089TIP3    H112231   0.546   1.391   1.001
 4089TIP3    H212232   0.618   1.425   1.130
 4090TIP3   OH212233   3.707   4.285   5.854
 4090TIP3    H112234   3.696   4.213   5.917
 4090TIP3    H212235   3.708   4.364   5.908
 4091TIP3   OH212236   6.457   5.512   4.142
 4091TIP3    H112237   6.368   5.521   4.176
 4091TIP3    H212238   6.444   5.484   4.051
 4092TIP3   OH212239   3.692   3.323   3.435
 4092TIP3    H112240   3.616   3.366   3.396
 4092TIP3    H212241   3.749   3.394   3.462
 4093TIP3   OH212242   0.819   0.241   5.795
 4093TIP3    H112243   0.862   0.192   5.865
 4093TIP3    H212244   0.745   0.284   5.838
 4094TIP3   OH212245   1.764   4.107   2.325
 4094TIP3    H112246   1.755   4.012   2.319
 4094TIP3    H212247   1.777   4.137   2.235
 4095TIP3   OH212248   0.770   1.069   1.444
 4095TIP3    H112249   0.862   1.050   1.457
 4095TIP3    H212250   0.724   1.007   1.501
 4096TIP3   OH212251   6.630   4.135   4.583
 4096TIP3    H112252   6.702   4.195   4.604
 4096TIP3    H212253   6.552   4.177   4.620
 4097TIP3   OH212254   1.670   5.944   1.032
 4097TIP3    H112255   1.704   6.029   1.006
 4097TIP3    H212256   1.702   5.883   0.965
 4098TIP3   OH212257   3.824   2.774   1.451
 4098TIP3    H112258   3.769   2.819   1.387
 4098TIP3    H212259   3.913   2.788   1.420
 4099TIP3   OH212260   7.198  -0.004   1.304
 4099TIP3    H112261   7.178   0.041   1.222
 4099TIP3    H212262   7.132   0.028   1.365
 4100TIP3   OH212263   3.175   4.329   2.025
 4100TIP3    H112264   3.263   4.360   2.003
 4100TIP3    H212265   3.134   4.311   1.940
 4101TIP3   OH212266   1.536   5.542   3.647
 4101TIP3    H112267   1.623   5.539   3.686
 4101TIP3    H212268   1.552   5.568   3.556
 4102TIP3   OH212269   2.195   3.034   4.096
 4102TIP3    H112270   2.280   2.995   4.073
 4102TIP3    H212271   2.142   3.025   4.018
 4103TIP3   OH212272   4.032   4.750   2.172
 4103TIP3    H112273   4.006   4.660   2.153
 4103TIP3    H212274   4.013   4.798   2.091
 4104TIP3   OH212275   0.220   1.300   5.129
 4104TIP3    H112276   0.132   1.264   5.142
 4104TIP3    H212277   0.257   1.247   5.059
 4105TIP3   OH212278   3.741   3.879   3.731
 4105TIP3    H112279   3.818   3.858   3.784
 4105TIP3    H212280   3.667   3.872   3.791
 4106TIP3   OH212281   3.217   2.931   5.226
 4106TIP3    H112282   3.132   2.945   5.185
 4106TIP3    H212283   3.199   2.869   5.297
 4107TIP3   OH212284   5.524   5.642   2.754
 4107TIP3    H112285   5.529   5.654   2.848
 4107TIP3    H212286   5.614   5.625   2.726
 4108TIP3   OH212287   0.833   1.017   4.556
 4108TIP3    H112288   0.861   1.107   4.567
 4108TIP3    H212289   0.794   1.014   4.468
 4109TIP3   OH212290   6.522   5.636   5.030
 4109TIP3    H112291   6.530   5.547   5.065
 4109TIP3    H212292   6.429   5.644   5.007
 4110TIP3   OH212293   3.481   3.777   0.626
 4110TIP3    H112294   3.529   3.801   0.547
 4110TIP3    H212295   3.411   3.719   0.595
 4111TIP3   OH212296   2.857   3.040   5.835
 4111TIP3    H112297   2.880   3.036   5.928
 4111TIP3    H212298   2.928   2.993   5.791
 4112TIP3   OH212299   4.584   2.957   2.602
 4112TIP3    H112300   4.585   2.946   2.507
 4112TIP3    H212301   4.670   2.928   2.631
 4113TIP3   OH212302   0.342   4.315   2.508
 4113TIP3    H112303   0.361   4.389   2.566
 4113TIP3    H212304   0.266   4.343   2.457
 4114TIP3   OH212305   0.204   1.976   4.104
 4114TIP3    H112306   0.152   1.979   4.024
 4114TIP3    H212307   0.271   2.044   4.092
 4115TIP3   OH212308   6.061   6.034   3.697
 4115TIP3    H112309   5.980   5.986   3.712
 4115TIP3    H212310   6.038   6.125   3.717
 4116TIP3   OH212311   4.019   6.198   4.615
 4116TIP3    H112312   4.004   6.134   4.545
 4116TIP3    H212313   3.932   6.214   4.651
 4117TIP3   OH212314   3.640   3.601   0.756
 4117TIP3    H112315   3.569   3.659   0.729
 4117TIP3    H212316   3.710   3.617   0.692
 4118TIP3   OH212317   4.606   3.699   3.351
 4118TIP3    H112318   4.633   3.663   3.435
 4118TIP3    H212319   4.573   3.624   3.302
 4119TIP3   OH212320   4.772   1.477   3.823
 4119TIP3    H112321   4.762   1.570   3.803
 4119TIP3    H212322   4.861   1.469   3.858
 4120TIP3   OH212323   5.701   5.989   4.959
 4120TIP3    H112324   5.626   6.021   5.010
 4120TIP3    H212325   5.715   6.055   4.891
 4121TIP3   OH212326   3.015   2.784   2.285
 4121TIP3    H112327   2.937   2.742   2.320
 4121TIP3    H212328   3.085   2.758   2.344
 4122TIP3   OH212329   3.962   5.362   2.382
 4122TIP3    H112330   3.901   5.405   2.442
 4122TIP3    H212331   3.930   5.272   2.374
 4123TIP3   OH212332   6.737   0.491   2.425
 4123TIP3    H112333   6.688   0.546   2.487
 4123TIP3    H212334   6.742   0.406   2.467
 4124TIP3   OH212335   5.329   3.585   4.092
 4124TIP3    H112336   5.313   3.497   4.127
 4124TIP3    H212337   5.381   3.570   4.013
 4125TIP3   OH212338   2.974   5.672   0.711
 4125TIP3    H112339   3.020   5.590   0.693
 4125TIP3    H212340   2.949   5.705   0.625
 4126TIP3   OH212341   6.724   2.948   5.855
 4126TIP3    H112342   6.816   2.928   5.870
 4126TIP3    H212343   6.708   3.029   5.905
 4127TIP3   OH212344   0.084   2.450   0.078
 4127TIP3    H112345   0.072   2.486   0.166
 4127TIP3    H212346   0.005   2.398   0.063
 4128TIP3   OH212347   1.814   1.453   5.639
 4128TIP3    H112348   1.872   1.393   5.685
 4128TIP3    H212349   1.866   1.486   5.566
 4129TIP3   OH212350   4.142   4.927   3.233
 4129TIP3    H112351   4.156   4.864   3.163
 4129TIP3    H212352   4.214   4.989   3.225
 4130TIP3   OH212353   2.062   5.725   0.997
 4130TIP3    H112354   2.015   5.649   0.962
 4130TIP3    H212355   2.067   5.708   1.091
 4131TIP3   OH212356   0.843   4.057   3.229
 4131TIP3    H112357   0.787   4.009   3.290
 4131TIP3    H212358   0.898   3.991   3.188
 4132TIP3   OH212359   4.017   3.067   4.506
 4132TIP3    H112360   3.936   3.114   4.485
 4132TIP3    H212361   4.078   3.135   4.532
 4133TIP3   OH212362   2.374   0.184   5.712
 4133TIP3    H112363   2.426   0.155   5.637
 4133TIP3    H212364   2.297   0.225   5.672
 4134TIP3   OH212365   2.746   1.782   1.886
 4134TIP3    H112366   2.787   1.787   1.973
 4134TIP3    H212367   2.811   1.738   1.831
 4135TIP3   OH212368   1.273   3.232   4.935
 4135TIP3    H112369   1.185   3.260   4.960
 4135TIP3    H212370   1.270   3.137   4.944
 4136TIP3   OH212371   5.511   2.649   1.121
 4136TIP3    H112372   5.500   2.589   1.194
 4136TIP3    H212373   5.546   2.595   1.050
 4137TIP3   OH212374   0.034   4.043   3.213
 4137TIP3    H112375   0.012   4.038   3.306
 4137TIP3    H212376   0.114   3.991   3.204
 4138TIP3   OH212377   4.091   6.766   0.205
 4138TIP3    H112378   4.121   6.689   0.156
 4138TIP3    H212379   4.164   6.786   0.263
 4139TIP3   OH212380   0.336   3.249   0.978
 4139TIP3    H112381   0.363   3.157   0.982
 4139TIP3    H212382   0.417   3.298   0.962
 4140TIP3   OH212383   5.107   0.633   3.248
 4140TIP3    H112384   5.137   0.588   3.326
 4140TIP3    H212385   5.135   0.577   3.175
 4141TIP3   OH212386   3.917   1.235   3.571
 4141TIP3    H112387   3.840   1.186   3.600
 4141TIP3    H212388   3.991   1.184   3.604
 4142TIP3   OH212389   5.871   2.659   3.452
 4142TIP3    H112390   5.962   2.629   3.459
 4142TIP3    H212391   5.836   2.612   3.376
 4143TIP3   OH212392   2.912   1.932   1.172
 4143TIP3    H112393   2.898   1.844   1.208
 4143TIP3    H212394   2.828   1.954   1.131
 4144TIP3   OH212395   3.700   1.308   5.256
 4144TIP3    H112396   3.707   1.321   5.161
 4144TIP3    H212397   3.759   1.235   5.274
 4145TIP3   OH212398   5.831   2.568   1.777
 4145TIP3    H112399   5.844   2.480   1.812
 4145TIP3    H212400   5.762   2.605   1.833
 4146TIP3   OH212401   5.736   2.540   5.115
 4146TIP3    H112402   5.783   2.478   5.172
 4146TIP3    H212403   5.668   2.487   5.073
 4147TIP3   OH212404   0.879   6.452   3.661
 4147TIP3    H112405   0.835   6.478   3.580
 4147TIP3    H212406   0.841   6.509   3.728
 4148TIP3   OH212407   3.125   0.433   3.657
 4148TIP3    H112408   3.199   0.397   3.608
 4148TIP3    H212409   3.149   0.525   3.673
 4149TIP3   OH212410   4.990   6.426   1.473
 4149TIP3    H112411   4.972   6.518   1.493
 4149TIP3    H212412   4.967   6.417   1.380
 4150TIP3   OH212413   6.260   3.976   3.557
 4150TIP3    H112414   6.208   3.966   3.477
 4150TIP3    H212415   6.228   3.907   3.615
 4151TIP3   OH212416   2.804   4.346   4.869
 4151TIP3    H112417   2.765   4.270   4.825
 4151TIP3    H212418   2.742   4.367   4.939
 4152TIP3   OH212419   5.125   1.191   4.044
 4152TIP3    H112420   5.140   1.111   4.094
 4152TIP3    H212421   5.029   1.198   4.037
 4153TIP3   OH212422   4.430   5.189   0.983
 4153TIP3    H112423   4.497   5.250   0.951
 4153TIP3    H212424   4.348   5.238   0.976
 4154TIP3   OH212425   6.609   5.651   0.362
 4154TIP3    H112426   6.549   5.604   0.304
 4154TIP3    H212427   6.643   5.584   0.421
 4155TIP3   OH212428   0.772   4.265   5.584
 4155TIP3    H112429   0.844   4.232   5.532
 4155TIP3    H212430   0.704   4.198   5.578
 4156TIP3   OH212431   1.232   6.619   2.483
 4156TIP3    H112432   1.171   6.651   2.548
 4156TIP3    H212433   1.178   6.595   2.408
 4157TIP3   OH212434   6.243   5.087   2.896
 4157TIP3    H112435   6.319   5.144   2.904
 4157TIP3    H212436   6.168   5.146   2.903
 4158TIP3   OH212437   3.814   5.180   1.015
 4158TIP3    H112438   3.819   5.271   0.987
 4158TIP3    H212439   3.861   5.132   0.947
 4159TIP3   OH212440   5.967   3.190   0.945
 4159TIP3    H112441   6.050   3.166   0.903
 4159TIP3    H212442   5.927   3.106   0.969
 4160TIP3   OH212443   3.058   0.538   1.001
 4160TIP3    H112444   2.985   0.567   0.946
 4160TIP3    H212445   3.133   0.537   0.942
 4161TIP3   OH212446   4.261   5.425   4.888
 4161TIP3    H112447   4.339   5.431   4.943
 4161TIP3    H212448   4.258   5.334   4.860
 4162TIP3   OH212449   7.043   1.993   3.992
 4162TIP3    H112450   7.121   2.049   3.992
 4162TIP3    H212451   7.066   1.920   3.935
 4163TIP3   OH212452   7.177   2.876   4.584
 4163TIP3    H112453   7.096   2.882   4.534
 4163TIP3    H212454   7.247   2.880   4.519
 4164TIP3   OH212455   1.110   4.063   1.413
 4164TIP3    H112456   1.110   3.997   1.482
 4164TIP3    H212457   1.125   4.014   1.332
 4165TIP3   OH212458   2.950   5.142   0.866
 4165TIP3    H112459   2.921   5.199   0.938
 4165TIP3    H212460   3.029   5.185   0.832
 4166TIP3   OH212461   3.752   1.941   5.097
 4166TIP3    H112462   3.777   1.850   5.116
 4166TIP3    H212463   3.670   1.953   5.144
 4167TIP3   OH212464   3.648   6.491   4.248
 4167TIP3    H112465   3.708   6.454   4.313
 4167TIP3    H212466   3.582   6.535   4.300
 4168TIP3   OH212467   6.622   6.319   4.839
 4168TIP3    H112468   6.568   6.388   4.800
 4168TIP3    H212469   6.586   6.307   4.927
 4169TIP3   OH212470   1.958   2.351   1.818
 4169TIP3    H112471   1.965   2.304   1.901
 4169TIP3    H212472   1.949   2.443   1.843
 4170TIP3   OH212473   6.123   2.283   3.389
 4170TIP3    H112474   6.132   2.189   3.408
 4170TIP3    H212475   6.193   2.301   3.327
 4171TIP3   OH212476  -0.040   5.043   4.470
 4171TIP3    H112477  -0.017   5.039   4.378
 4171TIP3    H212478   0.042   5.029   4.517
 4172TIP3   OH212479   0.692   6.111   1.194
 4172TIP3    H112480   0.779   6.129   1.231
 4172TIP3    H212481   0.651   6.051   1.255
 4173TIP3   OH212482   1.692   1.246   3.382
 4173TIP3    H112483   1.786   1.260   3.386
 4173TIP3    H212484   1.670   1.201   3.463
 4174TIP3   OH212485   4.663   0.050   4.903
 4174TIP3    H112486   4.664  -0.043   4.878
 4174TIP3    H212487   4.616   0.093   4.832
 4175TIP3   OH212488   4.768   1.032   2.908
 4175TIP3    H112489   4.789   1.121   2.937
 4175TIP3    H212490   4.852   0.987   2.909
 4176TIP3   OH212491   5.338   5.633   2.250
 4176TIP3    H112492   5.249   5.626   2.284
 4176TIP3    H212493   5.394   5.611   2.325
 4177TIP3   OH212494   0.405   1.770   2.483
 4177TIP3    H112495   0.324   1.753   2.531
 4177TIP3    H212496   0.399   1.862   2.458
 4178TIP3   OH212497   3.495   1.507   2.005
 4178TIP3    H112498   3.418   1.525   2.060
 4178TIP3    H212499   3.479   1.419   1.970
 4179TIP3   OH212500   1.574   3.512   2.211
 4179TIP3    H112501   1.482   3.498   2.187
 4179TIP3    H212502   1.614   3.547   2.131
 4180TIP3   OH212503   1.808   6.233   4.778
 4180TIP3    H112504   1.843   6.144   4.774
 4180TIP3    H212505   1.869   6.281   4.834
 4181TIP3   OH212506   6.783   2.187   4.564
 4181TIP3    H112507   6.831   2.242   4.627
 4181TIP3    H212508   6.809   2.098   4.586
 4182TIP3   OH212509   1.379   1.362   2.321
 4182TIP3    H112510   1.373   1.441   2.267
 4182TIP3    H212511   1.464   1.325   2.299
 4183TIP3   OH212512   5.633   3.026   5.626
 4183TIP3    H112513   5.651   3.113   5.662
 4183TIP3    H212514   5.718   2.985   5.617
 4184TIP3   OH212515   6.125   0.484   4.478
 4184TIP3    H112516   6.088   0.542   4.544
 4184TIP3    H212517   6.220   0.493   4.489
 4185TIP3   OH212518   5.368   2.890   0.329
 4185TIP3    H112519   5.285   2.909   0.286
 4185TIP3    H212520   5.399   2.975   0.359
 4186TIP3   OH212521   7.137   2.160   2.482
 4186TIP3    H112522   7.048   2.138   2.454
 4186TIP3    H212523   7.192   2.092   2.442
 4187TIP3   OH212524   6.020   6.113   1.042
 4187TIP3    H112525   5.970   6.065   1.109
 4187TIP3    H212526   6.042   6.196   1.083
 4188TIP3   OH212527   5.699   5.213   4.739
 4188TIP3    H112528   5.644   5.155   4.792
 4188TIP3    H212529   5.637   5.259   4.682
 4189TIP3   OH212530   6.646   4.019   4.947
 4189TIP3    H112531   6.674   3.981   4.865
 4189TIP3    H212532   6.663   4.113   4.937
 4190TIP3   OH212533   4.630   6.283   2.983
 4190TIP3    H112534   4.672   6.334   2.913
 4190TIP3    H212535   4.545   6.326   2.996
 4191TIP3   OH212536   1.076   3.364   3.646
 4191TIP3    H112537   1.150   3.362   3.585
 4191TIP3    H212538   1.068   3.275   3.678
 4192TIP3   OH212539   5.765   3.205   0.692
 4192TIP3    H112540   5.679   3.182   0.658
 4192TIP3    H212541   5.746   3.263   0.766
 4193TIP3   OH212542   5.663   2.707   5.649
 4193TIP3    H112543   5.706   2.791   5.666
 4193TIP3    H212544   5.735   2.645   5.639
 4194TIP3   OH212545   6.355   3.396   1.912
 4194TIP3    H112546   6.317   3.310   1.894
 4194TIP3    H212547   6.394   3.424   1.829
 4195TIP3   OH212548   5.869   0.288   1.075
 4195TIP3    H112549   5.789   0.243   1.103
 4195TIP3    H212550   5.935   0.219   1.069
 4196TIP3   OH212551   4.870   1.549   5.153
 4196TIP3    H112552   4.881   1.614   5.084
 4196TIP3    H212553   4.872   1.465   5.107
 4197TIP3   OH212554   3.104   4.547   5.805
 4197TIP3    H112555   3.028   4.515   5.854
 4197TIP3    H212556   3.171   4.480   5.818
 4198TIP3   OH212557   0.471   3.517   5.336
 4198TIP3    H112558   0.513   3.591   5.380
 4198TIP3    H212559   0.379   3.522   5.362
 4199TIP3   OH212560   4.516   0.422   1.434
 4199TIP3    H112561   4.540   0.332   1.413
 4199TIP3    H212562   4.483   0.459   1.353
 4200TIP3   OH212563   2.886   1.257   1.710
 4200TIP3    H112564   2.856   1.167   1.695
 4200TIP3    H212565   2.808   1.311   1.699
 4201TIP3   OH212566   4.843   5.687   5.282
 4201TIP3    H112567   4.898   5.720   5.211
 4201TIP3    H212568   4.903   5.674   5.355
 4202TIP3   OH212569   4.804   0.734   5.000
 4202TIP3    H112570   4.716   0.765   4.979
 4202TIP3    H212571   4.792   0.676   5.074
 4203TIP3   OH212572   0.427   4.100   1.556
 4203TIP3    H112573   0.333   4.082   1.554
 4203TIP3    H212574   0.458   4.061   1.637
 4204TIP3   OH212575   6.485   6.794   3.900
 4204TIP3    H112576   6.493   6.717   3.844
 4204TIP3    H212577   6.400   6.784   3.943
 4205TIP3   OH212578   0.510   3.926   1.142
 4205TIP3    H112579   0.527   3.864   1.213
 4205TIP3    H212580   0.415   3.934   1.139
 4206TIP3   OH212581   3.614   4.500   3.129
 4206TIP3    H112582   3.676   4.444   3.176
 4206TIP3    H212583   3.631   4.484   3.036
 4207TIP3   OH212584   0.184   0.680   0.377
 4207TIP3    H112585   0.232   0.746   0.328
 4207TIP3    H212586   0.144   0.625   0.310
 4208TIP3   OH212587   1.946   2.475   4.153
 4208TIP3    H112588   2.034   2.484   4.187
 4208TIP3    H212589   1.957   2.470   4.058
 4209TIP3   OH212590   5.599   5.959   3.060
 4209TIP3    H112591   5.582   5.876   3.016
 4209TIP3    H212592   5.593   6.025   2.991
 4210TIP3   OH212593   0.117   3.196   4.637
 4210TIP3    H112594   0.171   3.264   4.679
 4210TIP3    H212595   0.065   3.160   4.708
 4211TIP3   OH212596   4.760   5.287   5.286
 4211TIP3    H112597   4.852   5.313   5.284
 4211TIP3    H212598   4.752   5.234   5.365
 4212TIP3   OH212599   2.977   3.878   4.106
 4212TIP3    H112600   2.974   3.865   4.200
 4212TIP3    H212601   3.006   3.794   4.071
 4213TIP3   OH212602   4.674   1.850   3.231
 4213TIP3    H112603   4.693   1.758   3.210
 4213TIP3    H212604   4.717   1.899   3.161
 4214TIP3   OH212605   1.995   5.367   5.746
 4214TIP3    H112606   2.032   5.434   5.688
 4214TIP3    H212607   2.033   5.387   5.831
 4215TIP3   OH212608   0.319   2.618   1.064
 4215TIP3    H112609   0.285   2.529   1.057
 4215TIP3    H212610   0.352   2.638   0.976
 4216TIP3   OH212611   5.477   0.096   4.346
 4216TIP3    H112612   5.443   0.185   4.354
 4216TIP3    H212613   5.411   0.051   4.292
 4217TIP3   OH212614   4.573   3.881   2.429
 4217TIP3    H112615   4.614   3.935   2.361
 4217TIP3    H212616   4.621   3.901   2.509
 4218TIP3   OH212617   1.601   5.534   4.307
 4218TIP3    H112618   1.556   5.616   4.284
 4218TIP3    H212619   1.564   5.510   4.393
 4219TIP3   OH212620   0.911   6.432   3.157
 4219TIP3    H112621   0.942   6.452   3.069
 4219TIP3    H212622   0.964   6.358   3.185
 4220TIP3   OH212623   4.412   0.990   1.315
 4220TIP3    H112624   4.428   0.896   1.326
 4220TIP3    H212625   4.328   0.994   1.269
 4221TIP3   OH212626   3.234   2.857   2.990
 4221TIP3    H112627   3.141   2.878   2.982
 4221TIP3    H212628   3.236   2.763   3.007
 4222TIP3   OH212629   2.522   0.579   5.800
 4222TIP3    H112630   2.535   0.496   5.845
 4222TIP3    H212631   2.483   0.556   5.716
 4223TIP3   OH212632   0.417   2.183   2.825
 4223TIP3    H112633   0.329   2.197   2.790
 4223TIP3    H212634   0.450   2.108   2.775
 4224TIP3   OH212635   7.013   0.631   5.709
 4224TIP3    H112636   6.942   0.616   5.771
 4224TIP3    H212637   6.971   0.631   5.623
 4225TIP3   OH212638   5.318   1.680   3.285
 4225TIP3    H112639   5.318   1.588   3.261
 4225TIP3    H212640   5.226   1.707   3.280
 4226TIP3   OH212641   3.576   1.804   1.161
 4226TIP3    H112642   3.583   1.866   1.089
 4226TIP3    H212643   3.494   1.826   1.205
 4227TIP3   OH212644   4.454   2.950   3.993
 4227TIP3    H112645   4.486   2.969   4.081
 4227TIP3    H212646   4.453   2.854   3.988
 4228TIP3   OH212647   1.190   3.163   0.740
 4228TIP3    H112648   1.201   3.182   0.647
 4228TIP3    H212649   1.136   3.234   0.774
 4229TIP3   OH212650   2.460   6.725   0.747
 4229TIP3    H112651   2.442   6.783   0.820
 4229TIP3    H212652   2.410   6.645   0.767
 4230TIP3   OH212653   5.763   0.030   4.893
 4230TIP3    H112654   5.730   0.078   4.817
 4230TIP3    H212655   5.735  -0.061   4.877
 4231TIP3   OH212656   2.204   0.429   3.013
 4231TIP3    H112657   2.139   0.359   3.022
 4231TIP3    H212658   2.271   0.407   3.078
 4232TIP3   OH212659   4.888   0.538   5.735
 4232TIP3    H112660   4.883   0.468   5.670
 4232TIP3    H212661   4.833   0.608   5.700
 4233TIP3   OH212662   4.994   3.173   4.753
 4233TIP3    H112663   4.991   3.269   4.743
 4233TIP3    H212664   4.970   3.158   4.844
 4234TIP3   OH212665   4.626   6.014   2.858
 4234TIP3    H112666   4.690   5.977   2.798
 4234TIP3    H212667   4.673   6.083   2.904
 4235TIP3   OH212668   4.282   2.383   1.157
 4235TIP3    H112669   4.221   2.339   1.217
 4235TIP3    H212670   4.239   2.465   1.134
 4236TIP3   OH212671   1.228   1.510   1.776
 4236TIP3    H112672   1.157   1.491   1.715
 4236TIP3    H212673   1.302   1.458   1.744
 4237TIP3   OH212674   0.213   6.654   2.447
 4237TIP3    H112675   0.142   6.713   2.470
 4237TIP3    H212676   0.275   6.709   2.399
 4238TIP3   OH212677   1.325   2.744   4.857
 4238TIP3    H112678   1.244   2.696   4.838
 4238TIP3    H212679   1.358   2.705   4.938
 4239TIP3   OH212680   7.004   3.737   3.194
 4239TIP3    H112681   7.097   3.733   3.218
 4239TIP3    H212682   6.958   3.715   3.275
 4240TIP3   OH212683   2.666   0.088   5.737
 4240TIP3    H112684   2.702   0.151   5.675
 4240TIP3    H212685   2.571   0.096   5.728
 4241TIP3   OH212686   5.740   6.378   3.046
 4241TIP3    H112687   5.767   6.460   3.089
 4241TIP3    H212688   5.789   6.310   3.092
 4242TIP3   OH212689   1.852   0.057   1.613
 4242TIP3    H112690   1.846   0.052   1.708
 4242TIP3    H212691   1.902  -0.021   1.588
 4243TIP3   OH212692   5.593   1.759   2.769
 4243TIP3    H112693   5.536   1.685   2.747
 4243TIP3    H212694   5.554   1.796   2.849
 4244TIP3   OH212695   5.899   4.364   0.595
 4244TIP3    H112696   5.903   4.269   0.586
 4244TIP3    H212697   5.987   4.389   0.626
 4245TIP3   OH212698   0.889   6.056   5.188
 4245TIP3    H112699   0.967   6.112   5.187
 4245TIP3    H212700   0.819   6.112   5.153
 4246TIP3   OH212701   2.355   5.023   4.883
 4246TIP3    H112702   2.389   4.983   4.964
 4246TIP3    H212703   2.380   5.115   4.890
 4247TIP3   OH212704   1.973   3.653   1.302
 4247TIP3    H112705   1.973   3.741   1.265
 4247TIP3    H212706   1.980   3.595   1.226
 4248TIP3   OH212707   4.705   4.589   2.596
 4248TIP3    H112708   4.641   4.600   2.666
 4248TIP3    H212709   4.653   4.578   2.516
 4249TIP3   OH212710   0.594   4.165   4.946
 4249TIP3    H112711   0.615   4.251   4.982
 4249TIP3    H212712   0.672   4.112   4.963
 4250TIP3   OH212713   3.007   1.044   0.750
 4250TIP3    H112714   2.974   1.072   0.665
 4250TIP3    H212715   2.948   1.084   0.814
 4251TIP3   OH212716   1.267   2.910   3.912
 4251TIP3    H112717   1.210   2.874   3.844
 4251TIP3    H212718   1.210   2.922   3.987
 4252TIP3   OH212719   7.198   4.358   3.415
 4252TIP3    H112720   7.112   4.335   3.379
 4252TIP3    H212721   7.203   4.310   3.497
 4253TIP3   OH212722   0.252   5.130   2.183
 4253TIP3    H112723   0.227   5.142   2.274
 4253TIP3    H212724   0.318   5.198   2.167
 4254TIP3   OH212725   3.819   5.132   1.892
 4254TIP3    H112726   3.789   5.191   1.961
 4254TIP3    H212727   3.741   5.084   1.865
 4255TIP3   OH212728   4.096   5.267   2.059
 4255TIP3    H112729   4.161   5.236   2.123
 4255TIP3    H212730   4.045   5.188   2.038
 4256TIP3   OH212731   3.380   5.448   3.210
 4256TIP3    H112732   3.469   5.444   3.245
 4256TIP3    H212733   3.325   5.420   3.283
 4257TIP3   OH212734   2.637   2.655   1.217
 4257TIP3    H112735   2.696   2.597   1.168
 4257TIP3    H212736   2.681   2.740   1.217
 4258TIP3   OH212737   4.426   6.026   4.579
 4258TIP3    H112738   4.430   5.939   4.620
 4258TIP3    H212739   4.517   6.058   4.582
 4259TIP3   OH212740   0.417   1.971   0.277
 4259TIP3    H112741   0.448   2.045   0.329
 4259TIP3    H212742   0.333   1.948   0.316
 4260TIP3   OH212743   4.179   3.292   4.103
 4260TIP3    H112744   4.114   3.275   4.035
 4260TIP3    H212745   4.170   3.218   4.163
 4261TIP3   OH212746   0.601   3.437   2.934
 4261TIP3    H112747   0.527   3.494   2.913
 4261TIP3    H212748   0.677   3.485   2.902
 4262TIP3   OH212749   4.174   1.940   4.266
 4262TIP3    H112750   4.267   1.930   4.249
 4262TIP3    H212751   4.152   1.867   4.324
 4263TIP3   OH212752   6.644   2.962   5.597
 4263TIP3    H112753   6.686   2.962   5.683
 4263TIP3    H212754   6.666   3.048   5.560
 4264TIP3   OH212755   0.478   2.457   2.179
 4264TIP3    H112756   0.564   2.416   2.192
 4264TIP3    H212757   0.495   2.551   2.182
 4265TIP3   OH212758   3.099   2.031   1.991
 4265TIP3    H112759   3.111   1.938   2.012
 4265TIP3    H212760   3.174   2.052   1.936
 4266TIP3   OH212761   5.816   1.698   0.378
 4266TIP3    H112762   5.846   1.619   0.424
 4266TIP3    H212763   5.762   1.744   0.442
 4267TIP3   OH212764   2.343   4.356   0.440
 4267TIP3    H112765   2.403   4.397   0.377
 4267TIP3    H212766   2.291   4.429   0.474
 4268TIP3   OH212767   7.069   0.828   1.470
 4268TIP3    H112768   7.072   0.794   1.560
 4268TIP3    H212769   7.003   0.898   1.473
 4269TIP3   OH212770   6.386   2.111   4.977
 4269TIP3    H112771   6.438   2.057   4.918
 4269TIP3    H212772   6.440   2.118   5.056
 4270TIP3   OH212773   0.927   0.827   1.246
 4270TIP3    H112774   0.982   0.872   1.182
 4270TIP3    H212775   0.948   0.870   1.329
 4271TIP3   OH212776   6.289   6.802   4.096
 4271TIP3    H112777   6.194   6.794   4.083
 4271TIP3    H212778   6.301   6.785   4.189
 4272TIP3   OH212779   0.713   0.165   2.287
 4272TIP3    H112780   0.646   0.201   2.229
 4272TIP3    H212781   0.735   0.080   2.248
 4273TIP3   OH212782   1.053   5.882   2.535
 4273TIP3    H112783   1.081   5.972   2.524
 4273TIP3    H212784   0.980   5.887   2.597
 4274TIP3   OH212785   1.035   2.759   4.789
 4274TIP3    H112786   0.955   2.809   4.773
 4274TIP3    H212787   1.004   2.670   4.809
 4275TIP3   OH212788   5.474   5.088   5.519
 4275TIP3    H112789   5.554   5.139   5.510
 4275TIP3    H212790   5.503   4.997   5.506
 4276TIP3   OH212791   1.370   1.653   2.942
 4276TIP3    H112792   1.393   1.561   2.930
 4276TIP3    H212793   1.297   1.669   2.882
 4277TIP3   OH212794   5.276   0.544   4.883
 4277TIP3    H112795   5.182   0.563   4.884
 4277TIP3    H212796   5.316   0.621   4.843
 4278TIP3   OH212797   1.192   4.417   2.250
 4278TIP3    H112798   1.135   4.450   2.319
 4278TIP3    H212799   1.189   4.484   2.182
 4279TIP3   OH212800   0.688   0.195   2.871
 4279TIP3    H112801   0.630   0.160   2.938
 4279TIP3    H212802   0.634   0.201   2.792
 4280TIP3   OH212803   2.099   3.670   5.241
 4280TIP3    H112804   2.035   3.686   5.311
 4280TIP3    H212805   2.054   3.611   5.181
 4281TIP3   OH212806   4.018   1.419   2.656
 4281TIP3    H112807   4.027   1.324   2.652
 4281TIP3    H212808   3.925   1.436   2.640
 4282TIP3   OH212809   1.415   0.722   3.109
 4282TIP3    H112810   1.487   0.683   3.058
 4282TIP3    H212811   1.408   0.812   3.075
 4283TIP3   OH212812   2.157   0.979   5.444
 4283TIP3    H112813   2.245   0.949   5.469
 4283TIP3    H212814   2.142   0.940   5.358
 4284TIP3   OH212815   3.035   4.210   5.641
 4284TIP3    H112816   3.093   4.134   5.649
 4284TIP3    H212817   2.999   4.203   5.552
 4285TIP3   OH212818   3.744   2.130   0.337
 4285TIP3    H112819   3.752   2.223   0.356
 4285TIP3    H212820   3.753   2.087   0.422
 4286TIP3   OH212821   5.960   4.078   0.491
 4286TIP3    H112822   6.020   4.005   0.503
 4286TIP3    H212823   5.890   4.043   0.437
 4287TIP3   OH212824   6.329   2.560   1.975
 4287TIP3    H112825   6.313   2.531   2.065
 4287TIP3    H212826   6.338   2.479   1.925
 4288TIP3   OH212827   5.721   4.872   4.595
 4288TIP3    H112828   5.786   4.863   4.665
 4288TIP3    H212829   5.638   4.845   4.636
 4289TIP3   OH212830   5.026   1.910   3.242
 4289TIP3    H112831   5.031   1.825   3.286
 4289TIP3    H212832   5.102   1.959   3.276
 4290TIP3   OH212833   2.290   3.474   3.848
 4290TIP3    H112834   2.269   3.402   3.907
 4290TIP3    H212835   2.374   3.507   3.879
 4291TIP3   OH212836   4.203   2.436   3.363
 4291TIP3    H112837   4.275   2.441   3.426
 4291TIP3    H212838   4.246   2.440   3.278
 4292TIP3   OH212839   3.551   3.804   1.163
 4292TIP3    H112840   3.486   3.744   1.127
 4292TIP3    H212841   3.623   3.802   1.100
 4293TIP3   OH212842   3.287   0.836   4.968
 4293TIP3    H112843   3.259   0.764   4.912
 4293TIP3    H212844   3.382   0.834   4.964
 4294TIP3   OH212845   3.211   4.360   1.499
 4294TIP3    H112846   3.294   4.406   1.485
 4294TIP3    H212847   3.150   4.401   1.439
 4295TIP3   OH212848   6.384   3.417   5.223
 4295TIP3    H112849   6.335   3.432   5.304
 4295TIP3    H212850   6.465   3.374   5.251
 4296TIP3   OH212851   6.815   3.016   1.693
 4296TIP3    H112852   6.787   2.956   1.762
 4296TIP3    H212853   6.798   3.103   1.728
 4297TIP3   OH212854   4.717   2.689   3.304
 4297TIP3    H112855   4.734   2.599   3.279
 4297TIP3    H212856   4.749   2.695   3.394
 4298TIP3   OH212857   3.508   5.048   1.341
 4298TIP3    H112858   3.435   5.028   1.399
 4298TIP3    H212859   3.472   5.038   1.253
 4299TIP3   OH212860   0.327   2.346   0.067
 4299TIP3    H112861   0.235   2.369   0.062
 4299TIP3    H212862   0.352   2.365   0.158
 4300TIP3   OH212863   2.571   3.495   3.393
 4300TIP3    H112864   2.657   3.454   3.388
 4300TIP3    H212865   2.532   3.479   3.307
 4301TIP3   OH212866   4.593   6.053   4.822
 4301TIP3    H112867   4.576   5.968   4.782
 4301TIP3    H212868   4.580   6.039   4.915
 4302TIP3   OH212869   2.227   4.689   5.841
 4302TIP3    H112870   2.221   4.777   5.878
 4302TIP3    H212871   2.296   4.694   5.776
 4303TIP3   OH212872   6.043   5.301   2.908
 4303TIP3    H112873   6.093   5.318   2.828
 4303TIP3    H212874   5.964   5.354   2.899
 4304TIP3   OH212875   6.848   5.900   3.701
 4304TIP3    H112876   6.861   5.995   3.704
 4304TIP3    H212877   6.869   5.870   3.790
 4305TIP3   OH212878   6.453   2.169   2.584
 4305TIP3    H112879   6.432   2.082   2.552
 4305TIP3    H212880   6.422   2.169   2.675
 4306TIP3   OH212881   1.954   4.938   4.938
 4306TIP3    H112882   1.866   4.906   4.962
 4306TIP3    H212883   1.937   5.011   4.878
 4307TIP3   OH212884   7.057   5.369   1.746
 4307TIP3    H112885   6.967   5.358   1.715
 4307TIP3    H212886   7.051   5.436   1.814
 4308TIP3   OH212887   6.629   5.680   2.195
 4308TIP3    H112888   6.580   5.599   2.182
 4308TIP3    H212889   6.608   5.706   2.285
 4309TIP3   OH212890   1.625   3.725   0.350
 4309TIP3    H112891   1.654   3.722   0.441
 4309TIP3    H212892   1.529   3.724   0.354
 4310TIP3   OH212893   0.849   3.907   5.532
 4310TIP3    H112894   0.762   3.899   5.493
 4310TIP3    H212895   0.894   3.827   5.506
 4311TIP3   OH212896   2.163   0.308   3.557
 4311TIP3    H112897   2.156   0.307   3.653
 4311TIP3    H212898   2.256   0.295   3.540
 4312TIP3   OH212899   2.728   3.371   1.180
 4312TIP3    H112900   2.729   3.455   1.134
 4312TIP3    H212901   2.649   3.375   1.235
 4313TIP3   OH212902   5.032   1.693   1.430
 4313TIP3    H112903   5.036   1.787   1.415
 4313TIP3    H212904   5.122   1.667   1.448
 4314TIP3   OH212905   2.580   0.856   5.717
 4314TIP3    H112906   2.630   0.913   5.775
 4314TIP3    H212907   2.554   0.782   5.773
 4315TIP3   OH212908   0.180   0.099   0.887
 4315TIP3    H112909   0.199   0.117   0.979
 4315TIP3    H212910   0.129   0.018   0.889
 4316TIP3   OH212911   0.554   2.917   3.350
 4316TIP3    H112912   0.496   2.885   3.419
 4316TIP3    H212913   0.513   2.890   3.269
 4317TIP3   OH212914   1.918   0.435   5.627
 4317TIP3    H112915   1.946   0.523   5.601
 4317TIP3    H212916   1.825   0.433   5.606
 4318TIP3   OH212917   2.000   3.372   0.579
 4318TIP3    H112918   1.919   3.378   0.528
 4318TIP3    H212919   2.064   3.335   0.519
 4319TIP3   OH212920   3.339   5.632   4.201
 4319TIP3    H112921   3.260   5.660   4.248
 4319TIP3    H212922   3.411   5.659   4.257
 4320TIP3   OH212923   5.683   6.053   4.410
 4320TIP3    H112924   5.746   6.104   4.360
 4320TIP3    H212925   5.615   6.116   4.436
 4321TIP3   OH212926   0.117   6.035   1.169
 4321TIP3    H112927   0.146   6.088   1.094
 4321TIP3    H212928   0.147   5.947   1.149
 4322TIP3   OH212929   3.815   1.986   2.800
 4322TIP3    H112930   3.775   1.975   2.714
 4322TIP3    H212931   3.867   1.907   2.813
 4323TIP3   OH212932   4.130   3.562   4.700
 4323TIP3    H112933   4.075   3.602   4.632
 4323TIP3    H212934   4.157   3.635   4.755
 4324TIP3   OH212935   2.736   0.513   1.800
 4324TIP3    H112936   2.723   0.587   1.741
 4324TIP3    H212937   2.764   0.441   1.743
 4325TIP3   OH212938   5.681   0.222   4.717
 4325TIP3    H112939   5.651   0.313   4.721
 4325TIP3    H212940   5.606   0.174   4.681
 4326TIP3   OH212941   1.049   4.890   4.473
 4326TIP3    H112942   0.961   4.907   4.505
 4326TIP3    H212943   1.045   4.907   4.379
 4327TIP3   OH212944   3.064   4.180   2.222
 4327TIP3    H112945   3.122   4.105   2.211
 4327TIP3    H212946   3.095   4.244   2.157
 4328TIP3   OH212947   6.200   0.140   1.659
 4328TIP3    H112948   6.240   0.121   1.574
 4328TIP3    H212949   6.274   0.155   1.717
 4329TIP3   OH212950   3.546   0.644   5.893
 4329TIP3    H112951   3.588   0.681   5.815
 4329TIP3    H212952   3.617   0.633   5.956
 4330TIP3   OH212953   3.415   5.361   3.704
 4330TIP3    H112954   3.395   5.299   3.774
 4330TIP3    H212955   3.479   5.316   3.648
 4331TIP3   OH212956   2.151   5.304   0.754
 4331TIP3    H112957   2.105   5.382   0.724
 4331TIP3    H212958   2.158   5.249   0.676
 4332TIP3   OH212959   4.169   1.945   2.302
 4332TIP3    H112960   4.223   2.024   2.310
 4332TIP3    H212961   4.232   1.875   2.287
 4333TIP3   OH212962   4.879   5.127   1.470
 4333TIP3    H112963   4.909   5.036   1.476
 4333TIP3    H212964   4.946   5.178   1.514
 4334TIP3   OH212965   0.365   1.825   5.735
 4334TIP3    H112966   0.300   1.774   5.687
 4334TIP3    H212967   0.320   1.908   5.755
 4335TIP3   OH212968   6.642   5.747   0.838
 4335TIP3    H112969   6.567   5.695   0.811
 4335TIP3    H212970   6.618   5.837   0.818
 4336TIP3   OH212971   2.535   6.602   1.082
 4336TIP3    H112972   2.449   6.623   1.118
 4336TIP3    H212973   2.597   6.642   1.143
 4337TIP3   OH212974   2.313   3.859   3.616
 4337TIP3    H112975   2.260   3.832   3.541
 4337TIP3    H212976   2.259   3.925   3.660
 4338TIP3   OH212977   5.235   3.690   4.965
 4338TIP3    H112978   5.190   3.774   4.958
 4338TIP3    H212979   5.164   3.625   4.969
 4339TIP3   OH212980   1.168   4.724   2.992
 4339TIP3    H112981   1.079   4.698   2.966
 4339TIP3    H212982   1.173   4.817   2.969
 4340TIP3   OH212983   3.870   2.731   0.039
 4340TIP3    H112984   3.936   2.695   0.098
 4340TIP3    H212985   3.810   2.778   0.097
 4341TIP3   OH212986   2.049   6.336   4.872
 4341TIP3    H112987   2.055   6.358   4.779
 4341TIP3    H212988   2.134   6.298   4.894
 4342TIP3   OH212989   1.143   5.261   0.443
 4342TIP3    H112990   1.071   5.258   0.506
 4342TIP3    H212991   1.189   5.343   0.464
 4343TIP3   OH212992   2.412   3.871   1.480
 4343TIP3    H112993   2.396   3.776   1.480
 4343TIP3    H212994   2.358   3.904   1.552
 4344TIP3   OH212995   7.215   0.104   2.656
 4344TIP3    H112996   7.243   0.196   2.659
 4344TIP3    H212997   7.135   0.106   2.602
 4345TIP3   OH212998   4.217   3.035   3.889
 4345TIP3    H112999   4.295   3.005   3.936
 4345TIP3    H213000   4.248   3.107   3.834
 4346TIP3   OH213001   4.836   4.636   0.556
 4346TIP3    H113002   4.762   4.694   0.575
 4346TIP3    H213003   4.892   4.687   0.498
 4347TIP3   OH213004   1.675   6.330   3.168
 4347TIP3    H113005   1.722   6.294   3.243
 4347TIP3    H213006   1.590   6.356   3.203
 4348TIP3   OH213007   2.743   6.057   1.206
 4348TIP3    H113008   2.692   5.977   1.195
 4348TIP3    H213009   2.728   6.107   1.126
 4349TIP3   OH213010   1.373   1.829   3.522
 4349TIP3    H113011   1.374   1.882   3.602
 4349TIP3    H213012   1.280   1.819   3.502
 4350TIP3   OH213013   2.454   2.590   0.745
 4350TIP3    H113014   2.364   2.575   0.715
 4350TIP3    H213015   2.482   2.505   0.781
 4351TIP3   OH213016   2.122   4.774   4.147
 4351TIP3    H113017   2.203   4.788   4.196
 4351TIP3    H213018   2.131   4.831   4.070
 4352TIP3   OH213019   5.922   6.646   5.254
 4352TIP3    H113020   5.982   6.696   5.198
 4352TIP3    H213021   5.895   6.572   5.200
 4353TIP3   OH213022   6.910   4.150   5.220
 4353TIP3    H113023   6.963   4.211   5.273
 4353TIP3    H213024   6.891   4.077   5.279
 4354TIP3   OH213025   3.546   5.995   0.429
 4354TIP3    H113026   3.496   5.914   0.419
 4354TIP3    H213027   3.486   6.064   0.403
 4355TIP3   OH213028   6.163   4.966   5.625
 4355TIP3    H113029   6.068   4.953   5.628
 4355TIP3    H213030   6.199   4.877   5.617
 4356TIP3   OH213031   1.482   2.088   4.424
 4356TIP3    H113032   1.528   2.038   4.492
 4356TIP3    H213033   1.434   2.022   4.374
 4357TIP3   OH213034   1.203   5.857   0.121
 4357TIP3    H113035   1.175   5.944   0.093
 4357TIP3    H213036   1.125   5.802   0.110
 4358TIP3   OH213037   2.617   4.993   4.522
 4358TIP3    H113038   2.618   4.942   4.602
 4358TIP3    H213039   2.674   4.946   4.462
 4359TIP3   OH213040   0.253   4.858   1.307
 4359TIP3    H113041   0.263   4.780   1.361
 4359TIP3    H213042   0.161   4.856   1.278
 4360TIP3   OH213043   2.490   5.359   0.344
 4360TIP3    H113044   2.523   5.295   0.407
 4360TIP3    H213045   2.509   5.321   0.258
 4361TIP3   OH213046   3.697   6.729   5.095
 4361TIP3    H113047   3.722   6.640   5.117
 4361TIP3    H213048   3.780   6.775   5.080
 4362TIP3   OH213049   5.051   2.369   2.253
 4362TIP3    H113050   5.005   2.359   2.170
 4362TIP3    H213051   5.003   2.313   2.315
 4363TIP3   OH213052   3.347   3.058   5.013
 4363TIP3    H113053   3.313   3.005   5.084
 4363TIP3    H213054   3.373   3.140   5.055
 4364TIP3   OH213055   6.871   1.035   1.082
 4364TIP3    H113056   6.837   0.982   1.154
 4364TIP3    H213057   6.928   1.099   1.124
 4365TIP3   OH213058   1.675   3.888   2.653
 4365TIP3    H113059   1.594   3.853   2.688
 4365TIP3    H213060   1.679   3.978   2.686
 4366TIP3   OH213061   0.670   1.258   5.512
 4366TIP3    H113062   0.610   1.304   5.570
 4366TIP3    H213063   0.622   1.180   5.484
 4367TIP3   OH213064   0.143   2.943   0.500
 4367TIP3    H113065   0.163   2.852   0.522
 4367TIP3    H213066   0.069   2.938   0.441
 4368TIP3   OH213067   2.845   5.310   0.189
 4368TIP3    H113068   2.896   5.284   0.112
 4368TIP3    H213069   2.775   5.365   0.153
 4369TIP3   OH213070   7.148   0.737   0.139
 4369TIP3    H113071   7.149   0.807   0.205
 4369TIP3    H213072   7.205   0.669   0.175
 4370TIP3   OH213073   1.388   1.941   4.221
 4370TIP3    H113074   1.383   1.976   4.132
 4370TIP3    H213075   1.448   1.867   4.214
 4371TIP3   OH213076   1.789   5.078   4.403
 4371TIP3    H113077   1.848   5.007   4.430
 4371TIP3    H213078   1.810   5.092   4.311
 4372TIP3   OH213079   2.363   6.458   2.054
 4372TIP3    H113080   2.442   6.513   2.050
 4372TIP3    H213081   2.306   6.494   1.985
 4373TIP3   OH213082   1.812   2.697   2.122
 4373TIP3    H113083   1.739   2.690   2.184
 4373TIP3    H213084   1.864   2.618   2.137
 4374TIP3   OH213085   4.723   1.331   0.565
 4374TIP3    H113086   4.758   1.381   0.491
 4374TIP3    H213087   4.783   1.351   0.637
 4375TIP3   OH213088   6.240   5.986   2.487
 4375TIP3    H113089   6.224   5.968   2.395
 4375TIP3    H213090   6.165   5.948   2.532
 4376TIP3   OH213091   2.591   2.395   3.192
 4376TIP3    H113092   2.496   2.407   3.194
 4376TIP3    H213093   2.626   2.484   3.187
 4377TIP3   OH213094   1.418   2.445   2.417
 4377TIP3    H113095   1.481   2.378   2.444
 4377TIP3    H213096   1.333   2.403   2.426
 4378TIP3   OH213097   4.424   5.452   2.920
 4378TIP3    H113098   4.454   5.438   2.830
 4378TIP3    H213099   4.503   5.479   2.967
 4379TIP3   OH213100   6.963   4.249   1.086
 4379TIP3    H113101   6.911   4.327   1.066
 4379TIP3    H213102   6.910   4.176   1.056
 4380TIP3   OH213103   2.334   0.920   3.970
 4380TIP3    H113104   2.395   0.926   3.896
 4380TIP3    H213105   2.276   0.996   3.960
 4381TIP3   OH213106   2.422   4.000   2.716
 4381TIP3    H113107   2.410   3.942   2.641
 4381TIP3    H213108   2.356   4.069   2.704
 4382TIP3   OH213109   0.528   4.608   0.271
 4382TIP3    H113110   0.475   4.643   0.343
 4382TIP3    H213111   0.603   4.567   0.314
 4383TIP3   OH213112   5.269   1.692   3.804
 4383TIP3    H113113   5.257   1.597   3.801
 4383TIP3    H213114   5.184   1.727   3.829
 4384TIP3   OH213115   2.293   4.926   2.030
 4384TIP3    H113116   2.276   4.966   1.945
 4384TIP3    H213117   2.381   4.891   2.023
 4385TIP3   OH213118   6.562   0.654   2.881
 4385TIP3    H113119   6.625   0.704   2.933
 4385TIP3    H213120   6.584   0.563   2.899
 4386TIP3   OH213121   5.521   6.367   1.134
 4386TIP3    H113122   5.474   6.426   1.075
 4386TIP3    H213123   5.453   6.324   1.185
 4387TIP3   OH213124   3.622   4.525   2.141
 4387TIP3    H113125   3.702   4.476   2.120
 4387TIP3    H213126   3.653   4.600   2.191
 4388TIP3   OH213127   1.881   4.628   4.110
 4388TIP3    H113128   1.868   4.720   4.087
 4388TIP3    H213129   1.971   4.610   4.083
 4389TIP3   OH213130   4.079   4.960   5.373
 4389TIP3    H113131   4.172   4.941   5.363
 4389TIP3    H213132   4.054   4.999   5.289
 4390TIP3   OH213133   2.412   0.231   3.443
 4390TIP3    H113134   2.399   0.152   3.390
 4390TIP3    H213135   2.503   0.226   3.471
 4391TIP3   OH213136   2.964   1.549   0.333
 4391TIP3    H113137   2.877   1.519   0.360
 4391TIP3    H213138   2.972   1.637   0.371
 4392TIP3   OH213139   4.549   1.545   3.551
 4392TIP3    H113140   4.627   1.598   3.535
 4392TIP3    H213141   4.476   1.604   3.533
 4393TIP3   OH213142   3.651   0.150   2.740
 4393TIP3    H113143   3.718   0.087   2.764
 4393TIP3    H213144   3.688   0.199   2.667
 4394TIP3   OH213145   4.076   6.608   4.442
 4394TIP3    H113146   4.075   6.571   4.354
 4394TIP3    H213147   3.986   6.636   4.458
 4395TIP3   OH213148   6.641   1.277   4.845
 4395TIP3    H113149   6.656   1.280   4.751
 4395TIP3    H213150   6.729   1.280   4.884
 4396TIP3   OH213151   4.993   3.934   3.754
 4396TIP3    H113152   5.080   3.931   3.794
 4396TIP3    H213153   4.994   3.862   3.690
 4397TIP3   OH213154   6.615   2.252   4.781
 4397TIP3    H113155   6.624   2.161   4.810
 4397TIP3    H213156   6.678   2.260   4.710
 4398TIP3   OH213157   0.543   3.152   1.315
 4398TIP3    H113158   0.536   3.062   1.346
 4398TIP3    H213159   0.627   3.155   1.269
 4399TIP3   OH213160   0.119   2.784   2.126
 4399TIP3    H113161   0.165   2.865   2.102
 4399TIP3    H213162   0.095   2.744   2.042
 4400TIP3   OH213163   4.836   2.594   2.762
 4400TIP3    H113164   4.856   2.666   2.822
 4400TIP3    H213165   4.786   2.532   2.815
 4401TIP3   OH213166   2.853   3.431   0.098
 4401TIP3    H113167   2.776   3.465   0.144
 4401TIP3    H213168   2.886   3.505   0.049
 4402TIP3   OH213169   0.377   6.373   4.306
 4402TIP3    H113170   0.458   6.367   4.355
 4402TIP3    H213171   0.358   6.284   4.279
 4403TIP3   OH213172   0.290   4.840   5.539
 4403TIP3    H113173   0.289   4.933   5.561
 4403TIP3    H213174   0.366   4.829   5.482
 4404TIP3   OH213175   4.226   6.537   0.102
 4404TIP3    H113176   4.305   6.569   0.057
 4404TIP3    H213177   4.253   6.453   0.140
 4405TIP3   OH213178   1.800   0.328   2.366
 4405TIP3    H113179   1.725   0.353   2.311
 4405TIP3    H213180   1.814   0.235   2.347
 4406TIP3   OH213181   2.595   1.446   5.562
 4406TIP3    H113182   2.632   1.366   5.600
 4406TIP3    H213183   2.511   1.419   5.525
 4407TIP3   OH213184   6.726   5.094   0.501
 4407TIP3    H113185   6.810   5.139   0.498
 4407TIP3    H213186   6.749   5.003   0.519
 4408TIP3   OH213187   3.413   6.836   5.844
 4408TIP3    H113188   3.318   6.847   5.846
 4408TIP3    H213189   3.427   6.748   5.878
 4409TIP3   OH213190   6.045   2.709   4.048
 4409TIP3    H113191   6.003   2.654   3.981
 4409TIP3    H213192   6.067   2.648   4.118
 4410TIP3   OH213193   0.927   1.822   3.847
 4410TIP3    H113194   1.012   1.781   3.862
 4410TIP3    H213195   0.915   1.880   3.922
 4411TIP3   OH213196   2.106   5.965   1.144
 4411TIP3    H113197   2.164   5.930   1.211
 4411TIP3    H213198   2.039   6.013   1.192
 4412TIP3   OH213199   5.682   4.483   5.896
 4412TIP3    H113200   5.728   4.545   5.953
 4412TIP3    H213201   5.611   4.449   5.951
 4413TIP3   OH213202   5.880   3.361   1.896
 4413TIP3    H113203   5.949   3.376   1.831
 4413TIP3    H213204   5.885   3.267   1.914
 4414TIP3   OH213205   6.793   4.928   3.154
 4414TIP3    H113206   6.760   4.865   3.090
 4414TIP3    H213207   6.817   4.876   3.230
 4415TIP3   OH213208   3.488   2.503   3.186
 4415TIP3    H113209   3.583   2.512   3.187
 4415TIP3    H213210   3.463   2.504   3.278
 4416TIP3   OH213211   2.477   5.755   4.774
 4416TIP3    H113212   2.532   5.688   4.734
 4416TIP3    H213213   2.391   5.714   4.783
 4417TIP3   OH213214   4.914   1.309   2.871
 4417TIP3    H113215   4.946   1.268   2.790
 4417TIP3    H213216   4.993   1.329   2.920
 4418TIP3   OH213217   3.354   5.047   3.643
 4418TIP3    H113218   3.407   4.999   3.580
 4418TIP3    H213219   3.404   5.044   3.725
 4419TIP3   OH213220   3.123   5.699   0.292
 4419TIP3    H113221   3.049   5.734   0.341
 4419TIP3    H213222   3.161   5.774   0.248
 4420TIP3   OH213223   2.827   3.111   0.623
 4420TIP3    H113224   2.821   3.038   0.684
 4420TIP3    H213225   2.760   3.173   0.651
 4421TIP3   OH213226   5.856   6.236   5.374
 4421TIP3    H113227   5.786   6.176   5.400
 4421TIP3    H213228   5.929   6.215   5.432
 4422TIP3   OH213229   0.452   4.083   3.401
 4422TIP3    H113230   0.441   4.135   3.321
 4422TIP3    H213231   0.443   3.992   3.371
 4423TIP3   OH213232   5.462   3.092   1.823
 4423TIP3    H113233   5.434   3.184   1.826
 4423TIP3    H213234   5.558   3.097   1.830
 4424TIP3   OH213235   5.386   1.403   1.058
 4424TIP3    H113236   5.389   1.343   0.984
 4424TIP3    H213237   5.368   1.347   1.134
 4425TIP3   OH213238   4.197   1.697   4.113
 4425TIP3    H113239   4.245   1.641   4.175
 4425TIP3    H213240   4.130   1.740   4.166
 4426TIP3   OH213241   6.265   0.644   2.128
 4426TIP3    H113242   6.222   0.607   2.050
 4426TIP3    H213243   6.358   0.628   2.115
 4427TIP3   OH213244   2.319   4.323   3.077
 4427TIP3    H113245   2.261   4.381   3.127
 4427TIP3    H213246   2.263   4.282   3.012
 4428TIP3   OH213247   3.136   2.778   0.123
 4428TIP3    H113248   3.076   2.846   0.151
 4428TIP3    H213249   3.202   2.824   0.071
 4429TIP3   OH213250   5.908   5.920   1.228
 4429TIP3    H113251   5.866   5.838   1.203
 4429TIP3    H213252   5.841   5.968   1.277
 4430TIP3   OH213253   4.627   0.431   0.093
 4430TIP3    H113254   4.637   0.500   0.158
 4430TIP3    H213255   4.610   0.478   0.011
 4431TIP3   OH213256   2.984   5.878   5.642
 4431TIP3    H113257   2.897   5.851   5.611
 4431TIP3    H213258   3.024   5.798   5.675
 4432TIP3   OH213259   2.381   4.817   4.417
 4432TIP3    H113260   2.434   4.744   4.449
 4432TIP3    H213261   2.338   4.851   4.496
 4433TIP3   OH213262   4.174   3.056   0.268
 4433TIP3    H113263   4.109   3.086   0.205
 4433TIP3    H213264   4.238   3.007   0.215
 4434TIP3   OH213265   3.495   4.728   3.212
 4434TIP3    H113266   3.516   4.638   3.188
 4434TIP3    H213267   3.404   4.725   3.242
 4435TIP3   OH213268   6.254   0.748   2.660
 4435TIP3    H113269   6.300   0.736   2.576
 4435TIP3    H213270   6.208   0.665   2.674
 4436TIP3   OH213271   4.965   1.041   5.108
 4436TIP3    H113272   4.945   1.133   5.091
 4436TIP3    H213273   5.041   1.044   5.167
 4437TIP3   OH213274   3.406   5.333   4.799
 4437TIP3    H113275   3.455   5.274   4.857
 4437TIP3    H213276   3.462   5.411   4.791
 4438TIP3   OH213277   4.645   1.968   5.568
 4438TIP3    H113278   4.633   2.061   5.550
 4438TIP3    H213279   4.577   1.924   5.515
 4439TIP3   OH213280   4.852   1.168   2.497
 4439TIP3    H113281   4.842   1.200   2.407
 4439TIP3    H213282   4.779   1.209   2.544
 4440TIP3   OH213283   4.696   0.519   1.019
 4440TIP3    H113284   4.683   0.613   1.014
 4440TIP3    H213285   4.699   0.490   0.928
 4441TIP3   OH213286   1.628   3.210   4.280
 4441TIP3    H113287   1.576   3.236   4.204
 4441TIP3    H213288   1.611   3.116   4.290
 4442TIP3   OH213289   0.541   2.347   3.096
 4442TIP3    H113290   0.511   2.260   3.123
 4442TIP3    H213291   0.462   2.390   3.063
 4443TIP3   OH213292   5.280   5.241   3.255
 4443TIP3    H113293   5.224   5.166   3.234
 4443TIP3    H213294   5.221   5.304   3.296
 4444TIP3   OH213295   5.010   5.063   4.092
 4444TIP3    H113296   5.094   5.018   4.078
 4444TIP3    H213297   5.030   5.128   4.160
 4445TIP3   OH213298   0.867   5.632   2.814
 4445TIP3    H113299   0.878   5.578   2.892
 4445TIP3    H213300   0.878   5.722   2.844
 4446TIP3   OH213301   4.675   0.155   1.361
 4446TIP3    H113302   4.732   0.139   1.436
 4446TIP3    H213303   4.726   0.211   1.303
 4447TIP3   OH213304   6.588   5.815   3.986
 4447TIP3    H113305   6.602   5.792   3.894
 4447TIP3    H213306   6.497   5.791   4.004
 4448TIP3   OH213307   0.743   6.048   3.220
 4448TIP3    H113308   0.810   6.086   3.163
 4448TIP3    H213309   0.793   5.993   3.280
 4449TIP3   OH213310   4.088   5.998   2.498
 4449TIP3    H113311   4.124   6.059   2.433
 4449TIP3    H213312   4.011   6.043   2.533
 4450TIP3   OH213313   0.950   6.181   1.815
 4450TIP3    H113314   1.000   6.118   1.763
 4450TIP3    H213315   0.887   6.127   1.863
 4451TIP3   OH213316   6.722   2.477   1.318
 4451TIP3    H113317   6.740   2.502   1.409
 4451TIP3    H213318   6.804   2.492   1.272
 4452TIP3   OH213319   0.003   2.722   4.856
 4452TIP3    H113320  -0.019   2.758   4.770
 4452TIP3    H213321   0.080   2.668   4.840
 4453TIP3   OH213322   4.207   2.663   2.615
 4453TIP3    H113323   4.125   2.675   2.663
 4453TIP3    H213324   4.264   2.616   2.676
 4454TIP3   OH213325   4.785   6.283   4.723
 4454TIP3    H113326   4.735   6.202   4.735
 4454TIP3    H213327   4.811   6.282   4.631
 4455TIP3   OH213328   6.395   2.058   5.418
 4455TIP3    H113329   6.339   2.131   5.391
 4455TIP3    H213330   6.386   2.055   5.513
 4456TIP3   OH213331   4.945   2.341   5.741
 4456TIP3    H113332   4.967   2.414   5.798
 4456TIP3    H213333   4.851   2.352   5.724
 4457TIP3   OH213334   4.922   0.828   3.281
 4457TIP3    H113335   4.923   0.820   3.186
 4457TIP3    H213336   4.981   0.760   3.312
 4458TIP3   OH213337   3.424   1.501   5.873
 4458TIP3    H113338   3.437   1.413   5.838
 4458TIP3    H213339   3.427   1.490   5.968
 4459TIP3   OH213340   6.447   3.247   0.491
 4459TIP3    H113341   6.379   3.222   0.428
 4459TIP3    H213342   6.512   3.294   0.439
 4460TIP3   OH213343   7.098   3.342   2.442
 4460TIP3    H113344   7.165   3.380   2.499
 4460TIP3    H213345   7.147   3.284   2.383
 4461TIP3   OH213346   3.993   5.941   0.718
 4461TIP3    H113347   3.909   5.938   0.763
 4461TIP3    H213348   4.010   6.034   0.705
 4462TIP3   OH213349   2.389   1.951   0.281
 4462TIP3    H113350   2.385   1.878   0.219
 4462TIP3    H213351   2.298   1.964   0.309
 4463TIP3   OH213352   4.928   4.551   4.090
 4463TIP3    H113353   4.889   4.638   4.096
 4463TIP3    H213354   4.915   4.513   4.177
 4464TIP3   OH213355   2.605   1.283   4.283
 4464TIP3    H113356   2.669   1.249   4.346
 4464TIP3    H213357   2.521   1.256   4.318
 4465TIP3   OH213358   1.328   4.673   0.204
 4465TIP3    H113359   1.379   4.629   0.136
 4465TIP3    H213360   1.336   4.766   0.184
 4466TIP3   OH213361   6.182   2.989   5.087
 4466TIP3    H113362   6.194   3.070   5.137
 4466TIP3    H213363   6.250   2.931   5.121
 4467TIP3   OH213364   1.452   6.102   0.389
 4467TIP3    H113365   1.534   6.146   0.367
 4467TIP3    H213366   1.472   6.009   0.380
 4468TIP3   OH213367   0.332   5.089   3.458
 4468TIP3    H113368   0.263   5.090   3.524
 4468TIP3    H213369   0.319   5.007   3.410
 4469TIP3   OH213370   3.439   3.948   1.533
 4469TIP3    H113371   3.463   3.994   1.452
 4469TIP3    H213372   3.523   3.926   1.573
 4470TIP3   OH213373   5.055   0.479   3.766
 4470TIP3    H113374   4.981   0.498   3.707
 4470TIP3    H213375   5.014   0.464   3.851
 4471TIP3   OH213376   0.173   6.699   4.170
 4471TIP3    H113377   0.172   6.616   4.218
 4471TIP3    H213378   0.091   6.741   4.194
 4472TIP3   OH213379   5.036   1.993   2.421
 4472TIP3    H113380   4.993   2.070   2.458
 4472TIP3    H213381   5.129   2.005   2.440
 4473TIP3   OH213382   7.163   1.300   2.710
 4473TIP3    H113383   7.243   1.248   2.714
 4473TIP3    H213384   7.185   1.375   2.656
 4474TIP3   OH213385   2.153   2.532   2.077
 4474TIP3    H113386   2.164   2.595   2.148
 4474TIP3    H213387   2.073   2.485   2.099
 4475TIP3   OH213388   5.430   0.959   5.467
 4475TIP3    H113389   5.501   0.925   5.413
 4475TIP3    H213390   5.365   0.990   5.404
 4476TIP3   OH213391   5.474   4.348   3.410
 4476TIP3    H113392   5.517   4.433   3.421
 4476TIP3    H213393   5.513   4.293   3.478
 4477TIP3   OH213394   6.134   3.750   5.436
 4477TIP3    H113395   6.211   3.797   5.405
 4477TIP3    H213396   6.092   3.810   5.497
 4478TIP3   OH213397   3.293   3.109   3.073
 4478TIP3    H113398   3.283   3.017   3.050
 4478TIP3    H213399   3.387   3.123   3.078
 4479TIP3   OH213400   3.674   3.768   3.483
 4479TIP3    H113401   3.607   3.836   3.487
 4479TIP3    H213402   3.724   3.779   3.564
 4480TIP3   OH213403   3.624   3.447   1.060
 4480TIP3    H113404   3.537   3.462   1.021
 4480TIP3    H213405   3.607   3.386   1.132
 4481TIP3   OH213406   6.104   1.804   4.076
 4481TIP3    H113407   6.059   1.746   4.138
 4481TIP3    H213408   6.033   1.843   4.025
 4482TIP3   OH213409   3.530   2.785   0.317
 4482TIP3    H113410   3.477   2.858   0.348
 4482TIP3    H213411   3.602   2.826   0.269
 4483TIP3   OH213412   0.401   4.378   0.236
 4483TIP3    H113413   0.437   4.465   0.220
 4483TIP3    H213414   0.329   4.392   0.296
 4484TIP3   OH213415   0.028   6.365   1.091
 4484TIP3    H113416   0.032   6.355   1.186
 4484TIP3    H213417   0.118   6.355   1.062
 4485TIP3   OH213418   4.960   5.391   0.974
 4485TIP3    H113419   4.971   5.302   1.007
 4485TIP3    H213420   4.954   5.446   1.052
 4486TIP3   OH213421   0.060   1.378   0.862
 4486TIP3    H113422   0.130   1.382   0.927
 4486TIP3    H213423   0.085   1.442   0.796
 4487TIP3   OH213424   1.106   4.141   2.141
 4487TIP3    H113425   1.097   4.232   2.170
 4487TIP3    H213426   1.199   4.120   2.154
 4488TIP3   OH213427   3.519   3.600   2.661
 4488TIP3    H113428   3.488   3.602   2.752
 4488TIP3    H213429   3.448   3.559   2.612
 4489TIP3   OH213430   4.593   2.479   5.445
 4489TIP3    H113431   4.610   2.566   5.483
 4489TIP3    H213432   4.617   2.489   5.353
 4490TIP3   OH213433   5.466   6.300   5.665
 4490TIP3    H113434   5.374   6.276   5.669
 4490TIP3    H213435   5.487   6.329   5.754
 4491TIP3   OH213436   0.963   3.113   2.988
 4491TIP3    H113437   0.992   3.130   3.078
 4491TIP3    H213438   0.879   3.157   2.982
 4492TIP3   OH213439   2.669   4.422   1.375
 4492TIP3    H113440   2.641   4.340   1.335
 4492TIP3    H213441   2.676   4.401   1.469
 4493TIP3   OH213442   4.831   2.739   1.391
 4493TIP3    H113443   4.760   2.792   1.427
 4493TIP3    H213444   4.804   2.649   1.406
 4494TIP3   OH213445   2.116   0.783   2.298
 4494TIP3    H113446   2.136   0.742   2.383
 4494TIP3    H213447   2.043   0.842   2.316
 4495TIP3   OH213448   2.626   6.708   0.196
 4495TIP3    H113449   2.548   6.668   0.235
 4495TIP3    H213450   2.697   6.647   0.218
 4496TIP3   OH213451   3.081   6.608   2.911
 4496TIP3    H113452   3.059   6.597   2.818
 4496TIP3    H213453   3.045   6.529   2.953
 4497TIP3   OH213454   4.407   4.936   1.789
 4497TIP3    H113455   4.342   4.869   1.764
 4497TIP3    H213456   4.371   5.018   1.755
 4498TIP3   OH213457   3.973   2.374   4.103
 4498TIP3    H113458   4.002   2.381   4.012
 4498TIP3    H213459   3.946   2.463   4.126
 4499TIP3   OH213460   3.615   5.265   1.185
 4499TIP3    H113461   3.564   5.201   1.235
 4499TIP3    H213462   3.679   5.212   1.138
 4500TIP3   OH213463   3.998   2.356   5.180
 4500TIP3    H113464   3.999   2.400   5.265
 4500TIP3    H213465   3.915   2.382   5.141
 4501TIP3   OH213466   0.228   1.701   5.153
 4501TIP3    H113467   0.137   1.688   5.181
 4501TIP3    H213468   0.278   1.643   5.210
 4502TIP3   OH213469   1.933   2.976   5.050
 4502TIP3    H113470   1.859   2.928   5.012
 4502TIP3    H213471   1.937   2.945   5.141
 4503TIP3   OH213472   5.585   1.179   2.405
 4503TIP3    H113473   5.561   1.266   2.436
 4503TIP3    H213474   5.670   1.162   2.445
 4504TIP3   OH213475   2.677   3.364   1.807
 4504TIP3    H113476   2.728   3.403   1.877
 4504TIP3    H213477   2.614   3.432   1.783
 4505TIP3   OH213478   1.927   5.510   5.117
 4505TIP3    H113479   1.837   5.541   5.109
 4505TIP3    H213480   1.919   5.426   5.163
 4506TIP3   OH213481   2.159   2.586   2.844
 4506TIP3    H113482   2.240   2.563   2.799
 4506TIP3    H213483   2.185   2.653   2.908
 4507TIP3   OH213484   2.535   1.056   3.541
 4507TIP3    H113485   2.511   0.995   3.472
 4507TIP3    H213486   2.576   1.129   3.495
 4508TIP3   OH213487   1.642   6.158   2.041
 4508TIP3    H113488   1.603   6.163   1.954
 4508TIP3    H213489   1.682   6.071   2.045
 4509TIP3   OH213490   4.990   2.495   4.936
 4509TIP3    H113491   4.922   2.448   4.888
 4509TIP3    H213492   4.950   2.578   4.959
 4510TIP3   OH213493   6.980   2.582   0.051
 4510TIP3    H113494   6.961   2.506  -0.005
 4510TIP3    H213495   6.954   2.657  -0.002
 4511TIP3   OH213496   4.890   0.554   1.380
 4511TIP3    H113497   4.805   0.585   1.413
 4511TIP3    H213498   4.940   0.533   1.459
 4512TIP3   OH213499   2.148   6.420   0.615
 4512TIP3    H113500   2.123   6.328   0.619
 4512TIP3    H213501   2.234   6.420   0.571
 4513TIP3   OH213502   2.950   6.060   3.234
 4513TIP3    H113503   3.016   6.129   3.247
 4513TIP3    H213504   2.949   6.012   3.317
 4514TIP3   OH213505   6.337   4.167   2.652
 4514TIP3    H113506   6.373   4.149   2.565
 4514TIP3    H213507   6.389   4.241   2.684
 4515TIP3   OH213508   3.476   4.231   2.834
 4515TIP3    H113509   3.570   4.225   2.855
 4515TIP3    H213510   3.434   4.250   2.918
 4516TIP3   OH213511   4.394   2.344   3.563
 4516TIP3    H113512   4.349   2.359   3.646
 4516TIP3    H213513   4.383   2.250   3.546
 4517TIP3   OH213514   0.299   2.252   4.076
 4517TIP3    H113515   0.294   2.340   4.040
 4517TIP3    H213516   0.337   2.264   4.163
 4518TIP3   OH213517   6.148   1.844   2.568
 4518TIP3    H113518   6.099   1.774   2.526
 4518TIP3    H213519   6.180   1.805   2.650
 4519TIP3   OH213520   1.006   3.121   3.732
 4519TIP3    H113521   0.967   3.109   3.818
 4519TIP3    H213522   1.003   3.033   3.693
 4520TIP3   OH213523   0.859   6.606   1.896
 4520TIP3    H113524   0.892   6.689   1.929
 4520TIP3    H213525   0.875   6.609   1.801
 4521TIP3   OH213526   7.020   2.780   2.125
 4521TIP3    H113527   7.099   2.799   2.075
 4521TIP3    H213528   6.954   2.839   2.090
 4522TIP3   OH213529   3.625   3.002   4.944
 4522TIP3    H113530   3.540   2.988   4.987
 4522TIP3    H213531   3.614   2.964   4.857
 4523TIP3   OH213532   3.119   5.226   5.164
 4523TIP3    H113533   3.029   5.192   5.164
 4523TIP3    H213534   3.113   5.310   5.210
 4524TIP3   OH213535   5.370   1.305   2.699
 4524TIP3    H113536   5.318   1.324   2.621
 4524TIP3    H213537   5.421   1.385   2.713
 4525TIP3   OH213538   2.736   3.717   3.094
 4525TIP3    H113539   2.656   3.749   3.136
 4525TIP3    H213540   2.704   3.672   3.016
 4526TIP3   OH213541   4.438   4.094   2.694
 4526TIP3    H113542   4.396   4.123   2.613
 4526TIP3    H213543   4.529   4.122   2.686
 4527TIP3   OH213544   3.246   3.755   5.344
 4527TIP3    H113545   3.201   3.672   5.361
 4527TIP3    H213546   3.185   3.822   5.373
 4528TIP3   OH213547   0.289   5.357   0.495
 4528TIP3    H113548   0.319   5.280   0.447
 4528TIP3    H213549   0.274   5.423   0.427
 4529TIP3   OH213550   4.564   0.433   3.212
 4529TIP3    H113551   4.512   0.496   3.262
 4529TIP3    H213552   4.654   0.451   3.238
 4530TIP3   OH213553   1.027   4.291   3.835
 4530TIP3    H113554   1.085   4.241   3.893
 4530TIP3    H213555   0.972   4.226   3.793
 4531TIP3   OH213556   5.699   3.771   1.862
 4531TIP3    H113557   5.773   3.831   1.862
 4531TIP3    H213558   5.629   3.817   1.909
 4532TIP3   OH213559   1.902   1.939   4.976
 4532TIP3    H113560   1.991   1.959   4.946
 4532TIP3    H213561   1.876   2.014   5.029
 4533TIP3   OH213562   6.977   4.619   5.823
 4533TIP3    H113563   6.892   4.615   5.867
 4533TIP3    H213564   7.000   4.712   5.824
 4534TIP3   OH213565   2.206   2.112   2.945
 4534TIP3    H113566   2.153   2.034   2.963
 4534TIP3    H213567   2.206   2.161   3.027
 4535TIP3   OH213568   1.679   3.043   5.330
 4535TIP3    H113569   1.664   2.951   5.352
 4535TIP3    H213570   1.664   3.047   5.235
 4536TIP3   OH213571   3.332   5.817   2.357
 4536TIP3    H113572   3.367   5.792   2.271
 4536TIP3    H213573   3.262   5.879   2.338
 4537TIP3   OH213574   3.643   0.928   4.072
 4537TIP3    H113575   3.561   0.892   4.039
 4537TIP3    H213576   3.673   0.865   4.137
 4538TIP3   OH213577   3.576   6.370   1.103
 4538TIP3    H113578   3.649   6.424   1.131
 4538TIP3    H213579   3.526   6.354   1.183
 4539TIP3   OH213580   7.111   5.103   5.029
 4539TIP3    H113581   7.170   5.156   4.976
 4539TIP3    H213582   7.024   5.138   5.011
 4540TIP3   OH213583   2.927   2.073   3.499
 4540TIP3    H113584   2.951   2.021   3.576
 4540TIP3    H213585   2.940   2.014   3.425
 4541TIP3   OH213586   4.225   0.599   5.468
 4541TIP3    H113587   4.193   0.653   5.395
 4541TIP3    H213588   4.158   0.532   5.479
 4542TIP3   OH213589   0.919   6.176   1.365
 4542TIP3    H113590   0.963   6.093   1.382
 4542TIP3    H213591   0.950   6.234   1.434
 4543TIP3   OH213592   5.405   4.345   5.550
 4543TIP3    H113593   5.457   4.278   5.506
 4543TIP3    H213594   5.325   4.351   5.499
 4544TIP3   OH213595   1.253   3.315   3.434
 4544TIP3    H113596   1.270   3.221   3.422
 4544TIP3    H213597   1.340   3.354   3.442
 4545TIP3   OH213598   1.883   3.947   1.505
 4545TIP3    H113599   1.915   4.015   1.446
 4545TIP3    H213600   1.858   3.994   1.585
 4546TIP3   OH213601   2.597   2.027   5.040
 4546TIP3    H113602   2.654   1.989   5.107
 4546TIP3    H213603   2.550   2.097   5.085
 4547TIP3   OH213604   0.013   4.967   5.412
 4547TIP3    H113605   0.098   5.008   5.398
 4547TIP3    H213606   0.030   4.873   5.402
 4548TIP3   OH213607   1.598   1.501   5.357
 4548TIP3    H113608   1.521   1.548   5.325
 4548TIP3    H213609   1.610   1.532   5.447
 4549TIP3   OH213610   0.255   5.745   0.547
 4549TIP3    H113611   0.315   5.816   0.569
 4549TIP3    H213612   0.311   5.670   0.529
 4550TIP3   OH213613   4.672   5.709   2.340
 4550TIP3    H113614   4.603   5.684   2.403
 4550TIP3    H213615   4.663   5.646   2.269
 4551TIP3   OH213616   4.991   5.896   1.649
 4551TIP3    H113617   4.967   5.989   1.644
 4551TIP3    H213618   4.974   5.872   1.740
 4552TIP3   OH213619   0.061   5.469   2.180
 4552TIP3    H113620   0.149   5.437   2.161
 4552TIP3    H213621   0.011   5.390   2.200
 4553TIP3   OH213622   5.880   1.112   3.770
 4553TIP3    H113623   5.791   1.131   3.798
 4553TIP3    H213624   5.930   1.191   3.794
 4554TIP3   OH213625   3.115   4.832   5.796
 4554TIP3    H113626   3.173   4.829   5.873
 4554TIP3    H213627   3.115   4.742   5.763
 4555TIP3   OH213628   6.841   6.584   3.470
 4555TIP3    H113629   6.807   6.642   3.402
 4555TIP3    H213630   6.911   6.635   3.511
 4556TIP3   OH213631   4.909   2.220   2.495
 4556TIP3    H113632   4.886   2.312   2.506
 4556TIP3    H213633   4.825   2.174   2.492
 4557TIP3   OH213634   5.331   4.260   2.864
 4557TIP3    H113635   5.339   4.311   2.945
 4557TIP3    H213636   5.237   4.254   2.849
 4558TIP3   OH213637   5.330   6.361   0.915
 4558TIP3    H113638   5.235   6.351   0.906
 4558TIP3    H213639   5.342   6.451   0.946
 4559TIP3   OH213640   3.596   4.987   2.460
 4559TIP3    H113641   3.537   4.912   2.452
 4559TIP3    H213642   3.683   4.950   2.447
 4560TIP3   OH213643   0.687   2.652   5.565
 4560TIP3    H113644   0.746   2.608   5.504
 4560TIP3    H213645   0.625   2.699   5.508
 4561TIP3   OH213646   2.202   1.558   4.112
 4561TIP3    H113647   2.212   1.635   4.168
 4561TIP3    H213648   2.146   1.499   4.162
 4562TIP3   OH213649   7.092   6.262   0.209
 4562TIP3    H113650   7.144   6.341   0.197
 4562TIP3    H213651   7.012   6.278   0.158
 4563TIP3   OH213652   6.390   3.384   3.531
 4563TIP3    H113653   6.296   3.380   3.545
 4563TIP3    H213654   6.406   3.324   3.457
 4564TIP3   OH213655   5.730   6.168   0.842
 4564TIP3    H113656   5.766   6.193   0.928
 4564TIP3    H213657   5.737   6.073   0.840
 4565TIP3   OH213658   6.088   0.094   1.047
 4565TIP3    H113659   6.139   0.078   1.127
 4565TIP3    H213660   6.150   0.139   0.989
 4566TIP3   OH213661   0.106   2.693   1.802
 4566TIP3    H113662   0.200   2.690   1.787
 4566TIP3    H213663   0.070   2.737   1.725
 4567TIP3   OH213664   6.315   3.252   5.874
 4567TIP3    H113665   6.363   3.185   5.923
 4567TIP3    H213666   6.373   3.328   5.875
 4568TIP3   OH213667   3.568   5.488   4.026
 4568TIP3    H113668   3.605   5.429   3.960
 4568TIP3    H213669   3.637   5.494   4.093
 4569TIP3   OH213670   5.654   2.836   3.746
 4569TIP3    H113671   5.611   2.780   3.682
 4569TIP3    H213672   5.748   2.824   3.731
 4570TIP3   OH213673   0.826   0.419   4.268
 4570TIP3    H113674   0.841   0.461   4.352
 4570TIP3    H213675   0.850   0.485   4.203
 4571TIP3   OH213676   3.851   1.200   4.846
 4571TIP3    H113677   3.777   1.218   4.905
 4571TIP3    H213678   3.885   1.116   4.875
 4572TIP3   OH213679   0.354   1.146   4.943
 4572TIP3    H113680   0.312   1.109   4.865
 4572TIP3    H213681   0.416   1.078   4.971
 4573TIP3   OH213682   3.783   3.183   4.439
 4573TIP3    H113683   3.712   3.213   4.495
 4573TIP3    H213684   3.778   3.240   4.362
 4574TIP3   OH213685   6.259   5.437   0.867
 4574TIP3    H113686   6.212   5.482   0.937
 4574TIP3    H213687   6.315   5.374   0.912
 4575TIP3   OH213688   0.668   5.786   5.885
 4575TIP3    H113689   0.703   5.699   5.866
 4575TIP3    H213690   0.678   5.796   5.979
 4576TIP3   OH213691   0.405   2.492   0.297
 4576TIP3    H113692   0.496   2.481   0.268
 4576TIP3    H213693   0.384   2.583   0.276
 4577TIP3   OH213694   1.909   6.567   5.799
 4577TIP3    H113695   1.874   6.633   5.738
 4577TIP3    H213696   1.949   6.501   5.743
 4578TIP3   OH213697   1.603   3.452   0.909
 4578TIP3    H113698   1.600   3.529   0.966
 4578TIP3    H213699   1.516   3.448   0.870
 4579TIP3   OH213700   2.240   3.206   5.708
 4579TIP3    H113701   2.322   3.160   5.687
 4579TIP3    H213702   2.257   3.296   5.682
 4580TIP3   OH213703   6.749   2.939   3.309
 4580TIP3    H113704   6.792   2.886   3.376
 4580TIP3    H213705   6.656   2.925   3.323
 4581TIP3   OH213706   0.813   5.939   2.674
 4581TIP3    H113707   0.858   5.929   2.758
 4581TIP3    H213708   0.814   6.033   2.658
 4582TIP3   OH213709   4.183   2.350   1.866
 4582TIP3    H113710   4.118   2.351   1.796
 4582TIP3    H213711   4.135   2.324   1.944
 4583TIP3   OH213712   1.145   1.651   3.551
 4583TIP3    H113713   1.120   1.738   3.581
 4583TIP3    H213714   1.085   1.632   3.479
 4584TIP3   OH213715   5.246   3.087   3.635
 4584TIP3    H113716   5.260   2.994   3.649
 4584TIP3    H213717   5.309   3.111   3.566
 4585TIP3   OH213718   5.079   3.558   0.126
 4585TIP3    H113719   5.173   3.552   0.142
 4585TIP3    H213720   5.068   3.532   0.035
 4586TIP3   OH213721   2.771   4.558   4.642
 4586TIP3    H113722   2.785   4.569   4.736
 4586TIP3    H213723   2.818   4.478   4.619
 4587TIP3   OH213724   6.683   5.895   1.791
 4587TIP3    H113725   6.735   5.814   1.795
 4587TIP3    H213726   6.694   5.925   1.701
 4588TIP3   OH213727   2.830   5.341   4.045
 4588TIP3    H113728   2.848   5.428   4.011
 4588TIP3    H213729   2.752   5.352   4.100
 4589TIP3   OH213730   1.037   2.396   1.021
 4589TIP3    H113731   1.009   2.311   0.985
 4589TIP3    H213732   0.956   2.437   1.050
 4590TIP3   OH213733   6.244   6.346   4.288
 4590TIP3    H113734   6.300   6.269   4.279
 4590TIP3    H213735   6.255   6.373   4.379
 4591TIP3   OH213736   5.719   1.297   0.387
 4591TIP3    H113737   5.687   1.351   0.315
 4591TIP3    H213738   5.642   1.247   0.415
 4592TIP3   OH213739   3.754   5.089   5.239
 4592TIP3    H113740   3.773   5.167   5.292
 4592TIP3    H213741   3.781   5.015   5.295
 4593TIP3   OH213742   6.238   1.533   0.596
 4593TIP3    H113743   6.191   1.616   0.594
 4593TIP3    H213744   6.173   1.470   0.627
 4594TIP3   OH213745   1.603   2.927   4.382
 4594TIP3    H113746   1.628   2.882   4.301
 4594TIP3    H213747   1.684   2.934   4.432
 4595TIP3   OH213748   3.242   1.614   1.674
 4595TIP3    H113749   3.234   1.601   1.768
 4595TIP3    H213750   3.254   1.526   1.639
 4596TIP3   OH213751   2.995   4.053   1.315
 4596TIP3    H113752   3.073   4.067   1.369
 4596TIP3    H213753   2.922   4.066   1.375
 4597TIP3   OH213754   6.757   4.084   3.986
 4597TIP3    H113755   6.800   4.101   4.070
 4597TIP3    H213756   6.673   4.131   3.993
 4598TIP3   OH213757   0.782   6.244   0.278
 4598TIP3    H113758   0.696   6.201   0.273
 4598TIP3    H213759   0.785   6.280   0.367
 4599TIP3   OH213760   4.137   2.622   0.649
 4599TIP3    H113761   4.168   2.557   0.712
 4599TIP3    H213762   4.216   2.654   0.606
 4600TIP3   OH213763   5.974   5.483   5.778
 4600TIP3    H113764   5.924   5.446   5.851
 4600TIP3    H213765   6.063   5.494   5.813
 4601TIP3   OH213766   5.095   4.768   0.894
 4601TIP3    H113767   5.133   4.854   0.875
 4601TIP3    H213768   5.167   4.707   0.878
 4602TIP3   OH213769   5.880   2.913   5.605
 4602TIP3    H113770   5.912   2.931   5.517
 4602TIP3    H213771   5.953   2.935   5.663
 4603TIP3   OH213772   1.452   1.162   2.720
 4603TIP3    H113773   1.361   1.150   2.694
 4603TIP3    H213774   1.480   1.243   2.675
 4604TIP3   OH213775   6.298   0.799   1.840
 4604TIP3    H113776   6.339   0.757   1.764
 4604TIP3    H213777   6.370   0.811   1.902
 4605TIP3   OH213778   4.244   5.847   0.713
 4605TIP3    H113779   4.283   5.824   0.629
 4605TIP3    H213780   4.155   5.875   0.691
 4606TIP3   OH213781   2.305   0.637   3.964
 4606TIP3    H113782   2.302   0.733   3.973
 4606TIP3    H213783   2.339   0.606   4.048
 4607TIP3   OH213784   2.496   4.354   2.126
 4607TIP3    H113785   2.421   4.296   2.138
 4607TIP3    H213786   2.504   4.401   2.209
 4608TIP3   OH213787   5.689   1.668   5.629
 4608TIP3    H113788   5.732   1.653   5.544
 4608TIP3    H213789   5.616   1.606   5.630
 4609TIP3   OH213790   1.812   4.162   5.735
 4609TIP3    H113791   1.795   4.208   5.653
 4609TIP3    H213792   1.729   4.163   5.782
 4610TIP3   OH213793   1.348   4.358   0.658
 4610TIP3    H113794   1.368   4.341   0.566
 4610TIP3    H213795   1.368   4.451   0.671
 4611TIP3   OH213796   0.285   3.781   1.518
 4611TIP3    H113797   0.344   3.755   1.448
 4611TIP3    H213798   0.241   3.860   1.485
 4612TIP3   OH213799   6.218   4.693   1.616
 4612TIP3    H113800   6.264   4.754   1.673
 4612TIP3    H213801   6.275   4.685   1.539
 4613TIP3   OH213802   5.095   4.518   5.878
 4613TIP3    H113803   5.007   4.520   5.915
 4613TIP3    H213804   5.094   4.583   5.808
 4614TIP3   OH213805   1.105   4.010   5.863
 4614TIP3    H113806   1.170   3.989   5.930
 4614TIP3    H213807   1.155   4.021   5.783
 4615TIP3   OH213808   2.217   6.260   2.138
 4615TIP3    H113809   2.267   6.338   2.113
 4615TIP3    H213810   2.141   6.260   2.080
 4616TIP3   OH213811   1.803   6.185   2.281
 4616TIP3    H113812   1.831   6.268   2.242
 4616TIP3    H213813   1.708   6.183   2.268
 4617TIP3   OH213814   4.239   5.743   4.560
 4617TIP3    H113815   4.310   5.756   4.622
 4617TIP3    H213816   4.216   5.650   4.567
 4618TIP3   OH213817   3.710   5.322   4.586
 4618TIP3    H113818   3.762   5.362   4.656
 4618TIP3    H213819   3.627   5.371   4.587
 4619TIP3   OH213820   5.657   1.540   5.109
 4619TIP3    H113821   5.732   1.483   5.130
 4619TIP3    H213822   5.631   1.513   5.021
 4620TIP3   OH213823   7.233   3.263   0.222
 4620TIP3    H113824   7.177   3.340   0.213
 4620TIP3    H213825   7.172   3.189   0.222
 4621TIP3   OH213826   3.177   4.359  -0.011
 4621TIP3    H113827   3.175   4.360   0.085
 4621TIP3    H213828   3.123   4.284  -0.036
 4622TIP3   OH213829   2.154   3.778   2.277
 4622TIP3    H113830   2.191   3.751   2.193
 4622TIP3    H213831   2.077   3.722   2.288
 4623TIP3   OH213832   1.944   6.257   3.835
 4623TIP3    H113833   1.918   6.208   3.912
 4623TIP3    H213834   1.928   6.349   3.858
 4624TIP3   OH213835   5.610   1.707   3.798
 4624TIP3    H113836   5.569   1.622   3.810
 4624TIP3    H213837   5.551   1.768   3.844
 4625TIP3   OH213838   2.969   4.830   5.022
 4625TIP3    H113839   3.000   4.767   5.088
 4625TIP3    H213840   3.035   4.899   5.021
 4626TIP3   OH213841   2.246   1.748   4.768
 4626TIP3    H113842   2.176   1.689   4.739
 4626TIP3    H213843   2.307   1.691   4.814
 4627TIP3   OH213844   3.932   4.989   3.744
 4627TIP3    H113845   4.010   4.956   3.700
 4627TIP3    H213846   3.892   4.911   3.784
 4628TIP3   OH213847   4.764   4.256   0.229
 4628TIP3    H113848   4.747   4.169   0.194
 4628TIP3    H213849   4.718   4.257   0.313
 4629TIP3   OH213850   7.036   6.192   2.072
 4629TIP3    H113851   6.976   6.153   2.008
 4629TIP3    H213852   7.083   6.117   2.110
 4630TIP3   OH213853   3.447   0.124   4.914
 4630TIP3    H113854   3.498   0.119   4.995
 4630TIP3    H213855   3.357   0.111   4.942
 4631TIP3   OH213856   6.443   3.684   3.552
 4631TIP3    H113857   6.374   3.723   3.606
 4631TIP3    H213858   6.415   3.593   3.539
 4632TIP3   OH213859   3.191   4.250   2.969
 4632TIP3    H113860   3.226   4.255   2.880
 4632TIP3    H213861   3.105   4.290   2.963
 4633TIP3   OH213862   5.094   5.567   3.213
 4633TIP3    H113863   5.147   5.534   3.141
 4633TIP3    H213864   5.151   5.560   3.290
 4634TIP3   OH213865   4.800   2.894   4.651
 4634TIP3    H113866   4.719   2.878   4.603
 4634TIP3    H213867   4.782   2.971   4.705
 4635TIP3   OH213868   4.560   5.549   1.537
 4635TIP3    H113869   4.588   5.640   1.531
 4635TIP3    H213870   4.472   5.547   1.499
 4636TIP3   OH213871  -0.063   2.334   4.657
 4636TIP3    H113872  -0.073   2.378   4.741
 4636TIP3    H213873   0.031   2.330   4.642
 4637TIP3   OH213874   2.867   5.675   3.271
 4637TIP3    H113875   2.782   5.641   3.242
 4637TIP3    H213876   2.899   5.726   3.197
 4638TIP3   OH213877   0.889   6.357   2.022
 4638TIP3    H113878   0.854   6.431   1.973
 4638TIP3    H213879   0.917   6.295   1.954
 4639TIP3   OH213880   1.583   5.922   5.374
 4639TIP3    H113881   1.524   5.988   5.339
 4639TIP3    H213882   1.623   5.882   5.297
 4640TIP3   OH213883   3.340   3.027   1.218
 4640TIP3    H113884   3.309   2.980   1.141
 4640TIP3    H213885   3.291   2.990   1.291
 4641TIP3   OH213886   7.052   5.585   0.295
 4641TIP3    H113887   7.121   5.633   0.341
 4641TIP3    H213888   7.014   5.650   0.235
 4642TIP3   OH213889   2.172   0.316   5.543
 4642TIP3    H113890   2.103   0.343   5.603
 4642TIP3    H213891   2.132   0.247   5.489
 4643TIP3   OH213892   4.893   4.990   1.931
 4643TIP3    H113893   4.825   4.932   1.897
 4643TIP3    H213894   4.923   4.948   2.011
 4644TIP3   OH213895   1.852   0.246   0.526
 4644TIP3    H113896   1.882   0.336   0.532
 4644TIP3    H213897   1.932   0.193   0.538
 4645TIP3   OH213898   5.642   3.326   5.864
 4645TIP3    H113899   5.607   3.237   5.868
 4645TIP3    H213900   5.618   3.357   5.777
 4646TIP3   OH213901   1.005   3.703   5.450
 4646TIP3    H113902   1.036   3.636   5.389
 4646TIP3    H213903   1.065   3.698   5.524
 4647TIP3   OH213904   1.741   0.348   1.642
 4647TIP3    H113905   1.812   0.363   1.579
 4647TIP3    H213906   1.734   0.253   1.648
 4648TIP3   OH213907   5.781   4.698   2.368
 4648TIP3    H113908   5.763   4.752   2.445
 4648TIP3    H213909   5.722   4.624   2.376
 4649TIP3   OH213910   6.447   5.948   1.942
 4649TIP3    H113911   6.539   5.943   1.916
 4649TIP3    H213912   6.408   5.869   1.906
 4650TIP3   OH213913   1.333   0.383   2.345
 4650TIP3    H113914   1.284   0.416   2.270
 4650TIP3    H213915   1.279   0.403   2.421
 4651TIP3   OH213916   5.235   5.645   2.739
 4651TIP3    H113917   5.329   5.647   2.757
 4651TIP3    H213918   5.220   5.717   2.678
 4652TIP3   OH213919   6.046   6.133   5.563
 4652TIP3    H113920   6.022   6.061   5.622
 4652TIP3    H213921   6.142   6.130   5.559
 4653TIP3   OH213922   1.083   5.722   2.295
 4653TIP3    H113923   1.107   5.776   2.220
 4653TIP3    H213924   1.076   5.784   2.368
 4654TIP3   OH213925   5.992   6.584   3.664
 4654TIP3    H113926   5.981   6.626   3.579
 4654TIP3    H213927   6.078   6.613   3.694
 4655TIP3   OH213928   3.536   1.604   2.411
 4655TIP3    H113929   3.573   1.692   2.405
 4655TIP3    H213930   3.554   1.565   2.325
 4656TIP3   OH213931   3.593   6.175   5.229
 4656TIP3    H113932   3.680   6.140   5.251
 4656TIP3    H213933   3.535   6.099   5.234
 4657TIP3   OH213934   2.769   2.113   4.283
 4657TIP3    H113935   2.838   2.073   4.336
 4657TIP3    H213936   2.693   2.056   4.295
 4658TIP3   OH213937   4.527   0.075   0.093
 4658TIP3    H113938   4.482   0.000   0.055
 4658TIP3    H213939   4.589   0.035   0.155
 4659TIP3   OH213940   2.865   0.598   2.283
 4659TIP3    H113941   2.921   0.605   2.361
 4659TIP3    H213942   2.887   0.676   2.232
 4660TIP3   OH213943   0.833   2.590   1.186
 4660TIP3    H113944   0.865   2.671   1.147
 4660TIP3    H213945   0.749   2.575   1.143
 4661TIP3   OH213946   5.861   3.673   1.203
 4661TIP3    H113947   5.817   3.632   1.277
 4661TIP3    H213948   5.879   3.601   1.142
 4662TIP3   OH213949   5.481   0.297   1.751
 4662TIP3    H113950   5.447   0.333   1.669
 4662TIP3    H213951   5.568   0.337   1.760
 4663TIP3   OH213952   4.342   5.937   0.439
 4663TIP3    H113953   4.282   5.913   0.368
 4663TIP3    H213954   4.405   5.864   0.442
 4664TIP3   OH213955   3.193   5.891   1.609
 4664TIP3    H113956   3.191   5.795   1.603
 4664TIP3    H213957   3.257   5.909   1.678
 4665TIP3   OH213958   0.329   5.101   5.609
 4665TIP3    H113959   0.325   5.116   5.515
 4665TIP3    H213960   0.284   5.176   5.648
 4666TIP3   OH213961   3.504   3.152   0.163
 4666TIP3    H113962   3.452   3.103   0.226
 4666TIP3    H213963   3.579   3.184   0.213
 4667TIP3   OH213964   5.140   6.281   1.210
 4667TIP3    H113965   5.193   6.303   1.286
 4667TIP3    H213966   5.113   6.190   1.225
 4668TIP3   OH213967   4.178   1.804   0.511
 4668TIP3    H113968   4.164   1.777   0.602
 4668TIP3    H213969   4.146   1.730   0.459
 4669TIP3   OH213970   4.396   6.625   3.191
 4669TIP3    H113971   4.321   6.610   3.132
 4669TIP3    H213972   4.372   6.578   3.271
 4670TIP3   OH213973   3.311   3.168   4.751
 4670TIP3    H113974   3.249   3.184   4.680
 4670TIP3    H213975   3.268   3.103   4.807
 4671TIP3   OH213976   1.310   5.546   0.443
 4671TIP3    H113977   1.226   5.548   0.397
 4671TIP3    H213978   1.340   5.637   0.444
 4672TIP3   OH213979   5.587   0.911   2.658
 4672TIP3    H113980   5.651   0.893   2.589
 4672TIP3    H213981   5.601   1.003   2.681
 4673TIP3   OH213982   6.941   0.826   4.438
 4673TIP3    H113983   7.024   0.778   4.438
 4673TIP3    H213984   6.933   0.861   4.350
 4674TIP3   OH213985   6.348   3.735   0.146
 4674TIP3    H113986   6.351   3.757   0.239
 4674TIP3    H213987   6.255   3.720   0.127
 4675TIP3   OH213988   2.628   6.405   2.618
 4675TIP3    H113989   2.592   6.490   2.642
 4675TIP3    H213990   2.681   6.379   2.694
 4676TIP3   OH213991   2.115   1.737   5.771
 4676TIP3    H113992   2.128   1.682   5.848
 4676TIP3    H213993   2.142   1.681   5.698
 4677TIP3   OH213994   4.640   4.940   1.278
 4677TIP3    H113995   4.688   5.007   1.228
 4677TIP3    H213996   4.648   4.968   1.369
 4678TIP3   OH213997   5.509   0.153   5.422
 4678TIP3    H113998   5.461   0.227   5.387
 4678TIP3    H213999   5.521   0.095   5.346
 4679TIP3   OH214000   1.291   1.923   0.915
 4679TIP3    H114001   1.272   1.945   1.006
 4679TIP3    H214002   1.208   1.894   0.878
 4680TIP3   OH214003   3.377   3.064   1.619
 4680TIP3    H114004   3.285   3.091   1.616
 4680TIP3    H214005   3.418   3.112   1.547
 4681TIP3   OH214006   2.395   6.447   5.573
 4681TIP3    H114007   2.454   6.435   5.648
 4681TIP3    H214008   2.379   6.359   5.541
 4682TIP3   OH214009   4.801   3.497   5.369
 4682TIP3    H114010   4.880   3.444   5.375
 4682TIP3    H214011   4.765   3.477   5.282
 4683TIP3   OH214012   6.737   1.406   4.279
 4683TIP3    H114013   6.772   1.323   4.311
 4683TIP3    H214014   6.681   1.438   4.349
 4684TIP3   OH214015   5.790   2.060   3.259
 4684TIP3    H114016   5.867   2.020   3.219
 4684TIP3    H214017   5.824   2.133   3.310
 4685TIP3   OH214018   5.356   3.572   3.059
 4685TIP3    H114019   5.375   3.653   3.105
 4685TIP3    H214020   5.441   3.528   3.051
 4686TIP3   OH214021   0.266   2.892   4.708
 4686TIP3    H114022   0.183   2.938   4.693
 4686TIP3    H214023   0.245   2.800   4.690
 4687TIP3   OH214024   1.092   1.309   2.319
 4687TIP3    H114025   1.183   1.338   2.310
 4687TIP3    H214026   1.097   1.214   2.312
 4688TIP3   OH214027   0.243   4.569   5.504
 4688TIP3    H114028   0.258   4.659   5.534
 4688TIP3    H214029   0.326   4.544   5.463
 4689TIP3   OH214030   6.309   5.900   3.814
 4689TIP3    H114031   6.234   5.946   3.774
 4689TIP3    H214032   6.297   5.809   3.788
 4690TIP3   OH214033   2.905   4.534   4.013
 4690TIP3    H114034   2.991   4.519   4.052
 4690TIP3    H214035   2.909   4.624   3.980
 4691TIP3   OH214036   4.347   3.390   4.744
 4691TIP3    H114037   4.284   3.461   4.747
 4691TIP3    H214038   4.391   3.400   4.660
 4692TIP3   OH214039   2.446   6.758   5.104
 4692TIP3    H114040   2.361   6.730   5.137
 4692TIP3    H214041   2.430   6.781   5.013
 4693TIP3   OH214042   3.508   5.753   2.164
 4693TIP3    H114043   3.572   5.755   2.235
 4693TIP3    H214044   3.561   5.769   2.085
 4694TIP3   OH214045   5.892   3.455   4.849
 4694TIP3    H114046   5.804   3.420   4.834
 4694TIP3    H214047   5.895   3.534   4.796
 4695TIP3   OH214048   1.771   3.172   3.541
 4695TIP3    H114049   1.849   3.142   3.495
 4695TIP3    H214050   1.753   3.103   3.606
 4696TIP3   OH214051   6.129   3.408   3.679
 4696TIP3    H114052   6.118   3.340   3.746
 4696TIP3    H214053   6.048   3.460   3.686
 4697TIP3   OH214054   3.064   4.328   2.460
 4697TIP3    H114055   2.976   4.348   2.493
 4697TIP3    H214056   3.049   4.266   2.388
 4698TIP3   OH214057   4.569   4.183   3.113
 4698TIP3    H114058   4.498   4.222   3.062
 4698TIP3    H214059   4.606   4.256   3.162
 4699TIP3   OH214060   3.804   3.666   5.659
 4699TIP3    H114061   3.800   3.622   5.574
 4699TIP3    H214062   3.870   3.617   5.709
 4700TIP3   OH214063   4.063   0.856   5.607
 4700TIP3    H114064   4.047   0.945   5.575
 4700TIP3    H214065   4.032   0.799   5.537
 4701TIP3   OH214066   5.982   6.601   3.037
 4701TIP3    H114067   6.007   6.518   3.077
 4701TIP3    H214068   6.037   6.666   3.082
 4702TIP3   OH214069   1.644   2.542   3.850
 4702TIP3    H114070   1.609   2.604   3.787
 4702TIP3    H214071   1.600   2.563   3.933
 4703TIP3   OH214072   2.245   6.463   2.625
 4703TIP3    H114073   2.259   6.368   2.632
 4703TIP3    H214074   2.275   6.485   2.537
 4704TIP3   OH214075   1.555   3.102   2.918
 4704TIP3    H114076   1.642   3.131   2.890
 4704TIP3    H214077   1.511   3.076   2.837
 4705TIP3   OH214078   3.989   6.566   4.127
 4705TIP3    H114079   3.896   6.569   4.102
 4705TIP3    H214080   4.027   6.645   4.090
 4706TIP3   OH214081   4.017   0.976   5.868
 4706TIP3    H114082   4.067   0.992   5.788
 4706TIP3    H214083   3.998   0.882   5.867
 4707TIP3   OH214084   1.446   6.388   4.031
 4707TIP3    H114085   1.400   6.470   4.013
 4707TIP3    H214086   1.510   6.381   3.960
 4708TIP3   OH214087   0.406   1.801   4.254
 4708TIP3    H114088   0.383   1.764   4.169
 4708TIP3    H214089   0.414   1.895   4.238
 4709TIP3   OH214090   1.691   6.092   0.652
 4709TIP3    H114091   1.628   6.020   0.650
 4709TIP3    H214092   1.693   6.124   0.562
 4710TIP3   OH214093   6.479   1.260   2.776
 4710TIP3    H114094   6.408   1.232   2.718
 4710TIP3    H214095   6.444   1.337   2.821
 4711TIP3   OH214096   5.207   6.475   2.982
 4711TIP3    H114097   5.192   6.491   3.075
 4711TIP3    H214098   5.289   6.519   2.962
 4712TIP3   OH214099   0.033   0.462   3.514
 4712TIP3    H114100   0.007   0.512   3.437
 4712TIP3    H214101   0.082   0.387   3.478
 4713TIP3   OH214102   0.249   0.297   2.926
 4713TIP3    H114103   0.182   0.230   2.912
 4713TIP3    H214104   0.281   0.317   2.838
 4714TIP3   OH214105   5.758   2.858   0.586
 4714TIP3    H114106   5.701   2.820   0.519
 4714TIP3    H214107   5.706   2.856   0.666
 4715TIP3   OH214108   3.153   6.230   4.780
 4715TIP3    H114109   3.174   6.252   4.689
 4715TIP3    H214110   3.158   6.134   4.783
 4716TIP3   OH214111   6.146   3.455   5.416
 4716TIP3    H114112   6.153   3.550   5.425
 4716TIP3    H214113   6.155   3.422   5.505
 4717TIP3   OH214114   0.460   1.107   1.765
 4717TIP3    H114115   0.482   1.147   1.849
 4717TIP3    H214116   0.538   1.120   1.711
 4718TIP3   OH214117   2.110   6.724   0.900
 4718TIP3    H114118   2.074   6.731   0.811
 4718TIP3    H214119   2.175   6.654   0.894
 4719TIP3   OH214120   7.142   0.304   5.790
 4719TIP3    H114121   7.084   0.367   5.833
 4719TIP3    H214122   7.106   0.219   5.813
 4720TIP3   OH214123   1.503   0.544   4.430
 4720TIP3    H114124   1.414   0.577   4.424
 4720TIP3    H214125   1.538   0.584   4.510
 4721TIP3   OH214126   2.958   2.741   1.500
 4721TIP3    H114127   3.026   2.742   1.567
 4721TIP3    H214128   3.006   2.729   1.418
 4722TIP3   OH214129   0.557   6.500   0.333
 4722TIP3    H114130   0.493   6.561   0.370
 4722TIP3    H214131   0.629   6.556   0.304
 4723TIP3   OH214132   5.844   0.098   0.069
 4723TIP3    H114133   5.756   0.131   0.051
 4723TIP3    H214134   5.854   0.023   0.011
 4724TIP3   OH214135   1.945   2.317   4.756
 4724TIP3    H114136   2.025   2.298   4.705
 4724TIP3    H214137   1.951   2.410   4.777
 4725TIP3   OH214138   1.879   4.773   2.295
 4725TIP3    H114139   1.940   4.714   2.339
 4725TIP3    H214140   1.930   4.813   2.225
 4726TIP3   OH214141   2.166   2.682   5.606
 4726TIP3    H114142   2.187   2.737   5.530
 4726TIP3    H214143   2.106   2.735   5.658
 4727TIP3   OH214144   6.230   2.492   4.584
 4727TIP3    H114145   6.255   2.584   4.579
 4727TIP3    H214146   6.307   2.448   4.621
 4728TIP3   OH214147   4.887   5.549   1.701
 4728TIP3    H114148   4.945   5.536   1.776
 4728TIP3    H214149   4.803   5.512   1.729
 4729TIP3   OH214150   3.767   0.257   2.205
 4729TIP3    H114151   3.807   0.343   2.189
 4729TIP3    H214152   3.787   0.206   2.126
 4730TIP3   OH214153   2.928   0.973   1.898
 4730TIP3    H114154   2.963   0.897   1.945
 4730TIP3    H214155   2.839   0.947   1.873
 4731TIP3   OH214156   6.647   0.572   0.738
 4731TIP3    H114157   6.645   0.494   0.682
 4731TIP3    H214158   6.644   0.538   0.827
 4732TIP3   OH214159   0.688   0.202   0.866
 4732TIP3    H114160   0.594   0.185   0.868
 4732TIP3    H214161   0.705   0.236   0.778
 4733TIP3   OH214162   6.504   5.183   0.327
 4733TIP3    H114163   6.563   5.140   0.390
 4733TIP3    H214164   6.530   5.147   0.242
 4734TIP3   OH214165   1.279   2.980   5.123
 4734TIP3    H114166   1.187   2.973   5.148
 4734TIP3    H214167   1.323   2.910   5.171
 4735TIP3   OH214168   6.786   5.312   2.019
 4735TIP3    H114169   6.878   5.337   2.020
 4735TIP3    H214170   6.748   5.360   1.945
 4736TIP3   OH214171   7.147   1.145   1.189
 4736TIP3    H114172   7.199   1.077   1.232
 4736TIP3    H214173   7.080   1.168   1.254
 4737TIP3   OH214174   1.334   4.024   2.356
 4737TIP3    H114175   1.399   3.971   2.310
 4737TIP3    H214176   1.277   3.959   2.399
 4738TIP3   OH214177   4.604   6.144   5.435
 4738TIP3    H114178   4.694   6.179   5.438
 4738TIP3    H214179   4.597   6.090   5.514
 4739TIP3   OH214180   5.650   5.282   0.950
 4739TIP3    H114181   5.663   5.324   0.865
 4739TIP3    H214182   5.739   5.265   0.983
 4740TIP3   OH214183   5.148   5.496   2.954
 4740TIP3    H114184   5.054   5.478   2.944
 4740TIP3    H214185   5.168   5.558   2.884
 4741TIP3   OH214186   1.117   1.384   2.630
 4741TIP3    H114187   1.031   1.367   2.593
 4741TIP3    H214188   1.144   1.467   2.591
 4742TIP3   OH214189   4.745   5.173   4.617
 4742TIP3    H114190   4.788   5.169   4.703
 4742TIP3    H214191   4.780   5.253   4.577
 4743TIP3   OH214192   2.817   0.348   0.168
 4743TIP3    H114193   2.904   0.360   0.131
 4743TIP3    H214194   2.774   0.433   0.157
 4744TIP3   OH214195   4.375   6.331   0.237
 4744TIP3    H114196   4.467   6.356   0.228
 4744TIP3    H214197   4.373   6.276   0.316
 4745TIP3   OH214198   0.113   5.119   3.625
 4745TIP3    H114199   0.040   5.066   3.593
 4745TIP3    H214200   0.077   5.207   3.633
 4746TIP3   OH214201   0.235   5.367   4.614
 4746TIP3    H114202   0.198   5.363   4.526
 4746TIP3    H214203   0.278   5.452   4.618
 4747TIP3   OH214204   2.020   5.976   0.812
 4747TIP3    H114205   1.957   6.041   0.844
 4747TIP3    H214206   2.022   5.989   0.717
 4748TIP3   OH214207   1.975   0.158   2.090
 4748TIP3    H114208   1.979   0.254   2.091
 4748TIP3    H214209   1.965   0.133   2.182
 4749TIP3   OH214210   0.483   0.354   2.690
 4749TIP3    H114211   0.522   0.437   2.719
 4749TIP3    H214212   0.451   0.373   2.602
 4750TIP3   OH214213   6.602   5.312   2.409
 4750TIP3    H114214   6.672   5.375   2.394
 4750TIP3    H214215   6.611   5.288   2.502
 4751TIP3   OH214216   0.263   2.072   5.820
 4751TIP3    H114217   0.348   2.114   5.813
 4751TIP3    H214218   0.207   2.120   5.758
 4752TIP3   OH214219   4.862   2.972   3.093
 4752TIP3    H114220   4.818   3.004   3.171
 4752TIP3    H214221   4.926   3.041   3.072
 4753TIP3   OH214222   2.092  -0.047   2.934
 4753TIP3    H114223   2.166  -0.013   2.984
 4753TIP3    H214224   2.038   0.030   2.915
 4754TIP3   OH214225   0.464   4.267   5.591
 4754TIP3    H114226   0.460   4.247   5.684
 4754TIP3    H214227   0.377   4.300   5.570
 4755TIP3   OH214228   4.517   5.045   3.982
 4755TIP3    H114229   4.560   4.968   3.946
 4755TIP3    H214230   4.578   5.078   4.048
 4756TIP3   OH214231   2.210   1.718   1.891
 4756TIP3    H114232   2.185   1.800   1.848
 4756TIP3    H214233   2.305   1.718   1.891
 4757TIP3   OH214234   1.516   3.745   0.919
 4757TIP3    H114235   1.539   3.827   0.962
 4757TIP3    H214236   1.437   3.715   0.964
 4758TIP3   OH214237   2.584   1.043   0.778
 4758TIP3    H114238   2.490   1.059   0.769
 4758TIP3    H214239   2.613   1.018   0.690
 4759TIP3   OH214240   5.963   6.370   2.462
 4759TIP3    H114241   5.917   6.336   2.539
 4759TIP3    H214242   5.913   6.448   2.437
 4760TIP3   OH214243   2.404   0.065   2.501
 4760TIP3    H114244   2.489   0.078   2.543
 4760TIP3    H214245   2.395   0.140   2.443
 4761TIP3   OH214246   7.206   1.905   0.977
 4761TIP3    H114247   7.213   1.811   0.960
 4761TIP3    H214248   7.170   1.911   1.065
 4762TIP3   OH214249   6.746   6.652   2.042
 4762TIP3    H114250   6.703   6.728   2.005
 4762TIP3    H214251   6.685   6.620   2.109
 4763TIP3   OH214252   5.859   1.093   3.504
 4763TIP3    H114253   5.774   1.048   3.503
 4763TIP3    H214254   5.881   1.100   3.597
 4764TIP3   OH214255   5.508   3.286   0.580
 4764TIP3    H114256   5.433   3.240   0.541
 4764TIP3    H214257   5.469   3.345   0.644
 4765TIP3   OH214258   6.740   4.963   4.724
 4765TIP3    H114259   6.792   4.999   4.652
 4765TIP3    H214260   6.799   4.903   4.769
 4766TIP3   OH214261   1.923   0.038   2.338
 4766TIP3    H114262   1.845  -0.012   2.362
 4766TIP3    H214263   1.995  -0.011   2.377
 4767TIP3   OH214264   0.762   2.258   3.344
 4767TIP3    H114265   0.675   2.286   3.375
 4767TIP3    H214266   0.806   2.340   3.321
 4768TIP3   OH214267   6.418   6.530   4.118
 4768TIP3    H114268   6.354   6.598   4.143
 4768TIP3    H214269   6.392   6.454   4.170
 4769TIP3   OH214270   1.899   6.628   0.022
 4769TIP3    H114271   1.823   6.685   0.027
 4769TIP3    H214272   1.926   6.617   0.113
 4770TIP3   OH214273   4.837   0.467   0.457
 4770TIP3    H114274   4.822   0.390   0.512
 4770TIP3    H214275   4.830   0.541   0.517
 4771TIP3   OH214276   4.725   3.657   0.390
 4771TIP3    H114277   4.691   3.643   0.302
 4771TIP3    H214278   4.820   3.654   0.380
 4772TIP3   OH214279   6.032   2.346   0.778
 4772TIP3    H114280   5.966   2.278   0.767
 4772TIP3    H214281   6.109   2.312   0.731
 4773TIP3   OH214282   3.347   4.931   4.238
 4773TIP3    H114283   3.341   4.919   4.144
 4773TIP3    H214284   3.376   4.847   4.272
 4774TIP3   OH214285   1.514   4.622   1.901
 4774TIP3    H114286   1.552   4.564   1.967
 4774TIP3    H214287   1.449   4.673   1.948
 4775TIP3   OH214288   1.369   5.219   4.227
 4775TIP3    H114289   1.388   5.215   4.320
 4775TIP3    H214290   1.454   5.209   4.184
 4776TIP3   OH214291   6.060   6.377   1.085
 4776TIP3    H114292   6.077   6.382   1.179
 4776TIP3    H214293   6.016   6.459   1.064
 4777TIP3   OH214294   1.833   2.634   0.765
 4777TIP3    H114295   1.764   2.570   0.781
 4777TIP3    H214296   1.802   2.713   0.810
 4778TIP3   OH214297   2.744   5.441   1.267
 4778TIP3    H114298   2.772   5.425   1.357
 4778TIP3    H214299   2.755   5.536   1.255
 4779TIP3   OH214300   5.067   2.541   1.225
 4779TIP3    H114301   5.037   2.464   1.273
 4779TIP3    H214302   5.000   2.555   1.158
 4780TIP3   OH214303   4.171   6.205   0.010
 4780TIP3    H114304   4.195   6.235   0.098
 4780TIP3    H214305   4.122   6.125   0.025
 4781TIP3   OH214306   3.156   4.313   3.415
 4781TIP3    H114307   3.123   4.373   3.348
 4781TIP3    H214308   3.149   4.226   3.375
 4782TIP3   OH214309   1.694   6.722   5.255
 4782TIP3    H114310   1.676   6.633   5.227
 4782TIP3    H214311   1.629   6.739   5.324
 4783TIP3   OH214312   1.163   3.306   2.927
 4783TIP3    H114313   1.211   3.236   2.971
 4783TIP3    H214314   1.076   3.269   2.912
 4784TIP3   OH214315   0.231   3.597   3.024
 4784TIP3    H114316   0.269   3.524   3.074
 4784TIP3    H214317   0.298   3.618   2.959
 4785TIP3   OH214318   1.173   1.642   3.148
 4785TIP3    H114319   1.239   1.696   3.105
 4785TIP3    H214320   1.224   1.586   3.207
 4786TIP3   OH214321   6.886   5.533   2.936
 4786TIP3    H114322   6.966   5.482   2.940
 4786TIP3    H214323   6.854   5.535   3.026
 4787TIP3   OH214324   2.270   4.783   0.116
 4787TIP3    H114325   2.202   4.846   0.092
 4787TIP3    H214326   2.329   4.832   0.173
 4788TIP3   OH214327   3.122   6.273   3.352
 4788TIP3    H114328   3.040   6.279   3.403
 4788TIP3    H214329   3.162   6.192   3.382
 4789TIP3   OH214330   0.233   0.404   4.481
 4789TIP3    H114331   0.310   0.356   4.451
 4789TIP3    H214332   0.175   0.407   4.404
 4790TIP3   OH214333   2.009   6.002   0.511
 4790TIP3    H114334   2.018   5.962   0.425
 4790TIP3    H214335   1.957   6.081   0.496
 4791TIP3   OH214336   6.991   2.864   2.523
 4791TIP3    H114337   7.065   2.881   2.464
 4791TIP3    H214338   6.939   2.944   2.519
 4792TIP3   OH214339   1.607   1.093   4.767
 4792TIP3    H114340   1.525   1.097   4.717
 4792TIP3    H214341   1.633   1.185   4.777
 4793TIP3   OH214342   5.180   0.304   1.536
 4793TIP3    H114343   5.147   0.388   1.567
 4793TIP3    H214344   5.152   0.241   1.603
 4794TIP3   OH214345   4.720   0.912   5.336
 4794TIP3    H114346   4.769   0.916   5.254
 4794TIP3    H214347   4.712   1.003   5.365
 4795TIP3   OH214348   4.964   1.937   0.074
 4795TIP3    H114349   4.910   1.893   0.139
 4795TIP3    H214350   5.036   1.974   0.124
 4796TIP3   OH214351   6.350   2.957   3.181
 4796TIP3    H114352   6.281   3.020   3.158
 4796TIP3    H214353   6.414   3.008   3.231
 4797TIP3   OH214354   5.669   1.724   2.470
 4797TIP3    H114355   5.663   1.813   2.504
 4797TIP3    H214356   5.585   1.709   2.426
 4798TIP3   OH214357   3.385   0.692   3.459
 4798TIP3    H114358   3.379   0.786   3.474
 4798TIP3    H214359   3.297   0.666   3.432
 4799TIP3   OH214360   5.230   2.937   2.004
 4799TIP3    H114361   5.256   2.858   2.051
 4799TIP3    H214362   5.137   2.925   1.987
 4800TIP3   OH214363   0.650   1.550   2.916
 4800TIP3    H114364   0.627   1.623   2.973
 4800TIP3    H214365   0.718   1.503   2.963
 4801TIP3   OH214366   2.215   6.493   3.147
 4801TIP3    H114367   2.257   6.535   3.072
 4801TIP3    H214368   2.235   6.550   3.221
 4802TIP3   OH214369   1.527   6.736   4.300
 4802TIP3    H114370   1.522   6.641   4.311
 4802TIP3    H214371   1.506   6.751   4.208
 4803TIP3   OH214372   0.191   6.635   1.180
 4803TIP3    H114373   0.175   6.725   1.207
 4803TIP3    H214374   0.183   6.636   1.085
 4804TIP3   OH214375   5.855   0.222   1.455
 4804TIP3    H114376   5.783   0.190   1.401
 4804TIP3    H214377   5.915   0.148   1.462
 4805TIP3   OH214378   6.539   6.641   5.685
 4805TIP3    H114379   6.444   6.650   5.692
 4805TIP3    H214380   6.560   6.565   5.738
 4806TIP3   OH214381   1.198   4.562   2.020
 4806TIP3    H114382   1.104   4.577   2.005
 4806TIP3    H214383   1.217   4.481   1.972
 4807TIP3   OH214384   3.264   4.183   4.983
 4807TIP3    H114385   3.353   4.191   4.948
 4807TIP3    H214386   3.209   4.233   4.923
 4808TIP3   OH214387   7.108   3.534   2.903
 4808TIP3    H114388   7.154   3.617   2.915
 4808TIP3    H214389   7.054   3.548   2.825
 4809TIP3   OH214390   4.760   2.886   3.529
 4809TIP3    H114391   4.820   2.960   3.540
 4809TIP3    H214392   4.675   2.919   3.557
 4810TIP3   OH214393   4.473   0.905   2.127
 4810TIP3    H114394   4.431   0.989   2.108
 4810TIP3    H214395   4.420   0.840   2.081
 4811TIP3   OH214396   0.487   2.193   1.633
 4811TIP3    H114397   0.583   2.193   1.626
 4811TIP3    H214398   0.466   2.279   1.669
 4812TIP3   OH214399   2.762   2.057   0.208
 4812TIP3    H114400   2.820   1.981   0.212
 4812TIP3    H214401   2.696   2.040   0.276
 4813TIP3   OH214402   3.263   1.335   2.983
 4813TIP3    H114403   3.188   1.318   3.040
 4813TIP3    H214404   3.280   1.429   2.994
 4814TIP3   OH214405   4.153   5.068   2.641
 4814TIP3    H114406   4.072   5.030   2.607
 4814TIP3    H214407   4.127   5.154   2.675
 4815TIP3   OH214408   2.976   3.727   0.042
 4815TIP3    H114409   3.008   3.714   0.131
 4815TIP3    H214410   2.954   3.821   0.038
 4816TIP3   OH214411   2.518   5.523   3.398
 4816TIP3    H114412   2.533   5.436   3.433
 4816TIP3    H214413   2.550   5.583   3.466
 4817TIP3   OH214414   0.809   5.834   2.195
 4817TIP3    H114415   0.818   5.809   2.103
 4817TIP3    H214416   0.869   5.908   2.206
 4818TIP3   OH214417   5.859   5.283   4.407
 4818TIP3    H114418   5.783   5.227   4.425
 4818TIP3    H214419   5.822   5.357   4.358
 4819TIP3   OH214420   0.099   2.659   3.172
 4819TIP3    H114421   0.043   2.710   3.114
 4819TIP3    H214422   0.047   2.649   3.252
 4820TIP3   OH214423   1.269   6.046   4.297
 4820TIP3    H114424   1.202   5.999   4.248
 4820TIP3    H214425   1.255   6.019   4.388
 4821TIP3   OH214426   6.064   4.588   3.118
 4821TIP3    H114427   6.098   4.566   3.205
 4821TIP3    H214428   6.137   4.630   3.074
 4822TIP3   OH214429   6.071   0.891   4.059
 4822TIP3    H114430   6.064   0.975   4.013
 4822TIP3    H214431   6.163   0.865   4.048
 4823TIP3   OH214432   5.924   1.837   1.550
 4823TIP3    H114433   5.899   1.751   1.516
 4823TIP3    H214434   5.987   1.872   1.487
 4824TIP3   OH214435   5.614   4.993   1.675
 4824TIP3    H114436   5.593   5.035   1.592
 4824TIP3    H214437   5.637   4.903   1.651
 4825TIP3   OH214438   1.576   6.655   0.772
 4825TIP3    H114439   1.617   6.677   0.689
 4825TIP3    H214440   1.648   6.648   0.834
 4826TIP3   OH214441   0.879   0.563   5.139
 4826TIP3    H114442   0.830   0.601   5.066
 4826TIP3    H214443   0.947   0.627   5.159
 4827TIP3   OH214444   2.854   4.281   1.098
 4827TIP3    H114445   2.913   4.243   1.032
 4827TIP3    H214446   2.820   4.361   1.056
 4828TIP3   OH214447   3.945   2.456   1.754
 4828TIP3    H114448   3.908   2.542   1.736
 4828TIP3    H214449   3.984   2.428   1.671
 4829TIP3   OH214450   6.055   0.943   2.713
 4829TIP3    H114451   6.003   0.894   2.777
 4829TIP3    H214452   6.126   0.884   2.689
 4830TIP3   OH214453   5.384   4.513   0.638
 4830TIP3    H114454   5.476   4.521   0.612
 4830TIP3    H214455   5.341   4.473   0.562
 4831TIP3   OH214456   0.454   2.016   0.716
 4831TIP3    H114457   0.362   2.043   0.714
 4831TIP3    H214458   0.498   2.077   0.657
 4832TIP3   OH214459   2.080   5.764   3.338
 4832TIP3    H114460   2.117   5.843   3.298
 4832TIP3    H214461   2.147   5.697   3.322
 4833TIP3   OH214462   1.316   0.989   5.393
 4833TIP3    H114463   1.391   0.929   5.389
 4833TIP3    H214464   1.273   0.979   5.309
 4834TIP3   OH214465   2.224   1.770   2.491
 4834TIP3    H114466   2.138   1.745   2.523
 4834TIP3    H214467   2.225   1.866   2.497
 4835TIP3   OH214468   3.880   5.079   0.524
 4835TIP3    H114469   3.850   5.102   0.612
 4835TIP3    H214470   3.814   5.116   0.465
 4836TIP3   OH214471   1.403   2.065   0.625
 4836TIP3    H114472   1.388   1.980   0.667
 4836TIP3    H214473   1.480   2.100   0.671
 4837TIP3   OH214474   3.301   6.427   2.622
 4837TIP3    H114475   3.270   6.424   2.532
 4837TIP3    H214476   3.340   6.341   2.637
 4838TIP3   OH214477   2.665   2.595   2.590
 4838TIP3    H114478   2.713   2.513   2.586
 4838TIP3    H214479   2.707   2.644   2.662
 4839TIP3   OH214480   0.589   2.375   4.285
 4839TIP3    H114481   0.645   2.402   4.358
 4839TIP3    H214482   0.587   2.279   4.291
 4840TIP3   OH214483   3.192   0.691   2.452
 4840TIP3    H114484   3.105   0.671   2.486
 4840TIP3    H214485   3.177   0.761   2.389
 4841TIP3   OH214486   2.633   6.130   5.831
 4841TIP3    H114487   2.662   6.079   5.907
 4841TIP3    H214488   2.575   6.070   5.783
 4842TIP3   OH214489   6.920   6.070   1.037
 4842TIP3    H114490   6.856   6.007   1.069
 4842TIP3    H214491   6.981   6.018   0.984
 4843TIP3   OH214492   1.256   6.738   0.116
 4843TIP3    H114493   1.331   6.691   0.078
 4843TIP3    H214494   1.180   6.693   0.080
 4844TIP3   OH214495   6.085   1.027   0.046
 4844TIP3    H114496   6.131   1.106   0.074
 4844TIP3    H214497   6.124   0.957   0.098
 4845TIP3   OH214498   0.595   6.211   3.400
 4845TIP3    H114499   0.642   6.162   3.333
 4845TIP3    H214500   0.663   6.251   3.454
 4846TIP3   OH214501   6.966   0.433   5.191
 4846TIP3    H114502   6.900   0.364   5.181
 4846TIP3    H214503   6.923   0.500   5.244
 4847TIP3   OH214504   2.882   2.234   2.845
 4847TIP3    H114505   2.799   2.219   2.800
 4847TIP3    H214506   2.910   2.147   2.873
 4848TIP3   OH214507   2.264   3.498   2.428
 4848TIP3    H114508   2.216   3.550   2.493
 4848TIP3    H214509   2.356   3.512   2.449
 4849TIP3   OH214510   2.017   3.388   2.741
 4849TIP3    H114511   2.086   3.454   2.752
 4849TIP3    H214512   2.043   3.338   2.664
 4850TIP3   OH214513   6.693   5.829   4.611
 4850TIP3    H114514   6.730   5.766   4.673
 4850TIP3    H214515   6.686   5.910   4.661
 4851TIP3   OH214516   5.008   6.370   1.788
 4851TIP3    H114517   4.985   6.280   1.764
 4851TIP3    H214518   4.936   6.400   1.843
 4852TIP3   OH214519   1.481   2.042   3.283
 4852TIP3    H114520   1.475   2.116   3.224
 4852TIP3    H214521   1.399   2.044   3.333
 4853TIP3   OH214522   0.281   2.792   0.228
 4853TIP3    H114523   0.200   2.844   0.228
 4853TIP3    H214524   0.351   2.857   0.222
 4854TIP3   OH214525   7.052   1.683   3.185
 4854TIP3    H114526   7.114   1.610   3.185
 4854TIP3    H214527   6.969   1.643   3.161
 4855TIP3   OH214528   1.207   0.113   5.640
 4855TIP3    H114529   1.205   0.187   5.578
 4855TIP3    H214530   1.156   0.045   5.597
 4856TIP3   OH214531   4.844   3.643   1.432
 4856TIP3    H114532   4.764   3.590   1.433
 4856TIP3    H214533   4.894   3.610   1.358
 4857TIP3   OH214534   4.182   6.440   4.666
 4857TIP3    H114535   4.151   6.499   4.597
 4857TIP3    H214536   4.109   6.381   4.682
 4858TIP3   OH214537   2.947   4.829   3.966
 4858TIP3    H114538   2.871   4.839   3.909
 4858TIP3    H214539   3.020   4.863   3.915
 4859TIP3   OH214540   4.225   4.752   1.047
 4859TIP3    H114541   4.283   4.676   1.043
 4859TIP3    H214542   4.280   4.823   1.078
 4860TIP3   OH214543   5.210   1.948   0.204
 4860TIP3    H114544   5.226   1.960   0.298
 4860TIP3    H214545   5.257   2.020   0.162
 4861TIP3   OH214546   3.731   5.906   4.013
 4861TIP3    H114547   3.750   6.000   4.006
 4861TIP3    H214548   3.657   5.902   4.075
 4862TIP3   OH214549   4.316   0.565   0.320
 4862TIP3    H114550   4.336   0.616   0.399
 4862TIP3    H214551   4.294   0.478   0.353
 4863TIP3   OH214552   1.071   3.460   1.369
 4863TIP3    H114553   1.098   3.369   1.355
 4863TIP3    H214554   1.124   3.490   1.442
 4864TIP3   OH214555   3.238   3.756   1.582
 4864TIP3    H114556   3.318   3.794   1.547
 4864TIP3    H214557   3.176   3.760   1.510
 4865TIP3   OH214558   3.133   2.076   5.168
 4865TIP3    H114559   3.055   2.067   5.115
 4865TIP3    H214560   3.206   2.074   5.106
 4866TIP3   OH214561   4.491   0.852   0.153
 4866TIP3    H114562   4.534   0.936   0.170
 4866TIP3    H214563   4.514   0.798   0.229
 4867TIP3   OH214564   1.037   5.453   2.328
 4867TIP3    H114565   1.029   5.543   2.298
 4867TIP3    H214566   1.028   5.458   2.423
 4868TIP3   OH214567   5.093   6.504   0.783
 4868TIP3    H114568   5.054   6.417   0.794
 4868TIP3    H214569   5.098   6.540   0.871
 4869TIP3   OH214570   4.020   3.739   3.568
 4869TIP3    H114571   4.102   3.767   3.610
 4869TIP3    H214572   4.006   3.803   3.498
 4870TIP3   OH214573   6.174   2.269   5.042
 4870TIP3    H114574   6.241   2.206   5.018
 4870TIP3    H214575   6.222   2.351   5.054
 4871TIP3   OH214576   2.786   3.768   4.356
 4871TIP3    H114577   2.802   3.696   4.417
 4871TIP3    H214578   2.699   3.750   4.319
 4872TIP3   OH214579   2.003   6.345   0.260
 4872TIP3    H114580   1.912   6.327   0.236
 4872TIP3    H214581   2.052   6.271   0.224
 4873TIP3   OH214582   5.505   5.892   2.480
 4873TIP3    H114583   5.475   5.959   2.418
 4873TIP3    H214584   5.592   5.867   2.448
 4874TIP3   OH214585   5.808   2.884   5.118
 4874TIP3    H114586   5.853   2.882   5.034
 4874TIP3    H214587   5.719   2.854   5.099
 4875TIP3   OH214588   1.593   4.208   1.655
 4875TIP3    H114589   1.606   4.302   1.667
 4875TIP3    H214590   1.674   4.169   1.686
 4876TIP3   OH214591   7.095   5.720   0.666
 4876TIP3    H114592   7.158   5.669   0.615
 4876TIP3    H214593   7.066   5.789   0.606
 4877TIP3   OH214594   3.997   3.392   4.897
 4877TIP3    H114595   3.947   3.339   4.834
 4877TIP3    H214596   4.044   3.455   4.843
 4878TIP3   OH214597   3.405   5.655   4.971
 4878TIP3    H114598   3.414   5.724   4.906
 4878TIP3    H214599   3.431   5.696   5.053
 4879TIP3   OH214600   2.252   2.078   4.011
 4879TIP3    H114601   2.230   1.985   4.006
 4879TIP3    H214602   2.292   2.097   3.926
 4880TIP3   OH214603   2.509   5.232   3.189
 4880TIP3    H114604   2.594   5.272   3.206
 4880TIP3    H214605   2.494   5.173   3.263
 4881TIP3   OH214606   0.578   2.025   3.638
 4881TIP3    H114607   0.565   2.067   3.723
 4881TIP3    H214608   0.646   1.960   3.654
 4882TIP3   OH214609   2.927   4.595   5.516
 4882TIP3    H114610   2.901   4.642   5.595
 4882TIP3    H214611   3.016   4.564   5.534
 4883TIP3   OH214612   1.016   1.072   3.860
 4883TIP3    H114613   1.085   1.059   3.795
 4883TIP3    H214614   1.032   1.159   3.896
 4884TIP3   OH214615   4.692   0.671   0.249
 4884TIP3    H114616   4.759   0.735   0.224
 4884TIP3    H214617   4.646   0.712   0.323
 4885TIP3   OH214618   5.130   1.376   2.999
 4885TIP3    H114619   5.169   1.309   3.056
 4885TIP3    H214620   5.200   1.440   2.987
 4886TIP3   OH214621   0.660   5.020   4.886
 4886TIP3    H114622   0.592   4.985   4.827
 4886TIP3    H214623   0.742   4.982   4.853
 4887TIP3   OH214624   1.438   3.349   5.104
 4887TIP3    H114625   1.406   3.317   5.020
 4887TIP3    H214626   1.390   3.298   5.169
 4888TIP3   OH214627   5.605   3.796   3.023
 4888TIP3    H114628   5.622   3.883   3.059
 4888TIP3    H214629   5.532   3.808   2.963
 4889TIP3   OH214630   3.054   1.714   2.007
 4889TIP3    H114631   3.129   1.656   1.993
 4889TIP3    H214632   2.999   1.702   1.930
 4890TIP3   OH214633   3.447   6.144   0.664
 4890TIP3    H114634   3.455   6.060   0.619
 4890TIP3    H214635   3.537   6.170   0.682
 4891TIP3   OH214636   3.633   5.583   3.588
 4891TIP3    H114637   3.620   5.505   3.643
 4891TIP3    H214638   3.643   5.654   3.651
 4892TIP3   OH214639   1.979   0.629   2.978
 4892TIP3    H114640   2.052   0.577   3.010
 4892TIP3    H214641   2.020   0.706   2.939
 4893TIP3   OH214642   1.691   4.037   3.455
 4893TIP3    H114643   1.778   4.003   3.433
 4893TIP3    H214644   1.648   3.965   3.501
 4894TIP3   OH214645   2.177   3.540   1.620
 4894TIP3    H114646   2.208   3.553   1.531
 4894TIP3    H214647   2.123   3.461   1.616
 4895TIP3   OH214648   2.152   1.985   1.824
 4895TIP3    H114649   2.077   2.041   1.845
 4895TIP3    H214650   2.223   2.020   1.877
 4896TIP3   OH214651   1.388   0.252   1.045
 4896TIP3    H114652   1.438   0.225   1.122
 4896TIP3    H214653   1.301   0.271   1.078
 4897TIP3   OH214654   3.300   3.746   0.973
 4897TIP3    H114655   3.293   3.838   0.996
 4897TIP3    H214656   3.259   3.739   0.887
 4898TIP3   OH214657   1.966   5.149   3.845
 4898TIP3    H114658   1.926   5.173   3.761
 4898TIP3    H214659   2.036   5.213   3.857
 4899TIP3   OH214660   0.114   3.913   0.782
 4899TIP3    H114661   0.188   3.973   0.793
 4899TIP3    H214662   0.037   3.966   0.804
 4900TIP3   OH214663   2.657   6.621   3.787
 4900TIP3    H114664   2.738   6.570   3.779
 4900TIP3    H214665   2.661   6.684   3.715
 4901TIP3   OH214666   3.835   2.887   4.240
 4901TIP3    H114667   3.910   2.933   4.201
 4901TIP3    H214668   3.770   2.956   4.254
 4902TIP3   OH214669   4.361   5.087   3.161
 4902TIP3    H114670   4.392   5.160   3.214
 4902TIP3    H214671   4.420   5.085   3.086
 4903TIP3   OH214672   0.472   3.696   0.784
 4903TIP3    H114673   0.490   3.675   0.692
 4903TIP3    H214674   0.397   3.641   0.807
 4904TIP3   OH214675   6.093   1.068   0.393
 4904TIP3    H114676   6.147   1.147   0.390
 4904TIP3    H214677   6.140   1.008   0.451
 4905TIP3   OH214678   0.492   0.042   3.352
 4905TIP3    H114679   0.494   0.105   3.423
 4905TIP3    H214680   0.563  -0.019   3.373
 4906TIP3   OH214681   1.409   2.155   5.399
 4906TIP3    H114682   1.436   2.126   5.312
 4906TIP3    H214683   1.371   2.242   5.385
 4907TIP3   OH214684   2.438   5.012   2.743
 4907TIP3    H114685   2.344   5.023   2.758
 4907TIP3    H214686   2.446   4.924   2.706
 4908TIP3   OH214687   0.790   1.600   1.416
 4908TIP3    H114688   0.788   1.661   1.342
 4908TIP3    H214689   0.765   1.653   1.492
 4909TIP3   OH214690   1.005   2.394   4.145
 4909TIP3    H114691   0.915   2.397   4.111
 4909TIP3    H214692   1.032   2.485   4.149
 4910TIP3   OH214693   0.198   0.796   1.744
 4910TIP3    H114694   0.208   0.883   1.783
 4910TIP3    H214695   0.107   0.772   1.761
 4911TIP3   OH214696   2.303   2.887   5.032
 4911TIP3    H114697   2.327   2.906   5.123
 4911TIP3    H214698   2.255   2.965   5.004
 4912TIP3   OH214699   6.820   5.741   1.965
 4912TIP3    H114700   6.773   5.736   2.049
 4912TIP3    H214701   6.884   5.810   1.978
 4913TIP3   OH214702   1.227   4.517   4.446
 4913TIP3    H114703   1.195   4.467   4.521
 4913TIP3    H214704   1.150   4.529   4.390
 4914TIP3   OH214705   5.036   1.803   5.425
 4914TIP3    H114706   5.060   1.886   5.384
 4914TIP3    H214707   5.057   1.815   5.518
 4915TIP3   OH214708   7.071   6.678   5.044
 4915TIP3    H114709   7.164   6.699   5.042
 4915TIP3    H214710   7.064   6.606   5.106
 4916TIP3   OH214711   6.058   1.319   3.784
 4916TIP3    H114712   6.118   1.289   3.717
 4916TIP3    H214713   6.103   1.393   3.825
 4917TIP3   OH214714   2.631   3.665   2.801
 4917TIP3    H114715   2.679   3.663   2.718
 4917TIP3    H214716   2.649   3.580   2.842
 4918TIP3   OH214717   0.998   5.188   2.486
 4918TIP3    H114718   0.949   5.213   2.408
 4918TIP3    H214719   1.000   5.267   2.540
 4919TIP3   OH214720   5.149   4.066   0.024
 4919TIP3    H114721   5.061   4.051  -0.012
 4919TIP3    H214722   5.199   3.987  -0.001
 4920TIP3   OH214723   2.909   4.415   0.283
 4920TIP3    H114724   2.944   4.500   0.310
 4920TIP3    H214725   2.819   4.433   0.257
 4921TIP3   OH214726   3.601   4.436   4.497
 4921TIP3    H114727   3.637   4.515   4.538
 4921TIP3    H214728   3.612   4.450   4.403
 4922TIP3   OH214729   0.776   0.993   4.272
 4922TIP3    H114730   0.781   0.955   4.184
 4922TIP3    H214731   0.683   1.011   4.285
 4923TIP3   OH214732   4.070   2.024   2.722
 4923TIP3    H114733   4.139   2.025   2.788
 4923TIP3    H214734   3.989   2.035   2.771
 4924TIP3   OH214735   2.845   5.114   2.533
 4924TIP3    H114736   2.798   5.031   2.544
 4924TIP3    H214737   2.781   5.182   2.553
 4925TIP3   OH214738   5.634   1.764   1.780
 4925TIP3    H114739   5.625   1.792   1.688
 4925TIP3    H214740   5.703   1.821   1.815
 4926TIP3   OH214741   1.800   5.086   0.879
 4926TIP3    H114742   1.772   4.999   0.909
 4926TIP3    H214743   1.858   5.117   0.947
 4927TIP3   OH214744   2.585   0.151   4.521
 4927TIP3    H114745   2.503   0.196   4.500
 4927TIP3    H214746   2.619   0.122   4.436
 4928TIP3   OH214747   6.786   2.764   3.081
 4928TIP3    H114748   6.759   2.826   3.149
 4928TIP3    H214749   6.767   2.809   2.998
 4929TIP3   OH214750   5.692   4.126   0.687
 4929TIP3    H114751   5.719   4.205   0.640
 4929TIP3    H214752   5.610   4.150   0.730
 4930TIP3   OH214753   0.642   1.744   1.677
 4930TIP3    H114754   0.708   1.691   1.722
 4930TIP3    H214755   0.663   1.834   1.700
 4931TIP3   OH214756   1.584   2.922   3.536
 4931TIP3    H114757   1.490   2.916   3.555
 4931TIP3    H214758   1.625   2.934   3.622
 4932TIP3   OH214759   4.281   4.662   4.778
 4932TIP3    H114760   4.208   4.683   4.837
 4932TIP3    H214761   4.360   4.675   4.832
 4933TIP3   OH214762   5.826   0.157   3.938
 4933TIP3    H114763   5.772   0.097   3.990
 4933TIP3    H214764   5.906   0.167   3.988
 4934TIP3   OH214765   6.136   5.570   2.966
 4934TIP3    H114766   6.066   5.583   3.030
 4934TIP3    H214767   6.101   5.505   2.905
 4935TIP3   OH214768   3.273   5.031   2.708
 4935TIP3    H114769   3.227   4.992   2.634
 4935TIP3    H214770   3.361   4.995   2.703
 4936TIP3   OH214771   6.696   3.121   4.303
 4936TIP3    H114772   6.653   3.060   4.363
 4936TIP3    H214773   6.707   3.072   4.222
 4937TIP3   OH214774   0.883   5.893   1.909
 4937TIP3    H114775   0.912   5.858   1.824
 4937TIP3    H214776   0.789   5.875   1.912
 4938TIP3   OH214777   2.618   1.420   1.841
 4938TIP3    H114778   2.582   1.332   1.831
 4938TIP3    H214779   2.661   1.438   1.757
 4939TIP3   OH214780   5.588   2.421   4.523
 4939TIP3    H114781   5.584   2.472   4.603
 4939TIP3    H214782   5.591   2.330   4.553
 4940TIP3   OH214783   6.956   4.808   5.377
 4940TIP3    H114784   7.046   4.789   5.400
 4940TIP3    H214785   6.932   4.740   5.315
 4941TIP3   OH214786   2.731   1.460   1.607
 4941TIP3    H114787   2.817   1.499   1.588
 4941TIP3    H214788   2.691   1.448   1.521
 4942TIP3   OH214789   6.439   0.581   4.538
 4942TIP3    H114790   6.407   0.623   4.618
 4942TIP3    H214791   6.516   0.633   4.513
 4943TIP3   OH214792   3.925   6.451   0.642
 4943TIP3    H114793   3.999   6.485   0.592
 4943TIP3    H214794   3.850   6.457   0.582
 4944TIP3   OH214795   1.772   5.882   2.094
 4944TIP3    H114796   1.862   5.915   2.100
 4944TIP3    H214797   1.778   5.791   2.123
 4945TIP3   OH214798   4.381   2.217   2.827
 4945TIP3    H114799   4.329   2.203   2.906
 4945TIP3    H214800   4.388   2.130   2.787
 4946TIP3   OH214801   3.353   1.371   2.423
 4946TIP3    H114802   3.394   1.457   2.433
 4946TIP3    H214803   3.347   1.337   2.512
 4947TIP3   OH214804   4.790   0.312   1.164
 4947TIP3    H114805   4.740   0.375   1.113
 4947TIP3    H214806   4.852   0.366   1.214
 4948TIP3   OH214807   2.991   2.397   0.605
 4948TIP3    H114808   2.910   2.448   0.616
 4948TIP3    H214809   2.970   2.333   0.537
 4949TIP3   OH214810   5.410   2.976   2.675
 4949TIP3    H114811   5.327   3.017   2.649
 4949TIP3    H214812   5.477   3.036   2.643
 4950TIP3   OH214813   2.933   0.908   2.435
 4950TIP3    H114814   2.933   0.945   2.347
 4950TIP3    H214815   2.978   0.973   2.489
 4951TIP3   OH214816   5.332   5.306   2.978
 4951TIP3    H114817   5.318   5.269   3.066
 4951TIP3    H214818   5.275   5.384   2.977
 4952TIP3   OH214819   6.753   1.963   3.931
 4952TIP3    H114820   6.700   1.997   4.004
 4952TIP3    H214821   6.843   1.976   3.959
 4953TIP3   OH214822   0.675   6.210   5.140
 4953TIP3    H114823   0.637   6.240   5.222
 4953TIP3    H214824   0.715   6.289   5.102
 4954TIP3   OH214825   4.493   4.420   3.792
 4954TIP3    H114826   4.553   4.409   3.865
 4954TIP3    H214827   4.448   4.503   3.809
 4955TIP3   OH214828   5.217   6.376   4.307
 4955TIP3    H114829   5.169   6.387   4.389
 4955TIP3    H214830   5.148   6.358   4.242
 4956TIP3   OH214831   3.321   0.627   4.225
 4956TIP3    H114832   3.335   0.535   4.245
 4956TIP3    H214833   3.226   0.639   4.228
 4957TIP3   OH214834   4.681   4.481   3.566
 4957TIP3    H114835   4.762   4.452   3.609
 4957TIP3    H214836   4.611   4.445   3.620
 4958TIP3   OH214837   0.646   2.288   3.863
 4958TIP3    H114838   0.688   2.332   3.937
 4958TIP3    H214839   0.684   2.331   3.785
 4959TIP3   OH214840   3.537   5.449   1.570
 4959TIP3    H114841   3.452   5.420   1.602
 4959TIP3    H214842   3.600   5.399   1.622
 4960TIP3   OH214843   6.860   2.148   2.389
 4960TIP3    H114844   6.839   2.242   2.384
 4960TIP3    H214845   6.776   2.104   2.379
 4961TIP3   OH214846   3.364   0.401   5.556
 4961TIP3    H114847   3.384   0.463   5.486
 4961TIP3    H214848   3.448   0.361   5.577
 4962TIP3   OH214849   3.256   0.854   1.156
 4962TIP3    H114850   3.323   0.846   1.089
 4962TIP3    H214851   3.219   0.941   1.142
 4963TIP3   OH214852   3.300   2.784   1.097
 4963TIP3    H114853   3.329   2.748   1.013
 4963TIP3    H214854   3.351   2.738   1.163
 4964TIP3   OH214855   6.583   2.464   3.161
 4964TIP3    H114856   6.675   2.466   3.187
 4964TIP3    H214857   6.579   2.515   3.080
 4965TIP3   OH214858   0.775   1.745   4.160
 4965TIP3    H114859   0.859   1.700   4.150
 4965TIP3    H214860   0.782   1.791   4.243
 4966TIP3   OH214861   0.487   1.888   3.040
 4966TIP3    H114862   0.533   1.926   2.965
 4966TIP3    H214863   0.523   1.934   3.116
 4967TIP3   OH214864   3.585   2.338   0.066
 4967TIP3    H114865   3.600   2.349   0.160
 4967TIP3    H214866   3.606   2.246   0.049
 4968TIP3   OH214867   5.403   4.033   4.990
 4968TIP3    H114868   5.443   3.947   4.973
 4968TIP3    H214869   5.431   4.055   5.079
 4969TIP3   OH214870   6.560   4.336   0.952
 4969TIP3    H114871   6.629   4.271   0.938
 4969TIP3    H214872   6.484   4.285   0.980
 4970TIP3   OH214873   6.070   5.007   2.518
 4970TIP3    H114874   6.156   5.016   2.560
 4970TIP3    H214875   6.086   5.029   2.426
 4971TIP3   OH214876   0.532   6.363   5.796
 4971TIP3    H114877   0.489   6.431   5.743
 4971TIP3    H214878   0.579   6.309   5.733
 4972TIP3   OH214879   3.462   5.321   2.461
 4972TIP3    H114880   3.466   5.363   2.375
 4972TIP3    H214881   3.371   5.293   2.470
 4973TIP3   OH214882   5.952   6.647   4.442
 4973TIP3    H114883   5.860   6.666   4.428
 4973TIP3    H214884   5.987   6.726   4.484
 4974TIP3   OH214885   6.515   2.783   3.924
 4974TIP3    H114886   6.484   2.694   3.942
 4974TIP3    H214887   6.436   2.838   3.932
 4975TIP3   OH214888   5.199   6.324   2.754
 4975TIP3    H114889   5.228   6.360   2.838
 4975TIP3    H214890   5.167   6.401   2.706
 4976TIP3   OH214891   3.208   5.491   4.847
 4976TIP3    H114892   3.269   5.420   4.825
 4976TIP3    H214893   3.253   5.541   4.915
 4977TIP3   OH214894   4.690   2.497   5.176
 4977TIP3    H114895   4.755   2.561   5.145
 4977TIP3    H214896   4.650   2.462   5.096
 4978TIP3   OH214897   5.647   5.100   4.399
 4978TIP3    H114898   5.623   5.041   4.470
 4978TIP3    H214899   5.685   5.044   4.332
 4979TIP3   OH214900   6.604   0.136   2.155
 4979TIP3    H114901   6.674   0.200   2.143
 4979TIP3    H214902   6.524   0.182   2.131
 4980TIP3   OH214903   5.050   4.354   4.613
 4980TIP3    H114904   5.030   4.281   4.554
 4980TIP3    H214905   5.060   4.429   4.554
 4981TIP3   OH214906   6.194   5.265  -0.017
 4981TIP3    H114907   6.226   5.195   0.039
 4981TIP3    H214908   6.168   5.334   0.043
 4982TIP3   OH214909   2.259   1.187   0.399
 4982TIP3    H114910   2.258   1.139   0.316
 4982TIP3    H214911   2.168   1.215   0.411
 4983TIP3   OH214912   3.903   5.073   3.250
 4983TIP3    H114913   3.899   5.091   3.344
 4983TIP3    H214914   3.984   5.023   3.238
 4984TIP3   OH214915   4.262   0.960   0.260
 4984TIP3    H114916   4.249   1.048   0.226
 4984TIP3    H214917   4.314   0.916   0.192
 4985TIP3   OH214918   3.430   1.418   3.272
 4985TIP3    H114919   3.370   1.354   3.233
 4985TIP3    H214920   3.511   1.408   3.222
 4986TIP3   OH214921   6.617   4.925   3.473
 4986TIP3    H114922   6.711   4.908   3.482
 4986TIP3    H214923   6.586   4.933   3.563
 4987TIP3   OH214924   3.941   3.360   0.981
 4987TIP3    H114925   3.981   3.331   1.064
 4987TIP3    H214926   3.867   3.413   1.008
 4988TIP3   OH214927   3.044   2.383   2.522
 4988TIP3    H114928   2.969   2.327   2.538
 4988TIP3    H214929   3.113   2.323   2.494
 4989TIP3   OH214930   7.040   1.660   0.356
 4989TIP3    H114931   6.965   1.618   0.399
 4989TIP3    H214932   7.039   1.624   0.267
 4990TIP3   OH214933   4.311   2.218   0.937
 4990TIP3    H114934   4.389   2.164   0.949
 4990TIP3    H214935   4.293   2.254   1.024
 4991TIP3   OH214936   3.213   5.257   1.033
 4991TIP3    H114937   3.155   5.186   1.061
 4991TIP3    H214938   3.236   5.235   0.943
 4992TIP3   OH214939   5.498   3.878   5.327
 4992TIP3    H114940   5.573   3.823   5.303
 4992TIP3    H214941   5.529   3.968   5.314
 4993TIP3   OH214942   6.989   6.584   5.624
 4993TIP3    H114943   6.953   6.568   5.711
 4993TIP3    H214944   6.913   6.600   5.569
 4994TIP3   OH214945   5.112   4.922   3.451
 4994TIP3    H114946   5.028   4.924   3.497
 4994TIP3    H214947   5.178   4.936   3.519
 4995TIP3   OH214948   0.590   3.842   2.688
 4995TIP3    H114949   0.520   3.902   2.663
 4995TIP3    H214950   0.652   3.896   2.736
 4996TIP3   OH214951   5.174   4.395   5.421
 4996TIP3    H114952   5.121   4.385   5.342
 4996TIP3    H214953   5.183   4.489   5.433
 4997TIP3   OH214954   0.823   3.969   5.827
 4997TIP3    H114955   0.812   3.945   5.735
 4997TIP3    H214956   0.917   3.979   5.838
 4998TIP3   OH214957   1.547   2.907   3.279
 4998TIP3    H114958   1.578   2.931   3.366
 4998TIP3    H214959   1.574   2.979   3.222
 4999TIP3   OH214960   6.237   5.198   1.358
 4999TIP3    H114961   6.292   5.121   1.376
 4999TIP3    H214962   6.156   5.182   1.406
 5000TIP3   OH214963   4.843   2.666   1.758
 5000TIP3    H114964   4.863   2.758   1.745
 5000TIP3    H214965   4.752   2.665   1.787
 5001TIP3   OH214966   5.592   0.805   0.937
 5001TIP3    H114967   5.641   0.729   0.903
 5001TIP3    H214968   5.622   0.814   1.027
 5002TIP3   OH214969   4.392   4.230   1.235
 5002TIP3    H114970   4.425   4.155   1.284
 5002TIP3    H214971   4.449   4.302   1.260
 5003TIP3   OH214972   6.849   0.442   3.059
 5003TIP3    H114973   6.826   0.423   2.968
 5003TIP3    H214974   6.943   0.460   3.056
 5004TIP3   OH214975   4.367   1.909   1.188
 5004TIP3    H114976   4.393   1.843   1.124
 5004TIP3    H214977   4.274   1.925   1.170
 5005TIP3   OH214978   2.965   1.947   4.378
 5005TIP3    H114979   2.993   1.926   4.289
 5005TIP3    H214980   3.046   1.972   4.423
 5006TIP3   OH214981   4.483   0.479   0.699
 5006TIP3    H114982   4.441   0.457   0.782
 5006TIP3    H214983   4.500   0.394   0.658
 5007TIP3   OH214984   5.274   0.222   2.430
 5007TIP3    H114985   5.231   0.301   2.461
 5007TIP3    H214986   5.214   0.187   2.363
 5008TIP3   OH214987   3.007   2.588   0.274
 5008TIP3    H114988   3.031   2.496   0.262
 5008TIP3    H214989   3.068   2.636   0.218
 5009TIP3   OH214990   1.993   3.885   1.128
 5009TIP3    H114991   2.088   3.892   1.126
 5009TIP3    H214992   1.963   3.971   1.157
 5010TIP3   OH214993   3.312   6.421   0.043
 5010TIP3    H114994   3.380   6.483   0.016
 5010TIP3    H214995   3.306   6.432   0.138
 5011TIP3   OH214996   4.519   2.652   3.872
 5011TIP3    H114997   4.501   2.670   3.780
 5011TIP3    H214998   4.610   2.622   3.874
 5012TIP3   OH214999   2.124   1.190   3.375
 5012TIP3    H115000   2.046   1.152   3.416
 5012TIP3    H215001   2.101   1.197   3.282
 5013TIP3   OH215002   1.558   1.719   4.092
 5013TIP3    H115003   1.524   1.671   4.168
 5013TIP3    H215004   1.652   1.724   4.108
 5014TIP3   OH215005   5.619   0.946   3.793
 5014TIP3    H115006   5.572   0.876   3.839
 5014TIP3    H215007   5.711   0.932   3.816
 5015TIP3   OH215008   1.032   3.189   1.160
 5015TIP3    H115009   0.961   3.252   1.145
 5015TIP3    H215010   0.997   3.128   1.225
 5016TIP3   OH215011   4.072   6.089   4.237
 5016TIP3    H115012   4.150   6.048   4.273
 5016TIP3    H215013   4.066   6.173   4.282
 5017TIP3   OH215014   6.106   0.391   3.819
 5017TIP3    H115015   6.179   0.444   3.851
 5017TIP3    H215016   6.110   0.400   3.723
 5018TIP3   OH215017   1.816   1.522   3.466
 5018TIP3    H115018   1.773   1.603   3.495
 5018TIP3    H215019   1.844   1.541   3.376
 5019TIP3   OH215020   3.723   6.027   1.291
 5019TIP3    H115021   3.708   5.943   1.247
 5019TIP3    H215022   3.646   6.039   1.346
 5020TIP3   OH215023   1.388   3.167   3.819
 5020TIP3    H115024   1.473   3.134   3.850
 5020TIP3    H215025   1.333   3.088   3.813
 5021TIP3   OH215026   4.582   2.316   3.083
 5021TIP3    H115027   4.507   2.369   3.110
 5021TIP3    H215028   4.604   2.348   2.995
 5022TIP3   OH215029   6.702   5.598   1.211
 5022TIP3    H115030   6.630   5.561   1.262
 5022TIP3    H215031   6.709   5.540   1.135
 5023TIP3   OH215032   4.998   2.485   2.564
 5023TIP3    H115033   4.954   2.537   2.631
 5023TIP3    H215034   4.981   2.532   2.482
 5024TIP3   OH215035   3.289   4.612   3.539
 5024TIP3    H115036   3.263   4.655   3.620
 5024TIP3    H215037   3.249   4.665   3.470
 5025TIP3   OH215038   6.688   1.766   2.191
 5025TIP3    H115039   6.767   1.725   2.226
 5025TIP3    H215040   6.717   1.853   2.164
 5026TIP3   OH215041   0.883   5.492   3.727
 5026TIP3    H115042   0.903   5.468   3.818
 5026TIP3    H215043   0.951   5.556   3.704
 5027TIP3   OH215044   1.913   4.906   2.678
 5027TIP3    H115045   1.836   4.849   2.681
 5027TIP3    H215046   1.878   4.994   2.683
 5028TIP3   OH215047   2.474   5.393   5.342
 5028TIP3    H115048   2.394   5.409   5.392
 5028TIP3    H215049   2.490   5.475   5.296
 5029TIP3   OH215050   5.505   4.893   5.161
 5029TIP3    H115051   5.462   4.977   5.173
 5029TIP3    H215052   5.580   4.912   5.104
 5030TIP3   OH215053   2.552   4.136   2.499
 5030TIP3    H115054   2.534   4.218   2.545
 5030TIP3    H215055   2.523   4.068   2.559
 5031TIP3   OH215056   6.233   4.120   3.205
 5031TIP3    H115057   6.199   4.151   3.120
 5031TIP3    H215058   6.201   4.030   3.211
 5032TIP3   OH215059   5.535   1.084   3.109
 5032TIP3    H115060   5.626   1.111   3.102
 5032TIP3    H215061   5.532   0.999   3.065
 5033TIP3   OH215062   4.604   1.812   2.698
 5033TIP3    H115063   4.598   1.717   2.696
 5033TIP3    H215064   4.693   1.831   2.668
 5034TIP3   OH215065   3.495   6.596   4.459
 5034TIP3    H115066   3.523   6.609   4.550
 5034TIP3    H215067   3.429   6.664   4.444
 5035TIP3   OH215068   1.665   1.688   1.150
 5035TIP3    H115069   1.659   1.777   1.185
 5035TIP3    H215070   1.756   1.663   1.165
 5036TIP3   OH215071   4.389   1.055   5.256
 5036TIP3    H115072   4.378   1.109   5.334
 5036TIP3    H215073   4.476   1.078   5.222
 5037TIP3   OH215074   4.189   0.299   4.078
 5037TIP3    H115075   4.230   0.214   4.061
 5037TIP3    H215076   4.120   0.281   4.142
 5038TIP3   OH215077   6.210   5.484   1.918
 5038TIP3    H115078   6.253   5.408   1.879
 5038TIP3    H215079   6.169   5.451   1.998
 5039TIP3   OH215080   2.318   1.631   1.210
 5039TIP3    H115081   2.255   1.660   1.276
 5039TIP3    H215082   2.330   1.707   1.153
 5040TIP3   OH215083   0.668   2.735   4.033
 5040TIP3    H115084   0.574   2.746   4.050
 5040TIP3    H215085   0.697   2.822   4.006
 5041TIP3   OH215086   3.120   6.187   0.461
 5041TIP3    H115087   3.084   6.212   0.546
 5041TIP3    H215088   3.155   6.099   0.475
 5042TIP3   OH215089   6.421   3.028   2.276
 5042TIP3    H115090   6.452   3.113   2.308
 5042TIP3    H215091   6.494   2.995   2.223
 5043TIP3   OH215092   7.042   6.074   2.687
 5043TIP3    H115093   7.127   6.083   2.643
 5043TIP3    H215094   7.020   6.162   2.716
 5044TIP3   OH215095   3.969   0.064   5.705
 5044TIP3    H115096   4.043   0.057   5.766
 5044TIP3    H215097   3.951   0.158   5.701
 5045TIP3   OH215098   1.807   2.203   0.045
 5045TIP3    H115099   1.893   2.189   0.005
 5045TIP3    H215100   1.824   2.208   0.139
 5046TIP3   OH215101   5.593   6.670   5.907
 5046TIP3    H115102   5.547   6.743   5.866
 5046TIP3    H215103   5.681   6.674   5.870
 5047TIP3   OH215104   0.813   5.246   0.519
 5047TIP3    H115105   0.859   5.251   0.603
 5047TIP3    H215106   0.728   5.285   0.535
 5048TIP3   OH215107   4.275   3.251   3.382
 5048TIP3    H115108   4.260   3.318   3.316
 5048TIP3    H215109   4.190   3.207   3.390
 5049TIP3   OH215110   5.941   2.123   1.254
 5049TIP3    H115111   5.919   2.042   1.208
 5049TIP3    H215112   5.955   2.187   1.184
 5050TIP3   OH215113   3.395   4.778   2.489
 5050TIP3    H115114   3.357   4.708   2.543
 5050TIP3    H215115   3.379   4.749   2.399
 5051TIP3   OH215116   4.196   0.121   1.646
 5051TIP3    H115117   4.112   0.155   1.675
 5051TIP3    H215118   4.194   0.131   1.551
 5052TIP3   OH215119   1.499   5.378   5.462
 5052TIP3    H115120   1.432   5.315   5.489
 5052TIP3    H215121   1.450   5.449   5.421
 5053TIP3   OH215122   2.519   1.015   1.096
 5053TIP3    H115123   2.563   1.058   1.022
 5053TIP3    H215124   2.455   0.957   1.055
 5054TIP3   OH215125   2.800   4.525   3.632
 5054TIP3    H115126   2.797   4.528   3.536
 5054TIP3    H215127   2.783   4.433   3.653
 5055TIP3   OH215128   2.802   4.456   2.675
 5055TIP3    H115129   2.819   4.376   2.626
 5055TIP3    H215130   2.859   4.522   2.636
 5056TIP3   OH215131   5.080   1.726   3.444
 5056TIP3    H115132   5.037   1.648   3.479
 5056TIP3    H215133   5.086   1.786   3.519
 5057TIP3   OH215134   6.824   4.421   3.967
 5057TIP3    H115135   6.892   4.486   3.953
 5057TIP3    H215136   6.869   4.345   4.003
 5058TIP3   OH215137   2.571   5.286   0.953
 5058TIP3    H115138   2.655   5.284   0.997
 5058TIP3    H215139   2.584   5.234   0.874
 5059TIP3   OH215140   4.073   0.946   1.954
 5059TIP3    H115141   4.112   1.033   1.949
 5059TIP3    H215142   3.988   0.955   1.912
 5060TIP3   OH215143   3.590   5.544   4.796
 5060TIP3    H115144   3.674   5.586   4.781
 5060TIP3    H215145   3.560   5.579   4.880
 5061TIP3   OH215146   6.670   5.938   4.221
 5061TIP3    H115147   6.650   5.866   4.280
 5061TIP3    H215148   6.651   5.904   4.134
 5062TIP3   OH215149   5.633   1.821   4.963
 5062TIP3    H115150   5.590   1.755   5.017
 5062TIP3    H215151   5.561   1.876   4.931
 5063TIP3   OH215152   6.690   4.291   0.527
 5063TIP3    H115153   6.775   4.318   0.562
 5063TIP3    H215154   6.689   4.324   0.438
 5064TIP3   OH215155   3.345   0.996   2.840
 5064TIP3    H115156   3.332   0.941   2.918
 5064TIP3    H215157   3.369   0.933   2.771
 5065TIP3   OH215158   0.161   3.615   5.177
 5065TIP3    H115159   0.182   3.642   5.266
 5065TIP3    H215160   0.200   3.682   5.121
 5066TIP3   OH215161   4.195   2.632   4.275
 5066TIP3    H115162   4.277   2.663   4.235
 5066TIP3    H215163   4.135   2.621   4.202
 5067TIP3   OH215164   4.100   3.599   1.352
 5067TIP3    H115165   4.145   3.684   1.360
 5067TIP3    H215166   4.152   3.551   1.288
 5068TIP3   OH215167   0.514   5.112   3.742
 5068TIP3    H115168   0.487   5.023   3.766
 5068TIP3    H215169   0.472   5.128   3.658
 5069TIP3   OH215170   0.895   5.778   5.671
 5069TIP3    H115171   0.920   5.840   5.602
 5069TIP3    H215172   0.955   5.797   5.743
 5070TIP3   OH215173   6.395   3.397   0.969
 5070TIP3    H115174   6.343   3.317   0.960
 5070TIP3    H215175   6.380   3.426   1.059
 5071TIP3   OH215176   1.928   3.026   1.190
 5071TIP3    H115177   1.860   3.083   1.154
 5071TIP3    H215178   2.010   3.067   1.164
 5072TIP3   OH215179   1.458   4.841   2.078
 5072TIP3    H115180   1.418   4.871   2.159
 5072TIP3    H215181   1.552   4.855   2.090
 5073TIP3   OH215182   3.061   1.410   0.803
 5073TIP3    H115183   3.064   1.338   0.866
 5073TIP3    H215184   3.129   1.470   0.833
 5074TIP3   OH215185   0.088   3.333   3.085
 5074TIP3    H115186   0.086   3.352   3.178
 5074TIP3    H215187   0.087   3.419   3.043
 5075TIP3   OH215188   3.331   1.357   4.383
 5075TIP3    H115189   3.385   1.401   4.317
 5075TIP3    H215190   3.241   1.377   4.358
 5076TIP3   OH215191   4.525   5.305   3.328
 5076TIP3    H115192   4.560   5.368   3.391
 5076TIP3    H215193   4.528   5.350   3.244
 5077TIP3   OH215194   0.431   5.526   5.790
 5077TIP3    H115195   0.404   5.589   5.722
 5077TIP3    H215196   0.431   5.577   5.871
 5078TIP3   OH215197   4.618   6.388   0.553
 5078TIP3    H115198   4.562   6.312   0.562
 5078TIP3    H215199   4.676   6.385   0.629
 5079TIP3   OH215200   1.772   5.804   4.174
 5079TIP3    H115201   1.844   5.779   4.231
 5079TIP3    H215202   1.754   5.896   4.196
 5080TIP3   OH215203   0.007   5.440   5.584
 5080TIP3    H115204  -0.061   5.377   5.562
 5080TIP3    H215205   0.071   5.390   5.634
 5081TIP3   OH215206   1.685   4.657   3.654
 5081TIP3    H115207   1.659   4.633   3.565
 5081TIP3    H215208   1.625   4.610   3.711
 5082TIP3   OH215209   3.718   2.848   2.429
 5082TIP3    H115210   3.625   2.830   2.446
 5082TIP3    H215211   3.723   2.943   2.423
 5083TIP3   OH215212   3.717   3.305   2.676
 5083TIP3    H115213   3.672   3.234   2.630
 5083TIP3    H215214   3.723   3.275   2.767
 5084TIP3   OH215215   1.934   5.416   3.277
 5084TIP3    H115216   1.962   5.500   3.241
 5084TIP3    H215217   2.012   5.380   3.318
 5085TIP3   OH215218   1.713   1.370   4.416
 5085TIP3    H115219   1.668   1.343   4.337
 5085TIP3    H215220   1.767   1.294   4.440
 5086TIP3   OH215221   0.921   0.462   3.807
 5086TIP3    H115222   0.920   0.379   3.760
 5086TIP3    H215223   1.014   0.479   3.822
 5087TIP3   OH215224   6.545   4.206   2.214
 5087TIP3    H115225   6.573   4.224   2.124
 5087TIP3    H215226   6.602   4.260   2.269
 5088TIP3   OH215227   4.924   2.368   5.265
 5088TIP3    H115228   4.906   2.282   5.227
 5088TIP3    H215229   4.857   2.425   5.227
 5089TIP3   OH215230   6.592   2.887   4.487
 5089TIP3    H115231   6.579   2.796   4.516
 5089TIP3    H215232   6.640   2.928   4.559
 5090TIP3   OH215233   3.444   2.068   1.164
 5090TIP3    H115234   3.465   2.098   1.252
 5090TIP3    H215235   3.348   2.066   1.162
 5091TIP3   OH215236   3.930   5.007   0.807
 5091TIP3    H115237   4.014   5.033   0.768
 5091TIP3    H215238   3.944   4.915   0.833
 5092TIP3   OH215239   5.971   5.088   5.863
 5092TIP3    H115240   6.050   5.140   5.843
 5092TIP3    H215241   5.926   5.081   5.778
 5093TIP3   OH215242   2.731   5.965   4.128
 5093TIP3    H115243   2.641   5.995   4.140
 5093TIP3    H215244   2.725   5.869   4.124
 5094TIP3   OH215245   4.807   0.118   0.950
 5094TIP3    H115246   4.738   0.056   0.975
 5094TIP3    H215247   4.792   0.194   1.007
 5095TIP3   OH215248   0.242   3.777   0.579
 5095TIP3    H115249   0.330   3.811   0.566
 5095TIP3    H215250   0.205   3.829   0.650
 5096TIP3   OH215251   6.168   4.106   4.639
 5096TIP3    H115252   6.196   4.030   4.588
 5096TIP3    H215253   6.078   4.122   4.611
 5097TIP3   OH215254   2.800   3.644   5.247
 5097TIP3    H115255   2.771   3.712   5.187
 5097TIP3    H215256   2.777   3.562   5.203
 5098TIP3   OH215257   5.213   5.072   2.398
 5098TIP3    H115258   5.252   4.999   2.350
 5098TIP3    H215259   5.149   5.030   2.456
 5099TIP3   OH215260   3.690   2.495   2.229
 5099TIP3    H115261   3.668   2.518   2.139
 5099TIP3    H215262   3.753   2.423   2.221
 5100TIP3   OH215263   5.985   4.770   0.723
 5100TIP3    H115264   5.951   4.731   0.643
 5100TIP3    H215265   6.080   4.758   0.718
 5101TIP3   OH215266   5.259   0.455   3.094
 5101TIP3    H115267   5.253   0.388   3.026
 5101TIP3    H215268   5.338   0.505   3.071
 5102TIP3   OH215269   3.079   5.790   1.264
 5102TIP3    H115270   3.109   5.766   1.176
 5102TIP3    H215271   3.128   5.869   1.285
 5103TIP3   OH215272   2.886   5.760   5.358
 5103TIP3    H115273   2.855   5.679   5.398
 5103TIP3    H215274   2.814   5.789   5.303
 5104TIP3   OH215275   3.649   3.997   4.045
 5104TIP3    H115276   3.658   4.091   4.028
 5104TIP3    H215277   3.739   3.967   4.058
 5105TIP3   OH215278   0.618   5.369   4.349
 5105TIP3    H115279   0.572   5.339   4.427
 5105TIP3    H215280   0.691   5.421   4.383
 5106TIP3   OH215281   3.568   6.630   4.739
 5106TIP3    H115282   3.603   6.567   4.802
 5106TIP3    H215283   3.515   6.690   4.792
 5107TIP3   OH215284   3.724   2.419   5.411
 5107TIP3    H115285   3.708   2.325   5.422
 5107TIP3    H215286   3.669   2.461   5.478
 5108TIP3   OH215287   0.935   0.289   0.958
 5108TIP3    H115288   0.913   0.383   0.959
 5108TIP3    H215289   0.851   0.245   0.941
 5109TIP3   OH215290   2.100   2.674   3.813
 5109TIP3    H115291   2.031   2.677   3.880
 5109TIP3    H215292   2.058   2.711   3.735
 5110TIP3   OH215293   0.903   0.287   4.696
 5110TIP3    H115294   0.967   0.239   4.749
 5110TIP3    H215295   0.954   0.356   4.653
 5111TIP3   OH215296   2.001   3.280   0.215
 5111TIP3    H115297   2.033   3.250   0.299
 5111TIP3    H215298   2.078   3.314   0.170
 5112TIP3   OH215299   6.233   5.113   2.277
 5112TIP3    H115300   6.178   5.152   2.209
 5112TIP3    H215301   6.248   5.184   2.339
 5113TIP3   OH215302   3.292   6.118   0.964
 5113TIP3    H115303   3.214   6.063   0.959
 5113TIP3    H215304   3.296   6.163   0.879
 5114TIP3   OH215305   0.040   2.754   2.757
 5114TIP3    H115306  -0.054   2.737   2.755
 5114TIP3    H215307   0.080   2.668   2.763
 5115TIP3   OH215308   6.224   4.693   5.605
 5115TIP3    H115309   6.217   4.616   5.661
 5115TIP3    H215310   6.270   4.663   5.527
 5116TIP3   OH215311   5.747   4.566   1.815
 5116TIP3    H115312   5.811   4.527   1.874
 5116TIP3    H215313   5.687   4.613   1.874
 5117TIP3   OH215314   3.630   1.708   2.757
 5117TIP3    H115315   3.657   1.755   2.677
 5117TIP3    H215316   3.601   1.777   2.817
 5118TIP3   OH215317   1.470   1.172   5.073
 5118TIP3    H115318   1.516   1.196   4.992
 5118TIP3    H215319   1.377   1.176   5.050
 5119TIP3   OH215320   0.211   0.116   1.388
 5119TIP3    H115321   0.132   0.073   1.356
 5119TIP3    H215322   0.265   0.044   1.421
 5120TIP3   OH215323   6.364   0.206   3.431
 5120TIP3    H115324   6.332   0.140   3.493
 5120TIP3    H215325   6.375   0.285   3.485
 5121TIP3   OH215326   0.707   2.622   2.578
 5121TIP3    H115327   0.657   2.703   2.571
 5121TIP3    H215328   0.669   2.564   2.511
 5122TIP3   OH215329   4.410   1.907   3.267
 5122TIP3    H115330   4.387   1.999   3.281
 5122TIP3    H215331   4.505   1.906   3.263
 5123TIP3   OH215332   2.346   6.584   3.368
 5123TIP3    H115333   2.353   6.553   3.458
 5123TIP3    H215334   2.424   6.639   3.356
 5124TIP3   OH215335   1.119   5.968   1.692
 5124TIP3    H115336   1.161   6.016   1.621
 5124TIP3    H215337   1.184   5.902   1.718
 5125TIP3   OH215338   3.100   0.548   5.241
 5125TIP3    H115339   3.029   0.553   5.177
 5125TIP3    H215340   3.163   0.486   5.202
 5126TIP3   OH215341   0.328   4.063   4.952
 5126TIP3    H115342   0.271   4.102   4.886
 5126TIP3    H215343   0.407   4.117   4.952
 5127TIP3   OH215344   4.361   6.208   5.718
 5127TIP3    H115345   4.415   6.275   5.760
 5127TIP3    H215346   4.358   6.136   5.780
 5128TIP3   OH215347   3.731   4.470   3.488
 5128TIP3    H115348   3.783   4.532   3.539
 5128TIP3    H215349   3.640   4.492   3.509
 5129TIP3   OH215350   0.113   0.436   3.785
 5129TIP3    H115351   0.040   0.475   3.833
 5129TIP3    H215352   0.074   0.404   3.704
 5130TIP3   OH215353   2.305   2.993   2.882
 5130TIP3    H115354   2.219   3.033   2.890
 5130TIP3    H215355   2.301   2.944   2.800
 5131TIP3   OH215356   6.900   0.683   3.467
 5131TIP3    H115357   6.943   0.692   3.382
 5131TIP3    H215358   6.943   0.607   3.508
 5132TIP3   OH215359   2.571   3.631   2.248
 5132TIP3    H115360   2.491   3.681   2.230
 5132TIP3    H215361   2.553   3.543   2.216
 5133TIP3   OH215362   6.166   3.441   4.035
 5133TIP3    H115363   6.087   3.387   4.030
 5133TIP3    H215364   6.234   3.389   3.993
 5134TIP3   OH215365   1.345   0.816   5.725
 5134TIP3    H115366   1.309   0.824   5.636
 5134TIP3    H215367   1.411   0.747   5.718
 5135TIP3   OH215368   5.329   2.074   3.384
 5135TIP3    H115369   5.368   2.161   3.381
 5135TIP3    H215370   5.320   2.055   3.478
 5136TIP3   OH215371   0.984   2.805   1.131
 5136TIP3    H115372   1.067   2.839   1.097
 5136TIP3    H215373   0.955   2.872   1.193
 5137TIP3   OH215374   3.223   4.364   3.899
 5137TIP3    H115375   3.185   4.278   3.916
 5137TIP3    H215376   3.167   4.403   3.832
 5138TIP3   OH215377   5.954   2.291   1.490
 5138TIP3    H115378   5.866   2.329   1.494
 5138TIP3    H215379   5.942   2.209   1.440
 5139TIP3   OH215380   4.587   6.500   4.006
 5139TIP3    H115381   4.649   6.478   4.075
 5139TIP3    H215382   4.642   6.520   3.930
 5140TIP3   OH215383   6.743   3.355   3.273
 5140TIP3    H115384   6.813   3.340   3.337
 5140TIP3    H215385   6.786   3.343   3.188
 5141TIP3   OH215386   6.343   5.586   2.354
 5141TIP3    H115387   6.376   5.606   2.442
 5141TIP3    H215388   6.316   5.671   2.319
 5142TIP3   OH215389   3.325   5.739   1.818
 5142TIP3    H115390   3.385   5.759   1.746
 5142TIP3    H215391   3.351   5.651   1.847
 5143TIP3   OH215392   1.653   1.825   3.445
 5143TIP3    H115393   1.567   1.806   3.482
 5143TIP3    H215394   1.679   1.909   3.484
 5144TIP3   OH215395   4.126   6.071   1.959
 5144TIP3    H115396   4.031   6.081   1.959
 5144TIP3    H215397   4.147   6.036   2.046
 5145TIP3   OH215398   2.453   3.091   3.093
 5145TIP3    H115399   2.437   3.011   3.142
 5145TIP3    H215400   2.388   3.090   3.022
 5146TIP3   OH215401   3.117   1.873   5.659
 5146TIP3    H115402   3.203   1.886   5.619
 5146TIP3    H215403   3.132   1.810   5.729
 5147TIP3   OH215404   4.001   0.451   3.414
 5147TIP3    H115405   4.083   0.401   3.419
 5147TIP3    H215406   3.934   0.386   3.396
 5148TIP3   OH215407   3.087   2.951   4.838
 5148TIP3    H115408   3.014   2.891   4.821
 5148TIP3    H215409   3.165   2.896   4.833
 5149TIP3   OH215410   0.934   3.022   5.641
 5149TIP3    H115411   0.945   2.985   5.728
 5149TIP3    H215412   0.856   3.078   5.649
 5150TIP3   OH215413   2.425   5.970   2.904
 5150TIP3    H115414   2.430   6.047   2.960
 5150TIP3    H215415   2.399   5.899   2.962
 5151TIP3   OH215416   6.925   3.196   1.050
 5151TIP3    H115417   6.838   3.225   1.021
 5151TIP3    H215418   6.949   3.127   0.988
 5152TIP3   OH215419   0.916   6.000   0.224
 5152TIP3    H115420   0.844   5.937   0.219
 5152TIP3    H215421   0.874   6.082   0.251
 5153TIP3   OH215422   1.689   0.837   2.835
 5153TIP3    H115423   1.643   0.892   2.898
 5153TIP3    H215424   1.634   0.838   2.757
 5154TIP3   OH215425   1.860   4.482   2.813
 5154TIP3    H115426   1.799   4.454   2.881
 5154TIP3    H215427   1.937   4.512   2.860
 5155TIP3   OH215428   1.195   1.018   3.009
 5155TIP3    H115429   1.230   1.100   3.045
 5155TIP3    H215430   1.105   1.041   2.982
 5156TIP3   OH215431   6.598   5.819   0.085
 5156TIP3    H115432   6.505   5.812   0.061
 5156TIP3    H215433   6.611   5.912   0.103
 5157TIP3   OH215434   6.446   3.330   2.691
 5157TIP3    H115435   6.471   3.396   2.626
 5157TIP3    H215436   6.475   3.367   2.775
 5158TIP3   OH215437   7.175   6.007   0.127
 5158TIP3    H115438   7.139   6.084   0.173
 5158TIP3    H215439   7.102   5.974   0.075
 5159TIP3   OH215440   3.425   3.786   5.114
 5159TIP3    H115441   3.370   3.784   5.193
 5159TIP3    H215442   3.371   3.829   5.048
 5160TIP3   OH215443   3.453   3.258   1.435
 5160TIP3    H115444   3.448   3.350   1.463
 5160TIP3    H215445   3.483   3.263   1.344
 5161TIP3   OH215446   0.442   4.733   3.996
 5161TIP3    H115447   0.416   4.698   4.082
 5161TIP3    H215448   0.520   4.785   4.013
 5162TIP3   OH215449   1.731   3.916   0.164
 5162TIP3    H115450   1.651   3.915   0.112
 5162TIP3    H215451   1.710   3.866   0.243
 5163TIP3   OH215452   2.234   2.876   4.591
 5163TIP3    H115453   2.305   2.939   4.584
 5163TIP3    H215454   2.190   2.898   4.673
 5164TIP3   OH215455   1.863   1.021   4.877
 5164TIP3    H115456   1.908   0.963   4.814
 5164TIP3    H215457   1.771   1.018   4.851
 5165TIP3   OH215458   0.768   3.341   3.518
 5165TIP3    H115459   0.796   3.251   3.532
 5165TIP3    H215460   0.822   3.393   3.578
 5166TIP3   OH215461   0.064   5.535   5.323
 5166TIP3    H115462   0.043   5.453   5.279
 5166TIP3    H215463   0.047   5.518   5.415
 5167TIP3   OH215464   2.531   1.567   4.326
 5167TIP3    H115465   2.570   1.614   4.252
 5167TIP3    H215466   2.563   1.477   4.315
 5168TIP3   OH215467   5.573   1.150   0.096
 5168TIP3    H115468   5.578   1.085   0.027
 5168TIP3    H215469   5.637   1.121   0.161
 5169TIP3   OH215470   6.228   5.429   4.678
 5169TIP3    H115471   6.183   5.421   4.761
 5169TIP3    H215472   6.308   5.478   4.699
 5170TIP3   OH215473   1.288   5.019   2.954
 5170TIP3    H115474   1.291   4.967   2.874
 5170TIP3    H215475   1.233   5.094   2.932
 5171TIP3   OH215476   1.235   4.979   4.177
 5171TIP3    H115477   1.143   4.994   4.202
 5171TIP3    H215478   1.278   5.062   4.196
 5172TIP3   OH215479   6.846   3.816   2.010
 5172TIP3    H115480   6.903   3.741   2.032
 5172TIP3    H215481   6.791   3.827   2.088
 5173TIP3   OH215482   4.011   4.548   1.607
 5173TIP3    H115483   3.985   4.548   1.514
 5173TIP3    H215484   3.984   4.634   1.639
 5174TIP3   OH215485   3.696   4.741   1.841
 5174TIP3    H115486   3.672   4.718   1.930
 5174TIP3    H215487   3.669   4.666   1.788
 5175TIP3   OH215488   6.901   3.688   3.442
 5175TIP3    H115489   6.839   3.681   3.515
 5175TIP3    H215490   6.955   3.764   3.463
 5176TIP3   OH215491   3.476   2.251   5.273
 5176TIP3    H115492   3.414   2.308   5.227
 5176TIP3    H215493   3.464   2.273   5.366
 5177TIP3   OH215494   0.441   6.374   1.558
 5177TIP3    H115495   0.448   6.373   1.463
 5177TIP3    H215496   0.490   6.297   1.587
 5178TIP3   OH215497   2.593   2.928   1.364
 5178TIP3    H115498   2.531   2.886   1.424
 5178TIP3    H215499   2.666   2.954   1.419
 5179TIP3   OH215500   6.594   1.690   2.459
 5179TIP3    H115501   6.622   1.607   2.498
 5179TIP3    H215502   6.622   1.684   2.368
 5180TIP3   OH215503   1.227   3.733   4.312
 5180TIP3    H115504   1.144   3.687   4.309
 5180TIP3    H215505   1.285   3.676   4.363
 5181TIP3   OH215506   0.292   4.051   0.295
 5181TIP3    H115507   0.371   4.023   0.249
 5181TIP3    H215508   0.324   4.089   0.377
 5182TIP3   OH215509   6.552  -0.013   3.445
 5182TIP3    H115510   6.485   0.046   3.409
 5182TIP3    H215511   6.597   0.040   3.511
 5183TIP3   OH215512   5.616   1.169   2.755
 5183TIP3    H115513   5.536   1.221   2.757
 5183TIP3    H215514   5.646   1.167   2.846
 5184TIP3   OH215515   3.014   2.291   0.141
 5184TIP3    H115516   3.096   2.323   0.103
 5184TIP3    H215517   3.016   2.196   0.126
 5185TIP3   OH215518   3.766   2.074   5.440
 5185TIP3    H115519   3.821   2.055   5.365
 5185TIP3    H215520   3.710   1.997   5.450
 5186TIP3   OH215521   6.737   1.138   2.656
 5186TIP3    H115522   6.648   1.172   2.661
 5186TIP3    H215523   6.793   1.213   2.676
 5187TIP3   OH215524   6.811   2.586   4.936
 5187TIP3    H115525   6.791   2.505   4.983
 5187TIP3    H215526   6.843   2.646   5.004
 5188TIP3   OH215527   1.822   1.488   5.209
 5188TIP3    H115528   1.891   1.497   5.275
 5188TIP3    H215529   1.740   1.499   5.258
 5189TIP3   OH215530   5.807   5.259   4.040
 5189TIP3    H115531   5.797   5.169   4.070
 5189TIP3    H215532   5.803   5.311   4.120
 5190TIP3   OH215533   4.288   1.504   2.654
 5190TIP3    H115534   4.338   1.441   2.707
 5190TIP3    H215535   4.197   1.489   2.679
 5191TIP3   OH215536   2.325   6.471   5.863
 5191TIP3    H115537   2.274   6.441   5.787
 5191TIP3    H215538   2.347   6.562   5.842
 5192TIP3   OH215539   0.316   1.681   4.772
 5192TIP3    H115540   0.301   1.691   4.678
 5192TIP3    H215541   0.228   1.677   4.809
 5193TIP3   OH215542   1.295   0.676   4.083
 5193TIP3    H115543   1.228   0.673   4.015
 5193TIP3    H215544   1.266   0.745   4.143
 5194TIP3   OH215545   6.990   3.999   1.865
 5194TIP3    H115546   6.945   3.932   1.917
 5194TIP3    H215547   6.961   3.984   1.775
 5195TIP3   OH215548   5.210   6.068   2.744
 5195TIP3    H115549   5.165   6.016   2.811
 5195TIP3    H215550   5.208   6.158   2.778
 5196TIP3   OH215551   0.377   5.764   3.495
 5196TIP3    H115552   0.375   5.853   3.461
 5196TIP3    H215553   0.468   5.736   3.487
 5197TIP3   OH215554   3.099   4.216   0.938
 5197TIP3    H115555   3.191   4.235   0.920
 5197TIP3    H215556   3.055   4.235   0.855
 5198TIP3   OH215557   5.818   2.502   3.228
 5198TIP3    H115558   5.819   2.454   3.145
 5198TIP3    H215559   5.847   2.437   3.293
 5199TIP3   OH215560   2.437   6.429   0.540
 5199TIP3    H115561   2.523   6.427   0.583
 5199TIP3    H215562   2.419   6.337   0.519
 5200TIP3   OH215563   6.131   1.701   1.042
 5200TIP3    H115564   6.143   1.785   0.997
 5200TIP3    H215565   6.206   1.648   1.013
 5201TIP3   OH215566   4.424   2.002   1.879
 5201TIP3    H115567   4.437   1.982   1.786
 5201TIP3    H215568   4.340   1.961   1.901
 5202TIP3   OH215569   5.876   3.391   5.288
 5202TIP3    H115570   5.917   3.445   5.220
 5202TIP3    H215571   5.937   3.394   5.362
 5203TIP3   OH215572   4.195   3.602   2.595
 5203TIP3    H115573   4.184   3.573   2.686
 5203TIP3    H215574   4.111   3.640   2.571
 5204TIP3   OH215575   0.809   3.901   0.333
 5204TIP3    H115576   0.795   3.970   0.397
 5204TIP3    H215577   0.854   3.944   0.260
 5205TIP3   OH215578   3.230   4.339   0.580
 5205TIP3    H115579   3.226   4.424   0.624
 5205TIP3    H215580   3.147   4.296   0.602
 5206TIP3   OH215581   2.152   2.007   4.906
 5206TIP3    H115582   2.172   1.926   4.860
 5206TIP3    H215583   2.196   2.075   4.855
 5207TIP3   OH215584   4.509   0.724   1.265
 5207TIP3    H115585   4.440   0.659   1.276
 5207TIP3    H215586   4.560   0.719   1.346
 5208TIP3   OH215587   3.818   3.067   2.165
 5208TIP3    H115588   3.750   3.022   2.115
 5208TIP3    H215589   3.895   3.063   2.108
 5209TIP3   OH215590   3.790   0.487   5.639
 5209TIP3    H115591   3.845   0.544   5.694
 5209TIP3    H215592   3.768   0.414   5.697
 5210TIP3   OH215593   2.484   6.125   1.991
 5210TIP3    H115594   2.460   6.176   2.069
 5210TIP3    H215595   2.418   6.148   1.926
 5211TIP3   OH215596   4.108   6.812   3.043
 5211TIP3    H115597   4.090   6.746   3.110
 5211TIP3    H215598   4.023   6.829   3.003
 5212TIP3   OH215599   2.734   6.293   2.139
 5212TIP3    H115600   2.738   6.234   2.064
 5212TIP3    H215601   2.649   6.274   2.180
 5213TIP3   OH215602   4.629   0.137   2.074
 5213TIP3    H115603   4.682   0.194   2.130
 5213TIP3    H215604   4.547   0.125   2.122
 5214TIP3   OH215605   0.762   4.801   3.720
 5214TIP3    H115606   0.782   4.855   3.797
 5214TIP3    H215607   0.785   4.712   3.747
 5215TIP3   OH215608   5.322   0.693   0.016
 5215TIP3    H115609   5.354   0.604   0.031
 5215TIP3    H215610   5.227   0.686   0.025
 5216TIP3   OH215611   1.187   3.787   3.617
 5216TIP3    H115612   1.240   3.712   3.592
 5216TIP3    H215613   1.242   3.863   3.596
 5217TIP3   OH215614   0.402   3.430   1.354
 5217TIP3    H115615   0.319   3.401   1.316
 5217TIP3    H215616   0.462   3.433   1.279
 5218TIP3   OH215617   6.791   0.307   5.686
 5218TIP3    H115618   6.716   0.266   5.730
 5218TIP3    H215619   6.868   0.267   5.728
 5219TIP3   OH215620   2.884   6.384   5.686
 5219TIP3    H115621   2.894   6.290   5.671
 5219TIP3    H215622   2.790   6.397   5.696
 5220TIP3   OH215623   4.598   4.059   1.687
 5220TIP3    H115624   4.639   4.146   1.684
 5220TIP3    H215625   4.666   4.002   1.722
 5221TIP3   OH215626   1.150   3.662   0.145
 5221TIP3    H115627   1.064   3.629   0.121
 5221TIP3    H215628   1.204   3.645   0.068
 5222TIP3   OH215629   5.669   6.301   2.499
 5222TIP3    H115630   5.604   6.242   2.538
 5222TIP3    H215631   5.668   6.378   2.555
 5223TIP3   OH215632   5.511   4.358   2.035
 5223TIP3    H115633   5.517   4.370   1.940
 5223TIP3    H215634   5.549   4.438   2.071
 5224TIP3   OH215635   3.220   1.677   3.889
 5224TIP3    H115636   3.130   1.662   3.860
 5224TIP3    H215637   3.240   1.601   3.944
 5225TIP3   OH215638   4.997   2.236   2.886
 5225TIP3    H115639   4.983   2.187   2.805
 5225TIP3    H215640   4.915   2.283   2.899
 5226TIP3   OH215641   4.757   0.332   2.248
 5226TIP3    H115642   4.751   0.295   2.337
 5226TIP3    H215643   4.817   0.406   2.257
 5227TIP3   OH215644   5.009   1.099   1.961
 5227TIP3    H115645   5.017   1.094   2.056
 5227TIP3    H215646   4.953   1.025   1.938
 5228TIP3   OH215647   5.571   2.799   5.017
 5228TIP3    H115648   5.491   2.832   5.056
 5228TIP3    H215649   5.543   2.729   4.958
 5229TIP3   OH215650   7.180   2.503   2.634
 5229TIP3    H115651   7.267   2.468   2.653
 5229TIP3    H215652   7.195   2.567   2.564
 5230TIP3   OH215653   3.810   0.077   3.944
 5230TIP3    H115654   3.842   0.150   3.891
 5230TIP3    H215655   3.790   0.118   4.029
 5231TIP3   OH215656   0.153   4.301   1.450
 5231TIP3    H115657   0.245   4.309   1.424
 5231TIP3    H215658   0.149   4.219   1.499
 5232TIP3   OH215659   6.305   1.370   4.740
 5232TIP3    H115660   6.234   1.363   4.804
 5232TIP3    H215661   6.368   1.429   4.780
 5233TIP3   OH215662   4.669   2.093   1.789
 5233TIP3    H115663   4.731   2.024   1.763
 5233TIP3    H215664   4.613   2.052   1.855
 5234TIP3   OH215665   5.967   1.062   1.632
 5234TIP3    H115666   5.998   0.977   1.663
 5234TIP3    H215667   6.033   1.090   1.568
 5235TIP3   OH215668   5.271   5.312   4.433
 5235TIP3    H115669   5.199   5.251   4.450
 5235TIP3    H215670   5.248   5.390   4.484
 5236TIP3   OH215671   6.666   6.080   0.097
 5236TIP3    H115672   6.684   6.153   0.157
 5236TIP3    H215673   6.609   6.118   0.030
 5237TIP3   OH215674   1.847   0.964   2.206
 5237TIP3    H115675   1.884   1.020   2.138
 5237TIP3    H215676   1.873   1.006   2.288
 5238TIP3   OH215677   0.767   4.475   4.133
 5238TIP3    H115678   0.765   4.384   4.162
 5238TIP3    H215679   0.691   4.515   4.175
 5239TIP3   OH215680   4.409   5.695   5.323
 5239TIP3    H115681   4.465   5.630   5.280
 5239TIP3    H215682   4.471   5.761   5.356
 5240TIP3   OH215683   6.107   4.482   1.461
 5240TIP3    H115684   6.130   4.517   1.547
 5240TIP3    H215685   6.188   4.489   1.410
 5241TIP3   OH215686   5.676   1.155   1.400
 5241TIP3    H115687   5.592   1.187   1.434
 5241TIP3    H215688   5.725   1.235   1.380
 5242TIP3   OH215689   5.498   4.928   0.970
 5242TIP3    H115690   5.510   4.854   0.911
 5242TIP3    H215691   5.587   4.960   0.987
 5243TIP3   OH215692   1.469   0.493   4.807
 5243TIP3    H115693   1.509   0.553   4.744
 5243TIP3    H215694   1.536   0.426   4.821
 5244TIP3   OH215695   2.577   0.824   2.141
 5244TIP3    H115696   2.558   0.736   2.173
 5244TIP3    H215697   2.596   0.874   2.220
 5245TIP3   OH215698   6.186   5.949   4.583
 5245TIP3    H115699   6.243   6.026   4.583
 5245TIP3    H215700   6.186   5.920   4.492
 5246TIP3   OH215701   2.541   4.801   3.001
 5246TIP3    H115702   2.466   4.814   3.059
 5246TIP3    H215703   2.580   4.888   2.993
 5247TIP3   OH215704   1.714   6.057   4.248
 5247TIP3    H115705   1.742   6.104   4.327
 5247TIP3    H215706   1.653   6.116   4.205
 5248TIP3   OH215707   0.699   0.358   1.194
 5248TIP3    H115708   0.725   0.439   1.237
 5248TIP3    H215709   0.709   0.376   1.101
 5249TIP3   OH215710   1.985   4.741   1.182
 5249TIP3    H115711   2.059   4.732   1.242
 5249TIP3    H215712   1.909   4.715   1.234
 5250TIP3   OH215713   0.156   0.218   5.846
 5250TIP3    H115714   0.206   0.252   5.771
 5250TIP3    H215715   0.070   0.258   5.837
 5251TIP3   OH215716   6.523   2.338   1.242
 5251TIP3    H115717   6.573   2.273   1.193
 5251TIP3    H215718   6.587   2.405   1.266
 5252TIP3   OH215719   1.636   6.604   1.213
 5252TIP3    H115720   1.617   6.520   1.172
 5252TIP3    H215721   1.729   6.618   1.198
 5253TIP3   OH215722   7.138   2.083   4.516
 5253TIP3    H115723   7.160   2.105   4.425
 5253TIP3    H215724   7.129   2.168   4.559
 5254TIP3   OH215725   1.647   4.271   5.165
 5254TIP3    H115726   1.630   4.266   5.071
 5254TIP3    H215727   1.627   4.184   5.198
 5255TIP3   OH215728   1.195   0.392   3.341
 5255TIP3    H115729   1.200   0.299   3.317
 5255TIP3    H215730   1.123   0.426   3.289
 5256TIP3   OH215731   2.572   0.208   2.192
 5256TIP3    H115732   2.517   0.268   2.241
 5256TIP3    H215733   2.524   0.192   2.110
 5257TIP3   OH215734   3.110   6.553   1.968
 5257TIP3    H115735   3.098   6.631   1.914
 5257TIP3    H215736   3.028   6.503   1.958
 5258TIP3   OH215737   1.321   1.717   1.542
 5258TIP3    H115738   1.351   1.655   1.609
 5258TIP3    H215739   1.389   1.784   1.539
 5259TIP3   OH215740   3.964   5.507   3.712
 5259TIP3    H115741   4.059   5.506   3.711
 5259TIP3    H215742   3.941   5.577   3.773
 5260TIP3   OH215743   5.522   4.323   0.790
 5260TIP3    H115744   5.474   4.387   0.737
 5260TIP3    H215745   5.514   4.356   0.880
 5261TIP3   OH215746   6.286   6.491   5.054
 5261TIP3    H115747   6.197   6.499   5.018
 5261TIP3    H215748   6.273   6.444   5.137
 5262TIP3   OH215749   5.506   2.696   3.554
 5262TIP3    H115750   5.521   2.603   3.575
 5262TIP3    H215751   5.529   2.703   3.461
 5263TIP3   OH215752   7.167   2.641   3.423
 5263TIP3    H115753   7.129   2.554   3.432
 5263TIP3    H215754   7.247   2.638   3.475
 5264TIP3   OH215755   7.000   5.361   4.186
 5264TIP3    H115756   6.905   5.369   4.183
 5264TIP3    H215757   7.019   5.335   4.277
 5265TIP3   OH215758   0.346   1.473   4.459
 5265TIP3    H115759   0.357   1.443   4.549
 5265TIP3    H215760   0.279   1.541   4.464
 5266TIP3   OH215761   4.768   0.217   0.027
 5266TIP3    H115762   4.706   0.145   0.036
 5266TIP3    H215763   4.731   0.288   0.079
 5267TIP3   OH215764   3.823   1.084   5.298
 5267TIP3    H115765   3.898   1.054   5.247
 5267TIP3    H215766   3.856   1.097   5.386
 5268TIP3   OH215767   0.382   1.444   3.670
 5268TIP3    H115768   0.289   1.425   3.676
 5268TIP3    H215769   0.423   1.385   3.733
 5269TIP3   OH215770   0.744   5.550   5.394
 5269TIP3    H115771   0.717   5.484   5.331
 5269TIP3    H215772   0.795   5.502   5.459
 5270TIP3   OH215773   3.808   2.246   2.229
 5270TIP3    H115774   3.897   2.267   2.204
 5270TIP3    H215775   3.816   2.210   2.318
 5271TIP3   OH215776   5.507   2.126   2.351
 5271TIP3    H115777   5.420   2.086   2.347
 5271TIP3    H215778   5.567   2.055   2.328
 5272TIP3   OH215779   6.059   4.270   1.117
 5272TIP3    H115780   6.072   4.175   1.117
 5272TIP3    H215781   6.137   4.304   1.073
 5273TIP3   OH215782   6.351   2.503   0.152
 5273TIP3    H115783   6.382   2.534   0.067
 5273TIP3    H215784   6.431   2.488   0.203
 5274TIP3   OH215785   1.209   4.194   4.020
 5274TIP3    H115786   1.277   4.136   3.984
 5274TIP3    H215787   1.259   4.262   4.065
 5275TIP3   OH215788   1.449   2.127   2.116
 5275TIP3    H115789   1.518   2.123   2.050
 5275TIP3    H215790   1.447   2.039   2.154
 5276TIP3   OH215791   5.417   3.961   0.293
 5276TIP3    H115792   5.328   3.995   0.291
 5276TIP3    H215793   5.460   4.012   0.362
 5277TIP3   OH215794   2.148   1.044   1.233
 5277TIP3    H115795   2.088   0.993   1.178
 5277TIP3    H215796   2.204   1.090   1.171
 5278TIP3   OH215797   0.831   3.755   4.808
 5278TIP3    H115798   0.856   3.845   4.788
 5278TIP3    H215799   0.846   3.746   4.902
 5279TIP3   OH215800   5.758   1.887   3.587
 5279TIP3    H115801   5.702   1.904   3.512
 5279TIP3    H215802   5.716   1.815   3.633
 5280TIP3   OH215803   4.281   4.349   1.667
 5280TIP3    H115804   4.260   4.294   1.743
 5280TIP3    H215805   4.235   4.308   1.594
 5281TIP3   OH215806   1.050   4.316   5.814
 5281TIP3    H115807   1.040   4.230   5.855
 5281TIP3    H215808   1.131   4.351   5.852
 5282TIP3   OH215809   4.380   5.660   1.898
 5282TIP3    H115810   4.440   5.585   1.904
 5282TIP3    H215811   4.429   5.733   1.935
 5283TIP3   OH215812   6.312   0.462   0.465
 5283TIP3    H115813   6.398   0.446   0.505
 5283TIP3    H215814   6.280   0.375   0.443
 5284TIP3   OH215815   0.184   5.317   0.750
 5284TIP3    H115816   0.223   5.343   0.667
 5284TIP3    H215817   0.215   5.227   0.764
 5285TIP3   OH215818   0.972   3.787   4.091
 5285TIP3    H115819   0.998   3.704   4.132
 5285TIP3    H215820   1.016   3.854   4.143
 5286TIP3   OH215821   3.083   0.315   0.042
 5286TIP3    H115822   3.045   0.228   0.031
 5286TIP3    H215823   3.177   0.298   0.051
 5287TIP3   OH215824   5.748   2.695   1.466
 5287TIP3    H115825   5.668   2.730   1.427
 5287TIP3    H215826   5.763   2.750   1.543
 5288TIP3   OH215827   2.929   3.943   2.745
 5288TIP3    H115828   2.976   4.025   2.731
 5288TIP3    H215829   2.841   3.959   2.710
 5289TIP3   OH215830   0.880   3.477   2.465
 5289TIP3    H115831   0.844   3.565   2.453
 5289TIP3    H215832   0.816   3.432   2.520
 5290TIP3   OH215833   6.291   6.778   4.771
 5290TIP3    H115834   6.342   6.823   4.703
 5290TIP3    H215835   6.201   6.776   4.736
 5291TIP3   OH215836   0.303   0.616   0.911
 5291TIP3    H115837   0.372   0.552   0.931
 5291TIP3    H215838   0.320   0.644   0.822
 5292TIP3   OH215839   0.748   6.517   5.030
 5292TIP3    H115840   0.837   6.500   4.999
 5292TIP3    H215841   0.760   6.570   5.109
 5293TIP3   OH215842   5.998   2.047   4.888
 5293TIP3    H115843   6.048   1.970   4.916
 5293TIP3    H215844   5.944   2.016   4.815
 5294TIP3   OH215845   6.169   3.051   1.797
 5294TIP3    H115846   6.208   3.086   1.717
 5294TIP3    H215847   6.085   3.013   1.769
 5295TIP3   OH215848   5.933   4.257   0.255
 5295TIP3    H115849   5.876   4.186   0.285
 5295TIP3    H215850   5.950   4.238   0.163
 5296TIP3   OH215851   6.387   2.304   3.286
 5296TIP3    H115852   6.401   2.210   3.285
 5296TIP3    H215853   6.461   2.340   3.237
 5297TIP3   OH215854   2.466   2.158   5.456
 5297TIP3    H115855   2.404   2.090   5.482
 5297TIP3    H215856   2.470   2.152   5.361
 5298TIP3   OH215857   1.986   4.802   3.342
 5298TIP3    H115858   1.930   4.726   3.327
 5298TIP3    H215859   2.039   4.809   3.262
 5299TIP3   OH215860   1.732   2.861   4.868
 5299TIP3    H115861   1.662   2.904   4.918
 5299TIP3    H215862   1.686   2.805   4.806
 5300TIP3   OH215863   1.251   6.465   1.009
 5300TIP3    H115864   1.335   6.420   1.019
 5300TIP3    H215865   1.259   6.515   0.928
 5301TIP3   OH215866   5.523   5.619   4.482
 5301TIP3    H115867   5.553   5.528   4.492
 5301TIP3    H215868   5.488   5.622   4.393
 5302TIP3   OH215869   4.521   6.344   2.409
 5302TIP3    H115870   4.454   6.397   2.453
 5302TIP3    H215871   4.545   6.278   2.474
 5303TIP3   OH215872   1.086   3.897   1.651
 5303TIP3    H115873   0.997   3.930   1.652
 5303TIP3    H215874   1.090   3.836   1.724
 5304TIP3   OH215875   6.168   2.682   0.956
 5304TIP3    H115876   6.141   2.596   0.988
 5304TIP3    H215877   6.143   2.742   1.026
 5305TIP3   OH215878   0.373   6.039   3.455
 5305TIP3    H115879   0.301   6.057   3.395
 5305TIP3    H215880   0.437   6.108   3.436
 5306TIP3   OH215881   6.168   5.224   4.475
 5306TIP3    H115882   6.074   5.226   4.455
 5306TIP3    H215883   6.177   5.284   4.550
 5307TIP3   OH215884   4.603   4.672   5.358
 5307TIP3    H115885   4.619   4.589   5.403
 5307TIP3    H215886   4.585   4.647   5.267
 5308TIP3   OH215887   6.557   4.104   0.103
 5308TIP3    H115888   6.625   4.142   0.159
 5308TIP3    H215889   6.599   4.094   0.017
 5309TIP3   OH215890   5.575   4.694   0.840
 5309TIP3    H115891   5.602   4.729   0.755
 5309TIP3    H215892   5.649   4.641   0.869
 5310TIP3   OH215893   6.271   5.808   4.061
 5310TIP3    H115894   6.213   5.736   4.034
 5310TIP3    H215895   6.274   5.866   3.985
 5311TIP3   OH215896   6.279   5.996   5.025
 5311TIP3    H115897   6.327   6.076   5.004
 5311TIP3    H215898   6.202   6.026   5.073
 5312TIP3   OH215899   1.565   1.631   4.401
 5312TIP3    H115900   1.474   1.604   4.408
 5312TIP3    H215901   1.616   1.553   4.422
 5313TIP3   OH215902   1.467   1.167   0.597
 5313TIP3    H115903   1.425   1.148   0.681
 5313TIP3    H215904   1.551   1.121   0.600
 5314TIP3   OH215905   3.723   3.202   0.318
 5314TIP3    H115906   3.725   3.297   0.321
 5314TIP3    H215907   3.777   3.174   0.392
 5315TIP3   OH215908   3.636   5.240   3.560
 5315TIP3    H115909   3.696   5.217   3.631
 5315TIP3    H215910   3.646   5.169   3.497
 5316TIP3   OH215911   1.171   2.611   0.771
 5316TIP3    H115912   1.218   2.533   0.801
 5316TIP3    H215913   1.202   2.681   0.828
 5317TIP3   OH215914   5.789   1.067   0.231
 5317TIP3    H115915   5.829   1.149   0.261
 5317TIP3    H215916   5.851   0.999   0.257
 5318TIP3   OH215917   1.347   3.943   4.400
 5318TIP3    H115918   1.313   3.868   4.352
 5318TIP3    H215919   1.390   3.997   4.334
 5319TIP3   OH215920   3.150   0.388   3.315
 5319TIP3    H115921   3.151   0.458   3.380
 5319TIP3    H215922   3.064   0.347   3.325
 5320TIP3   OH215923   1.919   5.458   3.989
 5320TIP3    H115924   1.908   5.470   4.083
 5320TIP3    H215925   1.832   5.432   3.958
 5321TIP3   OH215926   7.162   2.765   1.562
 5321TIP3    H115927   7.214   2.762   1.482
 5321TIP3    H215928   7.120   2.679   1.567
 5322TIP3   OH215929   1.413   0.824   2.281
 5322TIP3    H115930   1.439   0.896   2.338
 5322TIP3    H215931   1.451   0.746   2.322
 5323TIP3   OH215932   5.231   0.633   3.901
 5323TIP3    H115933   5.169   0.579   3.853
 5323TIP3    H215934   5.194   0.640   3.989
 5324TIP3   OH215935   0.269   3.242   0.324
 5324TIP3    H115936   0.189   3.266   0.278
 5324TIP3    H215937   0.297   3.160   0.284
 5325TIP3   OH215938   5.657   1.952   0.867
 5325TIP3    H115939   5.620   1.868   0.840
 5325TIP3    H215940   5.666   1.946   0.962
 5326TIP3   OH215941   3.638   6.109   2.089
 5326TIP3    H115942   3.702   6.123   2.159
 5326TIP3    H215943   3.656   6.020   2.058
 5327TIP3   OH215944   1.999   1.162   2.687
 5327TIP3    H115945   1.932   1.229   2.673
 5327TIP3    H215946   1.950   1.086   2.720
 5328TIP3   OH215947   4.074   0.738   0.405
 5328TIP3    H115948   4.156   0.695   0.427
 5328TIP3    H215949   4.101   0.818   0.359
 5329TIP3   OH215950   2.856   5.352   3.633
 5329TIP3    H115951   2.891   5.381   3.549
 5329TIP3    H215952   2.763   5.372   3.629
 5330TIP3   OH215953   4.582   5.613   5.582
 5330TIP3    H115954   4.567   5.564   5.501
 5330TIP3    H215955   4.540   5.697   5.568
 5331TIP3   OH215956   5.419   3.340   2.314
 5331TIP3    H115957   5.396   3.280   2.243
 5331TIP3    H215958   5.514   3.337   2.318
 5332TIP3   OH215959   2.635   3.966   3.259
 5332TIP3    H115960   2.715   4.013   3.232
 5332TIP3    H215961   2.644   3.957   3.354
 5333TIP3   OH215962   5.494   2.132   5.412
 5333TIP3    H115963   5.512   2.186   5.335
 5333TIP3    H215964   5.463   2.049   5.376
 5334TIP3   OH215965   0.941   5.127   4.721
 5334TIP3    H115966   0.890   5.139   4.641
 5334TIP3    H215967   0.949   5.032   4.731
 5335TIP3   OH215968   2.550   2.601   0.381
 5335TIP3    H115969   2.463   2.562   0.378
 5335TIP3    H215970   2.540   2.680   0.434
 5336TIP3   OH215971   2.785   4.141   2.255
 5336TIP3    H115972   2.747   4.227   2.276
 5336TIP3    H215973   2.879   4.155   2.258
 5337TIP3   OH215974   4.571   1.719   1.891
 5337TIP3    H115975   4.529   1.644   1.849
 5337TIP3    H215976   4.517   1.738   1.968
 5338TIP3   OH215977   0.709   3.152   4.937
 5338TIP3    H115978   0.801   3.145   4.911
 5338TIP3    H215979   0.711   3.153   5.032
 5339TIP3   OH215980   2.598   5.060   2.983
 5339TIP3    H115981   2.541   5.076   2.907
 5339TIP3    H215982   2.589   5.139   3.036
 5340TIP3   OH215983   3.246   4.322   5.821
 5340TIP3    H115984   3.182   4.306   5.751
 5340TIP3    H215985   3.331   4.313   5.777
 5341TIP3   OH215986   1.266   0.067   1.999
 5341TIP3    H115987   1.263   0.062   2.095
 5341TIP3    H215988   1.174   0.061   1.972
 5342TIP3   OH215989   0.187   6.457   5.896
 5342TIP3    H115990   0.133   6.494   5.826
 5342TIP3    H215991   0.158   6.367   5.905
 5343TIP3   OH215992   0.130   2.277   3.246
 5343TIP3    H115993   0.038   2.269   3.269
 5343TIP3    H215994   0.152   2.193   3.204
 5344TIP3   OH215995   4.919   4.544   2.958
 5344TIP3    H115996   4.984   4.555   3.027
 5344TIP3    H215997   4.838   4.577   2.996
 5345TIP3   OH215998   3.023   0.566   3.113
 5345TIP3    H115999   2.946   0.617   3.088
 5345TIP3    H216000   3.047   0.598   3.200
 5346TIP3   OH216001   2.153   5.243   4.564
 5346TIP3    H116002   2.124   5.333   4.551
 5346TIP3    H216003   2.223   5.249   4.628
 5347TIP3   OH216004   2.115   5.745   3.040
 5347TIP3    H116005   2.097   5.829   3.082
 5347TIP3    H216006   2.210   5.737   3.041
 5348TIP3   OH216007   1.551   0.218   1.254
 5348TIP3    H116008   1.620   0.152   1.266
 5348TIP3    H216009   1.513   0.230   1.341
 5349TIP3   OH216010   4.988   3.314   5.349
 5349TIP3    H116011   4.987   3.226   5.387
 5349TIP3    H216012   5.073   3.321   5.307
 5350TIP3   OH216013   0.454   3.981   0.754
 5350TIP3    H116014   0.472   3.888   0.765
 5350TIP3    H216015   0.495   4.022   0.831
 5351TIP3   OH216016   4.258   4.945   4.065
 5351TIP3    H116017   4.251   4.909   4.154
 5351TIP3    H216018   4.352   4.958   4.052
 5352TIP3   OH216019   3.506   6.245   4.490
 5352TIP3    H116020   3.567   6.200   4.547
 5352TIP3    H216021   3.559   6.313   4.448
 5353TIP3   OH216022   3.528   1.429   0.740
 5353TIP3    H116023   3.578   1.356   0.704
 5353TIP3    H216024   3.441   1.421   0.701
 5354TIP3   OH216025   0.982   6.228   0.601
 5354TIP3    H116026   1.045   6.267   0.662
 5354TIP3    H216027   0.937   6.303   0.562
 5355TIP3   OH216028   0.548   5.286   1.739
 5355TIP3    H116029   0.463   5.242   1.742
 5355TIP3    H216030   0.585   5.271   1.826
 5356TIP3   OH216031   1.981   6.398   1.751
 5356TIP3    H116032   1.964   6.351   1.832
 5356TIP3    H216033   2.053   6.458   1.771
 5357TIP3   OH216034   3.881   5.718   1.006
 5357TIP3    H116035   3.901   5.638   0.957
 5357TIP3    H216036   3.870   5.785   0.938
 5358TIP3   OH216037   1.295   6.130   1.566
 5358TIP3    H116038   1.280   6.174   1.482
 5358TIP3    H216039   1.367   6.069   1.549
 5359TIP3   OH216040   6.991   0.264   4.967
 5359TIP3    H116041   6.990   0.335   5.031
 5359TIP3    H216042   6.936   0.296   4.895
 5360TIP3   OH216043   4.230   4.761   1.692
 5360TIP3    H116044   4.168   4.794   1.628
 5360TIP3    H216045   4.189   4.681   1.726
 5361TIP3   OH216046   4.632   0.792   4.032
 5361TIP3    H116047   4.703   0.818   3.973
 5361TIP3    H216048   4.574   0.867   4.034
 5362TIP3   OH216049   1.405   4.404   1.226
 5362TIP3    H116050   1.364   4.487   1.248
 5362TIP3    H216051   1.438   4.371   1.310
 5363TIP3   OH216052   6.746   0.144   3.806
 5363TIP3    H116053   6.768   0.235   3.826
 5363TIP3    H216054   6.806   0.120   3.736
 5364TIP3   OH216055   1.682   4.934   1.374
 5364TIP3    H116056   1.692   4.860   1.314
 5364TIP3    H216057   1.654   4.895   1.456
 5365TIP3   OH216058   3.997   4.631   4.033
 5365TIP3    H116059   4.070   4.631   3.971
 5365TIP3    H216060   3.923   4.597   3.983
 5366TIP3   OH216061   2.166   2.282   3.719
 5366TIP3    H116062   2.115   2.235   3.653
 5366TIP3    H216063   2.222   2.341   3.668
 5367TIP3   OH216064   2.050   1.564   1.717
 5367TIP3    H116065   2.096   1.485   1.747
 5367TIP3    H216066   2.094   1.636   1.761
 5368TIP3   OH216067   0.483   3.799   2.046
 5368TIP3    H116068   0.558   3.843   2.086
 5368TIP3    H216069   0.489   3.709   2.078
 5369TIP3   OH216070   4.679   5.322   1.378
 5369TIP3    H116071   4.661   5.388   1.445
 5369TIP3    H216072   4.749   5.268   1.416
 5370TIP3   OH216073   7.037   1.985   0.762
 5370TIP3    H116074   7.084   1.946   0.836
 5370TIP3    H216075   6.945   1.966   0.778
 5371TIP3   OH216076   1.334   6.630   4.022
 5371TIP3    H116077   1.341   6.723   4.000
 5371TIP3    H216078   1.243   6.608   4.002
 5372TIP3   OH216079   3.611   6.228   4.088
 5372TIP3    H116080   3.613   6.323   4.091
 5372TIP3    H216081   3.701   6.203   4.066
 5373TIP3   OH216082   4.409   2.377   1.997
 5373TIP3    H116083   4.331   2.346   1.950
 5373TIP3    H216084   4.397   2.344   2.086
 5374TIP3   OH216085   0.720   3.901   5.252
 5374TIP3    H116086   0.684   3.859   5.174
 5374TIP3    H216087   0.768   3.977   5.219
 5375TIP3   OH216088   4.637   4.649   2.098
 5375TIP3    H116089   4.554   4.667   2.143
 5375TIP3    H216090   4.657   4.729   2.050
 5376TIP3   OH216091   6.828   2.466   3.306
 5376TIP3    H116092   6.884   2.493   3.233
 5376TIP3    H216093   6.867   2.506   3.383
 5377TIP3   OH216094   0.161   5.543   2.539
 5377TIP3    H116095   0.068   5.521   2.544
 5377TIP3    H216096   0.196   5.517   2.624
 5378TIP3   OH216097   6.908   0.138   1.940
 5378TIP3    H116098   6.978   0.088   1.898
 5378TIP3    H216099   6.835   0.135   1.877
 5379TIP3   OH216100   5.636   2.386   4.058
 5379TIP3    H116101   5.690   2.324   4.009
 5379TIP3    H216102   5.698   2.430   4.116
 5380TIP3   OH216103   0.252   1.400   1.328
 5380TIP3    H116104   0.220   1.344   1.398
 5380TIP3    H216105   0.306   1.465   1.372
 5381TIP3   OH216106   3.450   4.837   1.642
 5381TIP3    H116107   3.374   4.885   1.608
 5381TIP3    H216108   3.506   4.904   1.680
 5382TIP3   OH216109   6.554   1.150   3.426
 5382TIP3    H116110   6.641   1.144   3.465
 5382TIP3    H216111   6.550   1.240   3.391
 5383TIP3   OH216112   2.405   2.198   5.186
 5383TIP3    H116113   2.485   2.251   5.195
 5383TIP3    H216114   2.358   2.239   5.114
 5384TIP3   OH216115   6.856   3.969   5.416
 5384TIP3    H116116   6.769   4.008   5.408
 5384TIP3    H216117   6.839   3.875   5.421
 5385TIP3   OH216118   2.513   4.050   1.807
 5385TIP3    H116119   2.421   4.072   1.822
 5385TIP3    H216120   2.554   4.056   1.893
 5386TIP3   OH216121   5.025   3.027   2.302
 5386TIP3    H116122   4.936   3.037   2.267
 5386TIP3    H216123   5.048   3.113   2.335
 5387TIP3   OH216124   4.933   1.988   4.418
 5387TIP3    H116125   4.872   1.915   4.408
 5387TIP3    H216126   4.922   2.039   4.337
 5388TIP3   OH216127   7.202   3.187   1.832
 5388TIP3    H116128   7.129   3.242   1.861
 5388TIP3    H216129   7.162   3.104   1.808
 5389TIP3   OH216130   4.697   0.383   4.410
 5389TIP3    H116131   4.619   0.365   4.462
 5389TIP3    H216132   4.700   0.313   4.345
 5390TIP3   OH216133   1.508   3.046   4.672
 5390TIP3    H116134   1.533   3.104   4.743
 5390TIP3    H216135   1.480   3.104   4.601
 5391TIP3   OH216136   1.235   3.133   2.041
 5391TIP3    H116137   1.235   3.102   1.950
 5391TIP3    H216138   1.249   3.055   2.094
 5392TIP3   OH216139   4.049   3.182   3.649
 5392TIP3    H116140   4.142   3.192   3.668
 5392TIP3    H216141   4.039   3.090   3.624
 5393TIP3   OH216142   1.669   6.476   3.490
 5393TIP3    H116143   1.760   6.446   3.488
 5393TIP3    H216144   1.617   6.397   3.478
 5394TIP3   OH216145   3.057   3.090   3.924
 5394TIP3    H116146   3.132   3.101   3.983
 5394TIP3    H216147   3.082   3.138   3.845
 5395TIP3   OH216148   3.936   2.084   1.090
 5395TIP3    H116149   3.970   2.097   1.002
 5395TIP3    H216150   3.852   2.038   1.077
 5396TIP3   OH216151   1.494   1.073   1.786
 5396TIP3    H116152   1.564   1.018   1.821
 5396TIP3    H216153   1.534   1.120   1.713
 5397TIP3   OH216154   6.821   3.773   0.747
 5397TIP3    H116155   6.745   3.806   0.795
 5397TIP3    H216156   6.871   3.724   0.812
 5398TIP3   OH216157   5.043   0.908   0.676
 5398TIP3    H116158   5.066   0.952   0.594
 5398TIP3    H216159   5.081   0.821   0.667
 5399TIP3   OH216160   3.266   6.339   2.088
 5399TIP3    H116161   3.188   6.283   2.093
 5399TIP3    H216162   3.236   6.418   2.043
 5400TIP3   OH216163   4.426   2.703   3.338
 5400TIP3    H116164   4.340   2.741   3.320
 5400TIP3    H216165   4.488   2.759   3.292
 5401TIP3   OH216166   0.177   2.231   4.881
 5401TIP3    H116167   0.164   2.321   4.852
 5401TIP3    H216168   0.205   2.240   4.972
 5402TIP3   OH216169   2.583   6.012   4.498
 5402TIP3    H116170   2.506   5.960   4.476
 5402TIP3    H216171   2.595   5.998   4.592
 5403TIP3   OH216172   6.051   6.131   5.117
 5403TIP3    H116173   6.001   6.183   5.180
 5403TIP3    H216174   6.035   6.174   5.033
 5404TIP3   OH216175   0.789   1.585   0.859
 5404TIP3    H116176   0.850   1.534   0.806
 5404TIP3    H216177   0.724   1.521   0.889
 5405TIP3   OH216178   5.953   2.794   4.363
 5405TIP3    H116179   6.000   2.818   4.443
 5405TIP3    H216180   5.992   2.711   4.335
 5406TIP3   OH216181   3.950   5.846   1.629
 5406TIP3    H116182   3.949   5.942   1.627
 5406TIP3    H216183   4.037   5.824   1.662
 5407TIP3   OH216184   1.984   3.200   5.603
 5407TIP3    H116185   1.982   3.293   5.625
 5407TIP3    H216186   2.065   3.168   5.643
 5408TIP3   OH216187   3.049   1.255   1.038
 5408TIP3    H116188   3.131   1.304   1.040
 5408TIP3    H216189   3.018   1.255   1.129
 5409TIP3   OH216190   4.739   5.115   3.336
 5409TIP3    H116191   4.736   5.168   3.416
 5409TIP3    H216192   4.689   5.166   3.272
 5410TIP3   OH216193   3.192   4.395   1.205
 5410TIP3    H116194   3.271   4.417   1.255
 5410TIP3    H216195   3.217   4.320   1.152
 5411TIP3   OH216196   5.913   6.439   4.285
 5411TIP3    H116197   5.941   6.517   4.332
 5411TIP3    H216198   5.845   6.469   4.225
 5412TIP3   OH216199   2.536   3.214   4.772
 5412TIP3    H116200   2.629   3.235   4.765
 5412TIP3    H216201   2.530   3.155   4.847
 5413TIP3   OH216202   4.099   1.365   0.502
 5413TIP3    H116203   4.089   1.456   0.473
 5413TIP3    H216204   4.194   1.355   0.513
 5414TIP3   OH216205   4.306   2.206   4.011
 5414TIP3    H116206   4.383   2.255   3.982
 5414TIP3    H216207   4.314   2.205   4.107
 5415TIP3   OH216208   2.694   6.640   5.202
 5415TIP3    H116209   2.614   6.691   5.188
 5415TIP3    H216210   2.670   6.551   5.176
 5416TIP3   OH216211   1.442   3.445   0.571
 5416TIP3    H116212   1.497   3.434   0.649
 5416TIP3    H216213   1.445   3.539   0.553
 5417TIP3   OH216214   5.708   5.884   2.682
 5417TIP3    H116215   5.668   5.964   2.717
 5417TIP3    H216216   5.658   5.866   2.602
 5418TIP3   OH216217   2.559   4.278   2.984
 5418TIP3    H116218   2.525   4.294   2.896
 5418TIP3    H216219   2.482   4.287   3.041
 5419TIP3   OH216220   2.048   6.598   2.820
 5419TIP3    H116221   2.035   6.504   2.814
 5419TIP3    H216222   2.101   6.620   2.744
 5420TIP3   OH216223   5.986   3.515   3.149
 5420TIP3    H116224   5.954   3.426   3.159
 5420TIP3    H216225   5.919   3.560   3.097
 5421TIP3   OH216226   5.622   5.967   1.597
 5421TIP3    H116227   5.688   5.916   1.549
 5421TIP3    H216228   5.566   5.900   1.637
 5422TIP3   OH216229   6.748   1.793   4.989
 5422TIP3    H116230   6.736   1.698   4.991
 5422TIP3    H216231   6.833   1.805   4.947
 5423TIP3   OH216232   0.722   0.227   3.258
 5423TIP3    H116233   0.690   0.318   3.253
 5423TIP3    H216234   0.654   0.175   3.216
 5424TIP3   OH216235   3.816   1.621   0.916
 5424TIP3    H116236   3.823   1.562   0.841
 5424TIP3    H216237   3.741   1.678   0.895
 5425TIP3   OH216238   2.903   2.308   4.519
 5425TIP3    H116239   2.968   2.345   4.578
 5425TIP3    H216240   2.937   2.325   4.431
 5426TIP3   OH216241   3.843   3.770   4.957
 5426TIP3    H116242   3.834   3.824   5.035
 5426TIP3    H216243   3.833   3.680   4.989
 5427TIP3   OH216244   3.860   1.492   0.664
 5427TIP3    H116245   3.783   1.465   0.614
 5427TIP3    H216246   3.934   1.448   0.621
 5428TIP3   OH216247   2.153   1.183   3.060
 5428TIP3    H116248   2.236   1.170   3.107
 5428TIP3    H216249   2.169   1.259   3.004
 5429TIP3   OH216250   5.973   1.848   2.882
 5429TIP3    H116251   5.966   1.938   2.851
 5429TIP3    H216252   5.894   1.836   2.936
 5430TIP3   OH216253   6.105   5.092   3.493
 5430TIP3    H116254   6.060   5.166   3.453
 5430TIP3    H216255   6.191   5.125   3.517
 5431TIP3   OH216256   1.156   3.980   0.953
 5431TIP3    H116257   1.070   3.988   0.993
 5431TIP3    H216258   1.212   4.039   1.003
 5432TIP3   OH216259   2.904   2.850   3.853
 5432TIP3    H116260   2.952   2.925   3.890
 5432TIP3    H216261   2.812   2.872   3.867
 5433TIP3   OH216262   3.896   4.788   0.581
 5433TIP3    H116263   3.876   4.880   0.565
 5433TIP3    H216264   3.974   4.790   0.637
 5434TIP3   OH216265   3.776   5.557   4.193
 5434TIP3    H116266   3.861   5.581   4.229
 5434TIP3    H216267   3.715   5.619   4.232
 5435TIP3   OH216268   5.862   5.408   4.927
 5435TIP3    H116269   5.813   5.330   4.905
 5435TIP3    H216270   5.797   5.478   4.929
 5436TIP3   OH216271   6.476   1.643   0.527
 5436TIP3    H116272   6.386   1.614   0.540
 5436TIP3    H216273   6.528   1.588   0.585
 5437TIP3   OH216274   4.692   1.545   2.624
 5437TIP3    H116275   4.664   1.462   2.586
 5437TIP3    H216276   4.787   1.545   2.616
 5438TIP3   OH216277   4.432   3.959   0.785
 5438TIP3    H116278   4.397   4.030   0.839
 5438TIP3    H216279   4.490   4.002   0.723
 5439TIP3   OH216280   3.322   3.722   3.838
 5439TIP3    H116281   3.315   3.814   3.812
 5439TIP3    H216282   3.409   3.695   3.809
 5440TIP3   OH216283   6.271   2.178   1.673
 5440TIP3    H116284   6.355   2.135   1.689
 5440TIP3    H216285   6.291   2.242   1.604
 5441TIP3   OH216286   2.503   3.185   5.760
 5441TIP3    H116287   2.542   3.266   5.794
 5441TIP3    H216288   2.546   3.115   5.810
 5442TIP3   OH216289   1.860   3.809   2.915
 5442TIP3    H116290   1.856   3.850   2.829
 5442TIP3    H216291   1.884   3.718   2.898
 5443TIP3   OH216292   0.062   6.315   5.463
 5443TIP3    H116293   0.118   6.238   5.449
 5443TIP3    H216294  -0.026   6.279   5.475
 5444TIP3   OH216295   5.268   2.575   1.472
 5444TIP3    H116296   5.224   2.493   1.495
 5444TIP3    H216297   5.197   2.635   1.450
 5445TIP3   OH216298   5.599   1.533   1.313
 5445TIP3    H116299   5.556   1.513   1.230
 5445TIP3    H216300   5.530   1.523   1.379
 5446TIP3   OH216301   6.664   1.831   2.887
 5446TIP3    H116302   6.584   1.838   2.835
 5446TIP3    H216303   6.732   1.868   2.831
 5447TIP3   OH216304   2.878   5.615   4.002
 5447TIP3    H116305   2.948   5.600   3.939
 5447TIP3    H216306   2.920   5.663   4.074
 5448TIP3   OH216307   0.655   1.883   4.631
 5448TIP3    H116308   0.560   1.892   4.624
 5448TIP3    H216309   0.672   1.881   4.725
 5449TIP3   OH216310   2.916  -0.006   0.693
 5449TIP3    H116311   3.009  -0.019   0.711
 5449TIP3    H216312   2.877   0.013   0.778
 5450TIP3   OH216313   1.721   2.052   4.019
 5450TIP3    H116314   1.714   1.970   4.068
 5450TIP3    H216315   1.808   2.086   4.042
 5451TIP3   OH216316   6.048   6.616   5.779
 5451TIP3    H116317   6.010   6.610   5.867
 5451TIP3    H216318   6.002   6.548   5.729
 5452TIP3   OH216319   0.188   1.173   3.815
 5452TIP3    H116320   0.249   1.104   3.788
 5452TIP3    H216321   0.134   1.133   3.883
 5453TIP3   OH216322   3.903   2.539   3.847
 5453TIP3    H116323   3.814   2.570   3.833
 5453TIP3    H216324   3.951   2.568   3.770
 5454TIP3   OH216325   3.120   6.122   1.864
 5454TIP3    H116326   3.135   6.036   1.905
 5454TIP3    H216327   3.026   6.124   1.846
 5455TIP3   OH216328   5.622   6.017   5.305
 5455TIP3    H116329   5.546   5.975   5.267
 5455TIP3    H216330   5.665   5.949   5.357
 5456TIP3   OH216331   1.052   6.830   4.397
 5456TIP3    H116332   1.103   6.827   4.478
 5456TIP3    H216333   1.064   6.743   4.358
 5457TIP3   OH216334   4.735   4.204   1.285
 5457TIP3    H116335   4.692   4.285   1.313
 5457TIP3    H216336   4.819   4.232   1.250
 5458TIP3   OH216337   0.276   3.328   5.077
 5458TIP3    H116338   0.351   3.302   5.024
 5458TIP3    H216339   0.293   3.420   5.099
 5459TIP3   OH216340   7.032   0.985   5.698
 5459TIP3    H116341   7.003   1.019   5.613
 5459TIP3    H216342   7.127   0.985   5.693
 5460TIP3   OH216343   4.395   5.018   5.378
 5460TIP3    H116344   4.475   5.006   5.326
 5460TIP3    H216345   4.367   5.108   5.359
 5461TIP3   OH216346   3.410   1.489   5.213
 5461TIP3    H116347   3.371   1.447   5.137
 5461TIP3    H216348   3.371   1.444   5.288
 5462TIP3   OH216349   3.173   6.325   1.512
 5462TIP3    H116350   3.117   6.381   1.458
 5462TIP3    H216351   3.112   6.277   1.568
 5463TIP3   OH216352   2.289   0.701   0.785
 5463TIP3    H116353   2.240   0.646   0.723
 5463TIP3    H216354   2.337   0.762   0.729
 5464TIP3   OH216355   0.799   5.528   1.302
 5464TIP3    H116356   0.767   5.477   1.376
 5464TIP3    H216357   0.725   5.530   1.241
 5465TIP3   OH216358   2.279   0.483   4.602
 5465TIP3    H116359   2.356   0.451   4.648
 5465TIP3    H216360   2.254   0.411   4.544
 5466TIP3   OH216361   1.256   1.165   3.371
 5466TIP3    H116362   1.333   1.122   3.333
 5466TIP3    H216363   1.292   1.221   3.441
 5467TIP3   OH216364   2.000   4.846   1.612
 5467TIP3    H116365   2.036   4.890   1.535
 5467TIP3    H216366   2.005   4.911   1.682
 5468TIP3   OH216367   5.869   6.744   2.196
 5468TIP3    H116368   5.855   6.719   2.288
 5468TIP3    H216369   5.915   6.669   2.158
 5469TIP3   OH216370   3.084   2.034   0.707
 5469TIP3    H116371   2.998   2.060   0.674
 5469TIP3    H216372   3.065   1.972   0.777
 5470TIP3   OH216373   3.835   2.910   2.673
 5470TIP3    H116374   3.884   2.830   2.690
 5470TIP3    H216375   3.844   2.924   2.579
 5471TIP3   OH216376   3.665   6.071   3.250
 5471TIP3    H116377   3.732   6.099   3.189
 5471TIP3    H216378   3.653   5.978   3.231
 5472TIP3   OH216379   3.265   6.340   4.244
 5472TIP3    H116380   3.267   6.361   4.151
 5472TIP3    H216381   3.357   6.330   4.268
 5473TIP3   OH216382   5.919   4.720   2.804
 5473TIP3    H116383   5.916   4.795   2.865
 5473TIP3    H216384   5.834   4.677   2.815
 5474TIP3   OH216385   0.566   5.923   1.877
 5474TIP3    H116386   0.484   5.903   1.923
 5474TIP3    H216387   0.580   5.848   1.819
 5475TIP3   OH216388   3.532   0.915   1.564
 5475TIP3    H116389   3.565   0.963   1.488
 5475TIP3    H216390   3.439   0.936   1.568
 5476TIP3   OH216391   0.161   6.580   0.918
 5476TIP3    H116392   0.135   6.638   0.847
 5476TIP3    H216393   0.096   6.510   0.917
 5477TIP3   OH216394   4.925   5.898   0.839
 5477TIP3    H116395   4.846   5.867   0.796
 5477TIP3    H216396   4.977   5.938   0.770
 5478TIP3   OH216397   5.975   0.694   2.846
 5478TIP3    H116398   5.917   0.673   2.772
 5478TIP3    H216399   6.015   0.610   2.870
 5479TIP3   OH216400   2.306   0.990   2.376
 5479TIP3    H116401   2.267   0.913   2.335
 5479TIP3    H216402   2.401   0.975   2.368
 5480TIP3   OH216403   5.311   3.718   2.610
 5480TIP3    H116404   5.251   3.786   2.579
 5480TIP3    H216405   5.397   3.761   2.614
 5481TIP3   OH216406   0.050   4.114   0.138
 5481TIP3    H116407   0.134   4.106   0.183
 5481TIP3    H216408   0.037   4.028   0.097
 5482TIP3   OH216409   0.009   1.500   0.428
 5482TIP3    H116410  -0.050   1.424   0.424
 5482TIP3    H216411  -0.045   1.573   0.399
 5483TIP3   OH216412   3.996   5.864   4.098
 5483TIP3    H116413   3.918   5.888   4.048
 5483TIP3    H216414   4.035   5.948   4.125
 5484TIP3   OH216415   0.750   3.258   3.070
 5484TIP3    H116416   0.785   3.298   3.150
 5484TIP3    H216417   0.678   3.316   3.044
 5485TIP3   OH216418   2.664   0.097   1.284
 5485TIP3    H116419   2.606   0.103   1.360
 5485TIP3    H216420   2.642   0.175   1.232
 5486TIP3   OH216421   5.896   4.566   5.107
 5486TIP3    H116422   5.859   4.596   5.024
 5486TIP3    H216423   5.988   4.552   5.089
 5487TIP3   OH216424   6.214   2.594   2.825
 5487TIP3    H116425   6.240   2.553   2.908
 5487TIP3    H216426   6.188   2.683   2.849
 5488TIP3   OH216427   6.332   4.426   5.737
 5488TIP3    H116428   6.276   4.355   5.707
 5488TIP3    H216429   6.419   4.404   5.703
 5489TIP3   OH216430   5.357   4.261   3.718
 5489TIP3    H116431   5.323   4.329   3.659
 5489TIP3    H216432   5.287   4.246   3.781
 5490TIP3   OH216433   3.167   3.374   3.427
 5490TIP3    H116434   3.072   3.375   3.412
 5490TIP3    H216435   3.178   3.415   3.512
 5491TIP3   OH216436   1.706   4.994   3.003
 5491TIP3    H116437   1.720   4.900   2.989
 5491TIP3    H216438   1.655   5.023   2.927
 5492TIP3   OH216439   6.329   5.302   2.450
 5492TIP3    H116440   6.422   5.287   2.435
 5492TIP3    H216441   6.312   5.386   2.408
 5493TIP3   OH216442   4.192   4.502   2.868
 5493TIP3    H116443   4.122   4.548   2.914
 5493TIP3    H216444   4.177   4.521   2.775
 5494TIP3   OH216445   5.628   2.102   0.387
 5494TIP3    H116446   5.694   2.172   0.379
 5494TIP3    H216447   5.646   2.044   0.314
 5495TIP3   OH216448   0.942   4.246   0.965
 5495TIP3    H116449   1.034   4.267   0.947
 5495TIP3    H216450   0.910   4.209   0.882
 5496TIP3   OH216451   6.037   6.556   4.892
 5496TIP3    H116452   6.008   6.540   4.803
 5496TIP3    H216453   5.958   6.545   4.946
 5497TIP3   OH216454   4.626   4.353   5.337
 5497TIP3    H116455   4.654   4.269   5.374
 5497TIP3    H216456   4.623   4.338   5.242
 5498TIP3   OH216457   3.090   1.887   4.060
 5498TIP3    H116458   3.116   1.803   4.021
 5498TIP3    H216459   3.173   1.932   4.077
 5499TIP3   OH216460   2.568   3.542   5.713
 5499TIP3    H116461   2.588   3.580   5.627
 5499TIP3    H216462   2.639   3.481   5.729
 5500TIP3   OH216463   1.626   0.896   5.115
 5500TIP3    H116464   1.713   0.933   5.127
 5500TIP3    H216465   1.568   0.971   5.108
 5501TIP3   OH216466   3.938   3.364   5.627
 5501TIP3    H116467   4.009   3.424   5.649
 5501TIP3    H216468   3.976   3.305   5.561
 5502TIP3   OH216469   4.033   6.344   5.287
 5502TIP3    H116470   3.953   6.394   5.307
 5502TIP3    H216471   4.048   6.291   5.366
 5503TIP3   OH216472   3.422   0.773   2.647
 5503TIP3    H116473   3.506   0.801   2.611
 5503TIP3    H216474   3.362   0.771   2.571
 5504TIP3   OH216475   4.583   5.387   0.860
 5504TIP3    H116476   4.559   5.373   0.768
 5504TIP3    H216477   4.667   5.434   0.856
 5505TIP3   OH216478   0.903   4.191   2.463
 5505TIP3    H116479   0.988   4.232   2.478
 5505TIP3    H216480   0.851   4.216   2.540
 5506TIP3   OH216481   1.997   2.964   3.655
 5506TIP3    H116482   2.088   2.938   3.648
 5506TIP3    H216483   1.966   2.971   3.565
 5507TIP3   OH216484   0.323   3.076   4.077
 5507TIP3    H116485   0.275   3.134   4.136
 5507TIP3    H216486   0.378   3.135   4.025
 5508TIP3   OH216487   4.819   0.621   3.075
 5508TIP3    H116488   4.740   0.641   3.025
 5508TIP3    H216489   4.862   0.552   3.024
 5509TIP3   OH216490   5.671   6.355   3.456
 5509TIP3    H116491   5.755   6.309   3.453
 5509TIP3    H216492   5.688   6.433   3.509
 5510TIP3   OH216493   0.552   3.383   1.589
 5510TIP3    H116494   0.482   3.381   1.524
 5510TIP3    H216495   0.620   3.439   1.551
 5511TIP3   OH216496   6.572   5.636   1.543
 5511TIP3    H116497   6.552   5.703   1.478
 5511TIP3    H216498   6.496   5.578   1.542
 5512TIP3   OH216499   6.276   0.025   0.687
 5512TIP3    H116500   6.310  -0.013   0.606
 5512TIP3    H216501   6.182   0.007   0.684
 5513TIP3   OH216502   6.331   6.398   5.735
 5513TIP3    H116503   6.306   6.309   5.760
 5513TIP3    H216504   6.297   6.409   5.646
 5514TIP3   OH216505   5.432   2.164   3.724
 5514TIP3    H116506   5.474   2.142   3.807
 5514TIP3    H216507   5.385   2.084   3.699
 5515TIP3   OH216508   4.737   3.415   2.370
 5515TIP3    H116509   4.741   3.492   2.313
 5515TIP3    H216510   4.746   3.451   2.458
 5516TIP3   OH216511   3.342   5.951   3.976
 5516TIP3    H116512   3.403   5.949   4.050
 5516TIP3    H216513   3.258   5.977   4.015
 5517TIP3   OH216514   0.703   3.310   1.874
 5517TIP3    H116515   0.693   3.259   1.954
 5517TIP3    H216516   0.614   3.323   1.841
 5518TIP3   OH216517   1.399   6.550   1.590
 5518TIP3    H116518   1.352   6.529   1.509
 5518TIP3    H216519   1.487   6.514   1.577
 5519TIP3   OH216520   1.522   4.802   1.577
 5519TIP3    H116521   1.512   4.711   1.550
 5519TIP3    H216522   1.435   4.826   1.610
 5520TIP3   OH216523   6.540   6.552   1.673
 5520TIP3    H116524   6.464   6.600   1.641
 5520TIP3    H216525   6.591   6.617   1.721
 5521TIP3   OH216526   2.344   5.703   1.592
 5521TIP3    H116527   2.439   5.715   1.595
 5521TIP3    H216528   2.325   5.643   1.664
 5522TIP3   OH216529   1.643   0.574   4.036
 5522TIP3    H116530   1.662   0.593   3.944
 5522TIP3    H216531   1.622   0.659   4.075
 5523TIP3   OH216532   6.867   6.190   3.027
 5523TIP3    H116533   6.825   6.244   3.094
 5523TIP3    H216534   6.927   6.250   2.982
 5524TIP3   OH216535   3.212   5.942   0.488
 5524TIP3    H116536   3.237   5.879   0.420
 5524TIP3    H216537   3.181   5.887   0.560
 5525TIP3   OH216538   1.758   5.176   1.263
 5525TIP3    H116539   1.725   5.099   1.310
 5525TIP3    H216540   1.853   5.164   1.261
 5526TIP3   OH216541   3.127   2.226   4.161
 5526TIP3    H116542   3.221   2.235   4.146
 5526TIP3    H216543   3.104   2.306   4.208
 5527TIP3   OH216544   2.398   4.016   4.618
 5527TIP3    H116545   2.324   3.959   4.636
 5527TIP3    H216546   2.472   3.958   4.609
 5528TIP3   OH216547   1.746   3.206   1.085
 5528TIP3    H116548   1.775   3.230   0.997
 5528TIP3    H216549   1.676   3.268   1.106
 5529TIP3   OH216550   4.128   3.752   5.542
 5529TIP3    H116551   4.199   3.816   5.536
 5529TIP3    H216552   4.156   3.693   5.612
 5530TIP3   OH216553   3.022   3.878   5.630
 5530TIP3    H116554   3.098   3.929   5.658
 5530TIP3    H216555   2.980   3.851   5.712
 5531TIP3   OH216556   1.144   5.197   4.908
 5531TIP3    H116557   1.105   5.178   4.823
 5531TIP3    H216558   1.146   5.293   4.912
 5532TIP3   OH216559   6.632   2.067   0.116
 5532TIP3    H116560   6.616   2.071   0.022
 5532TIP3    H216561   6.558   2.019   0.152
 5533TIP3   OH216562   5.581   5.058   0.235
 5533TIP3    H116563   5.500   5.027   0.276
 5533TIP3    H216564   5.650   5.019   0.288
 5534TIP3   OH216565   1.667   4.467   1.720
 5534TIP3    H116566   1.631   4.529   1.783
 5534TIP3    H216567   1.761   4.481   1.723
 5535TIP3   OH216568   6.660   0.689   2.624
 5535TIP3    H116569   6.635   0.680   2.716
 5535TIP3    H216570   6.618   0.771   2.596
 5536TIP3   OH216571   0.840   0.904   5.364
 5536TIP3    H116572   0.809   0.984   5.407
 5536TIP3    H216573   0.926   0.928   5.328
 5537TIP3   OH216574   2.962   0.592   2.570
 5537TIP3    H116575   2.953   0.529   2.641
 5537TIP3    H216576   2.892   0.656   2.586
 5538TIP3   OH216577   1.666   5.358   3.341
 5538TIP3    H116578   1.645   5.268   3.315
 5538TIP3    H216579   1.758   5.368   3.318
 5539TIP3   OH216580   3.061   6.520   2.651
 5539TIP3    H116581   3.030   6.580   2.583
 5539TIP3    H216582   3.153   6.506   2.631
 5540TIP3   OH216583   3.970   1.629   3.047
 5540TIP3    H116584   3.878   1.624   3.072
 5540TIP3    H216585   4.017   1.597   3.124
 5541TIP3   OH216586   0.140   2.945   3.229
 5541TIP3    H116587   0.194   3.013   3.188
 5541TIP3    H216588   0.151   2.868   3.173
 5542TIP3   OH216589   0.290   4.996   0.587
 5542TIP3    H116590   0.195   4.993   0.603
 5542TIP3    H216591   0.328   5.015   0.672
 5543TIP3   OH216592   6.542   2.530   0.372
 5543TIP3    H116593   6.506   2.539   0.461
 5543TIP3    H216594   6.583   2.444   0.371
 5544TIP3   OH216595   3.131   1.338   1.638
 5544TIP3    H116596   3.182   1.258   1.638
 5544TIP3    H216597   3.044   1.311   1.669
 5545TIP3   OH216598   6.615   4.671   5.437
 5545TIP3    H116599   6.672   4.636   5.369
 5545TIP3    H216600   6.526   4.657   5.404
 5546TIP3   OH216601   6.972   4.237   2.026
 5546TIP3    H116602   6.966   4.142   2.037
 5546TIP3    H216603   7.066   4.256   2.032
 5547TIP3   OH216604   4.742   0.961   0.221
 5547TIP3    H116605   4.826   0.948   0.178
 5547TIP3    H216606   4.737   1.056   0.235
 5548TIP3   OH216607   5.236   4.621   2.038
 5548TIP3    H116608   5.204   4.688   1.977
 5548TIP3    H216609   5.181   4.545   2.022
 5549TIP3   OH216610   4.144   3.429   0.046
 5549TIP3    H116611   4.159   3.376  -0.032
 5549TIP3    H216612   4.060   3.473   0.028
 5550TIP3   OH216613   1.273   0.087   1.534
 5550TIP3    H116614   1.305   0.114   1.619
 5550TIP3    H216615   1.211   0.016   1.553
 5551TIP3   OH216616   4.111   2.282   5.648
 5551TIP3    H116617   4.093   2.249   5.560
 5551TIP3    H216618   4.185   2.342   5.636
 5552TIP3   OH216619   4.117   6.134   3.119
 5552TIP3    H116620   4.048   6.107   3.180
 5552TIP3    H216621   4.075   6.135   3.034
 5553TIP3   OH216622   5.895   3.010   1.657
 5553TIP3    H116623   5.854   3.058   1.585
 5553TIP3    H216624   5.824   2.962   1.699
 5554TIP3   OH216625   1.688   1.765   4.931
 5554TIP3    H116626   1.737   1.683   4.928
 5554TIP3    H216627   1.755   1.833   4.937
 5555TIP3   OH216628   7.124   0.083   5.385
 5555TIP3    H116629   7.162   0.130   5.459
 5555TIP3    H216630   7.187   0.097   5.314
 5556TIP3   OH216631   5.640   6.566   5.588
 5556TIP3    H116632   5.715   6.506   5.579
 5556TIP3    H216633   5.611   6.555   5.678
 5557TIP3   OH216634   6.438   2.646   0.844
 5557TIP3    H116635   6.477   2.655   0.931
 5557TIP3    H216636   6.347   2.623   0.861
 5558TIP3   OH216637   5.169   6.618   3.220
 5558TIP3    H116638   5.076   6.623   3.197
 5558TIP3    H216639   5.189   6.702   3.261
 5559TIP3   OH216640   3.010   2.441   5.678
 5559TIP3    H116641   3.067   2.375   5.717
 5559TIP3    H216642   2.972   2.397   5.602
 5560TIP3   OH216643   5.655   1.487   2.703
 5560TIP3    H116644   5.675   1.450   2.789
 5560TIP3    H216645   5.712   1.563   2.696
 5561TIP3   OH216646   2.583   0.363   0.378
 5561TIP3    H116647   2.674   0.353   0.408
 5561TIP3    H216648   2.590   0.374   0.283
 5562TIP3   OH216649   5.328   3.128   1.287
 5562TIP3    H116650   5.353   3.080   1.366
 5562TIP3    H216651   5.234   3.139   1.294
 5563TIP3   OH216652   0.856   0.355   3.469
 5563TIP3    H116653   0.859   0.434   3.414
 5563TIP3    H216654   0.830   0.285   3.409
 5564TIP3   OH216655   3.915   5.970   2.077
 5564TIP3    H116656   3.893   6.000   2.165
 5564TIP3    H216657   3.841   5.916   2.051
 5565TIP3   OH216658   6.638   0.567   3.507
 5565TIP3    H116659   6.718   0.603   3.469
 5565TIP3    H216660   6.591   0.529   3.433
 5566TIP3   OH216661   5.482   2.093   5.713
 5566TIP3    H116662   5.491   2.186   5.733
 5566TIP3    H216663   5.445   2.091   5.625
 5567TIP3   OH216664   7.128   5.396   2.929
 5567TIP3    H116665   7.182   5.474   2.942
 5567TIP3    H216666   7.190   5.323   2.929
 5568TIP3   OH216667   1.425   5.829   3.887
 5568TIP3    H116668   1.513   5.794   3.901
 5568TIP3    H216669   1.429   5.918   3.924
 5569TIP3   OH216670   3.296   2.065   3.555
 5569TIP3    H116671   3.357   1.993   3.543
 5569TIP3    H216672   3.227   2.029   3.611
 5570TIP3   OH216673   0.390   6.666   5.868
 5570TIP3    H116674   0.327   6.598   5.890
 5570TIP3    H216675   0.337   6.737   5.832
 5571TIP3   OH216676   3.981   1.451   0.107
 5571TIP3    H116677   3.940   1.371   0.072
 5571TIP3    H216678   4.008   1.500   0.029
 5572TIP3   OH216679   0.482   4.849   1.166
 5572TIP3    H116680   0.429   4.872   1.242
 5572TIP3    H216681   0.570   4.836   1.201
 5573TIP3   OH216682   7.028   2.860   5.811
 5573TIP3    H116683   7.091   2.914   5.858
 5573TIP3    H216684   7.057   2.862   5.720
 5574TIP3   OH216685   2.816   2.877   4.378
 5574TIP3    H116686   2.744   2.815   4.379
 5574TIP3    H216687   2.804   2.929   4.458
 5575TIP3   OH216688   1.786   0.029   3.357
 5575TIP3    H116689   1.782   0.032   3.453
 5575TIP3    H216690   1.753   0.115   3.330
 5576TIP3   OH216691   6.941   6.101   2.337
 5576TIP3    H116692   6.854   6.063   2.352
 5576TIP3    H216693   6.933   6.148   2.254
 5577TIP3   OH216694   1.936   1.492   2.298
 5577TIP3    H116695   1.975   1.508   2.212
 5577TIP3    H216696   1.885   1.571   2.317
 5578TIP3   OH216697   1.858   4.059   0.901
 5578TIP3    H116698   1.917   4.128   0.872
 5578TIP3    H216699   1.915   3.989   0.932
 5579TIP3   OH216700   3.176   3.196   0.583
 5579TIP3    H116701   3.161   3.134   0.654
 5579TIP3    H216702   3.209   3.275   0.626
 5580TIP3   OH216703   0.819   3.640   5.863
 5580TIP3    H116704   0.837   3.589   5.784
 5580TIP3    H216705   0.730   3.673   5.851
 5581TIP3   OH216706   5.841   4.135   2.287
 5581TIP3    H116707   5.797   4.078   2.350
 5581TIP3    H216708   5.934   4.132   2.312
 5582TIP3   OH216709   0.149   2.345   1.235
 5582TIP3    H116710   0.167   2.366   1.327
 5582TIP3    H216711   0.236   2.339   1.195
 5583TIP3   OH216712   1.801   4.900   4.061
 5583TIP3    H116713   1.870   4.957   4.026
 5583TIP3    H216714   1.736   4.896   3.992
 5584TIP3   OH216715   6.248   5.708   5.055
 5584TIP3    H116716   6.295   5.767   4.995
 5584TIP3    H216717   6.156   5.730   5.042
 5585TIP3   OH216718   5.509   2.073   3.984
 5585TIP3    H116719   5.469   2.157   4.004
 5585TIP3    H216720   5.449   2.008   4.021
 5586TIP3   OH216721   1.971   3.560   2.278
 5586TIP3    H116722   2.056   3.518   2.287
 5586TIP3    H216723   1.931   3.519   2.202
 5587TIP3   OH216724   3.083   3.588   2.215
 5587TIP3    H116725   3.103   3.578   2.122
 5587TIP3    H216726   3.114   3.507   2.255
 5588TIP3   OH216727   3.865   2.007   1.723
 5588TIP3    H116728   3.847   2.064   1.797
 5588TIP3    H216729   3.959   2.016   1.707
 5589TIP3   OH216730   3.056   4.576   2.649
 5589TIP3    H116731   3.048   4.560   2.555
 5589TIP3    H216732   3.146   4.605   2.661
 5590TIP3   OH216733   6.056   1.986   0.392
 5590TIP3    H116734   6.112   2.039   0.336
 5590TIP3    H216735   5.980   1.966   0.337
 5591TIP3   OH216736   6.771   0.076   1.076
 5591TIP3    H116737   6.742   0.038   0.993
 5591TIP3    H216738   6.691   0.109   1.117
 5592TIP3   OH216739   2.931   1.029   3.111
 5592TIP3    H116740   2.959   1.110   3.153
 5592TIP3    H216741   2.952   1.042   3.018
 5593TIP3   OH216742   1.464   2.811   4.100
 5593TIP3    H116743   1.412   2.832   4.023
 5593TIP3    H216744   1.425   2.730   4.134
 5594TIP3   OH216745   5.927   5.667   5.259
 5594TIP3    H116746   5.918   5.727   5.184
 5594TIP3    H216747   5.945   5.725   5.333
 5595TIP3   OH216748   1.764   5.198   2.260
 5595TIP3    H116749   1.740   5.108   2.283
 5595TIP3    H216750   1.745   5.249   2.338
 5596TIP3   OH216751   4.795   5.976   5.584
 5596TIP3    H116752   4.834   6.059   5.610
 5596TIP3    H216753   4.855   5.909   5.618
 5597TIP3   OH216754   2.441   4.519   0.792
 5597TIP3    H116755   2.402   4.596   0.752
 5597TIP3    H216756   2.385   4.501   0.868
 5598TIP3   OH216757   1.868   3.249   5.346
 5598TIP3    H116758   1.799   3.184   5.337
 5598TIP3    H216759   1.911   3.228   5.428
 5599TIP3   OH216760   3.886   2.794   1.980
 5599TIP3    H116761   3.880   2.789   2.075
 5599TIP3    H216762   3.976   2.820   1.962
 5600TIP3   OH216763   4.710   6.166   1.779
 5600TIP3    H116764   4.731   6.128   1.864
 5600TIP3    H216765   4.636   6.224   1.796
 5601TIP3   OH216766   2.904   1.130   0.501
 5601TIP3    H116767   2.902   1.103   0.409
 5601TIP3    H216768   2.941   1.218   0.500
 5602TIP3   OH216769   4.693   0.194   3.288
 5602TIP3    H116770   4.652   0.166   3.369
 5602TIP3    H216771   4.652   0.278   3.268
 5603TIP3   OH216772   2.113   3.155   3.397
 5603TIP3    H116773   2.058   3.171   3.320
 5603TIP3    H216774   2.192   3.207   3.380
 5604TIP3   OH216775   4.815   3.965   4.908
 5604TIP3    H116776   4.828   4.021   4.984
 5604TIP3    H216777   4.830   4.022   4.833
 5605TIP3   OH216778   0.654   2.009   4.007
 5605TIP3    H116779   0.632   2.077   3.943
 5605TIP3    H216780   0.745   2.027   4.031
 5606TIP3   OH216781   0.778   2.840   0.781
 5606TIP3    H116782   0.872   2.851   0.797
 5606TIP3    H216783   0.771   2.837   0.685
 5607TIP3   OH216784   2.055   0.834   1.880
 5607TIP3    H116785   2.039   0.904   1.944
 5607TIP3    H216786   2.076   0.757   1.933
 5608TIP3   OH216787   1.558   0.010   0.223
 5608TIP3    H116788   1.564   0.018   0.318
 5608TIP3    H216789   1.466  -0.009   0.207
 5609TIP3   OH216790   6.060   1.245   5.797
 5609TIP3    H116791   6.063   1.186   5.722
 5609TIP3    H216792   5.972   1.282   5.795
 5610TIP3   OH216793   0.596   5.471   3.754
 5610TIP3    H116794   0.527   5.471   3.688
 5610TIP3    H216795   0.677   5.470   3.704
 5611TIP3   OH216796   0.779   2.246   2.439
 5611TIP3    H116797   0.834   2.232   2.516
 5611TIP3    H216798   0.698   2.283   2.474
 5612TIP3   OH216799   4.880   6.226   0.195
 5612TIP3    H116800   4.946   6.201   0.131
 5612TIP3    H216801   4.855   6.144   0.236
 5613TIP3   OH216802   1.267   0.071   0.284
 5613TIP3    H116803   1.174   0.095   0.285
 5613TIP3    H216804   1.311   0.148   0.250
 5614TIP3   OH216805   5.515   4.420   1.035
 5614TIP3    H116806   5.480   4.503   1.067
 5614TIP3    H216807   5.541   4.372   1.114
 5615TIP3   OH216808   5.927   1.687   2.435
 5615TIP3    H116809   5.832   1.693   2.441
 5615TIP3    H216810   5.945   1.687   2.341
 5616TIP3   OH216811   0.102   1.415   3.765
 5616TIP3    H116812   0.136   1.467   3.838
 5616TIP3    H216813   0.131   1.326   3.784
 5617TIP3   OH216814   5.753   6.599   1.879
 5617TIP3    H116815   5.712   6.541   1.814
 5617TIP3    H216816   5.745   6.551   1.962
 5618TIP3   OH216817   1.730   1.938   5.350
 5618TIP3    H116818   1.761   2.016   5.396
 5618TIP3    H216819   1.650   1.966   5.306
 5619TIP3   OH216820   4.465   1.866   4.223
 5619TIP3    H116821   4.483   1.807   4.297
 5619TIP3    H216822   4.453   1.808   4.148
 5620TIP3   OH216823   2.336   2.552   5.749
 5620TIP3    H116824   2.284   2.478   5.782
 5620TIP3    H216825   2.275   2.600   5.693
 5621TIP3   OH216826   0.632   3.760   3.550
 5621TIP3    H116827   0.721   3.725   3.554
 5621TIP3    H216828   0.614   3.790   3.639
 5622TIP3   OH216829   4.016   5.610   4.346
 5622TIP3    H116830   4.093   5.662   4.326
 5622TIP3    H216831   4.049   5.536   4.398
 5623TIP3   OH216832   2.216   1.765   5.299
 5623TIP3    H116833   2.257   1.815   5.229
 5623TIP3    H216834   2.123   1.784   5.290
 5624TIP3   OH216835   5.018   5.156   1.106
 5624TIP3    H116836   5.082   5.141   1.175
 5624TIP3    H216837   5.046   5.099   1.034
 5625TIP3   OH216838   2.124   4.665   2.344
 5625TIP3    H116839   2.145   4.680   2.437
 5625TIP3    H216840   2.191   4.714   2.296
 5626TIP3   OH216841   3.337   3.601   5.685
 5626TIP3    H116842   3.419   3.572   5.725
 5626TIP3    H216843   3.365   3.655   5.611
 5627TIP3   OH216844   6.210   2.766   0.192
 5627TIP3    H116845   6.243   2.825   0.260
 5627TIP3    H216846   6.267   2.690   0.196
 5628TIP3   OH216847   1.196   1.881   5.764
 5628TIP3    H116848   1.112   1.850   5.731
 5628TIP3    H216849   1.252   1.803   5.764
 5629TIP3   OH216850   2.741   2.934   3.379
 5629TIP3    H116851   2.792   2.900   3.452
 5629TIP3    H216852   2.733   3.028   3.397
 5630TIP3   OH216853   6.875   2.334   1.853
 5630TIP3    H116854   6.955   2.371   1.891
 5630TIP3    H216855   6.812   2.334   1.925
 5631TIP3   OH216856   3.968   1.955   5.289
 5631TIP3    H116857   4.023   1.905   5.349
 5631TIP3    H216858   3.964   1.901   5.210
 5632TIP3   OH216859   6.358   4.721   5.072
 5632TIP3    H116860   6.365   4.799   5.128
 5632TIP3    H216861   6.340   4.756   4.985
 5633TIP3   OH216862   3.203   3.122   5.496
 5633TIP3    H116863   3.179   3.199   5.547
 5633TIP3    H216864   3.195   3.150   5.405
 5634TIP3   OH216865   0.260   6.301   0.115
 5634TIP3    H116866   0.218   6.374   0.160
 5634TIP3    H216867   0.309   6.256   0.184
 5635TIP3   OH216868   3.016   3.159   2.121
 5635TIP3    H116869   3.094   3.202   2.086
 5635TIP3    H216870   3.025   3.067   2.095
 5636TIP3   OH216871   5.607   3.272   5.271
 5636TIP3    H116872   5.690   3.314   5.249
 5636TIP3    H216873   5.588   3.216   5.196
 5637TIP3   OH216874   3.186   1.078   3.678
 5637TIP3    H116875   3.226   1.005   3.632
 5637TIP3    H216876   3.259   1.126   3.717
 5638TIP3   OH216877   0.985   1.691   2.924
 5638TIP3    H116878   0.949   1.716   3.009
 5638TIP3    H216879   1.062   1.639   2.946
 5639TIP3   OH216880   3.364   1.528   0.363
 5639TIP3    H116881   3.352   1.599   0.426
 5639TIP3    H216882   3.433   1.474   0.401
 5640TIP3   OH216883   7.026   4.757   0.119
 5640TIP3    H116884   7.024   4.662   0.133
 5640TIP3    H216885   6.938   4.786   0.143
 5641TIP3   OH216886   0.939   5.080   3.449
 5641TIP3    H116887   0.955   5.170   3.476
 5641TIP3    H216888   1.004   5.029   3.497
 5642TIP3   OH216889   5.210   3.077   5.030
 5642TIP3    H116890   5.164   3.104   5.110
 5642TIP3    H216891   5.162   3.000   5.000
 5643TIP3   OH216892   2.188   4.719   1.391
 5643TIP3    H116893   2.201   4.723   1.486
 5643TIP3    H216894   2.263   4.765   1.354
 5644TIP3   OH216895   1.370   4.711   3.572
 5644TIP3    H116896   1.431   4.686   3.503
 5644TIP3    H216897   1.371   4.636   3.632
 5645TIP3   OH216898   0.727   5.100   5.780
 5645TIP3    H116899   0.639   5.073   5.753
 5645TIP3    H216900   0.756   5.031   5.839
 5646TIP3   OH216901   3.808   0.835   5.078
 5646TIP3    H116902   3.873   0.827   5.148
 5646TIP3    H216903   3.859   0.831   4.997
 5647TIP3   OH216904   0.647   3.737   1.001
 5647TIP3    H116905   0.621   3.826   1.025
 5647TIP3    H216906   0.610   3.725   0.914
 5648TIP3   OH216907   6.402   0.160   2.605
 5648TIP3    H116908   6.389   0.190   2.695
 5648TIP3    H216909   6.496   0.142   2.598
 5649TIP3   OH216910   0.185   5.522   0.293
 5649TIP3    H116911   0.114   5.459   0.284
 5649TIP3    H216912   0.141   5.607   0.301
 5650TIP3   OH216913   5.370   5.206   0.584
 5650TIP3    H116914   5.380   5.152   0.506
 5650TIP3    H216915   5.276   5.202   0.603
 5651TIP3   OH216916   6.928   5.917   5.163
 5651TIP3    H116917   6.890   5.829   5.170
 5651TIP3    H216918   7.009   5.912   5.213
 5652TIP3   OH216919   2.727   1.011   5.118
 5652TIP3    H116920   2.772   0.940   5.072
 5652TIP3    H216921   2.779   1.089   5.098
 5653TIP3   OH216922   5.802   1.278   4.293
 5653TIP3    H116923   5.823   1.347   4.230
 5653TIP3    H216924   5.760   1.210   4.240
 5654TIP3   OH216925   2.999   3.637   2.897
 5654TIP3    H116926   2.986   3.576   2.825
 5654TIP3    H216927   2.945   3.602   2.968
 5655TIP3   OH216928   2.991   1.265   1.978
 5655TIP3    H116929   2.954   1.229   1.898
 5655TIP3    H216930   2.915   1.293   2.029
 5656TIP3   OH216931   6.388   1.994   5.702
 5656TIP3    H116932   6.458   2.039   5.749
 5656TIP3    H216933   6.404   1.901   5.719
 5657TIP3   OH216934   6.694   6.299   4.489
 5657TIP3    H116935   6.716   6.340   4.405
 5657TIP3    H216936   6.661   6.213   4.464
 5658TIP3   OH216937   4.439   5.398   2.086
 5658TIP3    H116938   4.358   5.347   2.084
 5658TIP3    H216939   4.505   5.337   2.120
 5659TIP3   OH216940   0.148   1.193   0.569
 5659TIP3    H116941   0.105   1.107   0.571
 5659TIP3    H216942   0.076   1.255   0.564
 5660TIP3   OH216943   3.136   2.782   5.433
 5660TIP3    H116944   3.168   2.865   5.468
 5660TIP3    H216945   3.081   2.747   5.503
 5661TIP3   OH216946   6.930   0.610   2.273
 5661TIP3    H116947   6.909   0.671   2.344
 5661TIP3    H216948   6.862   0.542   2.279
 5662TIP3   OH216949   6.532   1.059   2.971
 5662TIP3    H116950   6.557   1.138   2.923
 5662TIP3    H216951   6.511   0.995   2.903
 5663TIP3   OH216952   5.432   5.673   1.046
 5663TIP3    H116953   5.424   5.672   0.950
 5663TIP3    H216954   5.352   5.715   1.077
 5664TIP3   OH216955   1.916   2.374   1.543
 5664TIP3    H116956   1.937   2.361   1.636
 5664TIP3    H216957   1.870   2.294   1.518
 5665TIP3   OH216958   2.255   1.624   5.551
 5665TIP3    H116959   2.330   1.669   5.592
 5665TIP3    H216960   2.223   1.685   5.486
 5666TIP3   OH216961   6.643   4.084   5.536
 5666TIP3    H116962   6.707   4.106   5.604
 5666TIP3    H216963   6.582   4.024   5.579
 5667TIP3   OH216964   0.713   6.530   3.458
 5667TIP3    H116965   0.655   6.591   3.503
 5667TIP3    H216966   0.773   6.585   3.408
 5668TIP3   OH216967   0.230   5.751   2.360
 5668TIP3    H116968   0.213   5.670   2.408
 5668TIP3    H216969   0.324   5.747   2.340
 5669TIP3   OH216970   3.206   6.326   4.515
 5669TIP3    H116971   3.240   6.379   4.444
 5669TIP3    H216972   3.241   6.238   4.499
 5670TIP3   OH216973   6.977   4.262   0.777
 5670TIP3    H116974   7.064   4.251   0.739
 5670TIP3    H216975   6.938   4.334   0.727
 5671TIP3   OH216976   0.095   1.853   4.342
 5671TIP3    H116977   0.166   1.861   4.278
 5671TIP3    H216978   0.080   1.943   4.372
 5672TIP3   OH216979   3.147   3.678   0.255
 5672TIP3    H116980   3.235   3.656   0.226
 5672TIP3    H216981   3.112   3.596   0.290
 5673TIP3   OH216982   3.841   5.139   2.331
 5673TIP3    H116983   3.773   5.184   2.282
 5673TIP3    H216984   3.805   5.053   2.351
 5674TIP3   OH216985   3.292   0.194   2.469
 5674TIP3    H116986   3.359   0.197   2.401
 5674TIP3    H216987   3.268   0.286   2.483
 5675TIP3   OH216988   3.626   3.184   5.168
 5675TIP3    H116989   3.628   3.270   5.128
 5675TIP3    H216990   3.659   3.125   5.100
 5676TIP3   OH216991   1.794   5.613   2.147
 5676TIP3    H116992   1.840   5.593   2.229
 5676TIP3    H216993   1.712   5.565   2.152
 5677TIP3   OH216994   6.859   2.536   3.913
 5677TIP3    H116995   6.937   2.516   3.861
 5677TIP3    H216996   6.805   2.590   3.854
 5678TIP3   OH216997   6.797   1.578   0.467
 5678TIP3    H116998   6.760   1.571   0.379
 5678TIP3    H216999   6.764   1.500   0.512
 5679TIP3   OH217000   2.230   4.712   5.276
 5679TIP3    H117001   2.271   4.676   5.354
 5679TIP3    H217002   2.294   4.697   5.206
 5680TIP3   OH217003   5.401   4.969   2.951
 5680TIP3    H117004   5.398   4.961   2.856
 5680TIP3    H217005   5.392   4.880   2.983
 5681TIP3   OH217006   0.808   4.728   1.122
 5681TIP3    H117007   0.767   4.658   1.173
 5681TIP3    H217008   0.761   4.727   1.039
 5682TIP3   OH217009   3.729   6.120   0.561
 5682TIP3    H117010   3.663   6.063   0.521
 5682TIP3    H217011   3.812   6.090   0.525
 5683TIP3   OH217012   0.120   5.674   1.554
 5683TIP3    H117013   0.166   5.709   1.630
 5683TIP3    H217014   0.071   5.748   1.519
 5684TIP3   OH217015   2.785   3.907   4.755
 5684TIP3    H117016   2.760   3.986   4.802
 5684TIP3    H217017   2.705   3.877   4.713
 5685TIP3   OH217018   0.070   0.764   1.022
 5685TIP3    H117019   0.141   0.737   0.963
 5685TIP3    H217020  -0.009   0.756   0.969
 5686TIP3   OH217021   1.576   0.651   5.231
 5686TIP3    H117022   1.627   0.713   5.178
 5686TIP3    H217023   1.642   0.592   5.268
 5687TIP3   OH217024   6.149   5.405   2.181
 5687TIP3    H117025   6.211   5.476   2.200
 5687TIP3    H217026   6.094   5.400   2.260
 5688TIP3   OH217027   4.666   1.275   5.532
 5688TIP3    H117028   4.718   1.332   5.475
 5688TIP3    H217029   4.716   1.269   5.613
 5689TIP3   OH217030   4.283   3.383   1.897
 5689TIP3    H117031   4.279   3.479   1.899
 5689TIP3    H217032   4.308   3.359   1.986
 5690TIP3   OH217033   3.479   2.151   5.599
 5690TIP3    H117034   3.553   2.116   5.649
 5690TIP3    H217035   3.450   2.077   5.544
 5691TIP3   OH217036   5.034   5.637   0.447
 5691TIP3    H117037   4.984   5.698   0.500
 5691TIP3    H217038   5.067   5.689   0.374
 5692TIP3   OH217039   6.916   3.718   4.896
 5692TIP3    H117040   6.847   3.659   4.926
 5692TIP3    H217041   6.934   3.774   4.971
 5693TIP3   OH217042   7.086   1.118   2.892
 5693TIP3    H117043   7.152   1.050   2.884
 5693TIP3    H217044   7.115   1.187   2.832
 5694TIP3   OH217045   5.127   4.661   4.450
 5694TIP3    H117046   5.184   4.736   4.430
 5694TIP3    H217047   5.147   4.597   4.381
 5695TIP3   OH217048   6.896   1.453   1.260
 5695TIP3    H117049   6.953   1.505   1.317
 5695TIP3    H217050   6.924   1.363   1.275
 5696TIP3   OH217051   5.069   0.268   0.439
 5696TIP3    H117052   5.087   0.249   0.532
 5696TIP3    H217053   5.002   0.337   0.442
 5697TIP3   OH217054   3.757   5.910   5.170
 5697TIP3    H117055   3.768   5.856   5.091
 5697TIP3    H217056   3.831   5.971   5.167
 5698TIP3   OH217057   3.744   5.562   2.235
 5698TIP3    H117058   3.838   5.565   2.218
 5698TIP3    H217059   3.738   5.543   2.329
 5699TIP3   OH217060   1.600   3.672   0.628
 5699TIP3    H117061   1.681   3.722   0.641
 5699TIP3    H217062   1.546   3.694   0.704
 5700TIP3   OH217063   3.733   3.348   2.156
 5700TIP3    H117064   3.741   3.301   2.073
 5700TIP3    H217065   3.746   3.281   2.223
 5701TIP3   OH217066   2.972   3.237   1.237
 5701TIP3    H117067   3.047   3.258   1.181
 5701TIP3    H217068   2.898   3.281   1.195
 5702TIP3   OH217069   5.152   0.154   0.209
 5702TIP3    H117070   5.113   0.070   0.185
 5702TIP3    H217071   5.102   0.182   0.286
 5703TIP3   OH217072   4.020   0.779   3.486
 5703TIP3    H117073   3.928   0.806   3.480
 5703TIP3    H217074   4.060   0.844   3.543
 5704TIP3   OH217075   5.709   6.138   0.159
 5704TIP3    H117076   5.760   6.126   0.078
 5704TIP3    H217077   5.732   6.063   0.213
 5705TIP3   OH217078   0.556   3.345   2.303
 5705TIP3    H117079   0.616   3.419   2.294
 5705TIP3    H217080   0.601   3.284   2.360
 5706TIP3   OH217081   3.689   1.865   3.813
 5706TIP3    H117082   3.622   1.892   3.876
 5706TIP3    H217083   3.772   1.887   3.855
 5707TIP3   OH217084   0.913   2.057   4.065
 5707TIP3    H117085   0.960   2.018   4.138
 5707TIP3    H217086   0.974   2.121   4.028
 5708TIP3   OH217087   4.348   0.678   0.572
 5708TIP3    H117088   4.399   0.616   0.624
 5708TIP3    H217089   4.294   0.725   0.636
 5709TIP3   OH217090   4.382   3.988   4.940
 5709TIP3    H117091   4.463   3.940   4.925
 5709TIP3    H217092   4.401   4.045   5.015
 5710TIP3   OH217093   6.672   1.094   5.411
 5710TIP3    H117094   6.637   1.134   5.491
 5710TIP3    H217095   6.766   1.108   5.418
 5711TIP3   OH217096   6.553   0.861   5.568
 5711TIP3    H117097   6.544   0.897   5.480
 5711TIP3    H217098   6.471   0.884   5.612
 5712TIP3   OH217099   2.132   3.059   0.655
 5712TIP3    H117100   2.171   3.001   0.590
 5712TIP3    H217101   2.136   3.146   0.615
 5713TIP3   OH217102   0.913   0.070   1.998
 5713TIP3    H117103   0.950   0.001   2.054
 5713TIP3    H217104   0.901   0.028   1.913
 5714TIP3   OH217105   5.817   2.713   0.241
 5714TIP3    H117106   5.898   2.750   0.276
 5714TIP3    H217107   5.808   2.628   0.284
 5715TIP3   OH217108   5.755   0.670   5.043
 5715TIP3    H117109   5.821   0.606   5.016
 5715TIP3    H217110   5.677   0.617   5.061
 5716TIP3   OH217111   1.053   5.923   4.158
 5716TIP3    H117112   0.977   5.976   4.136
 5716TIP3    H217113   1.085   5.891   4.074
 5717TIP3   OH217114   0.945   0.295   5.212
 5717TIP3    H117115   0.912   0.295   5.302
 5717TIP3    H217116   0.931   0.385   5.182
 5718TIP3   OH217117   0.181   4.537   5.154
 5718TIP3    H117118   0.105   4.539   5.095
 5718TIP3    H217119   0.254   4.565   5.100
 5719TIP3   OH217120   1.978   4.545   4.351
 5719TIP3    H117121   1.996   4.634   4.379
 5719TIP3    H217122   1.933   4.555   4.267
 5720TIP3   OH217123   3.820   2.232   1.903
 5720TIP3    H117124   3.868   2.312   1.881
 5720TIP3    H217125   3.795   2.242   1.995
 5721TIP3   OH217126   3.352   3.980   0.737
 5721TIP3    H117127   3.362   4.047   0.669
 5721TIP3    H217128   3.401   3.905   0.703
 5722TIP3   OH217129   1.111   1.744   0.509
 5722TIP3    H117130   1.034   1.689   0.496
 5722TIP3    H217131   1.170   1.719   0.438
 5723TIP3   OH217132   4.648   4.428   0.982
 5723TIP3    H117133   4.698   4.377   1.047
 5723TIP3    H217134   4.695   4.511   0.975
 5724TIP3   OH217135   6.310   3.528   3.077
 5724TIP3    H117136   6.348   3.615   3.062
 5724TIP3    H217137   6.266   3.536   3.162
 5725TIP3   OH217138   1.163   0.723   0.441
 5725TIP3    H117139   1.123   0.648   0.398
 5725TIP3    H217140   1.230   0.753   0.379
 5726TIP3   OH217141   1.048   0.443   5.801
 5726TIP3    H117142   1.021   0.476   5.716
 5726TIP3    H217143   0.990   0.368   5.817
 5727TIP3   OH217144   6.805   0.108   0.030
 5727TIP3    H117145   6.806   0.092   0.124
 5727TIP3    H217146   6.847   0.194   0.019
 5728TIP3   OH217147   6.770   2.674   1.615
 5728TIP3    H117148   6.784   2.691   1.709
 5728TIP3    H217149   6.678   2.649   1.609
 5729TIP3   OH217150   5.656   1.085   4.634
 5729TIP3    H117151   5.741   1.112   4.599
 5729TIP3    H217152   5.634   1.005   4.586
 5730TIP3   OH217153   6.523   0.112   5.378
 5730TIP3    H117154   6.499   0.168   5.304
 5730TIP3    H217155   6.458   0.131   5.445
 5731TIP3   OH217156   3.235   0.794   5.233
 5731TIP3    H117157   3.255   0.803   5.140
 5731TIP3    H217158   3.182   0.714   5.238
 5732TIP3   OH217159   5.783   5.073   3.593
 5732TIP3    H117160   5.831   5.132   3.536
 5732TIP3    H217161   5.849   5.037   3.653
 5733TIP3   OH217162   6.199   6.206   3.375
 5733TIP3    H117163   6.235   6.130   3.421
 5733TIP3    H217164   6.267   6.274   3.385
 5734TIP3   OH217165   2.989   1.472   1.432
 5734TIP3    H117166   3.080   1.460   1.458
 5734TIP3    H217167   2.960   1.385   1.405
 5735TIP3   OH217168   2.328   0.024   3.691
 5735TIP3    H117169   2.267   0.066   3.752
 5735TIP3    H217170   2.291   0.041   3.605
 5736TIP3   OH217171   6.810   0.545   1.031
 5736TIP3    H117172   6.732   0.496   1.057
 5736TIP3    H217173   6.882   0.499   1.075
 5737TIP3   OH217174   1.968   2.575   4.803
 5737TIP3    H117175   1.948   2.645   4.741
 5737TIP3    H217176   2.047   2.604   4.848
 5738TIP3   OH217177   0.243   1.787   2.907
 5738TIP3    H117178   0.226   1.772   2.814
 5738TIP3    H217179   0.335   1.815   2.910
 5739TIP3   OH217180   4.264   4.365   5.102
 5739TIP3    H117181   4.302   4.426   5.164
 5739TIP3    H217182   4.323   4.289   5.104
 5740TIP3   OH217183   1.842   1.380   2.001
 5740TIP3    H117184   1.920   1.429   2.027
 5740TIP3    H217185   1.810   1.426   1.923
 5741TIP3   OH217186   0.854   4.613   0.454
 5741TIP3    H117187   0.933   4.627   0.402
 5741TIP3    H217188   0.833   4.521   0.442
 5742TIP3   OH217189   7.038   1.213   3.480
 5742TIP3    H117190   7.127   1.246   3.474
 5742TIP3    H217191   7.006   1.213   3.390
 5743TIP3   OH217192   4.312   4.731   5.414
 5743TIP3    H117193   4.402   4.764   5.424
 5743TIP3    H217194   4.322   4.651   5.363
 5744TIP3   OH217195   6.096   6.199   0.758
 5744TIP3    H117196   6.025   6.223   0.698
 5744TIP3    H217197   6.051   6.172   0.838
 5745TIP3   OH217198   0.535   2.299   3.515
 5745TIP3    H117199   0.612   2.332   3.561
 5745TIP3    H217200   0.524   2.210   3.549
 5746TIP3   OH217201   5.692   2.174   4.879
 5746TIP3    H117202   5.659   2.185   4.790
 5746TIP3    H217203   5.658   2.089   4.907
 5747TIP3   OH217204   5.589   5.245   5.230
 5747TIP3    H117205   5.683   5.231   5.219
 5747TIP3    H217206   5.583   5.315   5.295
 5748TIP3   OH217207   3.589   3.896   4.905
 5748TIP3    H117208   3.682   3.874   4.903
 5748TIP3    H217209   3.548   3.825   4.954
 5749TIP3   OH217210   6.362   5.907   1.009
 5749TIP3    H117211   6.282   5.884   0.963
 5749TIP3    H217212   6.377   5.834   1.069
 5750TIP3   OH217213   2.052   6.662   3.984
 5750TIP3    H117214   2.074   6.613   3.905
 5750TIP3    H217215   2.013   6.597   4.042
 5751TIP3   OH217216   6.014   2.018   3.864
 5751TIP3    H117217   6.106   2.044   3.870
 5751TIP3    H217218   5.965   2.096   3.890
 5752TIP3   OH217219   0.714   3.922   4.058
 5752TIP3    H117220   0.804   3.897   4.079
 5752TIP3    H217221   0.680   3.958   4.139
 5753TIP3   OH217222   5.298   1.144   1.800
 5753TIP3    H117223   5.285   1.239   1.804
 5753TIP3    H217224   5.210   1.109   1.783
 5754TIP3   OH217225   6.450   6.054   3.628
 5754TIP3    H117226   6.408   5.985   3.679
 5754TIP3    H217227   6.435   6.028   3.537
 5755TIP3   OH217228   5.247   5.380   0.302
 5755TIP3    H117229   5.341   5.363   0.304
 5755TIP3    H217230   5.228   5.421   0.386
 5756TIP3   OH217231   2.016   1.371   5.019
 5756TIP3    H117232   1.935   1.382   5.069
 5756TIP3    H217233   2.022   1.449   4.965
 5757TIP3   OH217234   5.386   0.699   5.502
 5757TIP3    H117235   5.476   0.667   5.491
 5757TIP3    H217236   5.395   0.794   5.512
 5758TIP3   OH217237   4.967   5.296   4.254
 5758TIP3    H117238   4.897   5.347   4.297
 5758TIP3    H217239   5.011   5.360   4.198
 5759TIP3   OH217240   1.401   1.128   2.070
 5759TIP3    H117241   1.345   1.205   2.078
 5759TIP3    H217242   1.431   1.129   1.979
 5760TIP3   OH217243   4.896   4.034   5.681
 5760TIP3    H117244   4.915   4.128   5.676
 5760TIP3    H217245   4.855   4.023   5.767
 5761TIP3   OH217246   0.909   0.102   1.704
 5761TIP3    H117247   0.826   0.054   1.712
 5761TIP3    H217248   0.894   0.164   1.634
 5762TIP3   OH217249   1.783   1.509   1.772
 5762TIP3    H117250   1.761   1.467   1.689
 5762TIP3    H217251   1.867   1.552   1.755
 5763TIP3   OH217252   2.361   0.035   4.282
 5763TIP3    H117253   2.345   0.107   4.221
 5763TIP3    H217254   2.299  -0.033   4.255
 5764TIP3   OH217255   6.446   4.619   0.428
 5764TIP3    H117256   6.484   4.561   0.362
 5764TIP3    H217257   6.354   4.625   0.404
 5765TIP3   OH217258   3.094   3.115   1.619
 5765TIP3    H117259   3.074   3.065   1.540
 5765TIP3    H217260   3.012   3.120   1.667
 5766TIP3   OH217261   3.152   2.240   1.590
 5766TIP3    H117262   3.215   2.197   1.648
 5766TIP3    H217263   3.074   2.184   1.593
 5767TIP3   OH217264   6.148   5.435   4.956
 5767TIP3    H117265   6.053   5.437   4.946
 5767TIP3    H217266   6.170   5.522   4.988
 5768TIP3   OH217267   6.091   2.745   1.742
 5768TIP3    H117268   6.166   2.707   1.789
 5768TIP3    H217269   6.015   2.715   1.791
 5769TIP3   OH217270   4.496   0.383   2.334
 5769TIP3    H117271   4.573   0.437   2.353
 5769TIP3    H217272   4.447   0.381   2.417
 5770TIP3   OH217273   0.739   3.443   3.273
 5770TIP3    H117274   0.704   3.396   3.349
 5770TIP3    H217275   0.811   3.495   3.308
 5771TIP3   OH217276   0.219   5.759   5.262
 5771TIP3    H117277   0.178   5.806   5.190
 5771TIP3    H217278   0.149   5.708   5.302
 5772TIP3   OH217279   1.754   3.908   5.090
 5772TIP3    H117280   1.700   3.895   5.168
 5772TIP3    H217281   1.693   3.902   5.017
 5773TIP3   OH217282   4.849   6.044   5.132
 5773TIP3    H117283   4.849   6.108   5.203
 5773TIP3    H217284   4.765   5.999   5.139
 5774TIP3   OH217285   3.522   4.875   2.800
 5774TIP3    H117286   3.560   4.956   2.832
 5774TIP3    H217287   3.583   4.845   2.732
 5775TIP3   OH217288   5.416   6.157   2.585
 5775TIP3    H117289   5.393   6.157   2.493
 5775TIP3    H217290   5.332   6.154   2.631
 5776TIP3   OH217291   0.278   3.145   3.142
 5776TIP3    H117292   0.212   3.212   3.128
 5776TIP3    H217293   0.325   3.173   3.220
 5777TIP3   OH217294   3.452   3.068   5.359
 5777TIP3    H117295   3.369   3.115   5.363
 5777TIP3    H217296   3.505   3.118   5.296
 5778TIP3   OH217297   2.942   4.486   4.301
 5778TIP3    H117298   2.934   4.421   4.370
 5778TIP3    H217299   3.037   4.502   4.294
 5779TIP3   OH217300   5.914   2.866   3.645
 5779TIP3    H117301   5.916   2.796   3.579
 5779TIP3    H217302   6.006   2.879   3.669
 5780TIP3   OH217303   6.926   2.214   4.996
 5780TIP3    H117304   6.836   2.197   4.967
 5780TIP3    H217305   6.932   2.169   5.081
 5781TIP3   OH217306   2.291   0.244   2.281
 5781TIP3    H117307   2.257   0.244   2.191
 5781TIP3    H217308   2.273   0.333   2.312
 5782TIP3   OH217309   0.127   1.781   3.704
 5782TIP3    H117310   0.048   1.752   3.750
 5782TIP3    H217311   0.105   1.773   3.611
 5783TIP3   OH217312   2.415   0.441   1.937
 5783TIP3    H117313   2.487   0.468   1.995
 5783TIP3    H217314   2.418   0.345   1.939
 5784TIP3   OH217315   4.140   3.657   0.278
 5784TIP3    H117316   4.148   3.584   0.217
 5784TIP3    H217317   4.149   3.617   0.364
 5785TIP3   OH217318   0.629   1.645   3.303
 5785TIP3    H117319   0.615   1.570   3.361
 5785TIP3    H217320   0.623   1.721   3.360
 5786TIP3   OH217321   1.200   3.882   2.730
 5786TIP3    H117322   1.207   3.874   2.635
 5786TIP3    H217323   1.256   3.813   2.765
 5787TIP3   OH217324   3.158   0.520   4.964
 5787TIP3    H117325   3.211   0.475   5.030
 5787TIP3    H217326   3.120   0.448   4.913
 5788TIP3   OH217327   2.609   5.270   5.717
 5788TIP3    H117328   2.660   5.351   5.716
 5788TIP3    H217329   2.646   5.219   5.788
 5789TIP3   OH217330   4.459   1.496   2.251
 5789TIP3    H117331   4.369   1.463   2.258
 5789TIP3    H217332   4.483   1.481   2.160
 5790TIP3   OH217333   1.604   3.044   0.745
 5790TIP3    H117334   1.577   2.954   0.760
 5790TIP3    H217335   1.696   3.047   0.773
 5791TIP3   OH217336   5.121   2.136   3.797
 5791TIP3    H117337   5.115   2.193   3.720
 5791TIP3    H217338   5.192   2.174   3.849
 5792TIP3   OH217339   5.997   4.316   2.982
 5792TIP3    H117340   5.907   4.347   2.994
 5792TIP3    H217341   6.050   4.380   3.030
 5793TIP3   OH217342   6.977   3.387   4.822
 5793TIP3    H117343   7.031   3.356   4.894
 5793TIP3    H217344   7.034   3.445   4.772
 5794TIP3   OH217345   3.119   6.695   5.251
 5794TIP3    H117346   3.027   6.719   5.240
 5794TIP3    H217347   3.132   6.622   5.190
 5795TIP3   OH217348   4.113   3.055   0.614
 5795TIP3    H117349   4.075   2.995   0.679
 5795TIP3    H217350   4.166   3.116   0.666
 5796TIP3   OH217351   5.941   5.950   5.734
 5796TIP3    H117352   5.899   6.007   5.799
 5796TIP3    H217353   5.940   5.864   5.774
 5797TIP3   OH217354   7.238   4.263   3.689
 5797TIP3    H117355   7.249   4.254   3.784
 5797TIP3    H217356   7.247   4.357   3.673
 5798TIP3   OH217357   6.132   4.239   4.898
 5798TIP3    H117358   6.059   4.215   4.956
 5798TIP3    H217359   6.133   4.169   4.832
 5799TIP3   OH217360   0.544   0.492   0.453
 5799TIP3    H117361   0.530   0.398   0.443
 5799TIP3    H217362   0.521   0.529   0.368
 5800TIP3   OH217363   1.905   2.885   1.441
 5800TIP3    H117364   1.886   2.909   1.350
 5800TIP3    H217365   1.970   2.950   1.469
 5801TIP3   OH217366   2.564   3.743   5.021
 5801TIP3    H117367   2.613   3.822   5.044
 5801TIP3    H217368   2.474   3.762   5.048
 5802TIP3   OH217369   0.764   4.059   2.800
 5802TIP3    H117370   0.834   4.113   2.837
 5802TIP3    H217371   0.685   4.110   2.814
 5803TIP3   OH217372   3.054   3.994   4.747
 5803TIP3    H117373   3.090   4.060   4.688
 5803TIP3    H217374   3.009   3.932   4.689
 5804TIP3   OH217375   0.036   3.813   2.258
 5804TIP3    H117376   0.035   3.839   2.350
 5804TIP3    H217377   0.057   3.720   2.259
 5805TIP3   OH217378   1.813   6.729   0.923
 5805TIP3    H117379   1.775   6.793   0.984
 5805TIP3    H217380   1.888   6.693   0.970
 5806TIP3   OH217381   5.028   5.278   3.351
 5806TIP3    H117382   5.011   5.300   3.443
 5806TIP3    H217383   4.962   5.327   3.302
 5807TIP3   OH217384   1.522   2.746   2.551
 5807TIP3    H117385   1.518   2.650   2.559
 5807TIP3    H217386   1.451   2.778   2.606
 5808TIP3   OH217387   2.761   4.560   0.089
 5808TIP3    H117388   2.676   4.590   0.057
 5808TIP3    H217389   2.793   4.632   0.143
 5809TIP3   OH217390   5.267   5.479   0.548
 5809TIP3    H117391   5.250   5.409   0.610
 5809TIP3    H217392   5.239   5.559   0.593
 5810TIP3   OH217393   1.161   0.018   4.110
 5810TIP3    H117394   1.132   0.040   4.021
 5810TIP3    H217395   1.201   0.098   4.143
 5811TIP3   OH217396   2.089   4.385   1.332
 5811TIP3    H117397   2.032   4.414   1.260
 5811TIP3    H217398   2.176   4.381   1.293
 5812TIP3   OH217399   6.943   0.063   0.337
 5812TIP3    H117400   6.986   0.111   0.408
 5812TIP3    H217401   6.987  -0.022   0.335
 5813TIP3   OH217402   4.843   5.926   2.722
 5813TIP3    H117403   4.922   5.935   2.775
 5813TIP3    H217404   4.870   5.872   2.648
 5814TIP3   OH217405   3.395   4.305   0.959
 5814TIP3    H117406   3.411   4.397   0.981
 5814TIP3    H217407   3.391   4.303   0.863
 5815TIP3   OH217408   0.101   2.735   3.858
 5815TIP3    H117409   0.076   2.806   3.799
 5815TIP3    H217410   0.071   2.763   3.944
 5816TIP3   OH217411   5.730   0.933   1.729
 5816TIP3    H117412   5.754   0.924   1.821
 5816TIP3    H217413   5.806   0.975   1.689
 5817TIP3   OH217414   2.447   1.260   5.377
 5817TIP3    H117415   2.403   1.231   5.297
 5817TIP3    H217416   2.524   1.203   5.384
 5818TIP3   OH217417   2.347   4.606   3.420
 5818TIP3    H117418   2.375   4.644   3.504
 5818TIP3    H217419   2.263   4.563   3.440
 5819TIP3   OH217420   2.911   0.102   3.804
 5819TIP3    H117421   2.841   0.054   3.848
 5819TIP3    H217422   2.883   0.193   3.806
 5820TIP3   OH217423   5.091   0.624   0.598
 5820TIP3    H117424   5.149   0.591   0.667
 5820TIP3    H217425   5.146   0.627   0.520
 5821TIP3   OH217426   6.739   3.195   3.908
 5821TIP3    H117427   6.722   3.107   3.940
 5821TIP3    H217428   6.657   3.242   3.923
 5822TIP3   OH217429   1.946   0.415   5.023
 5822TIP3    H117430   1.867   0.420   4.968
 5822TIP3    H217431   2.015   0.451   4.967
 5823TIP3   OH217432   0.182   2.495   5.621
 5823TIP3    H117433   0.162   2.402   5.606
 5823TIP3    H217434   0.278   2.497   5.626
 5824TIP3   OH217435   2.691   6.419   0.677
 5824TIP3    H117436   2.775   6.373   0.677
 5824TIP3    H217437   2.713   6.509   0.698
 5825TIP3   OH217438   0.577   0.600   2.358
 5825TIP3    H117439   0.549   0.604   2.267
 5825TIP3    H217440   0.663   0.559   2.356
 5826TIP3   OH217441   6.676   1.070   1.335
 5826TIP3    H117442   6.589   1.110   1.334
 5826TIP3    H217443   6.677   1.017   1.415
 5827TIP3   OH217444   6.302   0.331   3.178
 5827TIP3    H117445   6.331   0.268   3.243
 5827TIP3    H217446   6.238   0.385   3.225
 5828TIP3   OH217447   1.262   3.712   0.608
 5828TIP3    H117448   1.324   3.785   0.602
 5828TIP3    H217449   1.187   3.748   0.655
 5829TIP3   OH217450   5.230   1.983   5.534
 5829TIP3    H117451   5.181   2.050   5.581
 5829TIP3    H217452   5.209   1.999   5.442
 5830TIP3   OH217453   4.467   5.026   1.490
 5830TIP3    H117454   4.457   5.081   1.413
 5830TIP3    H217455   4.437   5.081   1.563
 5831TIP3   OH217456   4.656   1.782   4.775
 5831TIP3    H117457   4.659   1.741   4.861
 5831TIP3    H217458   4.590   1.851   4.784
 5832TIP3   OH217459   5.267   6.768   0.391
 5832TIP3    H117460   5.199   6.741   0.452
 5832TIP3    H217461   5.348   6.737   0.431
 5833TIP3   OH217462   4.429   3.465   0.975
 5833TIP3    H117463   4.524   3.460   0.964
 5833TIP3    H217464   4.394   3.456   0.886
 5834TIP3   OH217465   6.825   4.527   2.778
 5834TIP3    H117466   6.769   4.477   2.837
 5834TIP3    H217467   6.774   4.605   2.757
 5835TIP3   OH217468   5.637   1.432   4.842
 5835TIP3    H117469   5.663   1.432   4.749
 5835TIP3    H217470   5.542   1.437   4.840
 5836TIP3   OH217471   3.011   0.647   4.310
 5836TIP3    H117472   3.027   0.553   4.301
 5836TIP3    H217473   2.927   0.661   4.265
 5837TIP3   OH217474   5.541   5.523   0.509
 5837TIP3    H117475   5.531   5.536   0.415
 5837TIP3    H217476   5.451   5.508   0.541
 5838TIP3   OH217477   6.914   6.014   1.398
 5838TIP3    H117478   6.971   6.087   1.374
 5838TIP3    H217479   6.948   5.940   1.349
 5839TIP3   OH217480   2.755   5.713   4.474
 5839TIP3    H117481   2.813   5.766   4.528
 5839TIP3    H217482   2.717   5.650   4.535
 5840TIP3   OH217483   6.457   5.928   0.316
 5840TIP3    H117484   6.493   6.013   0.341
 5840TIP3    H217485   6.533   5.870   0.313
 5841TIP3   OH217486   3.948   0.866   3.763
 5841TIP3    H117487   3.997   0.819   3.831
 5841TIP3    H217488   3.861   0.827   3.764
 5842TIP3   OH217489   5.116   4.425   0.004
 5842TIP3    H117490   5.102   4.407   0.097
 5842TIP3    H217491   5.207   4.399  -0.012
 5843TIP3   OH217492   3.124   3.345   1.462
 5843TIP3    H117493   3.081   3.309   1.384
 5843TIP3    H217494   3.134   3.270   1.521
 5844TIP3   OH217495   6.883   1.856   1.322
 5844TIP3    H117496   6.801   1.894   1.354
 5844TIP3    H217497   6.938   1.932   1.301
 5845TIP3   OH217498   4.872   2.175   4.216
 5845TIP3    H117499   4.912   2.259   4.197
 5845TIP3    H217500   4.779   2.187   4.196
 5846TIP3   OH217501   0.418   1.640   3.123
 5846TIP3    H117502   0.451   1.726   3.096
 5846TIP3    H217503   0.458   1.625   3.209
 5847TIP3   OH217504   1.076   2.500   4.915
 5847TIP3    H117505   1.017   2.435   4.952
 5847TIP3    H217506   1.069   2.488   4.820
 5848TIP3   OH217507   2.025   3.410   3.535
 5848TIP3    H117508   2.022   3.321   3.500
 5848TIP3    H217509   2.118   3.429   3.543
 5849TIP3   OH217510   4.180   0.802   0.737
 5849TIP3    H117511   4.086   0.819   0.738
 5849TIP3    H217512   4.199   0.767   0.824
 5850TIP3   OH217513   3.747   4.640   5.735
 5850TIP3    H117514   3.709   4.565   5.690
 5850TIP3    H217515   3.683   4.710   5.724
 5851TIP3   OH217516   5.710   3.540   1.410
 5851TIP3    H117517   5.618   3.530   1.389
 5851TIP3    H217518   5.751   3.459   1.379
 5852TIP3   OH217519   1.903   0.907   3.127
 5852TIP3    H117520   1.814   0.907   3.161
 5852TIP3    H217521   1.949   0.841   3.179
 5853TIP3   OH217522   1.558   3.344   1.222
 5853TIP3    H117523   1.464   3.351   1.207
 5853TIP3    H217524   1.579   3.422   1.273
 5854TIP3   OH217525   7.224   6.181   4.811
 5854TIP3    H117526   7.196   6.255   4.757
 5854TIP3    H217527   7.149   6.163   4.868
 5855TIP3   OH217528   3.394   3.471   5.097
 5855TIP3    H117529   3.445   3.434   5.024
 5855TIP3    H217530   3.458   3.523   5.145
 5856TIP3   OH217531   1.455   1.445   1.631
 5856TIP3    H117532   1.498   1.495   1.561
 5856TIP3    H217533   1.503   1.363   1.635
 5857TIP3   OH217534   5.775   2.123   4.033
 5857TIP3    H117535   5.694   2.104   3.985
 5857TIP3    H217536   5.771   2.064   4.108
 5858TIP3   OH217537   6.639   1.877   5.499
 5858TIP3    H117538   6.580   1.949   5.518
 5858TIP3    H217539   6.592   1.799   5.527
 5859TIP3   OH217540   0.204   1.830   0.376
 5859TIP3    H117541   0.118   1.850   0.413
 5859TIP3    H217542   0.238   1.758   0.430
 5860TIP3   OH217543   0.051   2.676   1.331
 5860TIP3    H117544   0.035   2.667   1.238
 5860TIP3    H217545   0.072   2.587   1.361
 5861TIP3   OH217546   6.636   6.297   3.365
 5861TIP3    H117547   6.676   6.345   3.293
 5861TIP3    H217548   6.707   6.287   3.429
 5862TIP3   OH217549   3.299   2.060   1.775
 5862TIP3    H117550   3.322   1.984   1.722
 5862TIP3    H217551   3.378   2.078   1.827
 5863TIP3   OH217552   3.122   4.255   5.216
 5863TIP3    H117553   3.170   4.213   5.145
 5863TIP3    H217554   3.104   4.343   5.183
 5864TIP3   OH217555   6.650   6.020   1.524
 5864TIP3    H117556   6.744   6.027   1.506
 5864TIP3    H217557   6.620   5.949   1.469
 5865TIP3   OH217558   3.407   2.551   2.517
 5865TIP3    H117559   3.322   2.588   2.492
 5865TIP3    H217560   3.458   2.627   2.546
 5866TIP3   OH217561   0.154   2.943   5.393
 5866TIP3    H117562   0.241   2.903   5.392
 5866TIP3    H217563   0.171   3.036   5.407
 5867TIP3   OH217564   6.907   1.365   2.688
 5867TIP3    H117565   6.990   1.324   2.664
 5867TIP3    H217566   6.882   1.418   2.612
 5868TIP3   OH217567   6.443   4.439   5.084
 5868TIP3    H117568   6.444   4.529   5.052
 5868TIP3    H217569   6.512   4.394   5.035
 5869TIP3   OH217570   6.145   5.734   3.632
 5869TIP3    H117571   6.139   5.651   3.584
 5869TIP3    H217572   6.151   5.801   3.564
 5870TIP3   OH217573   5.235   1.791   1.742
 5870TIP3    H117574   5.151   1.747   1.743
 5870TIP3    H217575   5.293   1.733   1.693
 5871TIP3   OH217576   5.567   0.878   2.163
 5871TIP3    H117577   5.636   0.837   2.111
 5871TIP3    H217578   5.489   0.872   2.108
 5872TIP3   OH217579   3.293   5.506   0.439
 5872TIP3    H117580   3.254   5.420   0.451
 5872TIP3    H217581   3.227   5.557   0.391
 5873TIP3   OH217582   0.600   2.649   0.848
 5873TIP3    H117583   0.665   2.718   0.834
 5873TIP3    H217584   0.573   2.624   0.760
 5874TIP3   OH217585   0.436   2.616   5.227
 5874TIP3    H117586   0.472   2.681   5.287
 5874TIP3    H217587   0.360   2.580   5.273
 5875TIP3   OH217588   5.756   2.015   1.866
 5875TIP3    H117589   5.680   2.072   1.880
 5875TIP3    H217590   5.823   2.074   1.832
 5876TIP3   OH217591   6.124   1.998   1.417
 5876TIP3    H117592   6.062   2.033   1.353
 5876TIP3    H217593   6.144   2.072   1.474
 5877TIP3   OH217594   3.918   1.310   2.169
 5877TIP3    H117595   3.947   1.399   2.186
 5877TIP3    H217596   3.871   1.285   2.249
 5878TIP3   OH217597   5.673   5.632   0.734
 5878TIP3    H117598   5.661   5.581   0.654
 5878TIP3    H217599   5.586   5.635   0.774
 5879TIP3   OH217600   4.884   2.648   4.357
 5879TIP3    H117601   4.873   2.743   4.351
 5879TIP3    H217602   4.942   2.636   4.432
 5880TIP3   OH217603   5.501   4.573   5.662
 5880TIP3    H117604   5.569   4.531   5.714
 5880TIP3    H217605   5.470   4.505   5.603
 5881TIP3   OH217606   6.958   2.038   4.762
 5881TIP3    H117607   6.952   2.080   4.848
 5881TIP3    H217608   7.048   2.006   4.756
 5882TIP3   OH217609   6.659   0.142   0.635
 5882TIP3    H117610   6.581   0.187   0.668
 5882TIP3    H217611   6.683   0.082   0.705
 5883TIP3   OH217612   3.204   3.347   5.290
 5883TIP3    H117613   3.263   3.399   5.234
 5883TIP3    H217614   3.167   3.411   5.350
 5884TIP3   OH217615   3.270   0.357   5.129
 5884TIP3    H117616   3.237   0.269   5.112
 5884TIP3    H217617   3.338   0.345   5.196
 5885TIP3   OH217618   4.690   5.930   4.103
 5885TIP3    H117619   4.708   5.949   4.195
 5885TIP3    H217620   4.643   6.008   4.072
 5886TIP3   OH217621   6.915   0.199   1.276
 5886TIP3    H117622   6.855   0.145   1.225
 5886TIP3    H217623   6.961   0.252   1.211
 5887TIP3   OH217624   2.443   1.333   4.833
 5887TIP3    H117625   2.367   1.385   4.805
 5887TIP3    H217626   2.512   1.355   4.770
 5888TIP3   OH217627   1.901   2.686   0.496
 5888TIP3    H117628   1.825   2.740   0.477
 5888TIP3    H217629   1.894   2.667   0.589
 5889TIP3   OH217630   7.094   4.498   0.153
 5889TIP3    H117631   7.106   4.446   0.232
 5889TIP3    H217632   7.183   4.507   0.117
 5890TIP3   OH217633   1.468   1.105   3.876
 5890TIP3    H117634   1.433   1.116   3.964
 5890TIP3    H217635   1.501   1.016   3.874
 5891TIP3   OH217636   0.424   5.324   2.112
 5891TIP3    H117637   0.448   5.370   2.193
 5891TIP3    H217638   0.507   5.314   2.066
 5892TIP3   OH217639   6.314   0.760   3.941
 5892TIP3    H117640   6.369   0.833   3.967
 5892TIP3    H217641   6.359   0.721   3.866
 5893TIP3   OH217642   2.307   3.503   5.754
 5893TIP3    H117643   2.313   3.538   5.844
 5893TIP3    H217644   2.398   3.491   5.727
 5894TIP3   OH217645   0.458   3.776   3.337
 5894TIP3    H117646   0.529   3.761   3.275
 5894TIP3    H217647   0.496   3.752   3.422
 5895TIP3   OH217648   1.337   4.336   1.901
 5895TIP3    H117649   1.274   4.298   1.840
 5895TIP3    H217650   1.369   4.261   1.952
 5896TIP3   OH217651   4.111   3.732   0.912
 5896TIP3    H117652   4.168   3.673   0.863
 5896TIP3    H217653   4.025   3.688   0.912
 5897TIP3   OH217654   7.158   4.374   4.224
 5897TIP3    H117655   7.209   4.351   4.302
 5897TIP3    H217656   7.110   4.295   4.202
 5898TIP3   OH217657   0.973   6.140   3.046
 5898TIP3    H117658   1.033   6.149   3.119
 5898TIP3    H217659   0.993   6.215   2.989
 5899TIP3   OH217660   2.793   4.872   0.509
 5899TIP3    H117661   2.818   4.876   0.602
 5899TIP3    H217662   2.791   4.964   0.481
 5900TIP3   OH217663   1.501   2.700   3.692
 5900TIP3    H117664   1.462   2.787   3.699
 5900TIP3    H217665   1.512   2.685   3.598
 5901TIP3   OH217666   6.374   4.982   2.669
 5901TIP3    H117667   6.439   5.050   2.652
 5901TIP3    H217668   6.321   5.016   2.740
 5902TIP3   OH217669   5.679   2.531   0.900
 5902TIP3    H117670   5.652   2.441   0.920
 5902TIP3    H217671   5.643   2.548   0.813
 5903TIP3   OH217672   1.466   5.811   4.263
 5903TIP3    H117673   1.538   5.799   4.201
 5903TIP3    H217674   1.415   5.883   4.227
 5904TIP3   OH217675   4.855   5.952   4.566
 5904TIP3    H117676   4.856   5.895   4.643
 5904TIP3    H217677   4.944   5.986   4.559
 5905TIP3   OH217678   3.829   1.424   4.205
 5905TIP3    H117679   3.793   1.482   4.272
 5905TIP3    H217680   3.771   1.435   4.130
 5906TIP3   OH217681   3.863   1.012   2.201
 5906TIP3    H117682   3.852   0.918   2.188
 5906TIP3    H217683   3.854   1.050   2.114
 5907TIP3   OH217684   5.311   6.435   0.205
 5907TIP3    H117685   5.342   6.379   0.277
 5907TIP3    H217686   5.366   6.513   0.210
 5908TIP3   OH217687   4.470   4.746   3.143
 5908TIP3    H117688   4.524   4.804   3.196
 5908TIP3    H217689   4.531   4.684   3.104
 5909TIP3   OH217690   5.987   0.737   0.311
 5909TIP3    H117691   6.015   0.666   0.253
 5909TIP3    H217692   5.897   0.754   0.286
 5910TIP3   OH217693   6.717   2.787   2.497
 5910TIP3    H117694   6.786   2.785   2.564
 5910TIP3    H217695   6.699   2.880   2.483
 5911TIP3   OH217696   1.115   4.632   0.373
 5911TIP3    H117697   1.199   4.632   0.329
 5911TIP3    H217698   1.123   4.700   0.440
 5912TIP3   OH217699   0.848   1.235   0.408
 5912TIP3    H117700   0.880   1.149   0.435
 5912TIP3    H217701   0.817   1.276   0.488
 5913TIP3   OH217702   1.570   3.807   3.530
 5913TIP3    H117703   1.612   3.774   3.450
 5913TIP3    H217704   1.579   3.737   3.593
 5914TIP3   OH217705   4.876   5.139   4.860
 5914TIP3    H117706   4.932   5.171   4.930
 5914TIP3    H217707   4.865   5.046   4.878
 5915TIP3   OH217708   0.739   3.526   5.630
 5915TIP3    H117709   0.662   3.471   5.618
 5915TIP3    H217710   0.721   3.605   5.579
 5916TIP3   OH217711   1.786   5.476   5.566
 5916TIP3    H117712   1.851   5.482   5.636
 5916TIP3    H217713   1.772   5.382   5.555
 5917TIP3   OH217714   6.196   2.014   0.621
 5917TIP3    H117715   6.209   2.108   0.615
 5917TIP3    H217716   6.129   1.994   0.555
 5918TIP3   OH217717   4.607   5.374   0.052
 5918TIP3    H117718   4.601   5.295  -0.002
 5918TIP3    H217719   4.686   5.418   0.021
 5919TIP3   OH217720   5.136   5.065   1.786
 5919TIP3    H117721   5.118   5.147   1.741
 5919TIP3    H217722   5.051   5.038   1.821
 5920TIP3   OH217723   6.738   4.122   0.842
 5920TIP3    H117724   6.745   4.029   0.864
 5920TIP3    H217725   6.829   4.149   0.828
 5921TIP3   OH217726   3.894   4.623   3.641
 5921TIP3    H117727   3.934   4.687   3.582
 5921TIP3    H217728   3.965   4.565   3.665
 5922TIP3   OH217729   5.860   2.043   0.194
 5922TIP3    H117730   5.858   2.128   0.151
 5922TIP3    H217731   5.827   1.981   0.128
 5923TIP3   OH217732   3.102   3.745   3.285
 5923TIP3    H117733   3.099   3.823   3.229
 5923TIP3    H217734   3.034   3.688   3.250
 5924TIP3   OH217735   4.785   0.431   3.928
 5924TIP3    H117736   4.790   0.457   3.836
 5924TIP3    H217737   4.693   0.443   3.952
 5925TIP3   OH217738   5.125   4.493   1.161
 5925TIP3    H117739   5.126   4.586   1.185
 5925TIP3    H217740   5.199   4.484   1.101
 5926TIP3   OH217741   2.333   1.902   5.080
 5926TIP3    H117742   2.398   1.972   5.072
 5926TIP3    H217743   2.275   1.914   5.005
 5927TIP3   OH217744   1.405   3.605   4.496
 5927TIP3    H117745   1.359   3.549   4.559
 5927TIP3    H217746   1.441   3.676   4.549
 5928TIP3   OH217747   3.324   3.345   0.284
 5928TIP3    H117748   3.229   3.337   0.291
 5928TIP3    H217749   3.349   3.284   0.215
 5929TIP3   OH217750   0.952   1.401   0.712
 5929TIP3    H117751   0.916   1.445   0.634
 5929TIP3    H217752   1.047   1.402   0.698
 5930TIP3   OH217753   2.351   3.768   3.212
 5930TIP3    H117754   2.347   3.847   3.158
 5930TIP3    H217755   2.295   3.787   3.287
 5931TIP3   OH217756   0.218   2.047   1.032
 5931TIP3    H117757   0.138   1.995   1.027
 5931TIP3    H217758   0.190   2.137   1.014
 5932TIP3   OH217759   6.089   4.747   4.965
 5932TIP3    H117760   6.136   4.675   5.007
 5932TIP3    H217761   6.150   4.781   4.900
 5933TIP3   OH217762   2.035   2.011   5.505
 5933TIP3    H117763   1.992   1.928   5.523
 5933TIP3    H217764   2.125   1.999   5.533
 5934TIP3   OH217765   0.712   1.985   1.828
 5934TIP3    H117766   0.674   2.060   1.874
 5934TIP3    H217767   0.803   2.011   1.813
 5935TIP3   OH217768   0.591   4.110   4.297
 5935TIP3    H117769   0.540   4.117   4.378
 5935TIP3    H217770   0.535   4.149   4.230
 5936TIP3   OH217771   2.606   1.013   2.345
 5936TIP3    H117772   2.598   1.025   2.440
 5936TIP3    H217773   2.688   1.057   2.323
 5937TIP3   OH217774   0.858   1.521   4.995
 5937TIP3    H117775   0.774   1.518   4.950
 5937TIP3    H217776   0.843   1.579   5.070
 5938TIP3   OH217777   0.258   1.468   1.062
 5938TIP3    H117778   0.274   1.420   1.143
 5938TIP3    H217779   0.261   1.560   1.087
 5939TIP3   OH217780   3.096   0.137   1.153
 5939TIP3    H117781   3.050   0.218   1.178
 5939TIP3    H217782   3.026   0.072   1.146
 5940TIP3   OH217783   4.458   3.661   2.627
 5940TIP3    H117784   4.473   3.733   2.566
 5940TIP3    H217785   4.368   3.633   2.610
 5941TIP3   OH217786   4.496   0.361   3.938
 5941TIP3    H117787   4.434   0.433   3.951
 5941TIP3    H217788   4.500   0.316   4.022
 5942TIP3   OH217789   1.549   4.039   5.865
 5942TIP3    H117790   1.573   4.022   5.957
 5942TIP3    H217791   1.534   3.952   5.828
 5943TIP3   OH217792   0.249   5.047   4.323
 5943TIP3    H117793   0.319   5.078   4.266
 5943TIP3    H217794   0.282   4.966   4.362
 5944TIP3   OH217795   7.116   3.643   5.207
 5944TIP3    H117796   7.089   3.734   5.194
 5944TIP3    H217797   7.209   3.642   5.185
 5945TIP3   OH217798   5.774   6.136   3.720
 5945TIP3    H117799   5.746   6.226   3.705
 5945TIP3    H217800   5.728   6.084   3.654
 5946TIP3   OH217801   1.576   5.057   5.064
 5946TIP3    H117802   1.629   5.124   5.020
 5946TIP3    H217803   1.615   4.974   5.036
 5947TIP3   OH217804   1.829   1.122   1.476
 5947TIP3    H117805   1.850   1.029   1.481
 5947TIP3    H217806   1.903   1.166   1.518
 5948TIP3   OH217807   6.277   2.260   1.968
 5948TIP3    H117808   6.293   2.186   1.909
 5948TIP3    H217809   6.338   2.247   2.040
 5949TIP3   OH217810   0.471   3.075   1.936
 5949TIP3    H117811   0.499   2.988   1.906
 5949TIP3    H217812   0.514   3.086   2.021
 5950TIP3   OH217813   4.690   5.531   2.055
 5950TIP3    H117814   4.598   5.508   2.040
 5950TIP3    H217815   4.729   5.529   1.967
 5951TIP3   OH217816   0.666   5.603   0.822
 5951TIP3    H117817   0.662   5.659   0.899
 5951TIP3    H217818   0.744   5.633   0.775
 5952TIP3   OH217819   1.357   6.437   1.861
 5952TIP3    H117820   1.308   6.356   1.848
 5952TIP3    H217821   1.382   6.465   1.773
 5953TIP3   OH217822   3.910   6.702   2.615
 5953TIP3    H117823   3.958   6.779   2.583
 5953TIP3    H217824   3.821   6.735   2.630
 5954TIP3   OH217825   3.053   6.745   2.480
 5954TIP3    H117826   3.114   6.819   2.488
 5954TIP3    H217827   3.084   6.696   2.404
 5955TIP3   OH217828   6.543   3.025   0.813
 5955TIP3    H117829   6.567   3.106   0.859
 5955TIP3    H217830   6.591   2.957   0.859
 5956TIP3   OH217831   0.803   6.614   2.190
 5956TIP3    H117832   0.801   6.595   2.096
 5956TIP3    H217833   0.711   6.613   2.216
 5957TIP3   OH217834   3.478   2.503   5.800
 5957TIP3    H117835   3.386   2.526   5.811
 5957TIP3    H217836   3.486   2.481   5.707
 5958TIP3   OH217837   1.602   5.122   4.108
 5958TIP3    H117838   1.605   5.131   4.013
 5958TIP3    H217839   1.691   5.142   4.136
 5959TIP3   OH217840   1.838   0.323   2.637
 5959TIP3    H117841   1.830   0.290   2.548
 5959TIP3    H217842   1.748   0.325   2.670
 5960TIP3   OH217843   6.957   1.559   3.909
 5960TIP3    H117844   6.986   1.515   3.988
 5960TIP3    H217845   6.913   1.491   3.858
 5961TIP3   OH217846   5.215   3.838   2.080
 5961TIP3    H117847   5.127   3.872   2.067
 5961TIP3    H217848   5.258   3.903   2.135
 5962TIP3   OH217849   6.696   0.506   1.416
 5962TIP3    H117850   6.631   0.438   1.433
 5962TIP3    H217851   6.652   0.568   1.357
 5963TIP3   OH217852   5.812   3.883   2.776
 5963TIP3    H117853   5.839   3.975   2.780
 5963TIP3    H217854   5.893   3.834   2.788
 5964TIP3   OH217855   6.784   4.422   2.002
 5964TIP3    H117856   6.863   4.374   2.029
 5964TIP3    H217857   6.802   4.513   2.027
 5965TIP3   OH217858   6.421   6.159   2.970
 5965TIP3    H117859   6.431   6.247   2.933
 5965TIP3    H217860   6.438   6.100   2.896
 5966TIP3   OH217861   5.216   6.178   4.496
 5966TIP3    H117862   5.280   6.132   4.442
 5966TIP3    H217863   5.255   6.264   4.511
 5967TIP3   OH217864   4.016   6.533   2.775
 5967TIP3    H117865   3.993   6.613   2.728
 5967TIP3    H217866   3.985   6.547   2.864
 5968TIP3   OH217867   2.712   3.314   3.760
 5968TIP3    H117868   2.712   3.385   3.825
 5968TIP3    H217869   2.688   3.236   3.810
 5969TIP3   OH217870   4.546   6.660   1.112
 5969TIP3    H117871   4.475   6.725   1.119
 5969TIP3    H217872   4.573   6.645   1.202
 5970TIP3   OH217873   2.066   5.762   1.494
 5970TIP3    H117874   2.139   5.733   1.549
 5970TIP3    H217875   2.059   5.856   1.509
 5971TIP3   OH217876   5.067   0.745   5.164
 5971TIP3    H117877   4.992   0.713   5.113
 5971TIP3    H217878   5.125   0.783   5.099
 5972TIP3   OH217879   6.282   5.663   1.540
 5972TIP3    H117880   6.268   5.684   1.448
 5972TIP3    H217881   6.239   5.579   1.553
 5973TIP3   OH217882   4.937   6.455   3.152
 5973TIP3    H117883   4.911   6.364   3.165
 5973TIP3    H217884   4.906   6.476   3.064
 5974TIP3   OH217885   3.038   5.178   4.630
 5974TIP3    H117886   3.125   5.175   4.669
 5974TIP3    H217887   2.988   5.111   4.677
 5975TIP3   OH217888   0.482   1.708   5.276
 5975TIP3    H117889   0.478   1.702   5.181
 5975TIP3    H217890   0.533   1.631   5.303
 5976TIP3   OH217891   3.299   0.720   0.533
 5976TIP3    H117892   3.345   0.648   0.576
 5976TIP3    H217893   3.211   0.719   0.572
 5977TIP3   OH217894   6.537   1.007   3.803
 5977TIP3    H117895   6.598   1.048   3.865
 5977TIP3    H217896   6.594   0.968   3.737
 5978TIP3   OH217897   4.054   2.636   0.215
 5978TIP3    H117898   4.088   2.547   0.220
 5978TIP3    H217899   4.050   2.666   0.306
 5979TIP3   OH217900   2.189   2.291   5.367
 5979TIP3    H117901   2.185   2.195   5.358
 5979TIP3    H217902   2.279   2.314   5.347
 5980TIP3   OH217903   6.203   0.816   0.155
 5980TIP3    H117904   6.255   0.742   0.125
 5980TIP3    H217905   6.212   0.814   0.250
 5981TIP3   OH217906   1.521   1.664   2.540
 5981TIP3    H117907   1.579   1.700   2.472
 5981TIP3    H217908   1.470   1.740   2.569
 5982TIP3   OH217909   0.079   3.397   3.619
 5982TIP3    H117910   0.155   3.392   3.677
 5982TIP3    H217911   0.024   3.322   3.645
 5983TIP3   OH217912   6.593   3.383   5.015
 5983TIP3    H117913   6.554   3.345   5.094
 5983TIP3    H217914   6.524   3.439   4.979
 5984TIP3   OH217915   3.825   6.312   4.892
 5984TIP3    H117916   3.865   6.363   4.822
 5984TIP3    H217917   3.750   6.365   4.921
 5985TIP3   OH217918   3.951   3.754   3.868
 5985TIP3    H117919   3.995   3.761   3.784
 5985TIP3    H217920   4.019   3.771   3.933
 5986TIP3   OH217921   2.007   6.312   1.482
 5986TIP3    H117922   2.015   6.342   1.573
 5986TIP3    H217923   2.027   6.390   1.429
 5987TIP3   OH217924   7.146   4.979   0.229
 5987TIP3    H117925   7.111   4.908   0.176
 5987TIP3    H217926   7.174   4.937   0.311
 5988TIP3   OH217927   6.941   3.505   5.406
 5988TIP3    H117928   7.005   3.534   5.341
 5988TIP3    H217929   6.875   3.575   5.407
 5989TIP3   OH217930   3.668   4.503   0.185
 5989TIP3    H117931   3.717   4.561   0.127
 5989TIP3    H217932   3.723   4.495   0.263
 5990TIP3   OH217933   7.166   3.461   4.565
 5990TIP3    H117934   7.235   3.477   4.500
 5990TIP3    H217935   7.160   3.543   4.614
 5991TIP3   OH217936   2.635   2.212   1.801
 5991TIP3    H117937   2.721   2.236   1.837
 5991TIP3    H217938   2.599   2.294   1.767
 5992TIP3   OH217939   2.908   2.497   3.834
 5992TIP3    H117940   2.955   2.417   3.860
 5992TIP3    H217941   2.912   2.498   3.739
 5993TIP3   OH217942   0.225   1.801   0.731
 5993TIP3    H117943   0.269   1.814   0.815
 5993TIP3    H217944   0.221   1.888   0.693
 5994TIP3   OH217945   6.351   0.353   2.427
 5994TIP3    H117946   6.372   0.286   2.493
 5994TIP3    H217947   6.372   0.436   2.469
 5995TIP3   OH217948   2.432   4.196   3.926
 5995TIP3    H117949   2.450   4.109   3.961
 5995TIP3    H217950   2.384   4.180   3.845
 5996TIP3   OH217951   5.275   4.748   0.407
 5996TIP3    H117952   5.336   4.680   0.436
 5996TIP3    H217953   5.252   4.723   0.317
 5997TIP3   OH217954   6.825   4.650   2.129
 5997TIP3    H117955   6.888   4.699   2.181
 5997TIP3    H217956   6.740   4.685   2.156
 5998TIP3   OH217957   4.297   5.886   3.920
 5998TIP3    H117958   4.277   5.966   3.870
 5998TIP3    H217959   4.214   5.863   3.962
 5999TIP3   OH217960   1.827   3.500   2.895
 5999TIP3    H117961   1.898   3.438   2.881
 5999TIP3    H217962   1.773   3.494   2.816
 6000TIP3   OH217963   1.840   6.456   4.507
 6000TIP3    H117964   1.921   6.495   4.475
 6000TIP3    H217965   1.866   6.367   4.533
 6001TIP3   OH217966   0.760   4.603   3.047
 6001TIP3    H117967   0.739   4.580   3.138
 6001TIP3    H217968   0.779   4.697   3.050
 6002TIP3   OH217969   4.806   4.562   4.973
 6002TIP3    H117970   4.849   4.611   4.903
 6002TIP3    H217971   4.868   4.563   5.046
 6003TIP3   OH217972   1.988   1.254   0.596
 6003TIP3    H117973   2.044   1.326   0.567
 6003TIP3    H217974   1.951   1.285   0.679
 6004TIP3   OH217975   1.101   0.617   2.292
 6004TIP3    H117976   1.016   0.655   2.272
 6004TIP3    H217977   1.128   0.660   2.374
 6005TIP3   OH217978   1.927   4.762   4.669
 6005TIP3    H117979   1.911   4.856   4.683
 6005TIP3    H217980   1.941   4.754   4.575
 6006TIP3   OH217981   5.033   2.308   4.451
 6006TIP3    H117982   5.017   2.346   4.364
 6006TIP3    H217983   5.123   2.275   4.447
 6007TIP3   OH217984   6.478   1.852   1.340
 6007TIP3    H117985   6.454   1.892   1.256
 6007TIP3    H217986   6.566   1.884   1.359
 6008TIP3   OH217987   1.171   0.106   3.291
 6008TIP3    H117988   1.200   0.104   3.200
 6008TIP3    H217989   1.086   0.061   3.290
 6009TIP3   OH217990   4.928   0.111   4.795
 6009TIP3    H117991   4.855   0.169   4.819
 6009TIP3    H217992   4.899   0.068   4.715
 6010TIP3   OH217993   5.232   6.664   4.143
 6010TIP3    H117994   5.325   6.686   4.155
 6010TIP3    H217995   5.232   6.575   4.110
 6011TIP3   OH217996   3.623   0.348   4.414
 6011TIP3    H117997   3.541   0.376   4.373
 6011TIP3    H217998   3.624   0.253   4.404
 6012TIP3   OH217999   5.488   3.934   1.653
 6012TIP3    H118000   5.545   3.932   1.729
 6012TIP3    H218001   5.469   3.842   1.635
 6013TIP3   OH218002   3.769   1.146   0.341
 6013TIP3    H118003   3.734   1.235   0.338
 6013TIP3    H218004   3.837   1.148   0.408
 6014TIP3   OH218005   2.510   5.203   3.465
 6014TIP3    H118006   2.430   5.214   3.517
 6014TIP3    H218007   2.507   5.112   3.435
 6015TIP3   OH218008   0.258   4.752   1.684
 6015TIP3    H118009   0.287   4.759   1.775
 6015TIP3    H218010   0.196   4.824   1.673
 6016TIP3   OH218011   3.388   3.461   4.442
 6016TIP3    H118012   3.304   3.485   4.482
 6016TIP3    H218013   3.366   3.394   4.378
 6017TIP3   OH218014   4.853   4.609   3.386
 6017TIP3    H118015   4.775   4.582   3.433
 6017TIP3    H218016   4.911   4.645   3.454
 6018TIP3   OH218017   4.924   0.436   5.371
 6018TIP3    H118018   4.978   0.447   5.292
 6018TIP3    H218019   4.977   0.381   5.428
 6019TIP3   OH218020   6.358   1.939   2.417
 6019TIP3    H118021   6.282   1.931   2.474
 6019TIP3    H218022   6.355   1.861   2.362
 6020TIP3   OH218023   4.855   3.040   2.658
 6020TIP3    H118024   4.818   3.083   2.735
 6020TIP3    H218025   4.886   2.955   2.691
 6021TIP3   OH218026   4.571   1.615   5.020
 6021TIP3    H118027   4.489   1.588   4.977
 6021TIP3    H218028   4.542   1.674   5.089
 6022TIP3   OH218029   0.398   3.646  -0.015
 6022TIP3    H118030   0.481   3.672   0.024
 6022TIP3    H218031   0.332   3.700   0.029
 6023TIP3   OH218032   5.249   4.658   1.612
 6023TIP3    H118033   5.240   4.745   1.573
 6023TIP3    H218034   5.266   4.675   1.705
 6024TIP3   OH218035   3.530   6.381   2.936
 6024TIP3    H118036   3.505   6.468   2.906
 6024TIP3    H218037   3.580   6.344   2.863
 6025TIP3   OH218038   0.871   3.990   4.691
 6025TIP3    H118039   0.935   3.977   4.621
 6025TIP3    H218040   0.842   4.080   4.681
 6026TIP3   OH218041   5.668   6.636   3.537
 6026TIP3    H118042   5.689   6.697   3.466
 6026TIP3    H218043   5.576   6.615   3.525
 6027TIP3   OH218044   6.981   3.230   4.556
 6027TIP3    H118045   7.051   3.292   4.574
 6027TIP3    H218046   7.008   3.150   4.600
 6028TIP3   OH218047   6.024   6.497   4.630
 6028TIP3    H118048   5.999   6.408   4.606
 6028TIP3    H218049   6.011   6.548   4.550
 6029TIP3   OH218050   0.174   2.131   2.712
 6029TIP3    H118051   0.086   2.150   2.745
 6029TIP3    H218052   0.168   2.146   2.618
 6030TIP3   OH218053  -0.009   3.404   5.035
 6030TIP3    H118054   0.068   3.353   5.010
 6030TIP3    H218055   0.025   3.479   5.083
 6031TIP3   OH218056   5.072   6.583   0.195
 6031TIP3    H118057   5.042   6.555   0.282
 6031TIP3    H218058   5.143   6.522   0.174
 6032TIP3   OH218059   2.068   0.755   4.151
 6032TIP3    H118060   1.999   0.800   4.198
 6032TIP3    H218061   2.072   0.668   4.191
 6033TIP3   OH218062   0.231   0.283   3.343
 6033TIP3    H118063   0.271   0.355   3.294
 6033TIP3    H218064   0.243   0.206   3.288
 6034TIP3   OH218065   5.648   0.178   2.790
 6034TIP3    H118066   5.609   0.203   2.707
 6034TIP3    H218067   5.624   0.250   2.850
 6035TIP3   OH218068   2.117   4.375   4.038
 6035TIP3    H118069   2.049   4.318   4.001
 6035TIP3    H218070   2.133   4.441   3.971
 6036TIP3   OH218071   4.550   5.862   0.035
 6036TIP3    H118072   4.463   5.832   0.009
 6036TIP3    H218073   4.533   5.930   0.101
 6037TIP3   OH218074   4.681   4.403   4.004
 6037TIP3    H118075   4.684   4.465   4.076
 6037TIP3    H218076   4.770   4.370   3.997
 6038TIP3   OH218077   5.306   4.572   0.888
 6038TIP3    H118078   5.387   4.623   0.890
 6038TIP3    H218079   5.306   4.529   0.803
 6039TIP3   OH218080   6.113   5.892   0.892
 6039TIP3    H118081   6.051   5.944   0.943
 6039TIP3    H218082   6.109   5.929   0.804
 6040TIP3   OH218083   7.069   5.608   3.295
 6040TIP3    H118084   7.049   5.680   3.355
 6040TIP3    H218085   7.147   5.637   3.248
 6041TIP3   OH218086   4.394   0.217   3.703
 6041TIP3    H118087   4.450   0.262   3.767
 6041TIP3    H218088   4.306   0.220   3.741
 6042TIP3   OH218089   4.941   3.121   3.530
 6042TIP3    H118090   5.028   3.106   3.567
 6042TIP3    H218091   4.958   3.163   3.445
 6043TIP3   OH218092   2.443   5.310   0.689
 6043TIP3    H118093   2.433   5.402   0.662
 6043TIP3    H218094   2.354   5.280   0.706
 6044TIP3   OH218095   6.235   4.865   3.836
 6044TIP3    H118096   6.254   4.777   3.803
 6044TIP3    H218097   6.159   4.893   3.784
 6045TIP3   OH218098   3.885   0.727   2.216
 6045TIP3    H118099   3.851   0.696   2.132
 6045TIP3    H218100   3.911   0.647   2.263
 6046TIP3   OH218101   0.383   5.873   1.454
 6046TIP3    H118102   0.304   5.927   1.448
 6046TIP3    H218103   0.452   5.927   1.415
 6047TIP3   OH218104   6.165   3.164   0.012
 6047TIP3    H118105   6.206   3.079  -0.002
 6047TIP3    H218106   6.071   3.146   0.012
 6048TIP3   OH218107   2.655   1.081   5.375
 6048TIP3    H118108   2.673   1.055   5.285
 6048TIP3    H218109   2.735   1.125   5.404
 6049TIP3   OH218110   4.000   4.156   1.659
 6049TIP3    H118111   3.905   4.170   1.655
 6049TIP3    H218112   4.035   4.206   1.585
 6050TIP3   OH218113   1.370   2.347   4.033
 6050TIP3    H118114   1.368   2.252   4.021
 6050TIP3    H218115   1.362   2.383   3.945
 6051TIP3   OH218116   6.517   6.716   2.424
 6051TIP3    H118117   6.451   6.763   2.474
 6051TIP3    H218118   6.470   6.684   2.347
 6052TIP3   OH218119   4.343   0.876   5.578
 6052TIP3    H118120   4.356   0.833   5.494
 6052TIP3    H218121   4.248   0.876   5.590
 6053TIP3   OH218122   5.941   4.254   3.346
 6053TIP3    H118123   6.037   4.250   3.347
 6053TIP3    H218124   5.916   4.254   3.439
 6054TIP3   OH218125   3.306   2.891   1.854
 6054TIP3    H118126   3.216   2.912   1.880
 6054TIP3    H218127   3.328   2.956   1.788
 6055TIP3   OH218128   2.525   1.622   0.196
 6055TIP3    H118129   2.558   1.575   0.120
 6055TIP3    H218130   2.463   1.685   0.160
 6056TIP3   OH218131   7.094   2.943   5.551
 6056TIP3    H118132   7.101   3.022   5.606
 6056TIP3    H218133   7.181   2.935   5.511
 6057TIP3   OH218134   5.464   0.593   3.377
 6057TIP3    H118135   5.378   0.570   3.412
 6057TIP3    H218136   5.445   0.643   3.298
 6058TIP3   OH218137   4.074   2.373   1.535
 6058TIP3    H118138   4.156   2.330   1.560
 6058TIP3    H218139   4.051   2.332   1.451
 6059TIP3   OH218140   4.813   3.494   3.911
 6059TIP3    H118141   4.900   3.504   3.950
 6059TIP3    H218142   4.756   3.469   3.985
 6060TIP3   OH218143   5.066   1.446   2.204
 6060TIP3    H118144   4.986   1.417   2.161
 6060TIP3    H218145   5.057   1.541   2.213
 6061TIP3   OH218146   2.514   6.347   3.097
 6061TIP3    H118147   2.496   6.440   3.086
 6061TIP3    H218148   2.593   6.332   3.046
 6062TIP3   OH218149   2.504   1.883   2.216
 6062TIP3    H118150   2.409   1.882   2.201
 6062TIP3    H218151   2.536   1.957   2.165
 6063TIP3   OH218152   2.379   0.020   0.310
 6063TIP3    H118153   2.362   0.022   0.404
 6063TIP3    H218154   2.297  -0.014   0.272
 6064TIP3   OH218155   4.738   0.552   5.192
 6064TIP3    H118156   4.686   0.479   5.158
 6064TIP3    H218157   4.809   0.510   5.240
 6065TIP3   OH218158   6.412   5.034   4.502
 6065TIP3    H118159   6.435   4.976   4.430
 6065TIP3    H218160   6.353   5.099   4.463
 6066TIP3   OH218161   2.622   0.332   3.944
 6066TIP3    H118162   2.648   0.292   3.860
 6066TIP3    H218163   2.639   0.425   3.933
 6067TIP3   OH218164   6.627   1.328   5.256
 6067TIP3    H118165   6.533   1.337   5.265
 6067TIP3    H218166   6.647   1.241   5.290
 6068TIP3   OH218167   4.264   4.499   0.057
 6068TIP3    H118168   4.277   4.405   0.075
 6068TIP3    H218169   4.197   4.501  -0.011
 6069TIP3   OH218170   4.841   3.517   5.633
 6069TIP3    H118171   4.812   3.527   5.542
 6069TIP3    H218172   4.935   3.534   5.630
 6070TIP3   OH218173  -0.022   3.129   2.921
 6070TIP3    H118174   0.005   3.197   2.982
 6070TIP3    H218175  -0.117   3.126   2.929
 6071TIP3   OH218176   4.401   6.713   4.491
 6071TIP3    H118177   4.449   6.633   4.475
 6071TIP3    H218178   4.321   6.704   4.439
 6072TIP3   OH218179   3.310   0.454   0.878
 6072TIP3    H118180   3.386   0.419   0.925
 6072TIP3    H218181   3.346   0.522   0.822
 6073TIP3   OH218182   0.732   4.594   3.351
 6073TIP3    H118183   0.742   4.685   3.379
 6073TIP3    H218184   0.668   4.557   3.412
 6074TIP3   OH218185   3.873   2.461   1.170
 6074TIP3    H118186   3.835   2.425   1.090
 6074TIP3    H218187   3.798   2.484   1.224
 6075TIP3   OH218188   0.579   2.220   0.590
 6075TIP3    H118189   0.523   2.213   0.512
 6075TIP3    H218190   0.667   2.232   0.555
 6076TIP3   OH218191   4.368   0.393   2.066
 6076TIP3    H118192   4.375   0.303   2.033
 6076TIP3    H218193   4.408   0.389   2.152
 6077TIP3   OH218194   5.981   0.159   2.673
 6077TIP3    H118195   5.983   0.071   2.636
 6077TIP3    H218196   5.919   0.154   2.745
 6078TIP3   OH218197   6.390   1.533   2.700
 6078TIP3    H118198   6.351   1.499   2.619
 6078TIP3    H218199   6.331   1.603   2.727
 6079TIP3   OH218200   3.725   4.047   2.838
 6079TIP3    H118201   3.788   3.989   2.795
 6079TIP3    H218202   3.775   4.089   2.908
 6080TIP3   OH218203   2.988   0.682   1.366
 6080TIP3    H118204   3.016   0.651   1.452
 6080TIP3    H218205   3.041   0.632   1.304
 6081TIP3   OH218206   4.832   6.638   3.825
 6081TIP3    H118207   4.902   6.641   3.759
 6081TIP3    H218208   4.812   6.545   3.834
 6082TIP3   OH218209   2.008   1.913   3.744
 6082TIP3    H118210   2.061   1.849   3.697
 6082TIP3    H218211   2.060   1.993   3.743
 6083TIP3   OH218212   2.331   6.357   1.355
 6083TIP3    H118213   2.251   6.409   1.358
 6083TIP3    H218214   2.402   6.421   1.357
 6084TIP3   OH218215   3.656   5.968   3.622
 6084TIP3    H118216   3.683   5.883   3.657
 6084TIP3    H218217   3.737   6.005   3.586
 6085TIP3   OH218218   0.095   2.186   5.612
 6085TIP3    H118219   0.002   2.188   5.633
 6085TIP3    H218220   0.106   2.106   5.560
 6086TIP3   OH218221   0.988   4.506   3.355
 6086TIP3    H118222   1.038   4.585   3.337
 6086TIP3    H218223   0.899   4.537   3.373
 6087TIP3   OH218224   0.702   5.147   0.132
 6087TIP3    H118225   0.640   5.154   0.204
 6087TIP3    H218226   0.648   5.129   0.055
 6088TIP3   OH218227   3.081   4.414   3.671
 6088TIP3    H118228   3.000   4.367   3.689
 6088TIP3    H218229   3.115   4.374   3.591
 6089TIP3   OH218230   2.495   4.010   2.263
 6089TIP3    H118231   2.514   4.047   2.349
 6089TIP3    H218232   2.570   4.037   2.209
 6090TIP3   OH218233   0.765   2.632   0.485
 6090TIP3    H118234   0.791   2.591   0.403
 6090TIP3    H218235   0.767   2.726   0.466
 6091TIP3   OH218236   2.293   1.919   4.541
 6091TIP3    H118237   2.287   1.898   4.635
 6091TIP3    H218238   2.367   1.978   4.534
 6092TIP3   OH218239   3.204   6.075   4.344
 6092TIP3    H118240   3.125   6.022   4.333
 6092TIP3    H218241   3.199   6.141   4.275
 6093TIP3   OH218242   6.962   3.357   3.065
 6093TIP3    H118243   7.015   3.416   3.012
 6093TIP3    H218244   7.025   3.304   3.114
 6094TIP3   OH218245   6.621   3.380   1.256
 6094TIP3    H118246   6.545   3.363   1.311
 6094TIP3    H218247   6.675   3.440   1.308
 6095TIP3   OH218248   5.378   0.751   3.148
 6095TIP3    H118249   5.388   0.797   3.064
 6095TIP3    H218250   5.294   0.781   3.182
 6096TIP3   OH218251   6.246   3.116   0.981
 6096TIP3    H118252   6.300   3.042   0.953
 6096TIP3    H218253   6.208   3.089   1.064
 6097TIP3   OH218254   6.736   5.694   4.368
 6097TIP3    H118255   6.765   5.610   4.403
 6097TIP3    H218256   6.756   5.757   4.437
 6098TIP3   OH218257   6.962   4.025   3.799
 6098TIP3    H118258   6.949   3.996   3.708
 6098TIP3    H218259   6.874   4.048   3.829
 6099TIP3   OH218260   4.267   4.276   3.708
 6099TIP3    H118261   4.355   4.305   3.729
 6099TIP3    H218262   4.278   4.213   3.637
 6100TIP3   OH218263   1.019   2.135   0.899
 6100TIP3    H118264   1.037   2.076   0.826
 6100TIP3    H218265   0.997   2.076   0.972
 6101TIP3   OH218266   4.514   4.522   2.405
 6101TIP3    H118267   4.425   4.546   2.431
 6101TIP3    H218268   4.502   4.458   2.335
 6102TIP3   OH218269   5.502   2.553   0.646
 6102TIP3    H118270   5.488   2.629   0.590
 6102TIP3    H218271   5.439   2.488   0.615
 6103TIP3   OH218272   1.535   3.603   5.200
 6103TIP3    H118273   1.527   3.509   5.216
 6103TIP3    H218274   1.446   3.631   5.177
 6104TIP3   OH218275   1.633   3.846   1.468
 6104TIP3    H118276   1.566   3.901   1.427
 6104TIP3    H218277   1.715   3.892   1.451
 6105TIP3   OH218278   0.399   6.564   4.591
 6105TIP3    H118279   0.471   6.626   4.584
 6105TIP3    H218280   0.369   6.552   4.501
 6106TIP3   OH218281   5.756   6.168   2.287
 6106TIP3    H118282   5.748   6.235   2.220
 6106TIP3    H218283   5.735   6.213   2.369
 6107TIP3   OH218284   5.777   1.563   2.108
 6107TIP3    H118285   5.776   1.637   2.047
 6107TIP3    H218286   5.863   1.568   2.151
 6108TIP3   OH218287   3.692   2.134   3.481
 6108TIP3    H118288   3.615   2.083   3.504
 6108TIP3    H218289   3.753   2.119   3.554
 6109TIP3   OH218290   3.446   1.780   0.191
 6109TIP3    H118291   3.409   1.704   0.235
 6109TIP3    H218292   3.472   1.748   0.105
 6110TIP3   OH218293   1.273   3.218   5.261
 6110TIP3    H118294   1.202   3.184   5.315
 6110TIP3    H218295   1.289   3.150   5.196
 6111TIP3   OH218296   7.197   6.112   2.931
 6111TIP3    H118297   7.238   6.196   2.952
 6111TIP3    H218298   7.140   6.132   2.856
 6112TIP3   OH218299   5.015   0.745   1.775
 6112TIP3    H118300   5.111   0.741   1.780
 6112TIP3    H218301   4.986   0.723   1.864
 6113TIP3   OH218302   4.090   3.790   4.104
 6113TIP3    H118303   4.168   3.844   4.120
 6113TIP3    H218304   4.112   3.704   4.139
 6114TIP3   OH218305   0.200   5.852   2.662
 6114TIP3    H118306   0.162   5.931   2.622
 6114TIP3    H218307   0.248   5.810   2.590
 6115TIP3   OH218308   2.162   4.430   3.543
 6115TIP3    H118309   2.090   4.382   3.503
 6115TIP3    H218310   2.119   4.496   3.597
 6116TIP3   OH218311   1.916   1.523   3.918
 6116TIP3    H118312   1.986   1.522   3.983
 6116TIP3    H218313   1.911   1.614   3.890
 6117TIP3   OH218314   0.279   2.458   3.095
 6117TIP3    H118315   0.239   2.392   3.152
 6117TIP3    H218316   0.227   2.537   3.111
 6118TIP3   OH218317   3.083   5.337   0.337
 6118TIP3    H118318   3.008   5.296   0.295
 6118TIP3    H218319   3.154   5.273   0.329
 6119TIP3   OH218320   6.190   2.614   5.624
 6119TIP3    H118321   6.262   2.623   5.560
 6119TIP3    H218322   6.234   2.609   5.709
 6120TIP3   OH218323   6.102   2.189   4.493
 6120TIP3    H118324   6.143   2.216   4.411
 6120TIP3    H218325   6.172   2.195   4.558
 6121TIP3   OH218326   0.972   5.269   1.978
 6121TIP3    H118327   1.003   5.193   1.929
 6121TIP3    H218328   1.051   5.305   2.018
 6122TIP3   OH218329   1.093   0.869   5.488
 6122TIP3    H118330   1.169   0.886   5.432
 6122TIP3    H218331   1.047   0.953   5.494
 6123TIP3   OH218332   2.680   3.216   0.844
 6123TIP3    H118333   2.600   3.253   0.882
 6123TIP3    H218334   2.667   3.121   0.851
 6124TIP3   OH218335   2.153   2.873   0.197
 6124TIP3    H118336   2.241   2.902   0.171
 6124TIP3    H218337   2.094   2.929   0.145
 6125TIP3   OH218338   1.759   2.792   0.182
 6125TIP3    H118339   1.688   2.841   0.140
 6125TIP3    H218340   1.754   2.818   0.274
 6126TIP3   OH218341   5.744   0.808   1.167
 6126TIP3    H118342   5.749   0.881   1.230
 6126TIP3    H218343   5.834   0.796   1.138
 6127TIP3   OH218344   5.797   6.426   1.394
 6127TIP3    H118345   5.888   6.452   1.407
 6127TIP3    H218346   5.800   6.361   1.324
 6128TIP3   OH218347   2.749   2.377   4.930
 6128TIP3    H118348   2.684   2.363   4.998
 6128TIP3    H218349   2.804   2.448   4.964
 6129TIP3   OH218350   0.610   6.282   2.113
 6129TIP3    H118351   0.703   6.276   2.091
 6129TIP3    H218352   0.601   6.231   2.193
 6130TIP3   OH218353   4.630   1.175   2.187
 6130TIP3    H118354   4.553   1.199   2.135
 6130TIP3    H218355   4.679   1.256   2.196
 6131TIP3   OH218356   4.423   2.638   4.135
 6131TIP3    H118357   4.445   2.649   4.042
 6131TIP3    H218358   4.505   2.610   4.176
 6132TIP3   OH218359   4.585   5.484   3.941
 6132TIP3    H118360   4.545   5.406   3.902
 6132TIP3    H218361   4.541   5.558   3.898
 6133TIP3   OH218362   2.652   0.569   2.041
 6133TIP3    H118363   2.717   0.515   2.087
 6133TIP3    H218364   2.678   0.564   1.949
 6134TIP3   OH218365   4.515   2.619   2.528
 6134TIP3    H118366   4.563   2.702   2.533
 6134TIP3    H218367   4.423   2.645   2.520
 6135TIP3   OH218368   4.529   4.081   1.425
 6135TIP3    H118369   4.546   4.057   1.515
 6135TIP3    H218370   4.615   4.103   1.388
 6136TIP3   OH218371   4.904   5.526   3.457
 6136TIP3    H118372   4.939   5.550   3.371
 6136TIP3    H218373   4.950   5.582   3.518
 6137TIP3   OH218374   1.319   5.103   3.912
 6137TIP3    H118375   1.269   5.035   3.867
 6137TIP3    H218376   1.262   5.131   3.984
 6138TIP3   OH218377   1.594   4.019   0.965
 6138TIP3    H118378   1.541   4.034   0.886
 6138TIP3    H218379   1.684   4.029   0.936
 6139TIP3   OH218380   5.248   6.036   3.321
 6139TIP3    H118381   5.166   6.012   3.364
 6139TIP3    H218382   5.223   6.100   3.255
 6140TIP3   OH218383   1.171   3.131   5.930
 6140TIP3    H118384   1.153   3.199   5.864
 6140TIP3    H218385   1.266   3.125   5.932
 6141TIP3   OH218386   2.882   0.428   5.844
 6141TIP3    H118387   2.970   0.455   5.819
 6141TIP3    H218388   2.896   0.358   5.909
 6142TIP3   OH218389   0.904   4.284   1.482
 6142TIP3    H118390   0.889   4.324   1.396
 6142TIP3    H218391   0.944   4.199   1.462
 6143TIP3   OH218392   3.671   4.920   0.369
 6143TIP3    H118393   3.744   4.887   0.317
 6143TIP3    H218394   3.656   5.009   0.336
 6144TIP3   OH218395   2.746   6.704   2.850
 6144TIP3    H118396   2.716   6.616   2.873
 6144TIP3    H218397   2.818   6.721   2.911
 6145TIP3   OH218398   0.072   4.601   3.292
 6145TIP3    H118399   0.031   4.527   3.337
 6145TIP3    H218400   0.166   4.587   3.303
 6146TIP3   OH218401   4.478   3.439   4.496
 6146TIP3    H118402   4.573   3.427   4.506
 6146TIP3    H218403   4.462   3.423   4.403
 6147TIP3   OH218404   1.097   4.303   0.436
 6147TIP3    H118405   1.091   4.334   0.345
 6147TIP3    H218406   1.161   4.361   0.477
 6148TIP3   OH218407   0.260   0.076   2.495
 6148TIP3    H118408   0.333   0.052   2.551
 6148TIP3    H218409   0.182   0.051   2.545
 6149TIP3   OH218410   0.056   3.215   4.358
 6149TIP3    H118411   0.091   3.228   4.446
 6149TIP3    H218412   0.129   3.237   4.299
 6150TIP3   OH218413   0.211   0.881   0.201
 6150TIP3    H118414   0.124   0.901   0.236
 6150TIP3    H218415   0.214   0.928   0.117
 6151TIP3   OH218416   0.971   1.357   5.447
 6151TIP3    H118417   0.971   1.301   5.369
 6151TIP3    H218418   0.888   1.337   5.490
 6152TIP3   OH218419   6.693   1.645   3.625
 6152TIP3    H118420   6.656   1.557   3.623
 6152TIP3    H218421   6.788   1.630   3.623
 6153TIP3   OH218422   2.702   0.954   4.665
 6153TIP3    H118423   2.616   0.911   4.668
 6153TIP3    H218424   2.764   0.884   4.647
 6154TIP3   OH218425   0.074   2.934   2.545
 6154TIP3    H118426   0.044   2.868   2.482
 6154TIP3    H218427   0.060   2.894   2.631
 6155TIP3   OH218428   1.610   4.439   2.512
 6155TIP3    H118429   1.651   4.372   2.567
 6155TIP3    H218430   1.518   4.412   2.506
 6156TIP3   OH218431   6.239   3.775   4.696
 6156TIP3    H118432   6.272   3.832   4.626
 6156TIP3    H218433   6.312   3.765   4.756
 6157TIP3   OH218434   5.811   4.647   1.265
 6157TIP3    H118435   5.824   4.552   1.263
 6157TIP3    H218436   5.895   4.683   1.237
 6158TIP3   OH218437   0.374   2.214   0.405
 6158TIP3    H118438   0.284   2.188   0.384
 6158TIP3    H218439   0.379   2.307   0.382
 6159TIP3   OH218440   5.880   4.036   1.836
 6159TIP3    H118441   5.858   4.100   1.904
 6159TIP3    H218442   5.843   4.073   1.756
 6160TIP3   OH218443   3.299   2.967   2.163
 6160TIP3    H118444   3.229   2.940   2.103
 6160TIP3    H218445   3.378   2.924   2.128
 6161TIP3   OH218446   4.758   1.147   3.863
 6161TIP3    H118447   4.796   1.214   3.919
 6161TIP3    H218448   4.718   1.196   3.791
 6162TIP3   OH218449   5.027   3.823   4.735
 6162TIP3    H118450   5.040   3.910   4.772
 6162TIP3    H218451   5.111   3.802   4.694
 6163TIP3   OH218452   2.699   2.962   1.950
 6163TIP3    H118453   2.703   2.880   2.000
 6163TIP3    H218454   2.636   2.945   1.881
 6164TIP3   OH218455   3.545   3.371   4.001
 6164TIP3    H118456   3.599   3.293   4.017
 6164TIP3    H218457   3.581   3.408   3.920
 6165TIP3   OH218458   6.085   1.957   0.887
 6165TIP3    H118459   6.160   2.008   0.917
 6165TIP3    H218460   6.094   1.955   0.792
 6166TIP3   OH218461   3.527   6.478   5.321
 6166TIP3    H118462   3.453   6.518   5.366
 6166TIP3    H218463   3.504   6.385   5.314
 6167TIP3   OH218464   0.923   0.033   5.087
 6167TIP3    H118465   0.926   0.098   5.157
 6167TIP3    H218466   0.967  -0.044   5.124
 6168TIP3   OH218467   1.704   6.214   5.627
 6168TIP3    H118468   1.638   6.242   5.564
 6168TIP3    H218469   1.788   6.231   5.584
 6169TIP3   OH218470   6.323   3.469   4.963
 6169TIP3    H118471   6.335   3.458   5.058
 6169TIP3    H218472   6.261   3.400   4.939
 6170TIP3   OH218473   1.993   2.987   3.929
 6170TIP3    H118474   2.007   2.895   3.951
 6170TIP3    H218475   2.002   2.990   3.834
 6171TIP3   OH218476   4.611   4.953   0.051
 6171TIP3    H118477   4.536   4.953   0.110
 6171TIP3    H218478   4.665   4.879   0.080
 6172TIP3   OH218479   2.899   4.767   2.780
 6172TIP3    H118480   2.970   4.709   2.751
 6172TIP3    H218481   2.943   4.839   2.824
 6173TIP3   OH218482   3.517   2.132   1.919
 6173TIP3    H118483   3.580   2.061   1.932
 6173TIP3    H218484   3.517   2.180   2.002
 6174TIP3   OH218485   0.979   2.026   4.859
 6174TIP3    H118486   0.990   1.994   4.769
 6174TIP3    H218487   1.021   1.960   4.913
 6175TIP3   OH218488   0.833   3.617   2.893
 6175TIP3    H118489   0.834   3.681   2.821
 6175TIP3    H218490   0.912   3.565   2.880
 6176TIP3   OH218491   1.551   3.215   0.055
 6176TIP3    H118492   1.634   3.216   0.104
 6176TIP3    H218493   1.520   3.125   0.063
 6177TIP3   OH218494   6.425   3.469   0.721
 6177TIP3    H118495   6.411   3.395   0.662
 6177TIP3    H218496   6.397   3.437   0.807
 6178TIP3   OH218497   0.557   2.066   0.044
 6178TIP3    H118498   0.589   2.126   0.111
 6178TIP3    H218499   0.528   1.989   0.093
 6179TIP3   OH218500   4.996   0.246   2.581
 6179TIP3    H118501   4.990   0.212   2.492
 6179TIP3    H218502   5.059   0.189   2.625
 6180TIP3   OH218503   3.384   0.093   2.708
 6180TIP3    H118504   3.347   0.124   2.625
 6180TIP3    H218505   3.466   0.141   2.717
 6181TIP3   OH218506   6.925   4.270   3.342
 6181TIP3    H118507   6.845   4.317   3.317
 6181TIP3    H218508   6.898   4.178   3.344
 6182TIP3   OH218509   5.358   6.598   3.498
 6182TIP3    H118510   5.328   6.513   3.469
 6182TIP3    H218511   5.312   6.613   3.581
 6183TIP3   OH218512   2.057   1.453   4.357
 6183TIP3    H118513   1.989   1.404   4.404
 6183TIP3    H218514   2.139   1.422   4.396
 6184TIP3   OH218515   1.562   5.472   2.165
 6184TIP3    H118516   1.478   5.519   2.169
 6184TIP3    H218517   1.554   5.415   2.089
 6185TIP3   OH218518   0.360   0.945   2.317
 6185TIP3    H118519   0.284   0.900   2.354
 6185TIP3    H218520   0.433   0.919   2.374
 6186TIP3   OH218521   6.144   1.826   1.813
 6186TIP3    H118522   6.061   1.790   1.845
 6186TIP3    H218523   6.144   1.807   1.720
 6187TIP3   OH218524   1.761   5.782   1.596
 6187TIP3    H118525   1.828   5.779   1.527
 6187TIP3    H218526   1.748   5.691   1.621
 6188TIP3   OH218527   5.821   2.805   2.617
 6188TIP3    H118528   5.916   2.808   2.629
 6188TIP3    H218529   5.801   2.877   2.559
 6189TIP3   OH218530   5.943   0.277   0.433
 6189TIP3    H118531   6.003   0.307   0.365
 6189TIP3    H218532   5.889   0.211   0.389
 6190TIP3   OH218533   7.022   2.887   3.458
 6190TIP3    H118534   7.060   2.930   3.382
 6190TIP3    H218535   7.064   2.801   3.461
 6191TIP3   OH218536   1.516   0.879   2.621
 6191TIP3    H118537   1.571   0.872   2.543
 6191TIP3    H218538   1.505   0.973   2.634
 6192TIP3   OH218539   4.811   4.199   0.858
 6192TIP3    H118540   4.843   4.250   0.784
 6192TIP3    H218541   4.870   4.220   0.930
 6193TIP3   OH218542   0.936   4.534   4.395
 6193TIP3    H118543   0.869   4.578   4.447
 6193TIP3    H218544   0.917   4.560   4.305
 6194TIP3   OH218545   1.227   1.929   5.422
 6194TIP3    H118546   1.231   1.878   5.341
 6194TIP3    H218547   1.264   2.014   5.399
 6195TIP3   OH218548   0.202   4.895   3.254
 6195TIP3    H118549   0.121   4.852   3.280
 6195TIP3    H218550   0.176   4.980   3.220
 6196TIP3   OH218551   3.675   1.523   4.606
 6196TIP3    H118552   3.580   1.536   4.612
 6196TIP3    H218553   3.685   1.428   4.600
 6197TIP3   OH218554   1.565   4.332   2.117
 6197TIP3    H118555   1.579   4.387   2.194
 6197TIP3    H218556   1.501   4.267   2.145
 6198TIP3   OH218557   6.905   4.976   4.235
 6198TIP3    H118558   6.853   4.991   4.156
 6198TIP3    H218559   6.995   4.973   4.203
 6199TIP3   OH218560   5.348   0.389   5.337
 6199TIP3    H118561   5.353   0.481   5.310
 6199TIP3    H218562   5.292   0.348   5.272
 6200TIP3   OH218563   0.627   6.356   4.421
 6200TIP3    H118564   0.692   6.341   4.352
 6200TIP3    H218565   0.653   6.438   4.462
 6201TIP3   OH218566   6.945   0.959   0.823
 6201TIP3    H118567   6.864   0.909   0.822
 6201TIP3    H218568   6.937   1.017   0.899
 6202TIP3   OH218569   2.004   0.235   4.742
 6202TIP3    H118570   2.094   0.201   4.744
 6202TIP3    H218571   1.999   0.294   4.818
 6203TIP3   OH218572   5.078   4.229   2.743
 6203TIP3    H118573   5.117   4.238   2.656
 6203TIP3    H218574   5.000   4.284   2.740
 6204TIP3   OH218575   3.786   6.469   1.288
 6204TIP3    H118576   3.722   6.484   1.357
 6204TIP3    H218577   3.836   6.550   1.283
 6205TIP3   OH218578   3.592   1.202   4.072
 6205TIP3    H118579   3.670   1.232   4.119
 6205TIP3    H218580   3.560   1.128   4.123
 6206TIP3   OH218581   2.206   0.558   0.586
 6206TIP3    H118582   2.119   0.548   0.549
 6206TIP3    H218583   2.262   0.502   0.532
 6207TIP3   OH218584   5.978   5.106   4.671
 6207TIP3    H118585   5.902   5.163   4.660
 6207TIP3    H218586   6.003   5.081   4.583
 6208TIP3   OH218587   4.562   4.420   1.316
 6208TIP3    H118588   4.518   4.453   1.394
 6208TIP3    H218589   4.592   4.498   1.270
 6209TIP3   OH218590   3.203   3.747   2.426
 6209TIP3    H118591   3.158   3.710   2.350
 6209TIP3    H218592   3.234   3.670   2.475
 6210TIP3   OH218593   0.587   1.612   4.417
 6210TIP3    H118594   0.581   1.665   4.337
 6210TIP3    H218595   0.502   1.570   4.423
 6211TIP3   OH218596   3.418   3.148   5.914
 6211TIP3    H118597   3.387   3.237   5.901
 6211TIP3    H218598   3.462   3.125   5.832
 6212TIP3   OH218599   5.185   2.310   5.569
 6212TIP3    H118600   5.102   2.333   5.611
 6212TIP3    H218601   5.169   2.324   5.476
 6213TIP3   OH218602   2.035   3.870   5.036
 6213TIP3    H118603   1.942   3.886   5.022
 6213TIP3    H218604   2.041   3.839   5.126
 6214TIP3   OH218605   2.986   4.293   0.689
 6214TIP3    H118606   2.960   4.212   0.644
 6214TIP3    H218607   2.925   4.359   0.656
 6215TIP3   OH218608   1.239   5.365   0.898
 6215TIP3    H118609   1.189   5.334   0.973
 6215TIP3    H218610   1.247   5.289   0.841
 6216TIP3   OH218611   7.241   2.030   3.509
 6216TIP3    H118612   7.283   2.004   3.427
 6216TIP3    H218613   7.186   1.956   3.533
 6217TIP3   OH218614   1.291   3.725   1.085
 6217TIP3    H118615   1.334   3.747   1.168
 6217TIP3    H218616   1.254   3.808   1.055
 6218TIP3   OH218617   2.434   2.804   1.524
 6218TIP3    H118618   2.426   2.728   1.466
 6218TIP3    H218619   2.344   2.826   1.547
 6219TIP3   OH218620   6.966   4.560   3.204
 6219TIP3    H118621   6.874   4.537   3.217
 6219TIP3    H218622   7.000   4.493   3.145
 6220TIP3   OH218623   5.084   0.841   5.431
 6220TIP3    H118624   5.021   0.787   5.478
 6220TIP3    H218625   5.070   0.819   5.339
 6221TIP3   OH218626   7.072   1.939   5.154
 6221TIP3    H118627   7.062   1.898   5.240
 6221TIP3    H218628   7.116   2.022   5.172
 6222TIP3   OH218629   4.684   4.869   2.331
 6222TIP3    H118630   4.697   4.905   2.419
 6222TIP3    H218631   4.603   4.818   2.338
 6223TIP3   OH218632   2.798   6.176   0.452
 6223TIP3    H118633   2.868   6.174   0.518
 6223TIP3    H218634   2.832   6.233   0.384
 6224TIP3   OH218635   0.807   2.693   5.838
 6224TIP3    H118636   0.852   2.777   5.842
 6224TIP3    H218637   0.780   2.684   5.747
 6225TIP3   OH218638   2.984   0.903   4.441
 6225TIP3    H118639   2.902   0.910   4.391
 6225TIP3    H218640   3.028   0.826   4.404
 6226TIP3   OH218641   6.511   6.154   1.729
 6226TIP3    H118642   6.591   6.129   1.777
 6226TIP3    H218643   6.526   6.120   1.640
 6227TIP3   OH218644   4.201   3.264   1.660
 6227TIP3    H118645   4.222   3.297   1.747
 6227TIP3    H218646   4.111   3.233   1.666
 6228TIP3   OH218647   4.167   1.421   1.708
 6228TIP3    H118648   4.076   1.450   1.701
 6228TIP3    H218649   4.168   1.334   1.667
 6229TIP3   OH218650   3.190   5.727   4.402
 6229TIP3    H118651   3.176   5.676   4.483
 6229TIP3    H218652   3.239   5.804   4.430
 6230TIP3   OH218653   6.362   1.970   1.905
 6230TIP3    H118654   6.273   1.938   1.888
 6230TIP3    H218655   6.403   1.901   1.956
 6231TIP3   OH218656   3.568   2.826   1.621
 6231TIP3    H118657   3.507   2.892   1.590
 6231TIP3    H218658   3.649   2.843   1.573
 6232TIP3   OH218659   4.029   3.932   2.930
 6232TIP3    H118660   4.018   3.871   3.003
 6232TIP3    H218661   4.093   3.890   2.873
 6233TIP3   OH218662   3.532   2.757   5.891
 6233TIP3    H118663   3.546   2.665   5.871
 6233TIP3    H218664   3.618   2.798   5.878
 6234TIP3   OH218665   5.851   3.084   1.989
 6234TIP3    H118666   5.835   3.140   2.064
 6234TIP3    H218667   5.861   2.996   2.025
 6235TIP3   OH218668   4.480   4.294   2.238
 6235TIP3    H118669   4.535   4.216   2.233
 6235TIP3    H218670   4.390   4.260   2.237
 6236TIP3   OH218671   5.118   3.541   3.159
 6236TIP3    H118672   5.067   3.538   3.079
 6236TIP3    H218673   5.208   3.552   3.130
 6237TIP3   OH218674   0.870   3.805   4.478
 6237TIP3    H118675   0.796   3.811   4.417
 6237TIP3    H218676   0.838   3.845   4.559
 6238TIP3   OH218677   2.718   2.629   1.554
 6238TIP3    H118678   2.663   2.652   1.479
 6238TIP3    H218679   2.807   2.641   1.523
 6239TIP3   OH218680   6.301   5.324   5.319
 6239TIP3    H118681   6.314   5.416   5.296
 6239TIP3    H218682   6.382   5.281   5.293
 6240TIP3   OH218683   0.168   1.173   2.616
 6240TIP3    H118684   0.224   1.114   2.665
 6240TIP3    H218685   0.215   1.256   2.614
 6241TIP3   OH218686   6.932   0.432   5.495
 6241TIP3    H118687   6.880   0.505   5.462
 6241TIP3    H218688   6.877   0.392   5.563
 6242TIP3   OH218689   4.771   6.188   3.707
 6242TIP3    H118690   4.835   6.259   3.714
 6242TIP3    H218691   4.708   6.219   3.642
 6243TIP3   OH218692   2.949   5.240   2.311
 6243TIP3    H118693   2.896   5.187   2.371
 6243TIP3    H218694   2.919   5.330   2.324
 6244TIP3   OH218695   6.283   1.161   0.881
 6244TIP3    H118696   6.331   1.219   0.940
 6244TIP3    H218697   6.321   1.179   0.794
 6245TIP3   OH218698   3.852   6.155   3.511
 6245TIP3    H118699   3.764   6.186   3.488
 6245TIP3    H218700   3.893   6.231   3.554
 6246TIP3   OH218701   0.786   2.779   3.214
 6246TIP3    H118702   0.709   2.755   3.266
 6246TIP3    H218703   0.791   2.874   3.224
 6247TIP3   OH218704   3.359   1.524   1.306
 6247TIP3    H118705   3.332   1.613   1.281
 6247TIP3    H218706   3.436   1.537   1.361
 6248TIP3   OH218707   1.134   1.622   3.894
 6248TIP3    H118708   1.114   1.558   3.826
 6248TIP3    H218709   1.224   1.603   3.920
 6249TIP3   OH218710   0.766   5.262   1.528
 6249TIP3    H118711   0.691   5.227   1.576
 6249TIP3    H218712   0.808   5.321   1.591
 6250TIP3   OH218713   3.491   5.485   4.509
 6250TIP3    H118714   3.505   5.514   4.599
 6250TIP3    H218715   3.401   5.451   4.509
 6251TIP3   OH218716   4.840   5.497   2.680
 6251TIP3    H118717   4.923   5.449   2.676
 6251TIP3    H218718   4.784   5.453   2.616
 6252TIP3   OH218719   4.883   2.134   4.948
 6252TIP3    H118720   4.790   2.128   4.927
 6252TIP3    H218721   4.927   2.121   4.865
 6253TIP3   OH218722   1.301   1.632   5.750
 6253TIP3    H118723   1.389   1.664   5.768
 6253TIP3    H218724   1.306   1.596   5.661
 6254TIP3   OH218725   0.145   4.636   1.120
 6254TIP3    H118726   0.163   4.628   1.213
 6254TIP3    H218727   0.228   4.615   1.077
 6255TIP3   OH218728   2.964   2.611  -0.018
 6255TIP3    H118729   3.018   2.656   0.047
 6255TIP3    H218730   2.879   2.598   0.026
 6256TIP3   OH218731   2.316   0.666   3.672
 6256TIP3    H118732   2.307   0.640   3.764
 6256TIP3    H218733   2.236   0.715   3.653
 6257TIP3   OH218734   4.334   4.021   2.308
 6257TIP3    H118735   4.311   3.957   2.241
 6257TIP3    H218736   4.412   3.984   2.349
 6258TIP3   OH218737   3.281   1.069   4.408
 6258TIP3    H118738   3.266   1.160   4.433
 6258TIP3    H218739   3.247   1.062   4.319
 6259TIP3   OH218740   2.822   4.803   4.502
 6259TIP3    H118741   2.849   4.774   4.415
 6259TIP3    H218742   2.834   4.725   4.557
 6260TIP3   OH218743   5.531   3.835   4.403
 6260TIP3    H118744   5.530   3.806   4.312
 6260TIP3    H218745   5.488   3.764   4.451
 6261TIP3   OH218746   3.410   1.018   5.244
 6261TIP3    H118747   3.365   0.934   5.253
 6261TIP3    H218748   3.348   1.074   5.198
 6262TIP3   OH218749   0.538   6.168   1.713
 6262TIP3    H118750   0.551   6.082   1.754
 6262TIP3    H218751   0.584   6.229   1.771
 6263TIP3   OH218752   4.762   5.418   4.446
 6263TIP3    H118753   4.720   5.391   4.365
 6263TIP3    H218754   4.756   5.514   4.446
 6264TIP3   OH218755   2.869   4.167   1.768
 6264TIP3    H118756   2.811   4.126   1.832
 6264TIP3    H218757   2.876   4.102   1.698
 6265TIP3   OH218758   0.940   0.840   3.359
 6265TIP3    H118759   0.949   0.919   3.411
 6265TIP3    H218760   1.016   0.841   3.300
 6266TIP3   OH218761   0.822   5.463   3.005
 6266TIP3    H118762   0.843   5.386   3.058
 6266TIP3    H218763   0.785   5.525   3.068
 6267TIP3   OH218764   1.143   2.990   0.343
 6267TIP3    H118765   1.178   2.925   0.403
 6267TIP3    H218766   1.115   2.940   0.267
 6268TIP3   OH218767   0.527   6.668   4.993
 6268TIP3    H118768   0.612   6.627   4.983
 6268TIP3    H218769   0.473   6.601   5.035
 6269TIP3   OH218770   5.132   0.423   5.133
 6269TIP3    H118771   5.095   0.484   5.070
 6269TIP3    H218772   5.185   0.363   5.080
 6270TIP3   OH218773   3.176   4.616   5.368
 6270TIP3    H118774   3.130   4.580   5.292
 6270TIP3    H218775   3.183   4.710   5.349
 6271TIP3   OH218776   4.640   0.963   4.405
 6271TIP3    H118777   4.631   1.026   4.333
 6271TIP3    H218778   4.609   0.880   4.369
 6272TIP3   OH218779   0.188   4.154   2.747
 6272TIP3    H118780   0.135   4.201   2.683
 6272TIP3    H218781   0.127   4.131   2.817
 6273TIP3   OH218782   4.133   2.030   1.692
 6273TIP3    H118783   4.185   2.092   1.640
 6273TIP3    H218784   4.182   1.948   1.687
 6274TIP3   OH218785   0.676   2.631   4.769
 6274TIP3    H118786   0.634   2.599   4.849
 6274TIP3    H218787   0.612   2.691   4.730
 6275TIP3   OH218788   4.100   1.256   1.970
 6275TIP3    H118789   4.069   1.329   1.916
 6275TIP3    H218790   4.046   1.260   2.049
 6276TIP3   OH218791   4.278   2.949   1.082
 6276TIP3    H118792   4.363   2.935   1.039
 6276TIP3    H218793   4.214   2.937   1.012
 6277TIP3   OH218794   1.320   6.151   5.667
 6277TIP3    H118795   1.237   6.139   5.621
 6277TIP3    H218796   1.342   6.065   5.701
 6278TIP3   OH218797   1.466   3.781   3.181
 6278TIP3    H118798   1.489   3.721   3.110
 6278TIP3    H218799   1.389   3.741   3.222
 6279TIP3   OH218800   1.739   3.620   5.021
 6279TIP3    H118801   1.683   3.642   4.947
 6279TIP3    H218802   1.687   3.642   5.098
 6280TIP3   OH218803   2.990   5.642   1.855
 6280TIP3    H118804   2.896   5.653   1.866
 6280TIP3    H218805   3.016   5.582   1.924
 6281TIP3   OH218806   2.096   3.825   1.651
 6281TIP3    H118807   2.033   3.853   1.583
 6281TIP3    H218808   2.109   3.732   1.634
 6282TIP3   OH218809   4.570   2.329   1.206
 6282TIP3    H118810   4.531   2.257   1.254
 6282TIP3    H218811   4.497   2.371   1.160
 6283TIP3   OH218812   3.128   5.861   1.947
 6283TIP3    H118813   3.070   5.790   1.920
 6283TIP3    H218814   3.215   5.832   1.919
 6284TIP3   OH218815   4.389   2.756   0.846
 6284TIP3    H118816   4.382   2.664   0.820
 6284TIP3    H218817   4.309   2.797   0.812
 6285TIP3   OH218818   1.268   6.430   1.389
 6285TIP3    H118819   1.291   6.340   1.365
 6285TIP3    H218820   1.214   6.461   1.315
 6286TIP3   OH218821   3.727   5.396   3.812
 6286TIP3    H118822   3.798   5.439   3.764
 6286TIP3    H218823   3.766   5.315   3.845
 6287TIP3   OH218824   1.481   4.610   4.475
 6287TIP3    H118825   1.490   4.584   4.566
 6287TIP3    H218826   1.388   4.596   4.455
 6288TIP3   OH218827   3.769   5.771   4.919
 6288TIP3    H118828   3.862   5.767   4.898
 6288TIP3    H218829   3.726   5.783   4.834
 6289TIP3   OH218830   3.942   3.223   5.117
 6289TIP3    H118831   3.891   3.143   5.110
 6289TIP3    H218832   3.922   3.273   5.038
 6290TIP3   OH218833   3.455   2.630   0.554
 6290TIP3    H118834   3.446   2.705   0.612
 6290TIP3    H218835   3.470   2.668   0.467
 6291TIP3   OH218836   3.628   6.464   5.003
 6291TIP3    H118837   3.546   6.422   4.980
 6291TIP3    H218838   3.607   6.521   5.077
 6292TIP3   OH218839   5.077   3.890   1.637
 6292TIP3    H118840   5.102   3.810   1.590
 6292TIP3    H218841   5.157   3.917   1.682
 6293TIP3   OH218842   3.154   4.739   3.039
 6293TIP3    H118843   3.230   4.691   3.007
 6293TIP3    H218844   3.138   4.807   2.974
 6294TIP3   OH218845   5.327   2.422   2.310
 6294TIP3    H118846   5.388   2.354   2.284
 6294TIP3    H218847   5.242   2.378   2.315
 6295TIP3   OH218848   3.799   4.028   3.205
 6295TIP3    H118849   3.755   4.091   3.261
 6295TIP3    H218850   3.815   4.075   3.124
 6296TIP3   OH218851   5.434   1.248   1.496
 6296TIP3    H118852   5.427   1.275   1.588
 6296TIP3    H218853   5.383   1.314   1.448
 6297TIP3   OH218854   3.420   1.626   3.486
 6297TIP3    H118855   3.492   1.566   3.503
 6297TIP3    H218856   3.377   1.590   3.408
 6298TIP3   OH218857   6.376   2.887   1.841
 6298TIP3    H118858   6.431   2.882   1.763
 6298TIP3    H218859   6.290   2.915   1.808
 6299TIP3   OH218860   6.955   4.089   0.066
 6299TIP3    H118861   6.964   4.153  -0.004
 6299TIP3    H218862   6.950   4.005   0.021
 6300TIP3   OH218863   6.375   1.861   4.199
 6300TIP3    H118864   6.290   1.863   4.156
 6300TIP3    H218865   6.357   1.890   4.289
 6301TIP3   OH218866   2.463   5.475   1.728
 6301TIP3    H118867   2.403   5.529   1.779
 6301TIP3    H218868   2.533   5.451   1.788
 6302TIP3   OH218869   3.014   6.207   3.767
 6302TIP3    H118870   2.986   6.251   3.847
 6302TIP3    H218871   3.107   6.229   3.759
 6303TIP3   OH218872   6.504   3.139   4.893
 6303TIP3    H118873   6.573   3.081   4.861
 6303TIP3    H218874   6.548   3.222   4.910
 6304TIP3   OH218875   5.366   2.595   2.527
 6304TIP3    H118876   5.361   2.530   2.457
 6304TIP3    H218877   5.432   2.658   2.496
 6305TIP3   OH218878   0.242   5.264   2.497
 6305TIP3    H118879   0.201   5.345   2.467
 6305TIP3    H218880   0.228   5.264   2.592
 6306TIP3   OH218881   6.655   2.100   4.138
 6306TIP3    H118882   6.680   2.190   4.118
 6306TIP3    H218883   6.564   2.093   4.111
 6307TIP3   OH218884   4.956   3.335   0.170
 6307TIP3    H118885   4.964   3.427   0.145
 6307TIP3    H218886   4.906   3.296   0.099
 6308TIP3   OH218887   2.663   5.929   5.546
 6308TIP3    H118888   2.582   5.966   5.581
 6308TIP3    H218889   2.661   5.837   5.572
 6309TIP3   OH218890   1.100  -0.004   2.654
 6309TIP3    H118891   1.166   0.037   2.598
 6309TIP3    H218892   1.017   0.010   2.607
 6310TIP3   OH218893   0.875   0.784   0.558
 6310TIP3    H118894   0.970   0.773   0.552
 6310TIP3    H218895   0.848   0.807   0.469
 6311TIP3   OH218896   5.297   6.634   5.808
 6311TIP3    H118897   5.313   6.686   5.887
 6311TIP3    H218898   5.245   6.560   5.838
 6312TIP3   OH218899   5.581   0.605   1.753
 6312TIP3    H118900   5.508   0.582   1.811
 6312TIP3    H218901   5.587   0.532   1.692
 6313TIP3   OH218902   6.522   6.673   5.161
 6313TIP3    H118903   6.485   6.727   5.091
 6313TIP3    H218904   6.466   6.596   5.164
 6314TIP3   OH218905   1.168   5.873   2.032
 6314TIP3    H118906   1.173   5.965   2.058
 6314TIP3    H218907   1.080   5.862   1.996
 6315TIP3   OH218908   1.887   6.122   1.292
 6315TIP3    H118909   1.857   6.177   1.364
 6315TIP3    H218910   1.832   6.044   1.296
 6316TIP3   OH218911   4.131   2.658   1.879
 6316TIP3    H118912   4.069   2.610   1.933
 6316TIP3    H218913   4.175   2.590   1.827
 6317TIP3   OH218914   3.029   2.497   2.172
 6317TIP3    H118915   3.101   2.507   2.110
 6317TIP3    H218916   3.010   2.586   2.202
 6318TIP3   OH218917   2.719   4.814   3.821
 6318TIP3    H118918   2.644   4.804   3.880
 6318TIP3    H218919   2.682   4.801   3.733
 6319TIP3   OH218920   0.134   5.301   4.318
 6319TIP3    H118921   0.205   5.348   4.275
 6319TIP3    H218922   0.162   5.210   4.319
 6320TIP3   OH218923   3.429   0.639   5.429
 6320TIP3    H118924   3.488   0.711   5.406
 6320TIP3    H218925   3.360   0.642   5.362
 6321TIP3   OH218926   4.876   5.676   3.060
 6321TIP3    H118927   4.837   5.604   3.009
 6321TIP3    H218928   4.932   5.633   3.124
 6322TIP3   OH218929   3.995   2.599   3.360
 6322TIP3    H118930   4.034   2.639   3.283
 6322TIP3    H218931   4.052   2.525   3.380
 6323TIP3   OH218932   1.985   4.589   5.536
 6323TIP3    H118933   1.962   4.681   5.529
 6323TIP3    H218934   2.057   4.577   5.474
 6324TIP3   OH218935   0.709   4.236   1.980
 6324TIP3    H118936   0.714   4.304   2.047
 6324TIP3    H218937   0.623   4.247   1.940
 6325TIP3   OH218938   5.769   5.016   0.992
 6325TIP3    H118939   5.826   4.940   0.990
 6325TIP3    H218940   5.810   5.076   1.055
 6326TIP3   OH218941   1.711   4.941   2.017
 6326TIP3    H118942   1.786   4.926   2.074
 6326TIP3    H218943   1.722   4.879   1.945
 6327TIP3   OH218944   6.523   4.494   4.278
 6327TIP3    H118945   6.547   4.507   4.369
 6327TIP3    H218946   6.566   4.565   4.231
 6328TIP3   OH218947   1.225   5.294   1.451
 6328TIP3    H118948   1.168   5.348   1.396
 6328TIP3    H218949   1.304   5.280   1.398
 6329TIP3   OH218950   1.821   4.389   2.018
 6329TIP3    H118951   1.855   4.427   2.099
 6329TIP3    H218952   1.738   4.349   2.044
 6330TIP3   OH218953   5.125   1.976   1.358
 6330TIP3    H118954   5.064   2.045   1.383
 6330TIP3    H218955   5.112   1.966   1.263
 6331TIP3   OH218956   3.544   0.976   1.098
 6331TIP3    H118957   3.614   1.029   1.060
 6331TIP3    H218958   3.542   0.897   1.044
 6332TIP3   OH218959   0.713   2.317   5.720
 6332TIP3    H118960   0.740   2.285   5.805
 6332TIP3    H218961   0.785   2.374   5.692
 6333TIP3   OH218962   5.074   6.157   5.456
 6333TIP3    H118963   5.164   6.190   5.458
 6333TIP3    H218964   5.079   6.071   5.497
 6334TIP3   OH218965   7.157   2.586   0.309
 6334TIP3    H118966   7.118   2.588   0.221
 6334TIP3    H218967   7.123   2.665   0.352
 6335TIP3   OH218968   6.349   1.617   0.883
 6335TIP3    H118969   6.432   1.609   0.930
 6335TIP3    H218970   6.353   1.703   0.841
 6336TIP3   OH218971   5.845   2.060   2.175
 6336TIP3    H118972   5.890   2.033   2.255
 6336TIP3    H218973   5.911   2.108   2.125
 6337TIP3   OH218974   0.421   4.097   4.562
 6337TIP3    H118975   0.338   4.126   4.598
 6337TIP3    H218976   0.447   4.023   4.617
 6338TIP3   OH218977   6.175   6.720   1.276
 6338TIP3    H118978   6.124   6.794   1.245
 6338TIP3    H218979   6.112   6.648   1.283
 6339TIP3   OH218980   2.116   6.435   5.650
 6339TIP3    H118981   2.053   6.421   5.580
 6339TIP3    H218982   2.197   6.458   5.606
 6340TIP3   OH218983   6.668   4.293   5.034
 6340TIP3    H118984   6.747   4.242   5.018
 6340TIP3    H218985   6.647   4.278   5.126
 6341TIP3   OH218986   2.688   3.681   5.509
 6341TIP3    H118987   2.724   3.667   5.421
 6341TIP3    H218988   2.679   3.776   5.517
 6342TIP3   OH218989   6.681   4.156   1.957
 6342TIP3    H118990   6.759   4.211   1.952
 6342TIP3    H218991   6.656   4.140   1.866
 6343TIP3   OH218992   6.953   1.227   3.997
 6343TIP3    H118993   6.981   1.248   3.908
 6343TIP3    H218994   7.009   1.282   4.052
 6344TIP3   OH218995   2.518   0.193   5.480
 6344TIP3    H118996   2.600   0.240   5.497
 6344TIP3    H218997   2.535   0.145   5.399
 6345TIP3   OH218998   1.369   4.294   2.398
 6345TIP3    H118999   1.321   4.317   2.318
 6345TIP3    H219000   1.375   4.198   2.395
 6346TIP3   OH219001   0.887   1.862   3.398
 6346TIP3    H119002   0.833   1.830   3.470
 6346TIP3    H219003   0.963   1.900   3.440
 6347TIP3   OH219004   2.166   4.430   5.925
 6347TIP3    H119005   2.185   4.523   5.918
 6347TIP3    H219006   2.212   4.391   5.851
 6348TIP3   OH219007   5.664   3.391   5.553
 6348TIP3    H119008   5.635   3.371   5.464
 6348TIP3    H219009   5.729   3.323   5.573
 6349TIP3   OH219010   7.249   1.690   1.342
 6349TIP3    H119011   7.193   1.626   1.299
 6349TIP3    H219012   7.228   1.682   1.435
 6350TIP3   OH219013   3.699   4.155   2.534
 6350TIP3    H119014   3.705   4.110   2.450
 6350TIP3    H219015   3.670   4.087   2.595
 6351TIP3   OH219016   2.161   3.891   1.911
 6351TIP3    H119017   2.131   3.875   1.821
 6351TIP3    H219018   2.196   3.980   1.909
 6352TIP3   OH219019   4.139   5.717   5.249
 6352TIP3    H119020   4.142   5.788   5.184
 6352TIP3    H219021   4.230   5.704   5.274
 6353TIP3   OH219022   1.277   1.454   5.485
 6353TIP3    H119023   1.323   1.390   5.540
 6353TIP3    H219024   1.188   1.419   5.477
 6354TIP3   OH219025   2.747   2.227   3.606
 6354TIP3    H119026   2.808   2.167   3.562
 6354TIP3    H219027   2.774   2.314   3.577
 6355TIP3   OH219028   4.211   4.985   3.656
 6355TIP3    H119029   4.193   5.025   3.741
 6355TIP3    H219030   4.306   4.991   3.646
 6356TIP3   OH219031   0.853   4.491   5.709
 6356TIP3    H119032   0.911   4.438   5.764
 6356TIP3    H219033   0.819   4.429   5.644
 6357TIP3   OH219034   0.267   5.918   3.703
 6357TIP3    H119035   0.282   5.841   3.648
 6357TIP3    H219036   0.320   5.987   3.662
 6358TIP3   OH219037   3.680   6.332   0.767
 6358TIP3    H119038   3.761   6.360   0.809
 6358TIP3    H219039   3.705   6.307   0.678
 6359TIP3   OH219040   4.660   6.796   3.104
 6359TIP3    H119041   4.660   6.711   3.060
 6359TIP3    H219042   4.609   6.782   3.183
 6360TIP3   OH219043   4.118   0.111   4.661
 6360TIP3    H119044   4.070   0.059   4.596
 6360TIP3    H219045   4.105   0.202   4.635
 6361TIP3   OH219046   6.460   0.201   1.759
 6361TIP3    H119047   6.448   0.237   1.847
 6361TIP3    H219048   6.542   0.151   1.765
 6362TIP3   OH219049   2.519   6.384   5.126
 6362TIP3    H119050   2.425   6.392   5.135
 6362TIP3    H219051   2.535   6.396   5.032
 6363TIP3   OH219052   2.496   5.872   2.255
 6363TIP3    H119053   2.517   5.779   2.263
 6363TIP3    H219054   2.487   5.887   2.161
 6364TIP3   OH219055   6.155   3.310   2.668
 6364TIP3    H119056   6.250   3.302   2.664
 6364TIP3    H219057   6.138   3.363   2.746
 6365TIP3   OH219058   2.081   4.169   5.668
 6365TIP3    H119059   1.991   4.161   5.701
 6365TIP3    H219060   2.082   4.116   5.588
 6366TIP3   OH219061   6.067   0.115   4.864
 6366TIP3    H119062   5.974   0.110   4.887
 6366TIP3    H219063   6.111   0.057   4.926
 6367TIP3   OH219064   4.307   0.404   5.895
 6367TIP3    H119065   4.398   0.389   5.867
 6367TIP3    H219066   4.278   0.478   5.841
 6368TIP3   OH219067   6.778   6.235   3.936
 6368TIP3    H119068   6.727   6.314   3.919
 6368TIP3    H219069   6.827   6.220   3.855
 6369TIP3   OH219070   3.653   5.797   3.163
 6369TIP3    H119071   3.630   5.767   3.076
 6369TIP3    H219072   3.735   5.752   3.183
 6370TIP3   OH219073   2.059   6.651   3.405
 6370TIP3    H119074   2.046   6.644   3.311
 6370TIP3    H219075   2.148   6.618   3.419
 6371TIP3   OH219076   5.622   4.540   3.157
 6371TIP3    H119077   5.631   4.627   3.119
 6371TIP3    H219078   5.682   4.539   3.232
 6372TIP3   OH219079   5.959   3.851   3.601
 6372TIP3    H119080   5.874   3.893   3.594
 6372TIP3    H219081   5.960   3.786   3.531
 6373TIP3   OH219082   1.677   5.718   3.140
 6373TIP3    H119083   1.721   5.687   3.062
 6373TIP3    H219084   1.742   5.770   3.186
 6374TIP3   OH219085   4.989   0.850   2.999
 6374TIP3    H119086   4.934   0.772   3.012
 6374TIP3    H219087   4.993   0.860   2.904
 6375TIP3   OH219088   6.295   4.599   1.044
 6375TIP3    H119089   6.258   4.637   0.964
 6375TIP3    H219090   6.220   4.593   1.104
 6376TIP3   OH219091   0.041   4.216   5.144
 6376TIP3    H119092   0.043   4.278   5.072
 6376TIP3    H219093  -0.026   4.250   5.203
 6377TIP3   OH219094   6.728   4.482   5.252
 6377TIP3    H119095   6.784   4.448   5.322
 6377TIP3    H219096   6.655   4.420   5.248
 6378TIP3   OH219097   4.996   0.548   4.902
 6378TIP3    H119098   4.960   0.471   4.858
 6378TIP3    H219099   4.926   0.613   4.899
 6379TIP3   OH219100   5.641   3.695   3.812
 6379TIP3    H119101   5.631   3.655   3.899
 6379TIP3    H219102   5.559   3.675   3.767
 6380TIP3   OH219103   4.211   3.891   2.739
 6380TIP3    H119104   4.280   3.952   2.764
 6380TIP3    H219105   4.239   3.856   2.654
 6381TIP3   OH219106   2.834   2.613   4.098
 6381TIP3    H119107   2.862   2.583   4.011
 6381TIP3    H219108   2.879   2.555   4.159
 6382TIP3   OH219109   4.358   1.716   3.464
 6382TIP3    H119110   4.267   1.746   3.472
 6382TIP3    H219111   4.394   1.768   3.393
 6383TIP3   OH219112   1.283   2.808   0.926
 6383TIP3    H119113   1.286   2.789   1.019
 6383TIP3    H219114   1.311   2.900   0.919
 6384TIP3   OH219115   1.394   0.724   5.421
 6384TIP3    H119116   1.340   0.647   5.437
 6384TIP3    H219117   1.453   0.698   5.351
 6385TIP3   OH219118   5.390   1.902   4.638
 6385TIP3    H119119   5.429   1.817   4.617
 6385TIP3    H219120   5.300   1.896   4.607
 6386TIP3   OH219121   2.847   3.854   1.938
 6386TIP3    H119122   2.860   3.842   1.844
 6386TIP3    H219123   2.929   3.890   1.970
 6387TIP3   OH219124   3.760   6.314   5.579
 6387TIP3    H119125   3.774   6.362   5.497
 6387TIP3    H219126   3.707   6.238   5.554
 6388TIP3   OH219127   0.039   5.766   0.363
 6388TIP3    H119128   0.115   5.766   0.422
 6388TIP3    H219129   0.019   5.859   0.349
 6389TIP3   OH219130   4.016   5.533   2.165
 6389TIP3    H119131   4.031   5.461   2.103
 6389TIP3    H219132   4.017   5.491   2.251
 6390TIP3   OH219133   3.441   1.283   5.704
 6390TIP3    H119134   3.515   1.287   5.643
 6390TIP3    H219135   3.374   1.233   5.658
 6391TIP3   OH219136   2.056   6.036   1.780
 6391TIP3    H119137   2.118   6.094   1.824
 6391TIP3    H219138   2.067   5.952   1.825
 6392TIP3   OH219139   2.921   0.433   2.804
 6392TIP3    H119140   2.980   0.436   2.879
 6392TIP3    H219141   2.849   0.376   2.832
 6393TIP3   OH219142   3.616   5.663   0.712
 6393TIP3    H119143   3.529   5.699   0.699
 6393TIP3    H219144   3.602   5.570   0.728
 6394TIP3   OH219145   2.455   6.757   5.520
 6394TIP3    H119146   2.390   6.773   5.589
 6394TIP3    H219147   2.471   6.663   5.524
 6395TIP3   OH219148   2.718   0.970   0.284
 6395TIP3    H119149   2.664   1.042   0.316
 6395TIP3    H219150   2.756   1.003   0.203
 6396TIP3   OH219151   0.192   5.988   4.731
 6396TIP3    H119152   0.155   5.919   4.677
 6396TIP3    H219153   0.116   6.036   4.764
 6397TIP3   OH219154   0.041   0.696   2.985
 6397TIP3    H119155   0.132   0.680   3.009
 6397TIP3    H219156   0.028   0.789   3.001
 6398TIP3   OH219157   0.475   4.965   0.933
 6398TIP3    H119158   0.479   4.910   1.010
 6398TIP3    H219159   0.562   4.958   0.894
 6399TIP3   OH219160   1.390   4.309   0.392
 6399TIP3    H119161   1.325   4.243   0.371
 6399TIP3    H219162   1.469   4.280   0.346
 6400TIP3   OH219163   2.328   2.455   3.141
 6400TIP3    H119164   2.304   2.526   3.082
 6400TIP3    H219165   2.256   2.392   3.134
 6401TIP3   OH219166   2.939   6.106   4.250
 6401TIP3    H119167   2.869   6.066   4.197
 6401TIP3    H219168   2.913   6.087   4.340
 6402TIP3   OH219169   0.053   2.974   5.886
 6402TIP3    H119170   0.081   2.894   5.843
 6402TIP3    H219171   0.094   3.044   5.836
 6403TIP3   OH219172   0.199   6.099   4.123
 6403TIP3    H119173   0.129   6.163   4.123
 6403TIP3    H219174   0.175   6.037   4.053
 6404TIP3   OH219175   2.392   4.380   4.173
 6404TIP3    H119176   2.301   4.406   4.184
 6404TIP3    H219177   2.393   4.326   4.094
 6405TIP3   OH219178   2.038   3.710   0.338
 6405TIP3    H119179   2.081   3.796   0.329
 6405TIP3    H219180   2.012   3.686   0.249
 6406TIP3   OH219181   0.848   5.380   4.524
 6406TIP3    H119182   0.906   5.456   4.534
 6406TIP3    H219183   0.827   5.354   4.613
 6407TIP3   OH219184   2.097   2.861   2.522
 6407TIP3    H119185   2.083   2.949   2.556
 6407TIP3    H219186   2.192   2.849   2.526
 6408TIP3   OH219187   0.930   2.435   5.613
 6408TIP3    H119188   0.916   2.507   5.552
 6408TIP3    H219189   1.015   2.400   5.590
 6409TIP3   OH219190   3.480   3.186   2.560
 6409TIP3    H119191   3.407   3.156   2.505
 6409TIP3    H219192   3.510   3.107   2.605
 6410TIP3   OH219193   0.148   4.047   1.603
 6410TIP3    H119194   0.111   3.977   1.550
 6410TIP3    H219195   0.077   4.072   1.663
 6411TIP3   OH219196   4.535   0.667   2.954
 6411TIP3    H119197   4.464   0.618   2.994
 6411TIP3    H219198   4.507   0.681   2.864
 6412TIP3   OH219199   5.217   5.069   0.152
 6412TIP3    H119200   5.191   4.987   0.109
 6412TIP3    H219201   5.279   5.110   0.092
 6413TIP3   OH219202   2.110   5.616   3.588
 6413TIP3    H119203   2.105   5.574   3.502
 6413TIP3    H219204   2.155   5.552   3.643
 6414TIP3   OH219205   6.699   6.076   2.815
 6414TIP3    H119206   6.758   6.151   2.823
 6414TIP3    H219207   6.755   6.005   2.781
 6415TIP3   OH219208   0.035   2.606   0.813
 6415TIP3    H119209   0.081   2.598   0.729
 6415TIP3    H219210   0.032   2.700   0.829
 6416TIP3   OH219211   6.027   0.835   0.549
 6416TIP3    H119212   6.097   0.770   0.560
 6416TIP3    H219213   6.009   0.835   0.455
 6417TIP3   OH219214   3.928   5.606   3.967
 6417TIP3    H119215   3.972   5.669   4.024
 6417TIP3    H219216   3.849   5.581   4.016
 6418TIP3   OH219217   2.658   0.596   3.887
 6418TIP3    H119218   2.633   0.675   3.936
 6418TIP3    H219219   2.663   0.625   3.796
 6419TIP3   OH219220   0.657   4.957   3.216
 6419TIP3    H119221   0.584   4.899   3.238
 6419TIP3    H219222   0.696   4.980   3.301
 6420TIP3   OH219223   5.004   6.851   4.012
 6420TIP3    H119224   5.071   6.805   4.063
 6420TIP3    H219225   4.993   6.798   3.933
 6421TIP3   OH219226   4.814   4.251   4.772
 6421TIP3    H119227   4.855   4.324   4.726
 6421TIP3    H219228   4.721   4.261   4.754
 6422TIP3   OH219229   5.904   2.805   2.087
 6422TIP3    H119230   5.999   2.814   2.082
 6422TIP3    H219231   5.888   2.714   2.061
 6423TIP3   OH219232   3.574   1.633   1.775
 6423TIP3    H119233   3.519   1.612   1.851
 6423TIP3    H219234   3.661   1.649   1.813
 6424TIP3   OH219235   3.516   5.712   5.895
 6424TIP3    H119236   3.499   5.672   5.980
 6424TIP3    H219237   3.457   5.666   5.835
 6425TIP3   OH219238   6.400   0.672   3.681
 6425TIP3    H119239   6.324   0.679   3.624
 6425TIP3    H219240   6.426   0.580   3.675
 6426TIP3   OH219241   4.289   1.169   4.869
 6426TIP3    H119242   4.372   1.120   4.870
 6426TIP3    H219243   4.275   1.189   4.776
 6427TIP3   OH219244   1.670   2.393   3.549
 6427TIP3    H119245   1.603   2.331   3.580
 6427TIP3    H219246   1.620   2.468   3.518
 6428TIP3   OH219247   6.781   1.077   2.391
 6428TIP3    H119248   6.748   1.057   2.478
 6428TIP3    H219249   6.838   1.153   2.403
 6429TIP3   OH219250   0.314   4.635   4.808
 6429TIP3    H119251   0.303   4.575   4.735
 6429TIP3    H219252   0.230   4.680   4.816
 6430TIP3   OH219253   0.208   5.047   0.845
 6430TIP3    H119254   0.143   4.989   0.886
 6430TIP3    H219255   0.285   5.039   0.901
 6431TIP3   OH219256   1.572   1.749   5.507
 6431TIP3    H119257   1.642   1.805   5.473
 6431TIP3    H219258   1.521   1.806   5.565
 6432TIP3   OH219259   4.765   0.239   4.156
 6432TIP3    H119260   4.677   0.216   4.129
 6432TIP3    H219261   4.810   0.262   4.075
 6433TIP3   OH219262   5.827   2.526   1.152
 6433TIP3    H119263   5.889   2.455   1.137
 6433TIP3    H219264   5.771   2.527   1.074
 6434TIP3   OH219265   6.587   4.762   1.975
 6434TIP3    H119266   6.578   4.857   1.973
 6434TIP3    H219267   6.672   4.745   1.933
 6435TIP3   OH219268  -0.002   0.084   4.945
 6435TIP3    H119269   0.065   0.120   4.887
 6435TIP3    H219270  -0.068   0.154   4.951
 6436TIP3   OH219271   4.885   4.445   3.741
 6436TIP3    H119272   4.854   4.429   3.830
 6436TIP3    H219273   4.932   4.365   3.717
 6437TIP3   OH219274   5.001   4.790   1.453
 6437TIP3    H119275   5.062   4.851   1.492
 6437TIP3    H219276   5.017   4.796   1.359
 6438TIP3   OH219277   0.678   4.350   0.866
 6438TIP3    H119278   0.744   4.287   0.840
 6438TIP3    H219279   0.613   4.299   0.914
 6439TIP3   OH219280   4.466   2.896   5.705
 6439TIP3    H119281   4.417   2.976   5.688
 6439TIP3    H219282   4.541   2.923   5.758
 6440TIP3   OH219283   6.344   3.726   2.701
 6440TIP3    H119284   6.377   3.765   2.782
 6440TIP3    H219285   6.253   3.703   2.721
 6441TIP3   OH219286   1.105   2.098   5.111
 6441TIP3    H119287   1.067   2.185   5.103
 6441TIP3    H219288   1.198   2.111   5.094
 6442TIP3   OH219289   4.165   2.261   4.803
 6442TIP3    H119290   4.152   2.166   4.807
 6442TIP3    H219291   4.157   2.282   4.710
 6443TIP3   OH219292   5.411   6.024   1.335
 6443TIP3    H119293   5.363   6.071   1.403
 6443TIP3    H219294   5.367   5.939   1.329
 6444TIP3   OH219295   1.845   0.932   4.228
 6444TIP3    H119296   1.862   1.014   4.183
 6444TIP3    H219297   1.872   0.948   4.319
 6445TIP3   OH219298   0.185   4.903   5.187
 6445TIP3    H119299   0.159   4.819   5.225
 6445TIP3    H219300   0.119   4.921   5.121
 6446TIP3   OH219301   4.282   2.324   5.184
 6446TIP3    H119302   4.194   2.347   5.153
 6446TIP3    H219303   4.286   2.360   5.273
 6447TIP3   OH219304   1.212   6.337   2.261
 6447TIP3    H119305   1.296   6.334   2.306
 6447TIP3    H219306   1.221   6.408   2.197
 6448TIP3   OH219307   6.136   3.895   3.319
 6448TIP3    H119308   6.123   3.812   3.365
 6448TIP3    H219309   6.051   3.937   3.322
 6449TIP3   OH219310   2.825   3.125   1.759
 6449TIP3    H119311   2.774   3.205   1.759
 6449TIP3    H219312   2.826   3.097   1.851
 6450TIP3   OH219313   4.041   2.666   3.637
 6450TIP3    H119314   3.995   2.656   3.553
 6450TIP3    H219315   4.088   2.749   3.628
 6451TIP3   OH219316   5.742   0.907   0.551
 6451TIP3    H119317   5.690   0.838   0.511
 6451TIP3    H219318   5.688   0.986   0.545
 6452TIP3   OH219319   0.273   0.610   5.703
 6452TIP3    H119320   0.312   0.697   5.696
 6452TIP3    H219321   0.332   0.562   5.761
 6453TIP3   OH219322   4.966   3.215   0.651
 6453TIP3    H119323   4.899   3.257   0.705
 6453TIP3    H219324   4.924   3.135   0.619
 6454TIP3   OH219325   0.067   0.538   4.691
 6454TIP3    H119326  -0.027   0.558   4.683
 6454TIP3    H219327   0.086   0.484   4.614
 6455TIP3   OH219328   0.934   1.202   4.246
 6455TIP3    H119329   0.882   1.124   4.268
 6455TIP3    H219330   0.868   1.269   4.224
 6456TIP3   OH219331   4.960   1.061   0.882
 6456TIP3    H119332   4.988   1.006   0.808
 6456TIP3    H219333   4.985   1.010   0.960
 6457TIP3   OH219334   1.714   6.413   2.624
 6457TIP3    H119335   1.791   6.361   2.600
 6457TIP3    H219336   1.744   6.466   2.698
 6458TIP3   OH219337   2.251   1.801   2.213
 6458TIP3    H119338   2.222   1.766   2.297
 6458TIP3    H219339   2.172   1.837   2.173
 6459TIP3   OH219340   1.040   1.052   0.463
 6459TIP3    H119341   1.109   1.118   0.477
 6459TIP3    H219342   1.069   1.002   0.387
 6460TIP3   OH219343   5.847   4.256   3.592
 6460TIP3    H119344   5.757   4.225   3.598
 6460TIP3    H219345   5.861   4.307   3.672
 6461TIP3   OH219346   5.899   1.810   1.992
 6461TIP3    H119347   5.970   1.851   2.042
 6461TIP3    H219348   5.846   1.882   1.961
 6462TIP3   OH219349   5.805   3.419   3.577
 6462TIP3    H119350   5.823   3.327   3.596
 6462TIP3    H219351   5.790   3.459   3.662
 6463TIP3   OH219352   1.167   0.591   3.839
 6463TIP3    H119353   1.150   0.605   3.746
 6463TIP3    H219354   1.254   0.553   3.843
 6464TIP3   OH219355   1.907   4.725   5.151
 6464TIP3    H119356   1.964   4.794   5.184
 6464TIP3    H219357   1.932   4.647   5.202
 6465TIP3   OH219358   5.783   4.357   5.253
 6465TIP3    H119359   5.827   4.434   5.219
 6465TIP3    H219360   5.815   4.349   5.343
 6466TIP3   OH219361   1.277   6.306   2.619
 6466TIP3    H119362   1.277   6.385   2.564
 6466TIP3    H219363   1.340   6.325   2.688
 6467TIP3   OH219364   4.056   0.758   4.238
 6467TIP3    H119365   4.148   0.786   4.230
 6467TIP3    H219366   4.015   0.790   4.158
 6468TIP3   OH219367   5.528   1.167   2.088
 6468TIP3    H119368   5.484   1.088   2.057
 6468TIP3    H219369   5.545   1.150   2.181
 6469TIP3   OH219370   2.760   0.812   1.334
 6469TIP3    H119371   2.829   0.748   1.355
 6469TIP3    H219372   2.807   0.894   1.322
 6470TIP3   OH219373   6.817   2.561   0.702
 6470TIP3    H119374   6.859   2.512   0.631
 6470TIP3    H219375   6.774   2.634   0.658
 6471TIP3   OH219376   2.640   5.081   1.232
 6471TIP3    H119377   2.595   5.165   1.222
 6471TIP3    H219378   2.621   5.054   1.321
 6472TIP3   OH219379   6.810   5.536   3.191
 6472TIP3    H119380   6.804   5.630   3.207
 6472TIP3    H219381   6.884   5.507   3.244
 6473TIP3   OH219382   0.941   4.843   4.759
 6473TIP3    H119383   1.007   4.783   4.793
 6473TIP3    H219384   0.899   4.795   4.687
 6474TIP3   OH219385   0.270   2.637   4.617
 6474TIP3    H119386   0.261   2.551   4.658
 6474TIP3    H219387   0.328   2.622   4.542
 6475TIP3   OH219388   3.069   2.895   2.027
 6475TIP3    H119389   3.005   2.871   1.961
 6475TIP3    H219390   3.047   2.840   2.103
 6476TIP3   OH219391   7.151   4.089   3.997
 6476TIP3    H119392   7.091   4.065   3.926
 6476TIP3    H219393   7.094   4.098   4.074
 6477TIP3   OH219394   4.439   0.483   4.277
 6477TIP3    H119395   4.372   0.543   4.309
 6477TIP3    H219396   4.416   0.398   4.315
 6478TIP3   OH219397   0.067   0.373   4.233
 6478TIP3    H119398   0.004   0.445   4.223
 6478TIP3    H219399   0.057   0.321   4.153
 6479TIP3   OH219400   4.396   2.302   4.935
 6479TIP3    H119401   4.319   2.277   4.884
 6479TIP3    H219402   4.370   2.286   5.026
 6480TIP3   OH219403   3.705   0.804   3.787
 6480TIP3    H119404   3.648   0.821   3.862
 6480TIP3    H219405   3.666   0.728   3.744
 6481TIP3   OH219406   1.682   3.682   3.804
 6481TIP3    H119407   1.769   3.685   3.763
 6481TIP3    H219408   1.644   3.600   3.774
 6482TIP3   OH219409   4.555   2.305   3.925
 6482TIP3    H119410   4.646   2.291   3.899
 6482TIP3    H219411   4.537   2.396   3.900
 6483TIP3   OH219412   4.534   1.100   4.983
 6483TIP3    H119413   4.544   1.164   5.053
 6483TIP3    H219414   4.601   1.124   4.919
 6484TIP3   OH219415   4.171   2.914   3.542
 6484TIP3    H119416   4.207   2.913   3.453
 6484TIP3    H219417   4.246   2.895   3.598
 6485TIP3   OH219418   7.069   5.548   1.318
 6485TIP3    H119419   7.097   5.512   1.403
 6485TIP3    H219420   7.114   5.493   1.254
 6486TIP3   OH219421   5.983   5.935   4.304
 6486TIP3    H119422   6.075   5.950   4.284
 6486TIP3    H219423   5.945   6.022   4.307
 6487TIP3   OH219424   1.751   2.118   4.774
 6487TIP3    H119425   1.799   2.075   4.703
 6487TIP3    H219426   1.805   2.194   4.797
 6488TIP3   OH219427   5.629   0.836   5.338
 6488TIP3    H119428   5.723   0.818   5.344
 6488TIP3    H219429   5.588   0.751   5.358
 6489TIP3   OH219430   2.672   5.541   0.390
 6489TIP3    H119431   2.699   5.498   0.471
 6489TIP3    H219432   2.604   5.484   0.354
 6490TIP3   OH219433   0.425   5.072   4.090
 6490TIP3    H119434   0.410   5.049   3.998
 6490TIP3    H219435   0.492   5.011   4.120
 6491TIP3   OH219436   3.226   0.374   4.034
 6491TIP3    H119437   3.159   0.334   4.089
 6491TIP3    H219438   3.182   0.448   3.992
 6492TIP3   OH219439   0.588   0.782   0.644
 6492TIP3    H119440   0.533   0.852   0.681
 6492TIP3    H219441   0.547   0.760   0.561
 6493TIP3   OH219442   1.433   2.843   2.193
 6493TIP3    H119443   1.419   2.804   2.106
 6493TIP3    H219444   1.528   2.852   2.201
 6494TIP3   OH219445   5.473   4.739   3.765
 6494TIP3    H119446   5.435   4.808   3.710
 6494TIP3    H219447   5.543   4.701   3.711
 6495TIP3   OH219448   4.502   2.667   2.162
 6495TIP3    H119449   4.464   2.705   2.082
 6495TIP3    H219450   4.543   2.741   2.206
 6496TIP3   OH219451   0.558   6.573   5.477
 6496TIP3    H119452   0.628   6.539   5.421
 6496TIP3    H219453   0.479   6.528   5.448
 6497TIP3   OH219454   0.823   0.633   0.095
 6497TIP3    H119455   0.810   0.678   0.012
 6497TIP3    H219456   0.772   0.553   0.088
 6498TIP3   OH219457   3.448   6.186   2.685
 6498TIP3    H119458   3.470   6.110   2.631
 6498TIP3    H219459   3.444   6.152   2.774
 6499TIP3   OH219460   3.685   1.900   4.588
 6499TIP3    H119461   3.595   1.892   4.619
 6499TIP3    H219462   3.690   1.989   4.554
 6500TIP3   OH219463   5.594   1.806   1.182
 6500TIP3    H119464   5.688   1.819   1.183
 6500TIP3    H219465   5.577   1.741   1.250
 6501TIP3   OH219466   5.373   5.560   4.921
 6501TIP3    H119467   5.323   5.488   4.882
 6501TIP3    H219468   5.368   5.631   4.857
 6502TIP3   OH219469   1.975   4.742   0.702
 6502TIP3    H119470   2.037   4.776   0.767
 6502TIP3    H219471   1.978   4.647   0.713
 6503TIP3   OH219472   5.549   2.783   2.503
 6503TIP3    H119473   5.505   2.827   2.576
 6503TIP3    H219474   5.631   2.750   2.540
 6504TIP3   OH219475   5.997   2.298   0.050
 6504TIP3    H119476   6.043   2.226   0.006
 6504TIP3    H219477   6.050   2.317   0.127
 6505TIP3   OH219478   6.963   4.842   3.807
 6505TIP3    H119479   6.889   4.815   3.753
 6505TIP3    H219480   6.974   4.935   3.788
 6506TIP3   OH219481   2.011   1.471   2.578
 6506TIP3    H119482   1.931   1.421   2.594
 6506TIP3    H219483   1.993   1.520   2.498
 6507TIP3   OH219484   6.994   5.979   0.467
 6507TIP3    H119485   6.932   6.005   0.535
 6507TIP3    H219486   6.941   5.928   0.405
 6508TIP3   OH219487   4.429   1.567   1.732
 6508TIP3    H119488   4.348   1.515   1.727
 6508TIP3    H219489   4.468   1.560   1.645
 6509TIP3   OH219490   4.196   2.593   4.932
 6509TIP3    H119491   4.211   2.597   5.027
 6509TIP3    H219492   4.271   2.638   4.894
 6510TIP3   OH219493   1.571   6.436   0.138
 6510TIP3    H119494   1.550   6.343   0.130
 6510TIP3    H219495   1.567   6.454   0.232
 6511TIP3   OH219496   5.673   2.703   1.962
 6511TIP3    H119497   5.723   2.785   1.967
 6511TIP3    H219498   5.605   2.712   2.029
 6512TIP3   OH219499   3.053   0.676   1.702
 6512TIP3    H119500   2.973   0.702   1.748
 6512TIP3    H219501   3.046   0.581   1.694
 6513TIP3   OH219502   2.412   4.261   5.296
 6513TIP3    H119503   2.459   4.337   5.332
 6513TIP3    H219504   2.321   4.273   5.324
 6514TIP3   OH219505   5.017   2.763   4.774
 6514TIP3    H119506   4.938   2.798   4.734
 6514TIP3    H219507   5.032   2.680   4.729
 6515TIP3   OH219508   0.819   5.446   0.174
 6515TIP3    H119509   0.880   5.514   0.145
 6515TIP3    H219510   0.737   5.493   0.189
 6516TIP3   OH219511   5.151   5.786   1.933
 6516TIP3    H119512   5.057   5.783   1.948
 6516TIP3    H219513   5.176   5.694   1.923
 6517TIP3   OH219514   6.130   5.520   3.439
 6517TIP3    H119515   6.185   5.519   3.361
 6517TIP3    H219516   6.043   5.543   3.407
 6518TIP3   OH219517   2.418   4.679   3.685
 6518TIP3    H119518   2.442   4.682   3.778
 6518TIP3    H219519   2.373   4.762   3.669
 6519TIP3   OH219520   2.673   0.245   4.827
 6519TIP3    H119521   2.665   0.221   4.735
 6519TIP3    H219522   2.583   0.251   4.858
 6520TIP3   OH219523   6.642   0.857   5.837
 6520TIP3    H119524   6.614   0.844   5.746
 6520TIP3    H219525   6.685   0.943   5.836
 6521TIP3   OH219526   0.629   1.379   0.542
 6521TIP3    H119527   0.615   1.429   0.623
 6521TIP3    H219528   0.628   1.288   0.570
 6522TIP3   OH219529   3.215   3.303   1.120
 6522TIP3    H119530   3.259   3.271   1.198
 6522TIP3    H219531   3.218   3.230   1.059
 6523TIP3   OH219532   5.526   4.655   1.969
 6523TIP3    H119533   5.436   4.626   1.975
 6523TIP3    H219534   5.539   4.712   2.045
 6524TIP3   OH219535   3.012   2.098   5.785
 6524TIP3    H119536   3.039   2.012   5.753
 6524TIP3    H219537   3.090   2.152   5.777
 6525TIP3   OH219538   4.880   5.453   2.259
 6525TIP3    H119539   4.924   5.377   2.223
 6525TIP3    H219540   4.828   5.488   2.187
 6526TIP3   OH219541   5.621   4.743   2.749
 6526TIP3    H119542   5.606   4.652   2.723
 6526TIP3    H219543   5.546   4.791   2.713
 6527TIP3   OH219544   2.769   4.043   3.982
 6527TIP3    H119545   2.849   4.004   4.016
 6527TIP3    H219546   2.760   4.125   4.030
 6528TIP3   OH219547   0.366   6.653   3.253
 6528TIP3    H119548   0.304   6.657   3.181
 6528TIP3    H219549   0.406   6.566   3.247
 6529TIP3   OH219550   7.126   0.756   0.818
 6529TIP3    H119551   7.070   0.684   0.789
 6529TIP3    H219552   7.065   0.828   0.835
 6530TIP3   OH219553   3.712   4.301   4.880
 6530TIP3    H119554   3.785   4.320   4.822
 6530TIP3    H219555   3.745   4.234   4.940
 6531TIP3   OH219556   1.305   3.069   3.055
 6531TIP3    H119557   1.253   2.988   3.050
 6531TIP3    H219558   1.387   3.047   3.011
 6532TIP3   OH219559   2.468   6.342   4.729
 6532TIP3    H119560   2.463   6.326   4.635
 6532TIP3    H219561   2.561   6.338   4.750
 6533TIP3   OH219562   1.344   0.049   3.491
 6533TIP3    H119563   1.402   0.119   3.464
 6533TIP3    H219564   1.270   0.054   3.431
 6534TIP3   OH219565   3.598   2.302   4.316
 6534TIP3    H119566   3.647   2.226   4.347
 6534TIP3    H219567   3.637   2.376   4.363
 6535TIP3   OH219568   3.499   1.076   3.836
 6535TIP3    H119569   3.540   1.103   3.918
 6535TIP3    H219570   3.454   1.154   3.804
 6536TIP3   OH219571   3.156   2.636   3.914
 6536TIP3    H119572   3.174   2.713   3.859
 6536TIP3    H219573   3.061   2.628   3.916
 6537TIP3   OH219574   4.123   0.394   1.801
 6537TIP3    H119575   4.110   0.481   1.839
 6537TIP3    H219576   4.141   0.337   1.876
 6538TIP3   OH219577   3.169   1.394   3.714
 6538TIP3    H119578   3.120   1.371   3.635
 6538TIP3    H219579   3.167   1.490   3.717
 6539TIP3   OH219580   2.821   3.703   3.872
 6539TIP3    H119581   2.738   3.683   3.830
 6539TIP3    H219582   2.803   3.690   3.966
 6540TIP3   OH219583   0.385   1.288   0.449
 6540TIP3    H119584   0.293   1.285   0.477
 6540TIP3    H219585   0.427   1.347   0.511
 6541TIP3   OH219586   0.443   3.178   3.855
 6541TIP3    H119587   0.537   3.166   3.854
 6541TIP3    H219588   0.408   3.099   3.815
 6542TIP3   OH219589   4.052   1.393   4.867
 6542TIP3    H119590   4.124   1.331   4.859
 6542TIP3    H219591   3.973   1.339   4.858
 6543TIP3   OH219592   5.999   0.147   4.177
 6543TIP3    H119593   5.992   0.240   4.199
 6543TIP3    H219594   5.968   0.102   4.256
 6544TIP3   OH219595   2.529   2.849   4.689
 6544TIP3    H119596   2.615   2.880   4.660
 6544TIP3    H219597   2.501   2.913   4.754
 6545TIP3   OH219598   1.677   5.566   5.330
 6545TIP3    H119599   1.621   5.616   5.388
 6545TIP3    H219600   1.743   5.527   5.387
 6546TIP3   OH219601   5.953   0.591   1.689
 6546TIP3    H119602   5.859   0.575   1.691
 6546TIP3    H219603   5.993   0.507   1.711
 6547TIP3   OH219604   5.861   2.619   2.385
 6547TIP3    H119605   5.839   2.574   2.304
 6547TIP3    H219606   5.910   2.696   2.357
 6548TIP3   OH219607   5.379   6.463   1.473
 6548TIP3    H119608   5.316   6.459   1.545
 6548TIP3    H219609   5.459   6.422   1.508
 6549TIP3   OH219610   6.830   2.417   2.481
 6549TIP3    H119611   6.890   2.473   2.431
 6549TIP3    H219612   6.825   2.458   2.567
 6550TIP3   OH219613   1.145   0.163   4.426
 6550TIP3    H119614   1.219   0.170   4.366
 6550TIP3    H219615   1.075   0.213   4.384
 6551TIP3   OH219616   5.008   1.678   0.469
 6551TIP3    H119617   5.013   1.774   0.463
 6551TIP3    H219618   5.075   1.646   0.409
 6552TIP3   OH219619   7.028   6.313   2.494
 6552TIP3    H119620   7.003   6.226   2.463
 6552TIP3    H219621   6.945   6.359   2.505
 6553TIP3   OH219622   0.526   2.565   0.568
 6553TIP3    H119623   0.468   2.543   0.495
 6553TIP3    H219624   0.607   2.592   0.526
 6554TIP3   OH219625   4.493   3.571   2.209
 6554TIP3    H119626   4.567   3.619   2.246
 6554TIP3    H219627   4.480   3.611   2.122
 6555TIP3   OH219628   3.358   0.222   5.336
 6555TIP3    H119629   3.347   0.127   5.325
 6555TIP3    H219630   3.348   0.236   5.430
 6556TIP3   OH219631   1.172   3.826   2.459
 6556TIP3    H119632   1.085   3.848   2.425
 6556TIP3    H219633   1.189   3.738   2.426
 6557TIP3   OH219634   5.654   5.112  -0.026
 6557TIP3    H119635   5.710   5.035  -0.036
 6557TIP3    H219636   5.618   5.105   0.062
 6558TIP3   OH219637   2.475   4.325   5.019
 6558TIP3    H119638   2.420   4.307   5.095
 6558TIP3    H219639   2.464   4.247   4.963
 6559TIP3   OH219640   5.225   5.852   0.274
 6559TIP3    H119641   5.230   5.805   0.190
 6559TIP3    H219642   5.294   5.918   0.268
 6560TIP3   OH219643   6.874   3.197   1.460
 6560TIP3    H119644   6.781   3.201   1.440
 6560TIP3    H219645   6.885   3.252   1.537
 6561TIP3   OH219646   0.619   6.384   1.869
 6561TIP3    H119647   0.586   6.473   1.863
 6561TIP3    H219648   0.606   6.360   1.961
 6562TIP3   OH219649   1.124   2.935   4.507
 6562TIP3    H119650   1.149   2.935   4.599
 6562TIP3    H219651   1.206   2.943   4.459
 6563TIP3   OH219652   5.695   6.690   3.844
 6563TIP3    H119653   5.755   6.720   3.775
 6563TIP3    H219654   5.619   6.657   3.797
 6564TIP3   OH219655   2.079   5.515   0.378
 6564TIP3    H119656   2.160   5.566   0.375
 6564TIP3    H219657   2.103   5.430   0.339
 6565TIP3   OH219658   3.528   0.594   0.741
 6565TIP3    H119659   3.560   0.514   0.699
 6565TIP3    H219660   3.544   0.663   0.677
 6566TIP3   OH219661   4.770   4.302   2.385
 6566TIP3    H119662   4.703   4.355   2.427
 6566TIP3    H219663   4.790   4.348   2.303
 6567TIP3   OH219664   3.979   1.003   2.438
 6567TIP3    H119665   4.040   0.929   2.436
 6567TIP3    H219666   3.960   1.020   2.346
 6568TIP3   OH219667   0.950   5.897   2.903
 6568TIP3    H119668   1.044   5.891   2.919
 6568TIP3    H219669   0.921   5.968   2.959
 6569TIP3   OH219670   5.495   0.723   3.903
 6569TIP3    H119671   5.504   0.657   3.834
 6569TIP3    H219672   5.404   0.715   3.932
 6570TIP3   OH219673   3.218   1.983   4.587
 6570TIP3    H119674   3.278   2.057   4.584
 6570TIP3    H219675   3.274   1.905   4.590
 6571TIP3   OH219676   6.601   5.537   5.451
 6571TIP3    H119677   6.629   5.446   5.444
 6571TIP3    H219678   6.542   5.550   5.376
 6572TIP3   OH219679   6.027   4.918   3.690
 6572TIP3    H119680   5.993   4.837   3.651
 6572TIP3    H219681   6.048   4.973   3.615
 6573TIP3   OH219682   5.200   6.226   5.714
 6573TIP3    H119683   5.135   6.251   5.647
 6573TIP3    H219684   5.172   6.139   5.742
 6574TIP3   OH219685   7.079   4.713   1.738
 6574TIP3    H119686   7.055   4.630   1.698
 6574TIP3    H219687   7.111   4.767   1.666
 6575TIP3   OH219688   6.844   4.365   5.488
 6575TIP3    H119689   6.863   4.325   5.573
 6575TIP3    H219690   6.930   4.370   5.444
 6576TIP3   OH219691   1.929   4.160   1.304
 6576TIP3    H119692   1.847   4.170   1.255
 6576TIP3    H219693   1.976   4.242   1.291
 6577TIP3   OH219694   2.106   5.318   1.306
 6577TIP3    H119695   2.043   5.279   1.366
 6577TIP3    H219696   2.186   5.268   1.319
 6578TIP3   OH219697   4.122   3.011   2.658
 6578TIP3    H119698   4.088   3.096   2.629
 6578TIP3    H219699   4.048   2.967   2.699
 6579TIP3   OH219700   3.307   6.493   3.353
 6579TIP3    H119701   3.329   6.511   3.262
 6579TIP3    H219702   3.228   6.438   3.347
 6580TIP3   OH219703   6.766   0.392   3.919
 6580TIP3    H119704   6.721   0.451   3.858
 6580TIP3    H219705   6.777   0.444   3.998
 6581TIP3   OH219706   5.586   0.377   0.343
 6581TIP3    H119707   5.544   0.413   0.265
 6581TIP3    H219708   5.527   0.307   0.371
 6582TIP3   OH219709   3.766   2.117   4.390
 6582TIP3    H119710   3.827   2.167   4.445
 6582TIP3    H219711   3.822   2.055   4.343
 6583TIP3   OH219712   5.912   3.281   4.107
 6583TIP3    H119713   5.944   3.194   4.130
 6583TIP3    H219714   5.852   3.265   4.034
 6584TIP3   OH219715   1.798   5.656   3.613
 6584TIP3    H119716   1.847   5.581   3.581
 6584TIP3    H219717   1.861   5.707   3.664
 6585TIP3   OH219718   7.189   0.320   5.526
 6585TIP3    H119719   7.105   0.360   5.500
 6585TIP3    H219720   7.186   0.318   5.622
 6586TIP3   OH219721   5.444   3.925   2.224
 6586TIP3    H119722   5.492   3.855   2.268
 6586TIP3    H219723   5.435   3.894   2.134
 6587TIP3   OH219724   3.265   3.482   2.585
 6587TIP3    H119725   3.281   3.400   2.631
 6587TIP3    H219726   3.227   3.456   2.501
 6588TIP3   OH219727   5.927   5.587   0.298
 6588TIP3    H119728   5.986   5.597   0.223
 6588TIP3    H219729   5.981   5.546   0.366
 6589TIP3   OH219730   2.892   4.956   4.753
 6589TIP3    H119731   2.852   4.909   4.679
 6589TIP3    H219732   2.889   4.893   4.825
 6590TIP3   OH219733   6.428   2.816   5.107
 6590TIP3    H119734   6.476   2.857   5.035
 6590TIP3    H219735   6.486   2.824   5.183
 6591TIP3   OH219736   1.565   0.316   2.173
 6591TIP3    H119737   1.499   0.349   2.234
 6591TIP3    H219738   1.598   0.393   2.128
 6592TIP3   OH219739   2.700   2.025   3.793
 6592TIP3    H119740   2.760   2.057   3.860
 6592TIP3    H219741   2.696   2.095   3.728
 6593TIP3   OH219742   3.564   1.171   2.492
 6593TIP3    H119743   3.511   1.091   2.494
 6593TIP3    H219744   3.587   1.186   2.584
 6594TIP3   OH219745   2.489   6.258   2.265
 6594TIP3    H119746   2.482   6.264   2.360
 6594TIP3    H219747   2.406   6.296   2.233
 6595TIP3   OH219748   5.727   6.083   1.327
 6595TIP3    H119749   5.777   6.115   1.402
 6595TIP3    H219750   5.649   6.042   1.364
 6596TIP3   OH219751   1.666   6.311   5.904
 6596TIP3    H119752   1.571   6.298   5.907
 6596TIP3    H219753   1.687   6.320   5.811
 6597TIP3   OH219754   6.252   0.577   4.148
 6597TIP3    H119755   6.180   0.524   4.112
 6597TIP3    H219756   6.254   0.654   4.092
 6598TIP3   OH219757   4.909   1.254   4.347
 6598TIP3    H119758   4.994   1.270   4.387
 6598TIP3    H219759   4.852   1.321   4.385
 6599TIP3   OH219760   3.407   4.669   4.343
 6599TIP3    H119761   3.367   4.630   4.421
 6599TIP3    H219762   3.490   4.622   4.332
 6600TIP3   OH219763   5.995   6.626   1.052
 6600TIP3    H119764   5.934   6.592   0.986
 6600TIP3    H219765   5.960   6.712   1.074
 6601TIP3   OH219766   7.252   0.891   4.291
 6601TIP3    H119767   7.176   0.945   4.272
 6601TIP3    H219768   7.255   0.828   4.219
 6602TIP3   OH219769   2.263   1.204   2.579
 6602TIP3    H119770   2.175   1.199   2.616
 6602TIP3    H219771   2.259   1.146   2.503
 6603TIP3   OH219772   6.548   5.315   1.337
 6603TIP3    H119773   6.501   5.333   1.255
 6603TIP3    H219774   6.617   5.253   1.312
 6604TIP3   OH219775   3.912   0.994   1.198
 6604TIP3    H119776   3.900   0.924   1.133
 6604TIP3    H219777   3.835   0.988   1.254
 6605TIP3   OH219778   4.596   0.821   0.463
 6605TIP3    H119779   4.608   0.905   0.507
 6605TIP3    H219780   4.518   0.784   0.504
 6606TIP3   OH219781   2.892   1.904   3.292
 6606TIP3    H119782   2.843   1.842   3.237
 6606TIP3    H219783   2.977   1.862   3.305
 6607TIP3   OH219784   1.104   1.445   1.511
 6607TIP3    H119785   1.140   1.381   1.450
 6607TIP3    H219786   1.140   1.529   1.482
 6608TIP3   OH219787   4.042   3.967   0.283
 6608TIP3    H119788   4.101   4.042   0.296
 6608TIP3    H219789   4.100   3.892   0.274
 6609TIP3   OH219790   0.327   6.111   4.344
 6609TIP3    H119791   0.274   6.093   4.266
 6609TIP3    H219792   0.263   6.115   4.416
 6610TIP3   OH219793   0.025   5.996   4.378
 6610TIP3    H119794   0.069   5.953   4.451
 6610TIP3    H219795   0.072   5.966   4.300
 6611TIP3   OH219796   4.743   0.821   2.124
 6611TIP3    H119797   4.799   0.864   2.188
 6611TIP3    H219798   4.656   0.821   2.163
 6612TIP3   OH219799   1.447   2.713   1.953
 6612TIP3    H119800   1.537   2.691   1.930
 6612TIP3    H219801   1.393   2.659   1.895
 6613TIP3   OH219802   3.950   2.091   4.996
 6613TIP3    H119803   3.875   2.045   5.034
 6613TIP3    H219804   3.961   2.169   5.050
 6614TIP3   OH219805   5.564   6.554   3.241
 6614TIP3    H119806   5.513   6.480   3.273
 6614TIP3    H219807   5.653   6.537   3.271
 6615TIP3   OH219808   2.614   4.367   5.824
 6615TIP3    H119809   2.661   4.328   5.751
 6615TIP3    H219810   2.603   4.459   5.799
 6616TIP3   OH219811   6.694   5.691   2.619
 6616TIP3    H119812   6.720   5.599   2.627
 6616TIP3    H219813   6.755   5.739   2.674
 6617TIP3   OH219814   6.903   4.843   0.708
 6617TIP3    H119815   6.933   4.899   0.636
 6617TIP3    H219816   6.893   4.757   0.668
 6618TIP3   OH219817   2.700   2.728   2.992
 6618TIP3    H119818   2.759   2.748   3.065
 6618TIP3    H219819   2.740   2.654   2.947
 6619TIP3   OH219820   6.395   1.871   0.788
 6619TIP3    H119821   6.329   1.911   0.731
 6619TIP3    H219822   6.466   1.935   0.792
 6620TIP3   OH219823   4.162   1.562   3.264
 6620TIP3    H119824   4.210   1.600   3.191
 6620TIP3    H219825   4.174   1.624   3.335
 6621TIP3   OH219826   3.632   5.884   4.539
 6621TIP3    H119827   3.536   5.883   4.544
 6621TIP3    H219828   3.658   5.953   4.601
 6622TIP3   OH219829   6.266   1.040   4.311
 6622TIP3    H119830   6.224   0.978   4.370
 6622TIP3    H219831   6.198   1.104   4.290
 6623TIP3   OH219832   4.740   4.339   0.518
 6623TIP3    H119833   4.674   4.387   0.568
 6623TIP3    H219834   4.823   4.363   0.559
 6624TIP3   OH219835   0.274   1.708   1.210
 6624TIP3    H119836   0.302   1.798   1.227
 6624TIP3    H219837   0.182   1.706   1.239
 6625TIP3   OH219838   5.191   6.705   1.403
 6625TIP3    H119839   5.259   6.731   1.342
 6625TIP3    H219840   5.204   6.611   1.415
 6626TIP3   OH219841   1.795   1.184   2.393
 6626TIP3    H119842   1.885   1.215   2.382
 6626TIP3    H219843   1.769   1.218   2.479
 6627TIP3   OH219844   5.486   4.545   4.289
 6627TIP3    H119845   5.515   4.454   4.285
 6627TIP3    H219846   5.397   4.544   4.254
 6628TIP3   OH219847   3.354   5.668   3.915
 6628TIP3    H119848   3.363   5.654   3.821
 6628TIP3    H219849   3.364   5.762   3.926
 6629TIP3   OH219850   1.162   6.252   0.829
 6629TIP3    H119851   1.236   6.194   0.850
 6629TIP3    H219852   1.123   6.272   0.914
 6630TIP3   OH219853   0.870   3.399   4.804
 6630TIP3    H119854   0.938   3.369   4.744
 6630TIP3    H219855   0.801   3.432   4.746
 6631TIP3   OH219856   0.520   4.484   3.587
 6631TIP3    H119857   0.491   4.527   3.668
 6631TIP3    H219858   0.556   4.400   3.616
 6632TIP3   OH219859   6.766   0.361   2.056
 6632TIP3    H119860   6.757   0.424   1.984
 6632TIP3    H219861   6.827   0.295   2.023
 6633TIP3   OH219862   2.126   3.852   0.772
 6633TIP3    H119863   2.218   3.848   0.800
 6633TIP3    H219864   2.112   3.771   0.723
 6634TIP3   OH219865   3.072   2.367   1.365
 6634TIP3    H119866   3.093   2.333   1.452
 6634TIP3    H219867   3.004   2.308   1.333
 6635TIP3   OH219868   2.663   4.783   0.789
 6635TIP3    H119869   2.583   4.773   0.841
 6635TIP3    H219870   2.633   4.812   0.703
 6636TIP3   OH219871   1.819   1.837   4.180
 6636TIP3    H119872   1.880   1.823   4.108
 6636TIP3    H219873   1.870   1.814   4.258
 6637TIP3   OH219874   0.261   3.697   3.603
 6637TIP3    H119875   0.300   3.710   3.690
 6637TIP3    H219876   0.259   3.785   3.564
 6638TIP3   OH219877   0.057   0.420   0.544
 6638TIP3    H119878   0.108   0.501   0.532
 6638TIP3    H219879   0.060   0.403   0.638
 6639TIP3   OH219880   6.528   3.928   3.410
 6639TIP3    H119881   6.437   3.904   3.428
 6639TIP3    H219882   6.571   3.846   3.388
 6640TIP3   OH219883   4.152   4.774   5.626
 6640TIP3    H119884   4.090   4.702   5.613
 6640TIP3    H219885   4.209   4.770   5.549
 6641TIP3   OH219886   4.104   6.135   5.454
 6641TIP3    H119887   4.079   6.042   5.458
 6641TIP3    H219888   4.196   6.133   5.428
 6642TIP3   OH219889   6.546   0.239   4.152
 6642TIP3    H119890   6.604   0.290   4.096
 6642TIP3    H219891   6.475   0.299   4.175
 6643TIP3   OH219892   1.068   5.564   0.316
 6643TIP3    H119893   0.997   5.625   0.337
 6643TIP3    H219894   1.074   5.567   0.220
 6644TIP3   OH219895   2.979   3.734   0.949
 6644TIP3    H119896   2.975   3.823   0.983
 6644TIP3    H219897   3.005   3.745   0.857
 6645TIP3   OH219898   4.582   0.503   4.941
 6645TIP3    H119899   4.501   0.452   4.940
 6645TIP3    H219900   4.552   0.594   4.943
 6646TIP3   OH219901   2.182   0.734   4.541
 6646TIP3    H119902   2.227   0.653   4.562
 6646TIP3    H219903   2.100   0.706   4.499
 6647TIP3   OH219904   5.599   0.142   5.122
 6647TIP3    H119905   5.544   0.067   5.142
 6647TIP3    H219906   5.658   0.111   5.053
 6648TIP3   OH219907   0.165   0.721   2.684
 6648TIP3    H119908   0.088   0.667   2.673
 6648TIP3    H219909   0.190   0.710   2.776
 6649TIP3   OH219910   2.348   5.580   2.150
 6649TIP3    H119911   2.268   5.614   2.190
 6649TIP3    H219912   2.366   5.499   2.197
 6650TIP3   OH219913   5.538   0.693   5.888
 6650TIP3    H119914   5.473   0.764   5.885
 6650TIP3    H219915   5.511   0.634   5.817
 6651TIP3   OH219916   4.947   2.121   0.329
 6651TIP3    H119917   4.972   2.176   0.255
 6651TIP3    H219918   4.856   2.143   0.346
 6652TIP3   OH219919   6.807   4.642   5.026
 6652TIP3    H119920   6.759   4.587   4.964
 6652TIP3    H219921   6.763   4.627   5.110
 6653TIP3   OH219922   0.644   2.658   3.518
 6653TIP3    H119923   0.584   2.722   3.558
 6653TIP3    H219924   0.611   2.646   3.429
 6654TIP3   OH219925   1.928   2.968   1.887
 6654TIP3    H119926   1.894   3.013   1.964
 6654TIP3    H219927   1.939   2.877   1.915
 6655TIP3   OH219928   4.711   4.166   2.635
 6655TIP3    H119929   4.729   4.230   2.704
 6655TIP3    H219930   4.739   4.209   2.555
 6656TIP3   OH219931   3.869   1.734   2.294
 6656TIP3    H119932   3.807   1.675   2.250
 6656TIP3    H219933   3.954   1.691   2.283
 6657TIP3   OH219934   3.979   0.451   5.404
 6657TIP3    H119935   3.908   0.498   5.447
 6657TIP3    H219936   3.985   0.491   5.317
 6658TIP3   OH219937   2.695   6.190   1.453
 6658TIP3    H119938   2.640   6.121   1.489
 6658TIP3    H219939   2.733   6.152   1.374
 6659TIP3   OH219940   6.967   6.189   5.243
 6659TIP3    H119941   6.956   6.109   5.191
 6659TIP3    H219942   6.991   6.256   5.179
 6660TIP3   OH219943   3.579   5.453   5.663
 6660TIP3    H119944   3.658   5.506   5.652
 6660TIP3    H219945   3.610   5.373   5.705
 6661TIP3   OH219946   0.024   2.951   3.719
 6661TIP3    H119947   0.013   2.965   3.625
 6661TIP3    H219948  -0.045   3.003   3.759
 6662TIP3   OH219949   5.852   4.386   3.861
 6662TIP3    H119950   5.931   4.425   3.897
 6662TIP3    H219951   5.834   4.311   3.918
 6663TIP3   OH219952   5.194   4.444   3.614
 6663TIP3    H119953   5.137   4.433   3.690
 6663TIP3    H219954   5.134   4.452   3.540
 6664TIP3   OH219955   0.123   5.535   3.142
 6664TIP3    H119956   0.211   5.569   3.157
 6664TIP3    H219957   0.114   5.536   3.046
 6665TIP3   OH219958   1.219   2.332   0.820
 6665TIP3    H119959   1.169   2.377   0.888
 6665TIP3    H219960   1.190   2.241   0.827
 6666TIP3   OH219961   5.236   3.122   0.902
 6666TIP3    H119962   5.186   3.135   0.983
 6666TIP3    H219963   5.175   3.147   0.833
 6667TIP3   OH219964   0.612   4.383   4.625
 6667TIP3    H119965   0.523   4.357   4.651
 6667TIP3    H219966   0.645   4.433   4.700
 6668TIP3   OH219967   5.989   6.461   0.438
 6668TIP3    H119968   5.927   6.454   0.366
 6668TIP3    H219969   5.947   6.414   0.511
 6669TIP3   OH219970   6.174   1.740   5.519
 6669TIP3    H119971   6.136   1.807   5.575
 6669TIP3    H219972   6.165   1.775   5.430
 6670TIP3   OH219973   1.716   5.744   0.841
 6670TIP3    H119974   1.749   5.760   0.753
 6670TIP3    H219975   1.767   5.670   0.873
 6671TIP3   OH219976   3.040   2.470   1.051
 6671TIP3    H119977   2.995   2.400   1.004
 6671TIP3    H219978   3.105   2.425   1.106
 6672TIP3   OH219979   6.622   0.146   4.930
 6672TIP3    H119980   6.645   0.074   4.871
 6672TIP3    H219981   6.543   0.116   4.974
 6673TIP3   OH219982   3.496   2.566   0.959
 6673TIP3    H119983   3.518   2.598   0.872
 6673TIP3    H219984   3.578   2.530   0.993
 6674TIP3   OH219985   0.556   3.971   5.484
 6674TIP3    H119986   0.592   3.971   5.395
 6674TIP3    H219987   0.488   4.038   5.482
 6675TIP3   OH219988   3.926   6.009   0.052
 6675TIP3    H119989   3.895   5.930   0.009
 6675TIP3    H219990   3.861   6.076   0.029
 6676TIP3   OH219991   4.726   4.213   1.934
 6676TIP3    H119992   4.715   4.226   1.839
 6676TIP3    H219993   4.672   4.137   1.954
 6677TIP3   OH219994   6.586   0.671   5.248
 6677TIP3    H119995   6.596   0.643   5.157
 6677TIP3    H219996   6.562   0.763   5.242
 6678TIP3   OH219997   0.328   6.374   2.124
 6678TIP3    H119998   0.406   6.337   2.083
 6678TIP3    H219999   0.352   6.385   2.216
 6679TIP3   OH220000   4.860   1.186   5.714
 6679TIP3    H120001   4.955   1.176   5.703
 6679TIP3    H220002   4.829   1.099   5.739
 6680TIP3   OH220003   5.959   1.404   3.434
 6680TIP3    H120004   6.030   1.418   3.497
 6680TIP3    H220005   5.980   1.320   3.393
 6681TIP3   OH220006   3.200   4.081   1.501
 6681TIP3    H120007   3.222   4.174   1.512
 6681TIP3    H220008   3.285   4.036   1.503
 6682TIP3   OH220009   1.661   4.267   3.640
 6682TIP3    H120010   1.724   4.226   3.700
 6682TIP3    H220011   1.691   4.244   3.553
 6683TIP3   OH220012   0.853   1.838   4.426
 6683TIP3    H120013   0.899   1.912   4.466
 6683TIP3    H220014   0.766   1.839   4.466
 6684TIP3   OH220015   3.121   2.645   2.506
 6684TIP3    H120016   3.081   2.559   2.511
 6684TIP3    H220017   3.087   2.692   2.582
 6685TIP3   OH220018   0.731   2.472   4.492
 6685TIP3    H120019   0.773   2.409   4.550
 6685TIP3    H220020   0.790   2.548   4.492
 6686TIP3   OH220021   4.542   1.593   5.829
 6686TIP3    H120022   4.525   1.574   5.921
 6686TIP3    H220023   4.637   1.587   5.820
 6687TIP3   OH220024   6.635   4.563   0.643
 6687TIP3    H120025   6.559   4.602   0.600
 6687TIP3    H220026   6.636   4.472   0.612
 6688TIP3   OH220027   5.985   5.687   4.444
 6688TIP3    H120028   6.058   5.630   4.419
 6688TIP3    H220029   5.977   5.749   4.371
 6689TIP3   OH220030   6.766   2.980   4.986
 6689TIP3    H120031   6.746   3.011   5.075
 6689TIP3    H220032   6.860   2.990   4.978
 6690TIP3   OH220033   2.354   3.138   2.014
 6690TIP3    H120034   2.421   3.151   1.947
 6690TIP3    H220035   2.272   3.137   1.965
 6691TIP3   OH220036   0.019   6.483   5.674
 6691TIP3    H120037  -0.072   6.511   5.675
 6691TIP3    H220038   0.026   6.427   5.596
 6692TIP3   OH220039   2.745   6.673   1.254
 6692TIP3    H120040   2.827   6.701   1.214
 6692TIP3    H220041   2.747   6.710   1.342
 6693TIP3   OH220042   6.563   1.780   5.238
 6693TIP3    H120043   6.629   1.792   5.170
 6693TIP3    H220044   6.580   1.849   5.302
 6694TIP3   OH220045   3.606   2.417   3.647
 6694TIP3    H120046   3.593   2.465   3.729
 6694TIP3    H220047   3.609   2.325   3.673
 6695TIP3   OH220048   5.092   1.440   1.293
 6695TIP3    H120049   5.168   1.477   1.337
 6695TIP3    H220050   5.076   1.498   1.219
 6696TIP3   OH220051   2.146   0.166   3.824
 6696TIP3    H120052   2.076   0.121   3.871
 6696TIP3    H220053   2.154   0.251   3.867
 6697TIP3   OH220054   0.192   1.821   1.963
 6697TIP3    H120055   0.245   1.790   1.890
 6697TIP3    H220056   0.181   1.915   1.948
 6698TIP3   OH220057   3.012   0.980   1.478
 6698TIP3    H120058   2.927   0.972   1.520
 6698TIP3    H220059   3.026   0.894   1.436
 6699TIP3   OH220060   5.303   2.014   3.126
 6699TIP3    H120061   5.297   2.094   3.074
 6699TIP3    H220062   5.315   2.044   3.216
 6700TIP3   OH220063   6.476   0.413   5.657
 6700TIP3    H120064   6.532   0.480   5.617
 6700TIP3    H220065   6.439   0.366   5.582
 6701TIP3   OH220066   6.125   2.393   0.275
 6701TIP3    H120067   6.206   2.425   0.235
 6701TIP3    H220068   6.107   2.454   0.346
 6702TIP3   OH220069   6.093   5.628   1.045
 6702TIP3    H120070   6.101   5.723   1.037
 6702TIP3    H220071   5.999   5.611   1.041
 6703TIP3   OH220072   2.705   2.535   5.374
 6703TIP3    H120073   2.723   2.559   5.464
 6703TIP3    H220074   2.626   2.583   5.352
 6704TIP3   OH220075   1.675   0.830   3.307
 6704TIP3    H120076   1.634   0.792   3.385
 6704TIP3    H220077   1.700   0.754   3.254
 6705TIP3   OH220078   7.039   0.499   4.244
 6705TIP3    H120079   7.031   0.450   4.326
 6705TIP3    H220080   6.949   0.519   4.219
 6706TIP3   OH220081  -0.012   6.638   1.587
 6706TIP3    H120082  -0.023   6.559   1.639
 6706TIP3    H220083   0.079   6.634   1.556
 6707TIP3   OH220084   4.418   4.196   4.247
 6707TIP3    H120085   4.476   4.168   4.318
 6707TIP3    H220086   4.366   4.267   4.285
 6708TIP3   OH220087   0.746   6.669   5.259
 6708TIP3    H120088   0.724   6.731   5.328
 6708TIP3    H220089   0.750   6.584   5.302
 6709TIP3   OH220090   0.226   3.826   3.217
 6709TIP3    H120091   0.306   3.839   3.269
 6709TIP3    H220092   0.249   3.758   3.154
 6710TIP3   OH220093   4.454   6.445   4.707
 6710TIP3    H120094   4.361   6.425   4.702
 6710TIP3    H220095   4.475   6.438   4.800
 6711TIP3   OH220096   2.987   1.679   5.130
 6711TIP3    H120097   3.056   1.735   5.165
 6711TIP3    H220098   2.959   1.722   5.049
 6712TIP3   OH220099   5.247   2.351   0.412
 6712TIP3    H120100   5.312   2.324   0.477
 6712TIP3    H220101   5.243   2.446   0.419
 6713TIP3   OH220102   0.352   0.970   0.625
 6713TIP3    H120103   0.294   0.923   0.685
 6713TIP3    H220104   0.307   1.054   0.609
 6714TIP3   OH220105   4.224   4.805   3.001
 6714TIP3    H120106   4.241   4.822   2.909
 6714TIP3    H220107   4.299   4.752   3.030
 6715TIP3   OH220108   1.954   5.460   2.370
 6715TIP3    H120109   2.002   5.487   2.449
 6715TIP3    H220110   1.873   5.421   2.404
 6716TIP3   OH220111   2.373   1.023   2.826
 6716TIP3    H120112   2.369   0.979   2.911
 6716TIP3    H220113   2.306   1.091   2.831
 6717TIP3   OH220114   5.695   3.875   0.543
 6717TIP3    H120115   5.709   3.960   0.585
 6717TIP3    H220116   5.668   3.817   0.614
 6718TIP3   OH220117   2.426   2.222   2.823
 6718TIP3    H120118   2.425   2.160   2.749
 6718TIP3    H220119   2.353   2.194   2.879
 6719TIP3   OH220120   3.483   2.877   0.677
 6719TIP3    H120121   3.390   2.884   0.700
 6719TIP3    H220122   3.508   2.966   0.654
 6720TIP3   OH220123   0.451   5.943   0.567
 6720TIP3    H120124   0.534   5.906   0.538
 6720TIP3    H220125   0.459   5.948   0.662
 6721TIP3   OH220126   6.857   0.833   3.823
 6721TIP3    H120127   6.830   0.881   3.745
 6721TIP3    H220128   6.776   0.815   3.870
 6722TIP3   OH220129   4.025   0.123   2.555
 6722TIP3    H120130   3.964   0.147   2.486
 6722TIP3    H220131   3.985   0.047   2.597
 6723TIP3   OH220132   3.830   1.800   0.341
 6723TIP3    H120133   3.871   1.747   0.409
 6723TIP3    H220134   3.827   1.888   0.379
 6724TIP3   OH220135   4.535   2.745   4.462
 6724TIP3    H120136   4.542   2.779   4.373
 6724TIP3    H220137   4.449   2.776   4.492
 6725TIP3   OH220138   4.912   6.485   4.249
 6725TIP3    H120139   4.857   6.558   4.221
 6725TIP3    H220140   4.874   6.408   4.207
 6726TIP3   OH220141   2.807   0.340   0.541
 6726TIP3    H120142   2.734   0.299   0.588
 6726TIP3    H220143   2.846   0.270   0.490
 6727TIP3   OH220144   2.209   3.239   0.460
 6727TIP3    H120145   2.221   3.332   0.444
 6727TIP3    H220146   2.297   3.205   0.476
 6728TIP3   OH220147   0.718   5.442   3.486
 6728TIP3    H120148   0.649   5.386   3.449
 6728TIP3    H220149   0.785   5.381   3.516
 6729TIP3   OH220150   2.807   2.563   4.634
 6729TIP3    H120151   2.718   2.545   4.604
 6729TIP3    H220152   2.846   2.476   4.643
 6730TIP3   OH220153   6.236   0.889   5.605
 6730TIP3    H120154   6.178   0.963   5.589
 6730TIP3    H220155   6.259   0.856   5.518
 6731TIP3   OH220156   1.052   3.286   4.069
 6731TIP3    H120157   1.103   3.366   4.081
 6731TIP3    H220158   0.979   3.312   4.013
 6732TIP3   OH220159   2.814   3.457   4.184
 6732TIP3    H120160   2.756   3.448   4.108
 6732TIP3    H220161   2.879   3.521   4.155
 6733TIP3   OH220162   0.204   6.607   3.040
 6733TIP3    H120163   0.282   6.566   3.001
 6733TIP3    H220164   0.192   6.687   2.988
 6734TIP3   OH220165   3.620   6.290   1.718
 6734TIP3    H120166   3.526   6.274   1.728
 6734TIP3    H220167   3.656   6.205   1.693
 6735TIP3   OH220168   3.887   4.354   3.916
 6735TIP3    H120169   3.868   4.296   3.843
 6735TIP3    H220170   3.981   4.342   3.932
 6736TIP3   OH220171   6.937   6.349   5.009
 6736TIP3    H120172   6.991   6.345   4.929
 6736TIP3    H220173   6.889   6.431   5.001
 6737TIP3   OH220174   0.872   2.973   4.411
 6737TIP3    H120175   0.880   3.061   4.375
 6737TIP3    H220176   0.962   2.949   4.435
 6738TIP3   OH220177   4.523   3.928   1.081
 6738TIP3    H120178   4.618   3.925   1.087
 6738TIP3    H220179   4.505   3.932   0.987
 6739TIP3   OH220180   0.185   3.048   1.984
 6739TIP3    H120181   0.117   3.102   1.944
 6739TIP3    H220182   0.266   3.078   1.943
 6740TIP3   OH220183   6.168   6.244   2.754
 6740TIP3    H120184   6.209   6.311   2.808
 6740TIP3    H220185   6.224   6.167   2.764
 6741TIP3   OH220186   1.107   4.621   1.522
 6741TIP3    H120187   1.142   4.706   1.548
 6741TIP3    H220188   1.179   4.560   1.534
 6742TIP3   OH220189   4.498   2.656   1.149
 6742TIP3    H120190   4.507   2.732   1.091
 6742TIP3    H220191   4.411   2.667   1.188
 6743TIP3   OH220192   3.698   0.425   0.605
 6743TIP3    H120193   3.729   0.338   0.576
 6743TIP3    H220194   3.777   0.471   0.632
 6744TIP3   OH220195   2.553   2.678   1.840
 6744TIP3    H120196   2.591   2.685   1.927
 6744TIP3    H220197   2.558   2.767   1.804
 6745TIP3   OH220198   5.212   4.590   2.506
 6745TIP3    H120199   5.247   4.501   2.512
 6745TIP3    H220200   5.118   4.578   2.489
 6746TIP3   OH220201   3.112   3.082   0.993
 6746TIP3    H120202   3.204   3.085   0.966
 6746TIP3    H220203   3.076   3.009   0.944
 6747TIP3   OH220204   4.489   5.889   1.996
 6747TIP3    H120205   4.575   5.903   1.955
 6747TIP3    H220206   4.500   5.923   2.085
 6748TIP3   OH220207   4.020   4.328   2.578
 6748TIP3    H120208   3.975   4.271   2.515
 6748TIP3    H220209   4.023   4.277   2.659
 6749TIP3   OH220210   6.747   1.105   4.323
 6749TIP3    H120211   6.654   1.102   4.346
 6749TIP3    H220212   6.786   1.161   4.390
 6750TIP3   OH220213   2.395   2.079   1.922
 6750TIP3    H120214   2.478   2.079   1.969
 6750TIP3    H220215   2.353   2.162   1.946
 6751TIP3   OH220216   1.277   5.487   3.061
 6751TIP3    H120217   1.187   5.454   3.068
 6751TIP3    H220218   1.332   5.413   3.086
 6752TIP3   OH220219   1.430   5.019   0.294
 6752TIP3    H120220   1.376   5.004   0.371
 6752TIP3    H220221   1.416   5.111   0.271
 6753TIP3   OH220222   5.557   4.782   4.834
 6753TIP3    H120223   5.637   4.732   4.851
 6753TIP3    H220224   5.498   4.720   4.791
 6754TIP3   OH220225   5.564   2.652   4.339
 6754TIP3    H120226   5.490   2.706   4.312
 6754TIP3    H220227   5.549   2.636   4.432
 6755TIP3   OH220228   1.173   0.823   3.209
 6755TIP3    H120229   1.239   0.757   3.190
 6755TIP3    H220230   1.185   0.890   3.143
 6756TIP3   OH220231   6.082   2.334   3.013
 6756TIP3    H120232   5.990   2.361   3.006
 6756TIP3    H220233   6.110   2.368   3.098
 6757TIP3   OH220234   1.166   5.437   1.689
 6757TIP3    H120235   1.244   5.473   1.730
 6757TIP3    H220236   1.199   5.386   1.615
 6758TIP3   OH220237   3.143   5.649   4.654
 6758TIP3    H120238   3.163   5.586   4.724
 6758TIP3    H220239   3.144   5.734   4.698
 6759TIP3   OH220240   1.111   0.917   4.641
 6759TIP3    H120241   1.149   0.854   4.579
 6759TIP3    H220242   1.023   0.932   4.607
 6760TIP3   OH220243   1.762   1.673   4.603
 6760TIP3    H120244   1.793   1.764   4.599
 6760TIP3    H220245   1.731   1.654   4.515
 6761TIP3   OH220246   4.548   4.685   4.902
 6761TIP3    H120247   4.560   4.761   4.959
 6761TIP3    H220248   4.627   4.633   4.915
 6762TIP3   OH220249   5.245   3.224   5.287
 6762TIP3    H120250   5.311   3.156   5.297
 6762TIP3    H220251   5.284   3.301   5.329
 6763TIP3   OH220252   1.776   4.113   0.584
 6763TIP3    H120253   1.793   4.020   0.567
 6763TIP3    H220254   1.697   4.113   0.639
 6764TIP3   OH220255   4.023   1.303   5.827
 6764TIP3    H120256   4.078   1.236   5.787
 6764TIP3    H220257   3.957   1.324   5.761
 6765TIP3   OH220258   3.924   1.949   2.085
 6765TIP3    H120259   3.940   2.044   2.083
 6765TIP3    H220260   3.902   1.931   2.176
 6766TIP3   OH220261   4.097   1.137   2.716
 6766TIP3    H120262   4.192   1.129   2.706
 6766TIP3    H220263   4.063   1.119   2.629
 6767TIP3   OH220264   3.332   1.431   5.472
 6767TIP3    H120265   3.406   1.370   5.469
 6767TIP3    H220266   3.372   1.516   5.488
 6768TIP3   OH220267   4.622   1.225   5.257
 6768TIP3    H120268   4.587   1.213   5.345
 6768TIP3    H220269   4.661   1.312   5.258
 6769TIP3   OH220270   1.500   5.331   0.480
 6769TIP3    H120271   1.430   5.395   0.471
 6769TIP3    H220272   1.507   5.291   0.393
 6770TIP3   OH220273   5.187   1.839   5.063
 6770TIP3    H120274   5.219   1.925   5.091
 6770TIP3    H220275   5.158   1.797   5.143
 6771TIP3   OH220276   0.798   0.435   2.972
 6771TIP3    H120277   0.777   0.342   2.970
 6771TIP3    H220278   0.738   0.474   2.908
 6772TIP3   OH220279   0.761   6.411   5.349
 6772TIP3    H120280   0.696   6.344   5.369
 6772TIP3    H220281   0.844   6.374   5.378
 6773TIP3   OH220282   4.789   1.414   2.346
 6773TIP3    H120283   4.749   1.479   2.288
 6773TIP3    H220284   4.848   1.465   2.402
 6774TIP3   OH220285   6.581   4.581   4.542
 6774TIP3    H120286   6.676   4.588   4.533
 6774TIP3    H220287   6.554   4.663   4.585
 6775TIP3   OH220288   1.764   2.692   4.280
 6775TIP3    H120289   1.825   2.634   4.235
 6775TIP3    H220290   1.747   2.649   4.364
 6776TIP3   OH220291   0.619   1.751   0.276
 6776TIP3    H120292   0.674   1.811   0.328
 6776TIP3    H220293   0.551   1.807   0.240
 6777TIP3   OH220294   4.286   2.916   5.233
 6777TIP3    H120295   4.288   2.888   5.142
 6777TIP3    H220296   4.276   3.011   5.229
 6778TIP3   OH220297   6.463   1.456   3.151
 6778TIP3    H120298   6.546   1.409   3.140
 6778TIP3    H220299   6.468   1.492   3.240
 6779TIP3   OH220300   0.469   1.330   5.704
 6779TIP3    H120301   0.498   1.331   5.795
 6779TIP3    H220302   0.424   1.246   5.694
 6780TIP3   OH220303   3.592   2.023   1.613
 6780TIP3    H120304   3.539   1.943   1.614
 6780TIP3    H220305   3.682   1.991   1.621
 6781TIP3   OH220306   1.657   3.749   1.707
 6781TIP3    H120307   1.631   3.820   1.648
 6781TIP3    H220308   1.742   3.721   1.675
 6782TIP3   OH220309   5.297   3.664   5.245
 6782TIP3    H120310   5.244   3.672   5.166
 6782TIP3    H220311   5.348   3.745   5.248
 6783TIP3   OH220312   3.615   0.639   1.465
 6783TIP3    H120313   3.645   0.698   1.535
 6783TIP3    H220314   3.529   0.674   1.439
 6784TIP3   OH220315   4.578   2.932   1.779
 6784TIP3    H120316   4.559   3.024   1.798
 6784TIP3    H220317   4.494   2.887   1.791
 6785TIP3   OH220318   5.260   5.863   3.727
 6785TIP3    H120319   5.297   5.949   3.750
 6785TIP3    H220320   5.336   5.812   3.700
 6786TIP3   OH220321   7.119   6.655   2.704
 6786TIP3    H120322   7.024   6.652   2.708
 6786TIP3    H220323   7.139   6.729   2.647
 6787TIP3   OH220324   3.776   4.771   3.148
 6787TIP3    H120325   3.693   4.723   3.145
 6787TIP3    H220326   3.757   4.854   3.103
 6788TIP3   OH220327   6.752   1.469   1.730
 6788TIP3    H120328   6.759   1.556   1.771
 6788TIP3    H220329   6.723   1.412   1.801
 6789TIP3   OH220330   5.436   0.099   3.900
 6789TIP3    H120331   5.496   0.094   3.825
 6789TIP3    H220332   5.377   0.025   3.889
 6790TIP3   OH220333   6.802   4.918   0.182
 6790TIP3    H120334   6.741   4.982   0.146
 6790TIP3    H220335   6.751   4.871   0.247
 6791TIP3   OH220336   1.690   0.949   4.544
 6791TIP3    H120337   1.782   0.974   4.533
 6791TIP3    H220338   1.658   1.007   4.613
 6792TIP3   OH220339   5.209   3.738   3.317
 6792TIP3    H120340   5.144   3.686   3.270
 6792TIP3    H220341   5.212   3.821   3.270
 6793TIP3   OH220342   6.458   3.260   3.267
 6793TIP3    H120343   6.496   3.179   3.301
 6793TIP3    H220344   6.532   3.312   3.238
 6794TIP3   OH220345   2.749   0.845   1.007
 6794TIP3    H120346   2.703   0.841   1.090
 6794TIP3    H220347   2.771   0.937   0.996
 6795TIP3   OH220348   3.641   2.176   2.916
 6795TIP3    H120349   3.696   2.100   2.897
 6795TIP3    H220350   3.665   2.240   2.849
 6796TIP3   OH220351   6.184   1.172   3.994
 6796TIP3    H120352   6.152   1.175   4.084
 6796TIP3    H220353   6.109   1.198   3.941
 6797TIP3   OH220354   5.631   4.242   3.927
 6797TIP3    H120355   5.566   4.310   3.909
 6797TIP3    H220356   5.680   4.275   4.002
 6798TIP3   OH220357   6.717   4.328   3.681
 6798TIP3    H120358   6.775   4.296   3.750
 6798TIP3    H220359   6.691   4.249   3.633
 6799TIP3   OH220360   6.511   2.438   4.275
 6799TIP3    H120361   6.556   2.423   4.358
 6799TIP3    H220362   6.582   2.446   4.210
 6800TIP3   OH220363   6.761   2.486   4.385
 6800TIP3    H120364   6.818   2.420   4.347
 6800TIP3    H220365   6.770   2.475   4.480
 6801TIP3   OH220366   6.112   4.097   5.241
 6801TIP3    H120367   6.056   4.141   5.178
 6801TIP3    H220368   6.110   4.005   5.216
 6802TIP3   OH220369   6.149   6.685   0.482
 6802TIP3    H120370   6.095   6.609   0.462
 6802TIP3    H220371   6.111   6.757   0.431
 6803TIP3   OH220372   6.787   4.443   0.297
 6803TIP3    H120373   6.796   4.443   0.202
 6803TIP3    H220374   6.821   4.528   0.324
 6804TIP3   OH220375   7.031   5.144   5.831
 6804TIP3    H120376   7.041   5.057   5.793
 6804TIP3    H220377   7.085   5.142   5.910
 6805TIP3   OH220378   4.970   1.828   2.971
 6805TIP3    H120379   5.011   1.851   3.055
 6805TIP3    H220380   4.912   1.901   2.953
 6806TIP3   OH220381   1.209   3.591   1.585
 6806TIP3    H120382   1.124   3.599   1.629
 6806TIP3    H220383   1.273   3.620   1.650
 6807TIP3   OH220384   1.250   5.525   3.384
 6807TIP3    H120385   1.213   5.563   3.303
 6807TIP3    H220386   1.344   5.532   3.372
 6808TIP3   OH220387   7.040   4.604   5.179
 6808TIP3    H120388   7.088   4.659   5.117
 6808TIP3    H220389   6.956   4.589   5.136
 6809TIP3   OH220390   3.486   5.841   5.200
 6809TIP3    H120391   3.582   5.839   5.198
 6809TIP3    H220392   3.463   5.789   5.277
 6810TIP3   OH220393   1.800   5.303   4.614
 6810TIP3    H120394   1.740   5.371   4.585
 6810TIP3    H220395   1.877   5.313   4.558
 6811TIP3   OH220396   2.445   0.473   5.137
 6811TIP3    H120397   2.388   0.400   5.114
 6811TIP3    H220398   2.533   0.444   5.109
 6812TIP3   OH220399   5.547   1.091   0.490
 6812TIP3    H120400   5.462   1.104   0.533
 6812TIP3    H220401   5.525   1.054   0.405
 6813TIP3   OH220402   4.372   4.179   5.489
 6813TIP3    H120403   4.298   4.236   5.509
 6813TIP3    H220404   4.441   4.207   5.549
 6814TIP3   OH220405   1.733   2.305   1.331
 6814TIP3    H120406   1.727   2.358   1.251
 6814TIP3    H220407   1.787   2.358   1.391
 6815TIP3   OH220408   2.965   0.812   4.989
 6815TIP3    H120409   3.030   0.763   4.939
 6815TIP3    H220410   3.008   0.894   5.011
 6816TIP3   OH220411   4.299   1.723   3.089
 6816TIP3    H120412   4.331   1.786   3.153
 6816TIP3    H220413   4.375   1.705   3.033
 6817TIP3   OH220414   5.447   6.179   1.879
 6817TIP3    H120415   5.359   6.151   1.855
 6817TIP3    H220416   5.466   6.133   1.961
 6818TIP3   OH220417   3.136   3.562   1.182
 6818TIP3    H120418   3.084   3.604   1.114
 6818TIP3    H220419   3.129   3.468   1.163
 6819TIP3   OH220420   4.375   1.353   0.547
 6819TIP3    H120421   4.442   1.422   0.549
 6819TIP3    H220422   4.415   1.280   0.596
 6820TIP3   OH220423   1.131   6.545   1.643
 6820TIP3    H120424   1.186   6.467   1.632
 6820TIP3    H220425   1.194   6.616   1.661
 6821TIP3   OH220426   4.255   1.391   3.536
 6821TIP3    H120427   4.192   1.370   3.467
 6821TIP3    H220428   4.284   1.306   3.569
 6822TIP3   OH220429   6.839   3.904   3.033
 6822TIP3    H120430   6.827   3.845   2.958
 6822TIP3    H220431   6.899   3.857   3.091
 6823TIP3   OH220432   6.895   0.632   0.103
 6823TIP3    H120433   6.843   0.705   0.069
 6823TIP3    H220434   6.983   0.669   0.115
 6824TIP3   OH220435   0.506   1.013   4.367
 6824TIP3    H120436   0.415   1.027   4.395
 6824TIP3    H220437   0.500   1.000   4.273
 6825TIP3   OH220438   2.407   0.466   5.571
 6825TIP3    H120439   2.330   0.411   5.554
 6825TIP3    H220440   2.482   0.408   5.557
 6826TIP3   OH220441   7.150   2.411   4.909
 6826TIP3    H120442   7.064   2.371   4.923
 6826TIP3    H220443   7.202   2.385   4.985
 6827TIP3   OH220444   6.868   0.343   0.611
 6827TIP3    H120445   6.787   0.291   0.611
 6827TIP3    H220446   6.846   0.422   0.660
 6828TIP3   OH220447   7.126   4.390   4.604
 6828TIP3    H120448   7.195   4.324   4.613
 6828TIP3    H220449   7.160   4.467   4.650
 6829TIP3   OH220450   3.418   6.618   2.796
 6829TIP3    H120451   3.472   6.628   2.717
 6829TIP3    H220452   3.353   6.552   2.772
 6830TIP3   OH220453   5.654   5.609   5.257
 6830TIP3    H120454   5.605   5.645   5.331
 6830TIP3    H220455   5.741   5.649   5.263
 6831TIP3   OH220456   4.911   1.144   4.729
 6831TIP3    H120457   4.964   1.134   4.809
 6831TIP3    H220458   4.883   1.055   4.708
 6832TIP3   OH220459   3.156   5.764   3.547
 6832TIP3    H120460   3.228   5.718   3.590
 6832TIP3    H220461   3.124   5.826   3.613
 6833TIP3   OH220462   1.553   6.221   4.770
 6833TIP3    H120463   1.645   6.224   4.797
 6833TIP3    H220464   1.541   6.133   4.735
 6834TIP3   OH220465   0.306   2.944   3.803
 6834TIP3    H120466   0.228   2.941   3.748
 6834TIP3    H220467   0.274   2.925   3.891
 6835TIP3   OH220468   5.161   6.375   2.098
 6835TIP3    H120469   5.145   6.464   2.065
 6835TIP3    H220470   5.256   6.365   2.098
 6836TIP3   OH220471   3.608   0.813   5.295
 6836TIP3    H120472   3.553   0.887   5.267
 6836TIP3    H220473   3.663   0.794   5.219
 6837TIP3   OH220474   3.911   3.894   5.429
 6837TIP3    H120475   3.988   3.844   5.455
 6837TIP3    H220476   3.867   3.838   5.364
 6838TIP3   OH220477   1.956   1.176   5.390
 6838TIP3    H120478   2.015   1.125   5.446
 6838TIP3    H220479   1.916   1.111   5.332
 6839TIP3   OH220480   6.045   3.773   4.019
 6839TIP3    H120481   6.096   3.791   4.098
 6839TIP3    H220482   6.024   3.680   4.025
 6840TIP3   OH220483   0.894   4.320   5.074
 6840TIP3    H120484   0.981   4.346   5.044
 6840TIP3    H220485   0.876   4.376   5.149
 6841TIP3   OH220486   2.200   4.092   3.335
 6841TIP3    H120487   2.240   4.106   3.420
 6841TIP3    H220488   2.273   4.067   3.277
 6842TIP3   OH220489   4.690   4.463   4.583
 6842TIP3    H120490   4.602   4.426   4.580
 6842TIP3    H220491   4.677   4.557   4.591
 6843TIP3   OH220492   4.036   4.169   3.378
 6843TIP3    H120493   4.000   4.146   3.464
 6843TIP3    H220494   4.128   4.190   3.396
 6844TIP3   OH220495   5.709   5.287   2.732
 6844TIP3    H120496   5.734   5.320   2.645
 6844TIP3    H220497   5.614   5.291   2.732
 6845TIP3   OH220498   7.202   4.155   1.795
 6845TIP3    H120499   7.117   4.131   1.833
 6845TIP3    H220500   7.201   4.251   1.793
 6846TIP3   OH220501   6.207   3.481   4.638
 6846TIP3    H120502   6.257   3.525   4.569
 6846TIP3    H220503   6.220   3.535   4.716
 6847TIP3   OH220504   3.004   2.782   5.677
 6847TIP3    H120505   3.001   2.753   5.768
 6847TIP3    H220506   3.067   2.855   5.678
 6848TIP3   OH220507   3.963   0.175   2.959
 6848TIP3    H120508   3.966   0.262   2.919
 6848TIP3    H220509   3.873   0.168   2.993
 6849TIP3   OH220510   5.622   6.011   3.527
 6849TIP3    H120511   5.610   6.063   3.447
 6849TIP3    H220512   5.543   5.957   3.532
 6850TIP3   OH220513   5.346   4.042   4.538
 6850TIP3    H120514   5.316   3.951   4.548
 6850TIP3    H220515   5.352   4.055   4.444
 6851TIP3   OH220516   7.019   2.534   1.569
 6851TIP3    H120517   7.002   2.473   1.498
 6851TIP3    H220518   6.933   2.570   1.591
 6852TIP3   OH220519   0.392   1.392   0.729
 6852TIP3    H120520   0.402   1.348   0.813
 6852TIP3    H220521   0.304   1.366   0.699
 6853TIP3   OH220522   3.891   4.499   2.124
 6853TIP3    H120523   3.931   4.472   2.041
 6853TIP3    H220524   3.894   4.420   2.178
 6854TIP3   OH220525   0.444   0.080   4.932
 6854TIP3    H120526   0.435   0.050   5.022
 6854TIP3    H220527   0.356   0.075   4.895
 6855TIP3   OH220528   4.361   3.328   2.192
 6855TIP3    H120529   4.404   3.413   2.181
 6855TIP3    H220530   4.287   3.347   2.250
 6856TIP3   OH220531   4.160   4.029   0.786
 6856TIP3    H120532   4.179   4.121   0.805
 6856TIP3    H220533   4.172   3.984   0.869
 6857TIP3   OH220534   3.756   0.677   1.972
 6857TIP3    H120535   3.735   0.587   1.945
 6857TIP3    H220536   3.686   0.730   1.935
 6858TIP3   OH220537   4.284   1.741   2.034
 6858TIP3    H120538   4.247   1.818   1.991
 6858TIP3    H220539   4.334   1.777   2.108
 6859TIP3   OH220540   1.670   0.302   4.817
 6859TIP3    H120541   1.679   0.239   4.889
 6859TIP3    H220542   1.699   0.254   4.740
 6860TIP3   OH220543   6.499   6.534   0.156
 6860TIP3    H120544   6.526   6.615   0.199
 6860TIP3    H220545   6.418   6.508   0.200
 6861TIP3   OH220546   5.396   2.559   1.831
 6861TIP3    H120547   5.411   2.653   1.822
 6861TIP3    H220548   5.437   2.535   1.914
 6862TIP3   OH220549   5.889   0.680   4.126
 6862TIP3    H120550   5.934   0.762   4.103
 6862TIP3    H220551   5.859   0.645   4.042
 6863TIP3   OH220552   0.413   6.237   1.292
 6863TIP3    H120553   0.489   6.185   1.264
 6863TIP3    H220554   0.403   6.303   1.224
 6864TIP3   OH220555   5.455   2.377   5.611
 6864TIP3    H120556   5.430   2.467   5.592
 6864TIP3    H220557   5.379   2.325   5.584
 6865TIP3   OH220558   6.897   0.361   1.491
 6865TIP3    H120559   6.835   0.415   1.441
 6865TIP3    H220560   6.928   0.296   1.428
 6866TIP3   OH220561   5.513   4.415   5.113
 6866TIP3    H120562   5.582   4.366   5.160
 6866TIP3    H220563   5.544   4.418   5.022
 6867TIP3   OH220564   3.113   3.826   0.732
 6867TIP3    H120565   3.145   3.774   0.659
 6867TIP3    H220566   3.112   3.916   0.699
 6868TIP3   OH220567   6.303   2.752   3.368
 6868TIP3    H120568   6.393   2.731   3.342
 6868TIP3    H220569   6.271   2.811   3.300
 6869TIP3   OH220570   1.765   3.735   1.104
 6869TIP3    H120571   1.836   3.798   1.117
 6869TIP3    H220572   1.756   3.728   1.009
 6870TIP3   OH220573   3.573   0.625   0.452
 6870TIP3    H120574   3.612   0.541   0.477
 6870TIP3    H220575   3.550   0.614   0.360
 6871TIP3   OH220576   5.172   0.132   2.172
 6871TIP3    H120577   5.112   0.165   2.105
 6871TIP3    H220578   5.249   0.104   2.122
 6872TIP3   OH220579   7.047   3.333   4.273
 6872TIP3    H120580   7.037   3.324   4.368
 6872TIP3    H220581   7.133   3.296   4.255
 6873TIP3   OH220582   6.273   5.805   4.810
 6873TIP3    H120583   6.266   5.890   4.767
 6873TIP3    H220584   6.323   5.751   4.748
 6874TIP3   OH220585   1.000   3.375   5.039
 6874TIP3    H120586   0.997   3.282   5.063
 6874TIP3    H220587   0.962   3.379   4.951
 6875TIP3   OH220588   0.504   0.904   4.669
 6875TIP3    H120589   0.542   0.885   4.754
 6875TIP3    H220590   0.539   0.837   4.611
 6876TIP3   OH220591   4.806   3.761   0.994
 6876TIP3    H120592   4.807   3.832   1.058
 6876TIP3    H220593   4.809   3.806   0.909
 6877TIP3   OH220594   0.644   1.625   2.648
 6877TIP3    H120595   0.739   1.624   2.631
 6877TIP3    H220596   0.635   1.587   2.736
 6878TIP3   OH220597   2.406   0.905   3.343
 6878TIP3    H120598   2.390   0.972   3.276
 6878TIP3    H220599   2.450   0.835   3.295
 6879TIP3   OH220600   4.162   4.357   5.492
 6879TIP3    H120601   4.091   4.417   5.515
 6879TIP3    H220602   4.117   4.278   5.462
 6880TIP3   OH220603   2.114   5.825   1.952
 6880TIP3    H120604   2.059   5.747   1.940
 6880TIP3    H220605   2.122   5.835   2.047
 6881TIP3   OH220606   6.820   1.878   0.894
 6881TIP3    H120607   6.839   1.791   0.929
 6881TIP3    H220608   6.862   1.939   0.955
 6882TIP3   OH220609   3.603   3.623   4.211
 6882TIP3    H120610   3.656   3.674   4.272
 6882TIP3    H220611   3.527   3.595   4.262
 6883TIP3   OH220612   5.870   4.850   0.257
 6883TIP3    H120613   5.885   4.934   0.300
 6883TIP3    H220614   5.909   4.785   0.317
 6884TIP3   OH220615   2.126   5.217   1.909
 6884TIP3    H120616   2.101   5.238   1.999
 6884TIP3    H220617   2.222   5.217   1.911
 6885TIP3   OH220618   1.489   2.750   2.901
 6885TIP3    H120619   1.576   2.767   2.937
 6885TIP3    H220620   1.499   2.671   2.848
 6886TIP3   OH220621   6.827   5.625   1.517
 6886TIP3    H120622   6.734   5.631   1.539
 6886TIP3    H220623   6.829   5.612   1.422
 6887TIP3   OH220624   6.055   0.743   0.834
 6887TIP3    H120625   6.018   0.715   0.918
 6887TIP3    H220626   6.140   0.781   0.856
 6888TIP3   OH220627   1.599   0.328   2.797
 6888TIP3    H120628   1.564   0.269   2.862
 6888TIP3    H220629   1.598   0.414   2.839
 6889TIP3   OH220630   2.799   3.241   2.817
 6889TIP3    H120631   2.889   3.211   2.811
 6889TIP3    H220632   2.751   3.166   2.853
 6890TIP3   OH220633   1.246   2.095   1.917
 6890TIP3    H120634   1.302   2.128   1.988
 6890TIP3    H220635   1.300   2.032   1.871
 6891TIP3   OH220636   2.824   0.723   2.980
 6891TIP3    H120637   2.772   0.798   3.009
 6891TIP3    H220638   2.824   0.731   2.884
 6892TIP3   OH220639   6.745   1.231   0.221
 6892TIP3    H120640   6.773   1.320   0.201
 6892TIP3    H220641   6.741   1.187   0.136
 6893TIP3   OH220642   6.468   5.658   3.412
 6893TIP3    H120643   6.534   5.699   3.467
 6893TIP3    H220644   6.431   5.729   3.360
 6894TIP3   OH220645   5.509   5.781   4.018
 6894TIP3    H120646   5.438   5.831   3.978
 6894TIP3    H220647   5.550   5.735   3.944
 6895TIP3   OH220648   5.137   1.272   3.470
 6895TIP3    H120649   5.048   1.308   3.471
 6895TIP3    H220650   5.129   1.190   3.520
 6896TIP3   OH220651   0.550   6.082   4.185
 6896TIP3    H120652   0.483   6.092   4.252
 6896TIP3    H220653   0.502   6.054   4.107
 6897TIP3   OH220654   1.414   3.238   4.497
 6897TIP3    H120655   1.423   3.293   4.419
 6897TIP3    H220656   1.375   3.157   4.464
 6898TIP3   OH220657   3.925   6.217   1.322
 6898TIP3    H120658   3.853   6.154   1.322
 6898TIP3    H220659   3.886   6.297   1.286
 6899TIP3   OH220660   4.445   1.549   1.262
 6899TIP3    H120661   4.355   1.560   1.231
 6899TIP3    H220662   4.494   1.521   1.184
 6900TIP3   OH220663   0.641   0.795   1.511
 6900TIP3    H120664   0.661   0.831   1.597
 6900TIP3    H220665   0.549   0.769   1.517
 6901TIP3   OH220666   5.821   3.573   0.875
 6901TIP3    H120667   5.864   3.539   0.953
 6901TIP3    H220668   5.798   3.663   0.898
 6902TIP3   OH220669   0.988   5.660   0.060
 6902TIP3    H120670   0.894   5.679   0.055
 6902TIP3    H220671   1.021   5.679  -0.029
 6903TIP3   OH220672   3.728   3.530   2.996
 6903TIP3    H120673   3.695   3.580   3.071
 6903TIP3    H220674   3.651   3.486   2.960
 6904TIP3   OH220675   3.046   0.894   5.410
 6904TIP3    H120676   3.109   0.916   5.479
 6904TIP3    H220677   3.099   0.889   5.330
 6905TIP3   OH220678   0.815   5.222   4.169
 6905TIP3    H120679   0.752   5.286   4.200
 6905TIP3    H220680   0.783   5.198   4.082
 6906TIP3   OH220681   7.075   5.866   0.954
 6906TIP3    H120682   7.035   5.779   0.944
 6906TIP3    H220683   7.152   5.864   0.898
 6907TIP3   OH220684   2.517   6.186   0.437
 6907TIP3    H120685   2.517   6.149   0.349
 6907TIP3    H220686   2.609   6.186   0.464
 6908TIP3   OH220687   6.573   1.003   4.947
 6908TIP3    H120688   6.665   0.995   4.973
 6908TIP3    H220689   6.574   1.068   4.877
 6909TIP3   OH220690   5.770   5.139   2.949
 6909TIP3    H120691   5.851   5.097   2.922
 6909TIP3    H220692   5.731   5.172   2.868
 6910TIP3   OH220693   5.761   3.551   2.162
 6910TIP3    H120694   5.855   3.562   2.149
 6910TIP3    H220695   5.728   3.520   2.078
 6911TIP3   OH220696   5.382   6.661   4.515
 6911TIP3    H120697   5.391   6.588   4.453
 6911TIP3    H220698   5.425   6.735   4.472
 6912TIP3   OH220699   3.494   2.685   1.838
 6912TIP3    H120700   3.446   2.767   1.854
 6912TIP3    H220701   3.514   2.687   1.744
 6913TIP3   OH220702   6.189   2.242   5.323
 6913TIP3    H120703   6.192   2.336   5.341
 6913TIP3    H220704   6.190   2.236   5.227
 6914TIP3   OH220705   7.071   6.265   0.922
 6914TIP3    H120706   7.127   6.298   0.993
 6914TIP3    H220707   7.022   6.193   0.962
 6915TIP3   OH220708   1.176   2.197   1.321
 6915TIP3    H120709   1.082   2.190   1.305
 6915TIP3    H220710   1.188   2.165   1.410
 6916TIP3   OH220711   0.856   3.247   0.453
 6916TIP3    H120712   0.927   3.271   0.513
 6916TIP3    H220713   0.894   3.256   0.366
 6917TIP3   OH220714   0.647   4.994   2.602
 6917TIP3    H120715   0.616   5.059   2.539
 6917TIP3    H220716   0.646   5.041   2.686
 6918TIP3   OH220717   1.063   1.003   1.419
 6918TIP3    H120718   1.132   0.996   1.354
 6918TIP3    H220719   1.107   1.040   1.496
 6919TIP3   OH220720   0.806   1.947   5.675
 6919TIP3    H120721   0.808   1.977   5.584
 6919TIP3    H220722   0.777   1.856   5.670
 6920TIP3   OH220723   5.042   4.416   0.271
 6920TIP3    H120724   5.027   4.343   0.331
 6920TIP3    H220725   4.954   4.441   0.242
 6921TIP3   OH220726   1.778   2.246   5.193
 6921TIP3    H120727   1.861   2.242   5.145
 6921TIP3    H220728   1.803   2.232   5.285
 6922TIP3   OH220729   1.731   0.324   5.245
 6922TIP3    H120730   1.800   0.336   5.180
 6922TIP3    H220731   1.721   0.229   5.252
 6923TIP3   OH220732   0.972   4.990   4.230
 6923TIP3    H120733   0.949   4.905   4.192
 6923TIP3    H220734   0.912   5.052   4.187
 6924TIP3   OH220735   0.631   3.658   3.142
 6924TIP3    H120736   0.639   3.568   3.173
 6924TIP3    H220737   0.720   3.682   3.117
 6925TIP3   OH220738   2.452   5.628   5.202
 6925TIP3    H120739   2.531   5.633   5.148
 6925TIP3    H220740   2.381   5.655   5.144
 6926TIP3   OH220741   5.698   2.287   5.532
 6926TIP3    H120742   5.615   2.331   5.547
 6926TIP3    H220743   5.674   2.202   5.495
 6927TIP3   OH220744   2.879   0.761   3.904
 6927TIP3    H120745   2.876   0.749   3.999
 6927TIP3    H220746   2.797   0.721   3.873
 6928TIP3   OH220747   1.074   1.687   4.377
 6928TIP3    H120748   1.039   1.776   4.373
 6928TIP3    H220749   1.040   1.644   4.299
 6929TIP3   OH220750   4.627   6.413   1.266
 6929TIP3    H120751   4.591   6.431   1.179
 6929TIP3    H220752   4.599   6.323   1.285
 6930TIP3   OH220753   4.142   0.384   1.529
 6930TIP3    H120754   4.053   0.352   1.513
 6930TIP3    H220755   4.150   0.383   1.625
 6931TIP3   OH220756   4.273   0.821   3.320
 6931TIP3    H120757   4.188   0.809   3.364
 6931TIP3    H220758   4.276   0.914   3.300
 6932TIP3   OH220759   4.991   5.222   2.155
 6932TIP3    H120760   4.961   5.133   2.172
 6932TIP3    H220761   5.086   5.218   2.169
 6933TIP3   OH220762   3.407   2.156   4.471
 6933TIP3    H120763   3.472   2.148   4.541
 6933TIP3    H220764   3.402   2.250   4.454
 6934TIP3   OH220765   3.939   2.749   2.255
 6934TIP3    H120766   3.864   2.776   2.308
 6934TIP3    H220767   4.015   2.777   2.305
 6935TIP3   OH220768   6.067   2.861   4.592
 6935TIP3    H120769   6.026   2.919   4.657
 6935TIP3    H220770   6.146   2.829   4.635
 6936TIP3   OH220771   4.108   4.161   4.094
 6936TIP3    H120772   4.065   4.177   4.177
 6936TIP3    H220773   4.191   4.118   4.118
 6937TIP3   OH220774   0.904   6.412   5.716
 6937TIP3    H120775   0.820   6.369   5.697
 6937TIP3    H220776   0.925   6.385   5.805
 6938TIP3   OH220777   4.244   3.910   1.062
 6938TIP3    H120778   4.330   3.869   1.050
 6938TIP3    H220779   4.182   3.847   1.025
 6939TIP3   OH220780   6.663   1.873   4.586
 6939TIP3    H120781   6.688   1.904   4.499
 6939TIP3    H220782   6.737   1.819   4.614
 6940TIP3   OH220783   7.031   3.914   5.693
 6940TIP3    H120784   6.960   3.979   5.695
 6940TIP3    H220785   7.098   3.953   5.638
 6941TIP3   OH220786   5.616   1.340   3.424
 6941TIP3    H120787   5.542   1.372   3.372
 6941TIP3    H220788   5.579   1.271   3.479
 6942TIP3   OH220789   4.433   6.251   1.563
 6942TIP3    H120790   4.499   6.312   1.530
 6942TIP3    H220791   4.454   6.243   1.656
 6943TIP3   OH220792   1.099   2.181   0.264
 6943TIP3    H120793   1.134   2.116   0.325
 6943TIP3    H220794   1.097   2.263   0.315
 6944TIP3   OH220795   3.060   2.722   4.393
 6944TIP3    H120796   2.989   2.786   4.402
 6944TIP3    H220797   3.070   2.686   4.482
 6945TIP3   OH220798   7.170   4.789   5.034
 6945TIP3    H120799   7.176   4.764   4.941
 6945TIP3    H220800   7.152   4.883   5.032
 6946TIP3   OH220801   0.377   2.348   1.085
 6946TIP3    H120802   0.452   2.398   1.117
 6946TIP3    H220803   0.397   2.333   0.992
 6947TIP3   OH220804   6.913   0.151   4.595
 6947TIP3    H120805   6.964   0.076   4.624
 6947TIP3    H220806   6.839   0.112   4.547
 6948TIP3   OH220807   4.634   0.690   1.787
 6948TIP3    H120808   4.685   0.644   1.853
 6948TIP3    H220809   4.543   0.672   1.811
 6949TIP3   OH220810   4.068   2.470   2.394
 6949TIP3    H120811   4.153   2.505   2.368
 6949TIP3    H220812   4.089   2.388   2.439
 6950TIP3   OH220813   0.132   3.326   5.600
 6950TIP3    H120814   0.116   3.305   5.508
 6950TIP3    H220815   0.115   3.420   5.607
 6951TIP3   OH220816   3.382   0.954   3.487
 6951TIP3    H120817   3.474   0.975   3.472
 6951TIP3    H220818   3.334   1.013   3.430
 6952TIP3   OH220819   7.088   5.441   5.875
 6952TIP3    H120820   7.183   5.433   5.880
 6952TIP3    H220821   7.058   5.355   5.845
 6953TIP3   OH220822   1.387   5.615   5.378
 6953TIP3    H120823   1.376   5.697   5.427
 6953TIP3    H220824   1.307   5.607   5.327
 6954TIP3   OH220825   2.188   6.475   5.356
 6954TIP3    H120826   2.243   6.400   5.381
 6954TIP3    H220827   2.177   6.466   5.262
 6955TIP3   OH220828   6.510   4.265   3.184
 6955TIP3    H120829   6.431   4.248   3.236
 6955TIP3    H220830   6.546   4.179   3.167
 6956TIP3   OH220831   0.759   0.669   5.474
 6956TIP3    H120832   0.779   0.740   5.414
 6956TIP3    H220833   0.674   0.636   5.445
 6957TIP3   OH220834   7.145   1.000   0.265
 6957TIP3    H120835   7.117   1.069   0.324
 6957TIP3    H220836   7.083   1.004   0.192
 6958TIP3   OH220837   7.037   1.301   3.765
 6958TIP3    H120838   7.130   1.321   3.778
 6958TIP3    H220839   7.028   1.288   3.670
 6959TIP3   OH220840   1.911   6.322   5.498
 6959TIP3    H120841   1.929   6.301   5.406
 6959TIP3    H220842   1.883   6.413   5.497
 6960TIP3   OH220843   1.676   2.560   5.616
 6960TIP3    H120844   1.652   2.481   5.568
 6960TIP3    H220845   1.593   2.601   5.637
 6961TIP3   OH220846   2.009   1.499   3.076
 6961TIP3    H120847   2.037   1.535   2.992
 6961TIP3    H220848   2.081   1.520   3.136
 6962TIP3   OH220849   0.807   5.292   1.076
 6962TIP3    H120850   0.723   5.309   1.119
 6962TIP3    H220851   0.852   5.233   1.137
 6963TIP3   OH220852   6.179   1.962   0.110
 6963TIP3    H120853   6.121   1.886   0.116
 6963TIP3    H220854   6.165   1.996   0.022
 6964TIP3   OH220855   5.539   5.644   3.031
 6964TIP3    H120856   5.472   5.696   3.075
 6964TIP3    H220857   5.505   5.555   3.032
 6965TIP3   OH220858   1.438   0.538   3.362
 6965TIP3    H120859   1.360   0.483   3.355
 6965TIP3    H220860   1.435   0.594   3.284
 6966TIP3   OH220861   2.473   4.615   0.066
 6966TIP3    H120862   2.396   4.671   0.060
 6966TIP3    H220863   2.452   4.540   0.011
 6967TIP3   OH220864   2.394   4.023   3.129
 6967TIP3    H120865   2.410   4.040   3.037
 6967TIP3    H220866   2.479   3.997   3.164
 6968TIP3   OH220867   6.837   1.666   1.068
 6968TIP3    H120868   6.755   1.697   1.106
 6968TIP3    H220869   6.865   1.595   1.126
 6969TIP3   OH220870   1.538   3.254   5.570
 6969TIP3    H120871   1.554   3.186   5.505
 6969TIP3    H220872   1.598   3.233   5.641
 6970TIP3   OH220873   1.293   1.503   4.402
 6970TIP3    H120874   1.257   1.446   4.334
 6970TIP3    H220875   1.228   1.573   4.412
 6971TIP3   OH220876   4.521   4.703   0.763
 6971TIP3    H120877   4.551   4.722   0.674
 6971TIP3    H220878   4.505   4.790   0.801
 6972TIP3   OH220879   6.455   1.262   3.809
 6972TIP3    H120880   6.417   1.178   3.785
 6972TIP3    H220881   6.447   1.266   3.904
 6973TIP3   OH220882   6.229   4.543   0.111
 6973TIP3    H120883   6.310   4.505   0.077
 6973TIP3    H220884   6.180   4.568   0.032
 6974TIP3   OH220885   6.396   1.110   1.349
 6974TIP3    H120886   6.322   1.107   1.410
 6974TIP3    H220887   6.366   1.167   1.277
 6975TIP3   OH220888   1.593   0.820   4.140
 6975TIP3    H120889   1.672   0.867   4.166
 6975TIP3    H220890   1.538   0.820   4.219
 6976TIP3   OH220891   1.402   4.026   1.802
 6976TIP3    H120892   1.464   4.077   1.749
 6976TIP3    H220893   1.317   4.065   1.783
 6977TIP3   OH220894   1.216   3.893   4.624
 6977TIP3    H120895   1.170   3.811   4.646
 6977TIP3    H220896   1.257   3.875   4.539
 6978TIP3   OH220897   2.595   1.888   4.343
 6978TIP3    H120898   2.619   1.825   4.412
 6978TIP3    H220899   2.616   1.843   4.261
 6979TIP3   OH220900   6.772   0.548   4.163
 6979TIP3    H120901   6.706   0.532   4.231
 6979TIP3    H220902   6.742   0.627   4.118
 6980TIP3   OH220903   3.547   2.873   3.177
 6980TIP3    H120904   3.472   2.877   3.236
 6980TIP3    H220905   3.613   2.823   3.224
 6981TIP3   OH220906   2.596   4.753   4.691
 6981TIP3    H120907   2.640   4.676   4.656
 6981TIP3    H220908   2.624   4.757   4.783
 6982TIP3   OH220909   3.029   6.246   2.775
 6982TIP3    H120910   3.083   6.263   2.852
 6982TIP3    H220911   3.074   6.291   2.704
 6983TIP3   OH220912   0.721   3.058   5.349
 6983TIP3    H120913   0.802   3.008   5.352
 6983TIP3    H220914   0.653   2.995   5.372
 6984TIP3   OH220915   3.128   6.484   0.520
 6984TIP3    H120916   3.055   6.481   0.582
 6984TIP3    H220917   3.202   6.447   0.569
 6985TIP3   OH220918   6.348   4.972   2.063
 6985TIP3    H120919   6.297   5.017   2.129
 6985TIP3    H220920   6.429   5.023   2.055
 6986TIP3   OH220921   0.063   4.513   3.779
 6986TIP3    H120922   0.033   4.569   3.707
 6986TIP3    H220923   0.012   4.543   3.855
 6987TIP3   OH220924   2.368   5.482   4.500
 6987TIP3    H120925   2.274   5.497   4.493
 6987TIP3    H220926   2.377   5.414   4.567
 6988TIP3   OH220927   1.336   4.512   1.709
 6988TIP3    H120928   1.383   4.577   1.762
 6988TIP3    H220929   1.331   4.434   1.765
 6989TIP3   OH220930   0.127   0.977   5.773
 6989TIP3    H120931   0.082   0.893   5.775
 6989TIP3    H220932   0.220   0.955   5.764
 6990TIP3   OH220933   7.025   2.424   2.142
 6990TIP3    H120934   7.001   2.508   2.181
 6990TIP3    H220935   7.075   2.379   2.211
 6991TIP3   OH220936   2.206   0.924   3.551
 6991TIP3    H120937   2.129   0.902   3.498
 6991TIP3    H220938   2.277   0.933   3.487
 6992TIP3   OH220939   6.241   1.767   2.818
 6992TIP3    H120940   6.259   1.696   2.880
 6992TIP3    H220941   6.166   1.813   2.856
 6993TIP3   OH220942   2.426   4.307   4.651
 6993TIP3    H120943   2.375   4.368   4.704
 6993TIP3    H220944   2.378   4.224   4.658
 6994TIP3   OH220945   3.894   1.889   4.210
 6994TIP3    H120946   3.894   1.930   4.123
 6994TIP3    H220947   3.986   1.866   4.225
 6995TIP3   OH220948   6.463   0.284   4.505
 6995TIP3    H120949   6.425   0.222   4.442
 6995TIP3    H220950   6.444   0.370   4.469
 6996TIP3   OH220951   5.430   1.657   3.539
 6996TIP3    H120952   5.394   1.663   3.451
 6996TIP3    H220953   5.370   1.599   3.586
 6997TIP3   OH220954   6.395   0.767   4.972
 6997TIP3    H120955   6.455   0.836   5.001
 6997TIP3    H220956   6.346   0.806   4.900
 6998TIP3   OH220957   0.467   5.657   4.868
 6998TIP3    H120958   0.451   5.751   4.878
 6998TIP3    H220959   0.512   5.632   4.949
 6999TIP3   OH220960   5.996   1.740   5.190
 6999TIP3    H120961   6.038   1.685   5.124
 6999TIP3    H220962   6.066   1.798   5.221
 7000TIP3   OH220963   5.739   1.428   4.584
 7000TIP3    H120964   5.831   1.404   4.570
 7000TIP3    H220965   5.689   1.367   4.530
 7001TIP3   OH220966   1.224   0.382   2.622
 7001TIP3    H120967   1.303   0.400   2.673
 7001TIP3    H220968   1.159   0.441   2.658
 7002TIP3   OH220969   3.104   1.030   4.648
 7002TIP3    H120970   3.064   1.008   4.564
 7002TIP3    H220971   3.198   1.015   4.634
 7003TIP3   OH220972   1.311   2.133   4.872
 7003TIP3    H120973   1.358   2.049   4.877
 7003TIP3    H220974   1.288   2.142   4.779
 7004TIP3   OH220975   2.065   5.732   0.656
 7004TIP3    H120976   2.045   5.786   0.732
 7004TIP3    H220977   1.984   5.730   0.605
 7005TIP3   OH220978   3.703   0.097   3.654
 7005TIP3    H120979   3.745   0.011   3.656
 7005TIP3    H220980   3.651   0.101   3.734
 7006TIP3   OH220981   0.658   0.873   5.619
 7006TIP3    H120982   0.728   0.919   5.664
 7006TIP3    H220983   0.700   0.797   5.580
 7007TIP3   OH220984   2.283   0.087   4.756
 7007TIP3    H120985   2.331   0.005   4.770
 7007TIP3    H220986   2.347   0.155   4.776
 7008TIP3   OH220987   3.542   2.775   2.641
 7008TIP3    H120988   3.635   2.764   2.662
 7008TIP3    H220989   3.503   2.809   2.722
 7009TIP3   OH220990   4.611   6.519   3.571
 7009TIP3    H120991   4.551   6.541   3.642
 7009TIP3    H220992   4.554   6.502   3.496
 7010TIP3   OH220993   1.657   2.504   5.238
 7010TIP3    H120994   1.625   2.520   5.149
 7010TIP3    H220995   1.690   2.415   5.236
 7011TIP3   OH220996   6.901   3.209   2.848
 7011TIP3    H120997   6.904   3.270   2.921
 7011TIP3    H220998   6.808   3.196   2.829
 7012TIP3   OH220999   1.877   5.990   4.698
 7012TIP3    H121000   1.924   5.946   4.769
 7012TIP3    H221001   1.899   5.941   4.620
 7013TIP3   OH221002   2.997   4.904   0.707
 7013TIP3    H121003   3.058   4.935   0.640
 7013TIP3    H221004   2.991   4.976   0.770
 7014TIP3   OH221005   0.343   0.734   4.296
 7014TIP3    H121006   0.407   0.725   4.367
 7014TIP3    H221007   0.274   0.788   4.334
 7015TIP3   OH221008   3.437   3.443   3.386
 7015TIP3    H121009   3.342   3.431   3.382
 7015TIP3    H221010   3.448   3.530   3.426
 7016TIP3   OH221011   6.193   6.750   3.761
 7016TIP3    H121012   6.193   6.780   3.670
 7016TIP3    H221013   6.258   6.679   3.763
 7017TIP3   OH221014   2.319   6.759   0.273
 7017TIP3    H121015   2.335   6.668   0.248
 7017TIP3    H221016   2.368   6.770   0.355
 7018TIP3   OH221017   3.335   5.103   4.466
 7018TIP3    H121018   3.295   5.148   4.392
 7018TIP3    H221019   3.403   5.048   4.427
 7019TIP3   OH221020   0.596   1.127   0.633
 7019TIP3    H121021   0.519   1.069   0.630
 7019TIP3    H221022   0.625   1.124   0.724
 7020TIP3   OH221023   3.407   5.193   0.510
 7020TIP3    H121024   3.402   5.098   0.520
 7020TIP3    H221025   3.409   5.207   0.415
 7021TIP3   OH221026   6.200   5.400   2.693
 7021TIP3    H121027   6.164   5.483   2.662
 7021TIP3    H221028   6.292   5.403   2.667
 7022TIP3   OH221029   3.840   4.223   2.996
 7022TIP3    H121030   3.924   4.268   2.981
 7022TIP3    H221031   3.817   4.246   3.086
 7023TIP3   OH221032   6.712   1.519   5.053
 7023TIP3    H121033   6.652   1.490   5.121
 7023TIP3    H221034   6.767   1.442   5.034
 7024TIP3   OH221035   6.912   1.880   3.633
 7024TIP3    H121036   6.914   1.940   3.559
 7024TIP3    H221037   6.824   1.891   3.671
 7025TIP3   OH221038   3.412   1.153   3.144
 7025TIP3    H121039   3.385   1.208   3.070
 7025TIP3    H221040   3.480   1.096   3.108
 7026TIP3   OH221041   4.403   3.616   2.921
 7026TIP3    H121042   4.421   3.617   2.827
 7026TIP3    H221043   4.413   3.708   2.948
 7027TIP3   OH221044   2.147   5.020   2.765
 7027TIP3    H121045   2.080   4.963   2.727
 7027TIP3    H221046   2.098   5.092   2.804
 7028TIP3   OH221047   3.190   0.986   3.962
 7028TIP3    H121048   3.108   1.032   3.942
 7028TIP3    H221049   3.215   0.944   3.880
 7029TIP3   OH221050   2.429   6.024   5.299
 7029TIP3    H121051   2.431   5.963   5.225
 7029TIP3    H221052   2.520   6.046   5.316
 7030TIP3   OH221053   6.721   1.691   3.982
 7030TIP3    H121054   6.808   1.652   3.988
 7030TIP3    H221055   6.732   1.767   3.925
 7031TIP3   OH221056   5.553   6.004   2.111
 7031TIP3    H121057   5.506   5.929   2.075
 7031TIP3    H221058   5.641   5.971   2.129
 7032TIP3   OH221059   0.657   3.951   2.195
 7032TIP3    H121060   0.747   3.923   2.211
 7032TIP3    H221061   0.654   4.041   2.227
 7033TIP3   OH221062   2.082   5.458   2.903
 7033TIP3    H121063   2.076   5.494   2.992
 7033TIP3    H221064   2.176   5.442   2.890
 7034TIP3   OH221065   1.597   6.141   3.627
 7034TIP3    H121066   1.627   6.101   3.545
 7034TIP3    H221067   1.545   6.073   3.669
 7035TIP3   OH221068   5.607   4.785   4.330
 7035TIP3    H121069   5.574   4.696   4.319
 7035TIP3    H221070   5.684   4.774   4.387
 7036TIP3   OH221071   3.690   1.659   5.279
 7036TIP3    H121072   3.763   1.662   5.218
 7036TIP3    H221073   3.685   1.567   5.306
 7037TIP3   OH221074   3.802   4.273   0.652
 7037TIP3    H121075   3.747   4.195   0.661
 7037TIP3    H221076   3.872   4.245   0.591
 7038TIP3   OH221077   3.349   2.108   4.988
 7038TIP3    H121078   3.391   2.191   5.013
 7038TIP3    H221079   3.414   2.064   4.933
 7039TIP3   OH221080   0.840   4.060   5.063
 7039TIP3    H121081   0.906   4.015   5.010
 7039TIP3    H221082   0.869   4.151   5.065
 7040TIP3   OH221083   3.323   6.762   3.435
 7040TIP3    H121084   3.305   6.668   3.427
 7040TIP3    H221085   3.366   6.785   3.353
 7041TIP3   OH221086   3.198   6.034   3.442
 7041TIP3    H121087   3.191   5.942   3.420
 7041TIP3    H221088   3.241   6.036   3.528
 7042TIP3   OH221089   6.839   1.018   4.642
 7042TIP3    H121090   6.860   1.111   4.634
 7042TIP3    H221091   6.873   0.978   4.562
 7043TIP3   OH221092   2.751   1.443   0.447
 7043TIP3    H121093   2.659   1.468   0.452
 7043TIP3    H221094   2.757   1.363   0.498
 7044TIP3   OH221095   6.621   5.205   4.746
 7044TIP3    H121096   6.647   5.254   4.669
 7044TIP3    H221097   6.656   5.117   4.732
 7045TIP3   OH221098   5.524   1.440   2.464
 7045TIP3    H121099   5.532   1.516   2.407
 7045TIP3    H221100   5.571   1.464   2.543
 7046TIP3   OH221101   4.488   4.972   0.794
 7046TIP3    H121102   4.456   5.030   0.863
 7046TIP3    H221103   4.428   4.987   0.721
 7047TIP3   OH221104   5.608   0.764   1.448
 7047TIP3    H121105   5.581   0.709   1.522
 7047TIP3    H221106   5.609   0.705   1.373
 7048TIP3   OH221107   1.864   2.421   2.094
 7048TIP3    H121108   1.903   2.334   2.102
 7048TIP3    H221109   1.779   2.405   2.053
 7049TIP3   OH221110   3.407   0.907   0.354
 7049TIP3    H121111   3.405   0.832   0.412
 7049TIP3    H221112   3.315   0.930   0.340
 7050TIP3   OH221113   0.643   6.408   4.062
 7050TIP3    H121114   0.582   6.471   4.099
 7050TIP3    H221115   0.596   6.325   4.065
 7051TIP3   OH221116   4.846   4.504   4.336
 7051TIP3    H121117   4.766   4.521   4.286
 7051TIP3    H221118   4.817   4.504   4.427
 7052TIP3   OH221119   0.877   1.119   3.136
 7052TIP3    H121120   0.880   1.091   3.044
 7052TIP3    H221121   0.808   1.066   3.175
 7053TIP3   OH221122   2.263   6.214   1.825
 7053TIP3    H121123   2.320   6.201   1.749
 7053TIP3    H221124   2.215   6.294   1.805
 7054TIP3   OH221125   5.082   5.942   2.398
 7054TIP3    H121126   5.026   5.872   2.428
 7054TIP3    H221127   5.163   5.932   2.448
 7055TIP3   OH221128   5.918   5.288   1.064
 7055TIP3    H121129   5.985   5.222   1.052
 7055TIP3    H221130   5.943   5.334   1.144
 7056TIP3   OH221131   0.031   3.790   2.925
 7056TIP3    H121132   0.020   3.884   2.939
 7056TIP3    H221133   0.094   3.763   2.991
 7057TIP3   OH221134   4.972   4.372   0.700
 7057TIP3    H121135   5.053   4.322   0.708
 7057TIP3    H221136   5.000   4.464   0.697
 7058TIP3   OH221137   6.047   1.031   0.996
 7058TIP3    H121138   6.109   1.071   0.934
 7058TIP3    H221139   6.091   0.951   1.025
 7059TIP3   OH221140   5.464   0.442   4.601
 7059TIP3    H121141   5.469   0.397   4.517
 7059TIP3    H221142   5.391   0.400   4.646
 7060TIP3   OH221143   4.526   3.438   5.477
 7060TIP3    H121144   4.509   3.506   5.542
 7060TIP3    H221145   4.613   3.458   5.443
 7061TIP3   OH221146   2.735   0.776   2.727
 7061TIP3    H121147   2.669   0.756   2.660
 7061TIP3    H221148   2.746   0.871   2.722
 7062TIP3   OH221149   6.962   2.808   5.350
 7062TIP3    H121150   7.003   2.841   5.430
 7062TIP3    H221151   7.035   2.780   5.295
 7063TIP3   OH221152   6.254   0.094   2.960
 7063TIP3    H121153   6.161   0.115   2.952
 7063TIP3    H221154   6.290   0.165   3.013
 7064TIP3   OH221155   5.768   4.038   3.048
 7064TIP3    H121156   5.820   4.018   2.970
 7064TIP3    H221157   5.778   4.133   3.060
 7065TIP3   OH221158   4.721   4.595   1.728
 7065TIP3    H121159   4.687   4.529   1.788
 7065TIP3    H221160   4.647   4.616   1.671
 7066TIP3   OH221161   3.995   0.495   1.222
 7066TIP3    H121162   4.019   0.587   1.218
 7066TIP3    H221163   3.937   0.488   1.298
 7067TIP3   OH221164   1.516   6.060  -0.021
 7067TIP3    H121165   1.458   6.120   0.024
 7067TIP3    H221166   1.602   6.074   0.020
 7068TIP3   OH221167   0.683   4.194   2.309
 7068TIP3    H121168   0.697   4.275   2.260
 7068TIP3    H221169   0.769   4.174   2.346
 7069TIP3   OH221170   2.073   4.889   3.890
 7069TIP3    H121171   2.118   4.872   3.807
 7069TIP3    H221172   2.041   4.979   3.882
 7070TIP3   OH221173   3.427   1.801   1.632
 7070TIP3    H121174   3.496   1.754   1.680
 7070TIP3    H221175   3.352   1.741   1.633
 7071TIP3   OH221176   6.543   4.775   1.346
 7071TIP3    H121177   6.624   4.731   1.375
 7071TIP3    H221178   6.552   4.781   1.251
 7072TIP3   OH221179   2.936   1.822   0.222
 7072TIP3    H121180   2.853   1.801   0.264
 7072TIP3    H221181   2.940   1.762   0.146
 7073TIP3   OH221182   1.390   4.108   2.058
 7073TIP3    H121183   1.405   4.035   2.119
 7073TIP3    H221184   1.394   4.067   1.972
 7074TIP3   OH221185   5.028   6.376   3.729
 7074TIP3    H121186   5.065   6.454   3.687
 7074TIP3    H221187   5.042   6.306   3.665
 7075TIP3   OH221188   7.061   3.558   1.366
 7075TIP3    H121189   7.051   3.525   1.276
 7075TIP3    H221190   7.154   3.549   1.384
 7076TIP3   OH221191   6.500   4.115   1.408
 7076TIP3    H121192   6.463   4.184   1.353
 7076TIP3    H221193   6.425   4.063   1.436
 7077TIP3   OH221194   2.209   3.184   5.366
 7077TIP3    H121195   2.116   3.194   5.343
 7077TIP3    H221196   2.240   3.273   5.379
 7078TIP3   OH221197   4.368   4.582   1.934
 7078TIP3    H121198   4.373   4.639   2.011
 7078TIP3    H221199   4.374   4.642   1.860
 7079TIP3   OH221200   6.305   5.188   3.989
 7079TIP3    H121201   6.217   5.175   3.955
 7079TIP3    H221202   6.324   5.280   3.971
 7080TIP3   OH221203   3.848   2.097  -0.027
 7080TIP3    H121204   3.898   2.135   0.045
 7080TIP3    H221205   3.818   2.012   0.007
 7081TIP3   OH221206   1.420   6.758   1.128
 7081TIP3    H121207   1.356   6.696   1.092
 7081TIP3    H221208   1.492   6.704   1.158
 7082TIP3   OH221209   5.105   1.325   0.380
 7082TIP3    H121210   5.122   1.256   0.316
 7082TIP3    H221211   5.142   1.404   0.340
 7083TIP3   OH221212   0.630   4.261   2.591
 7083TIP3    H121213   0.576   4.192   2.631
 7083TIP3    H221214   0.612   4.253   2.497
 7084TIP3   OH221215   3.164   1.439   4.709
 7084TIP3    H121216   3.123   1.360   4.744
 7084TIP3    H221217   3.095   1.481   4.658
 7085TIP3   OH221218   5.152   6.064   4.160
 7085TIP3    H121219   5.244   6.064   4.187
 7085TIP3    H221220   5.151   6.108   4.075
 7086TIP3   OH221221   1.794   2.960   4.166
 7086TIP3    H121222   1.877   2.994   4.134
 7086TIP3    H221223   1.817   2.908   4.243
 7087TIP3   OH221224   2.451   1.444   3.371
 7087TIP3    H121225   2.450   1.512   3.438
 7087TIP3    H221226   2.360   1.413   3.368
 7088TIP3   OH221227   3.812   2.542   2.529
 7088TIP3    H121228   3.774   2.597   2.460
 7088TIP3    H221229   3.887   2.500   2.487
 7089TIP3   OH221230   5.682   4.096   4.869
 7089TIP3    H121231   5.595   4.058   4.884
 7089TIP3    H221232   5.723   4.038   4.805
 7090TIP3   OH221233   1.706   4.445   4.022
 7090TIP3    H121234   1.771   4.509   4.053
 7090TIP3    H221235   1.717   4.370   4.080
 7091TIP3   OH221236   4.771   4.923   0.879
 7091TIP3    H121237   4.692   4.965   0.845
 7091TIP3    H221238   4.760   4.925   0.974
 7092TIP3   OH221239   2.143   0.885   1.463
 7092TIP3    H121240   2.179   0.941   1.533
 7092TIP3    H221241   2.159   0.934   1.383
 7093TIP3   OH221242   1.715   3.524   3.394
 7093TIP3    H121243   1.748   3.523   3.304
 7093TIP3    H221244   1.787   3.562   3.445
 7094TIP3   OH221245   0.992   2.649   1.843
 7094TIP3    H121246   0.939   2.718   1.802
 7094TIP3    H221247   1.022   2.688   1.925
 7095TIP3   OH221248   4.323   1.602   0.159
 7095TIP3    H121249   4.355   1.521   0.198
 7095TIP3    H221250   4.263   1.573   0.090
 7096TIP3   OH221251   7.099   2.860   0.351
 7096TIP3    H121252   7.127   2.903   0.271
 7096TIP3    H221253   7.003   2.868   0.351
 7097TIP3   OH221254   2.661   0.161   0.030
 7097TIP3    H121255   2.714   0.212   0.092
 7097TIP3    H221256   2.683   0.198  -0.056
 7098TIP3   OH221257   1.596   2.839   1.167
 7098TIP3    H121258   1.547   2.915   1.199
 7098TIP3    H221259   1.532   2.768   1.167
 7099TIP3   OH221260   7.183   0.218   4.014
 7099TIP3    H121261   7.186   0.242   3.921
 7099TIP3    H221262   7.262   0.165   4.027
 7100TIP3   OH221263   4.181   1.214   0.193
 7100TIP3    H121264   4.112   1.172   0.244
 7100TIP3    H221265   4.139   1.241   0.112
 7101TIP3   OH221266   0.219   6.481   4.766
 7101TIP3    H121267   0.182   6.418   4.703
 7101TIP3    H221268   0.287   6.527   4.716
 7102TIP3   OH221269   4.347   5.026   0.579
 7102TIP3    H121270   4.389   5.079   0.511
 7102TIP3    H221271   4.267   5.073   0.600
 7103TIP3   OH221272   1.657   1.555   0.855
 7103TIP3    H121273   1.591   1.616   0.887
 7103TIP3    H221274   1.656   1.566   0.760
 7104TIP3   OH221275   5.568   6.528   2.617
 7104TIP3    H121276   5.485   6.575   2.608
 7104TIP3    H221277   5.559   6.480   2.700
 7105TIP3   OH221278   0.718   1.919   0.488
 7105TIP3    H121279   0.743   2.011   0.488
 7105TIP3    H221280   0.738   1.888   0.577
 7106TIP3   OH221281   6.350   4.454   4.586
 7106TIP3    H121282   6.371   4.363   4.609
 7106TIP3    H221283   6.435   4.499   4.587
 7107TIP3   OH221284   0.187   3.426   1.991
 7107TIP3    H121285   0.267   3.392   1.951
 7107TIP3    H221286   0.116   3.390   1.938
 7108TIP3   OH221287   5.987   1.331   4.620
 7108TIP3    H121288   5.962   1.242   4.593
 7108TIP3    H221289   6.030   1.319   4.705
 7109TIP3   OH221290   6.336   3.271   1.212
 7109TIP3    H121291   6.258   3.226   1.245
 7109TIP3    H221292   6.406   3.206   1.220
 7110TIP3   OH221293   6.790   6.705   3.223
 7110TIP3    H121294   6.858   6.763   3.258
 7110TIP3    H221295   6.711   6.758   3.222
 7111TIP3   OH221296   4.305   2.589   2.334
 7111TIP3    H121297   4.279   2.681   2.328
 7111TIP3    H221298   4.373   2.579   2.267
 7112TIP3   OH221299   4.649   4.524   3.026
 7112TIP3    H121300   4.563   4.485   3.010
 7112TIP3    H221301   4.685   4.473   3.098
 7113TIP3   OH221302   1.145   3.569   4.075
 7113TIP3    H121303   1.150   3.584   3.981
 7113TIP3    H221304   1.236   3.567   4.104
 7114TIP3   OH221305   5.443   1.219   5.334
 7114TIP3    H121306   5.503   1.266   5.391
 7114TIP3    H221307   5.356   1.245   5.364
 7115TIP3   OH221308   0.835   6.426   2.558
 7115TIP3    H121309   0.905   6.485   2.588
 7115TIP3    H221310   0.856   6.408   2.466
 7116TIP3   OH221311   3.602   6.632   1.768
 7116TIP3    H121312   3.547   6.597   1.699
 7116TIP3    H221313   3.692   6.624   1.734
 7117TIP3   OH221314   5.893   1.675   3.815
 7117TIP3    H121315   5.955   1.744   3.789
 7117TIP3    H221316   5.809   1.721   3.825
 7118TIP3   OH221317   5.254   4.571   5.083
 7118TIP3    H121318   5.238   4.536   4.995
 7118TIP3    H221319   5.348   4.561   5.096
 7119TIP3   OH221320   0.587   1.583   2.056
 7119TIP3    H121321   0.680   1.604   2.044
 7119TIP3    H221322   0.541   1.665   2.038
 7120TIP3   OH221323   0.231   3.990   2.145
 7120TIP3    H121324   0.302   4.014   2.204
 7120TIP3    H221325   0.178   3.928   2.195
 7121TIP3   OH221326   7.061   1.704   2.717
 7121TIP3    H121327   7.086   1.614   2.697
 7121TIP3    H221328   7.132   1.736   2.773
 7122TIP3   OH221329   5.736   4.913   5.016
 7122TIP3    H121330   5.720   5.002   4.983
 7122TIP3    H221331   5.779   4.867   4.944
 7123TIP3   OH221332   3.006   1.944   3.732
 7123TIP3    H121333   3.014   1.848   3.729
 7123TIP3    H221334   2.952   1.961   3.809
 7124TIP3   OH221335   4.745  -0.003   2.397
 7124TIP3    H121336   4.834   0.016   2.366
 7124TIP3    H221337   4.740   0.042   2.482
 7125TIP3   OH221338   6.382   4.591   5.364
 7125TIP3    H121339   6.381   4.498   5.342
 7125TIP3    H221340   6.342   4.634   5.289
 7126TIP3   OH221341   4.738   6.664   0.277
 7126TIP3    H121342   4.812   6.623   0.321
 7126TIP3    H221343   4.750   6.643   0.185
 7127TIP3   OH221344   3.726   5.051   4.674
 7127TIP3    H121345   3.716   5.146   4.661
 7127TIP3    H221346   3.733   5.040   4.768
 7128TIP3   OH221347   1.164   4.984   2.436
 7128TIP3    H121348   1.108   5.053   2.470
 7128TIP3    H221349   1.135   4.972   2.345
 7129TIP3   OH221350   1.207   6.128   2.098
 7129TIP3    H121351   1.209   6.214   2.141
 7129TIP3    H221352   1.251   6.142   2.014
 7130TIP3   OH221353   7.203   0.689   4.101
 7130TIP3    H121354   7.137   0.632   4.141
 7130TIP3    H221355   7.152   0.756   4.056
 7131TIP3   OH221356   3.035   4.677   2.010
 7131TIP3    H121357   3.094   4.627   1.953
 7131TIP3    H221358   3.080   4.760   2.024
 7132TIP3   OH221359   1.070   1.890   0.751
 7132TIP3    H121360   1.091   1.816   0.694
 7132TIP3    H221361   0.975   1.896   0.749
 7133TIP3   OH221362   2.779   5.408   1.560
 7133TIP3    H121363   2.847   5.341   1.559
 7133TIP3    H221364   2.736   5.396   1.645
 7134TIP3   OH221365   3.459   4.046   1.271
 7134TIP3    H121366   3.495   3.958   1.261
 7134TIP3    H221367   3.420   4.066   1.186
 7135TIP3   OH221368   2.901   2.753   3.601
 7135TIP3    H121369   2.976   2.782   3.549
 7135TIP3    H221370   2.914   2.795   3.686
 7136TIP3   OH221371   7.021   6.208   5.503
 7136TIP3    H121372   7.001   6.205   5.409
 7136TIP3    H221373   6.998   6.122   5.536
 7137TIP3   OH221374   2.584   2.337   4.209
 7137TIP3    H121375   2.657   2.286   4.244
 7137TIP3    H221376   2.507   2.282   4.224
 7138TIP3   OH221377   2.822   2.150   0.582
 7138TIP3    H121378   2.728   2.135   0.591
 7138TIP3    H221379   2.829   2.230   0.531
 7139TIP3   OH221380   0.323   0.031   4.343
 7139TIP3    H121381   0.354  -0.029   4.275
 7139TIP3    H221382   0.228   0.037   4.328
 7140TIP3   OH221383   5.414   1.090   1.136
 7140TIP3    H121384   5.448   1.055   1.218
 7140TIP3    H221385   5.396   1.013   1.082
 7141TIP3   OH221386   3.041   4.661   4.669
 7141TIP3    H121387   3.082   4.607   4.601
 7141TIP3    H221388   3.047   4.750   4.636
 7142TIP3   OH221389   3.174   4.905   4.539
 7142TIP3    H121390   3.170   4.916   4.444
 7142TIP3    H221391   3.201   4.991   4.571
 7143TIP3   OH221392   0.360   0.246   0.163
 7143TIP3    H121393   0.410   0.261   0.243
 7143TIP3    H221394   0.274   0.215   0.192
 7144TIP3   OH221395   1.081   0.908   4.067
 7144TIP3    H121396   1.061   0.948   3.982
 7144TIP3    H221397   1.063   0.977   4.131
 7145TIP3   OH221398   1.527   3.916   5.246
 7145TIP3    H121399   1.486   3.991   5.203
 7145TIP3    H221400   1.459   3.849   5.247
 7146TIP3   OH221401   6.177   0.700   3.158
 7146TIP3    H121402   6.139   0.781   3.125
 7146TIP3    H221403   6.203   0.652   3.080
 7147TIP3   OH221404   6.930   2.519   2.727
 7147TIP3    H121405   7.013   2.485   2.694
 7147TIP3    H221406   6.951   2.608   2.756
 7148TIP3   OH221407   0.641   5.803   0.268
 7148TIP3    H121408   0.668   5.812   0.360
 7148TIP3    H221409   0.558   5.851   0.263
 7149TIP3   OH221410   2.791   0.489   0.856
 7149TIP3    H121411   2.790   0.432   0.779
 7149TIP3    H221412   2.751   0.571   0.826
 7150TIP3   OH221413   3.951   4.950   4.521
 7150TIP3    H121414   3.889   5.000   4.574
 7150TIP3    H221415   3.996   5.015   4.468
 7151TIP3   OH221416   6.152   6.230   4.043
 7151TIP3    H121417   6.203   6.152   4.064
 7151TIP3    H221418   6.169   6.290   4.116
 7152TIP3   OH221419   0.701   1.926   0.989
 7152TIP3    H121420   0.661   1.840   1.006
 7152TIP3    H221421   0.629   1.988   0.999
 7153TIP3   OH221422   5.386   0.215   0.388
 7153TIP3    H121423   5.384   0.186   0.479
 7153TIP3    H221424   5.295   0.209   0.359
 7154TIP3   OH221425   7.063   1.909   1.969
 7154TIP3    H121426   6.995   1.911   1.902
 7154TIP3    H221427   7.143   1.934   1.923
 7155TIP3   OH221428   2.926   6.206   0.698
 7155TIP3    H121429   2.939   6.152   0.776
 7155TIP3    H221430   2.988   6.279   0.709
 7156TIP3   OH221431   1.211   0.047   4.660
 7156TIP3    H121432   1.168   0.097   4.590
 7156TIP3    H221433   1.192   0.096   4.740
 7157TIP3   OH221434   5.918   2.571   0.701
 7157TIP3    H121435   5.884   2.630   0.767
 7157TIP3    H221436   5.952   2.496   0.750
 7158TIP3   OH221437   4.240   4.283   0.821
 7158TIP3    H121438   4.318   4.275   0.877
 7158TIP3    H221439   4.227   4.378   0.812
 7159TIP3   OH221440   1.523   5.660   1.081
 7159TIP3    H121441   1.462   5.621   1.018
 7159TIP3    H221442   1.597   5.688   1.027
 7160TIP3   OH221443   7.184   5.214   2.196
 7160TIP3    H121444   7.171   5.155   2.122
 7160TIP3    H221445   7.196   5.156   2.271
 7161TIP3   OH221446   3.540   4.817   2.094
 7161TIP3    H121447   3.558   4.909   2.113
 7161TIP3    H221448   3.447   4.814   2.072
 7162TIP3   OH221449   5.244   5.861   1.539
 7162TIP3    H121450   5.166   5.869   1.595
 7162TIP3    H221451   5.313   5.907   1.588
 7163TIP3   OH221452   0.041   2.423   1.681
 7163TIP3    H121453  -0.047   2.448   1.653
 7163TIP3    H221454   0.041   2.438   1.776
 7164TIP3   OH221455   6.233   1.473   3.940
 7164TIP3    H121456   6.305   1.534   3.926
 7164TIP3    H221457   6.218   1.474   4.034
 7165TIP3   OH221458   6.081   0.800   4.890
 7165TIP3    H121459   6.103   0.891   4.911
 7165TIP3    H221460   6.092   0.753   4.972
 7166TIP3   OH221461   4.418   3.991   3.857
 7166TIP3    H121462   4.414   4.010   3.763
 7166TIP3    H221463   4.478   4.057   3.892
 7167TIP3   OH221464   0.239   6.658   1.849
 7167TIP3    H121465   0.262   6.574   1.808
 7167TIP3    H221466   0.191   6.634   1.928
 7168TIP3   OH221467   1.158   1.762   5.187
 7168TIP3    H121468   1.167   1.757   5.092
 7168TIP3    H221469   1.241   1.729   5.221
 7169TIP3   OH221470   5.493   1.466   3.782
 7169TIP3    H121471   5.468   1.486   3.872
 7169TIP3    H221472   5.412   1.436   3.741
 7170TIP3   OH221473   1.278   1.960   2.390
 7170TIP3    H121474   1.333   1.934   2.463
 7170TIP3    H221475   1.331   1.944   2.312
 7171TIP3   OH221476   5.174   6.216   3.103
 7171TIP3    H121477   5.091   6.168   3.094
 7171TIP3    H221478   5.169   6.284   3.036
 7172TIP3   OH221479   6.495   4.851   4.298
 7172TIP3    H121480   6.581   4.813   4.315
 7172TIP3    H221481   6.485   4.847   4.202
 7173TIP3   OH221482   4.464   3.695   5.624
 7173TIP3    H121483   4.413   3.773   5.602
 7173TIP3    H221484   4.480   3.702   5.718
 7174TIP3   OH221485   4.058   4.127   2.261
 7174TIP3    H121486   4.123   4.085   2.317
 7174TIP3    H221487   4.008   4.055   2.223
 7175TIP3   OH221488   2.518   2.310   0.672
 7175TIP3    H121489   2.530   2.233   0.617
 7175TIP3    H221490   2.425   2.331   0.664
 7176TIP3   OH221491   0.582   2.530   5.010
 7176TIP3    H121492   0.527   2.569   5.078
 7176TIP3    H221493   0.611   2.448   5.048
 7177TIP3   OH221494   4.284   1.442   5.562
 7177TIP3    H121495   4.331   1.497   5.499
 7177TIP3    H221496   4.192   1.453   5.540
 7178TIP3   OH221497   3.733   0.396   3.182
 7178TIP3    H121498   3.686   0.331   3.131
 7178TIP3    H221499   3.727   0.366   3.273
 7179TIP3   OH221500   6.304   6.788   2.611
 7179TIP3    H121501   6.243   6.857   2.585
 7179TIP3    H221502   6.250   6.709   2.617
 7180TIP3   OH221503   1.415   1.641   1.041
 7180TIP3    H121504   1.504   1.665   1.066
 7180TIP3    H221505   1.360   1.683   1.107
 7181TIP3   OH221506   6.879   6.333   3.513
 7181TIP3    H121507   6.965   6.331   3.472
 7181TIP3    H221508   6.850   6.423   3.504
 7182TIP3   OH221509   1.453   3.461   2.792
 7182TIP3    H121510   1.542   3.454   2.757
 7182TIP3    H221511   1.403   3.395   2.744
 7183TIP3   OH221512   0.718   1.840   1.286
 7183TIP3    H121513   0.666   1.905   1.333
 7183TIP3    H221514   0.657   1.803   1.222
 7184TIP3   OH221515   1.987   3.348   4.740
 7184TIP3    H121516   2.029   3.370   4.823
 7184TIP3    H221517   2.049   3.290   4.697
 7185TIP3   OH221518   5.746   5.816   3.711
 7185TIP3    H121519   5.814   5.818   3.644
 7185TIP3    H221520   5.792   5.793   3.791
 7186TIP3   OH221521   1.119   2.641   5.225
 7186TIP3    H121522   1.106   2.625   5.131
 7186TIP3    H221523   1.209   2.674   5.231
 7187TIP3   OH221524   5.052   1.739   2.296
 7187TIP3    H121525   5.017   1.722   2.209
 7187TIP3    H221526   5.054   1.835   2.302
 7188TIP3   OH221527   0.490   4.903   5.081
 7188TIP3    H121528   0.399   4.933   5.073
 7188TIP3    H221529   0.541   4.970   5.036
 7189TIP3   OH221530   6.884   5.097   2.908
 7189TIP3    H121531   6.834   5.117   2.987
 7189TIP3    H221532   6.926   5.180   2.884
 7190TIP3   OH221533   5.197   6.057   1.872
 7190TIP3    H121534   5.185   5.967   1.841
 7190TIP3    H221535   5.201   6.049   1.967
 7191TIP3   OH221536   1.843   2.707   2.494
 7191TIP3    H121537   1.810   2.665   2.415
 7191TIP3    H221538   1.935   2.727   2.473
 7192TIP3   OH221539   0.411   6.374   3.268
 7192TIP3    H121540   0.451   6.289   3.284
 7192TIP3    H221541   0.319   6.362   3.292
 7193TIP3   OH221542   3.257   4.574   0.763
 7193TIP3    H121543   3.312   4.649   0.788
 7193TIP3    H221544   3.172   4.593   0.802
 7194TIP3   OH221545   3.722   5.421   1.773
 7194TIP3    H121546   3.795   5.480   1.757
 7194TIP3    H221547   3.737   5.386   1.861
 7195TIP3   OH221548   1.655   4.740   4.733
 7195TIP3    H121549   1.632   4.821   4.687
 7195TIP3    H221550   1.748   4.728   4.716
 7196TIP3   OH221551   0.107   0.215   5.208
 7196TIP3    H121552   0.081   0.187   5.120
 7196TIP3    H221553   0.189   0.262   5.194
 7197TIP3   OH221554   5.887   5.912   3.403
 7197TIP3    H121555   5.827   5.855   3.355
 7197TIP3    H221556   5.830   5.968   3.456
 7198TIP3   OH221557   5.807   6.761   5.784
 7198TIP3    H121558   5.899   6.737   5.775
 7198TIP3    H221559   5.782   6.794   5.698
 7199TIP3   OH221560   3.904   3.477   4.447
 7199TIP3    H121561   3.819   3.486   4.490
 7199TIP3    H221562   3.882   3.462   4.355
 7200TIP3   OH221563   6.597   5.181   2.156
 7200TIP3    H121564   6.585   5.218   2.243
 7200TIP3    H221565   6.643   5.250   2.107
 7201TIP3   OH221566   5.236   1.393   2.441
 7201TIP3    H121567   5.203   1.411   2.353
 7201TIP3    H221568   5.330   1.383   2.429
 7202TIP3   OH221569   0.947   4.039   0.150
 7202TIP3    H121570   1.013   4.065   0.086
 7202TIP3    H221571   0.864   4.063   0.110
 7203TIP3   OH221572   6.699   1.552   0.208
 7203TIP3    H121573   6.704   1.533   0.115
 7203TIP3    H221574   6.606   1.561   0.227
 7204TIP3   OH221575   2.197   2.243   4.627
 7204TIP3    H121576   2.258   2.170   4.615
 7204TIP3    H221577   2.241   2.318   4.587
 7205TIP3   OH221578   1.380   0.011   5.330
 7205TIP3    H121579   1.317   0.082   5.345
 7205TIP3    H221580   1.365  -0.016   5.239
 7206TIP3   OH221581   1.544   2.261   5.812
 7206TIP3    H121582   1.458   2.220   5.821
 7206TIP3    H221583   1.553   2.277   5.718
 7207TIP3   OH221584   3.588   3.616   1.390
 7207TIP3    H121585   3.497   3.591   1.411
 7207TIP3    H221586   3.579   3.680   1.320
 7208TIP3   OH221587   1.560   5.602   3.374
 7208TIP3    H121588   1.575   5.654   3.295
 7208TIP3    H221589   1.598   5.516   3.353
 7209TIP3   OH221590   3.361   1.376   4.902
 7209TIP3    H121591   3.324   1.406   4.819
 7209TIP3    H221592   3.396   1.289   4.883
 7210TIP3   OH221593   6.158   5.150   4.879
 7210TIP3    H121594   6.089   5.149   4.945
 7210TIP3    H221595   6.115   5.119   4.799
 7211TIP3   OH221596   5.111   0.043   3.112
 7211TIP3    H121597   5.099   0.131   3.076
 7211TIP3    H221598   5.206   0.033   3.122
 7212TIP3   OH221599   2.901   0.145   0.383
 7212TIP3    H121600   2.996   0.148   0.379
 7212TIP3    H221601   2.872   0.195   0.307
 7213TIP3   OH221602   6.528   1.649   4.174
 7213TIP3    H121603   6.490   1.736   4.184
 7213TIP3    H221604   6.593   1.659   4.104
 7214TIP3   OH221605   0.668   2.674   2.967
 7214TIP3    H121606   0.714   2.708   3.044
 7214TIP3    H221607   0.738   2.652   2.905
 7215TIP3   OH221608   4.642   5.879   5.322
 7215TIP3    H121609   4.665   5.925   5.404
 7215TIP3    H221610   4.708   5.810   5.315
 7216TIP3   OH221611   1.166   2.834   2.075
 7216TIP3    H121612   1.150   2.882   2.156
 7216TIP3    H221613   1.225   2.763   2.101
 7217TIP3   OH221614   2.387   2.843   3.744
 7217TIP3    H121615   2.339   2.879   3.669
 7217TIP3    H221616   2.320   2.811   3.803
 7218TIP3   OH221617   0.945   3.076   2.090
 7218TIP3    H121618   1.034   3.102   2.064
 7218TIP3    H221619   0.927   3.130   2.167
 7219TIP3   OH221620   3.317   1.178   0.790
 7219TIP3    H121621   3.303   1.226   0.872
 7219TIP3    H221622   3.297   1.087   0.813
 7220TIP3   OH221623   6.782   5.205   3.900
 7220TIP3    H121624   6.770   5.269   3.971
 7220TIP3    H221625   6.745   5.124   3.935
 7221TIP3   OH221626   2.364   4.649   4.002
 7221TIP3    H121627   2.404   4.574   3.957
 7221TIP3    H221628   2.272   4.647   3.974
 7222TIP3   OH221629   5.928   1.629   2.714
 7222TIP3    H121630   5.965   1.709   2.751
 7222TIP3    H221631   5.957   1.628   2.623
 7223TIP3   OH221632   4.729   5.113   4.138
 7223TIP3    H121633   4.822   5.109   4.116
 7223TIP3    H221634   4.728   5.119   4.234
 7224TIP3   OH221635   1.964   1.000   4.462
 7224TIP3    H121636   1.976   1.095   4.464
 7224TIP3    H221637   2.009   0.968   4.539
 7225TIP3   OH221638   1.267   4.723   5.081
 7225TIP3    H121639   1.321   4.653   5.046
 7225TIP3    H221640   1.302   4.803   5.042
 7226TIP3   OH221641   3.915   4.873   4.188
 7226TIP3    H121642   3.918   4.791   4.140
 7226TIP3    H221643   3.834   4.915   4.161
 7227TIP3   OH221644   0.283   4.558   2.965
 7227TIP3    H121645   0.324   4.530   3.047
 7227TIP3    H221646   0.223   4.486   2.943
 7228TIP3   OH221647   5.572   4.354   2.811
 7228TIP3    H121648   5.483   4.320   2.821
 7228TIP3    H221649   5.577   4.382   2.720
 7229TIP3   OH221650   2.344   2.405   4.433
 7229TIP3    H121651   2.309   2.454   4.359
 7229TIP3    H221652   2.359   2.317   4.399
 7230TIP3   OH221653   5.563   3.090   3.712
 7230TIP3    H121654   5.632   3.027   3.733
 7230TIP3    H221655   5.509   3.046   3.646
 7231TIP3   OH221656   1.484   5.201   4.488
 7231TIP3    H121657   1.496   5.290   4.521
 7231TIP3    H221658   1.572   5.171   4.466
 7232TIP3   OH221659   6.278   5.899   5.752
 7232TIP3    H121660   6.281   5.995   5.753
 7232TIP3    H221661   6.223   5.876   5.827
 7233TIP3   OH221662   4.257   3.870   2.074
 7233TIP3    H121663   4.242   3.793   2.129
 7233TIP3    H221664   4.172   3.888   2.035
 7234TIP3   OH221665   2.470   6.609   3.008
 7234TIP3    H121666   2.484   6.606   2.913
 7234TIP3    H221667   2.438   6.697   3.025
 7235TIP3   OH221668   6.446   4.928   4.034
 7235TIP3    H121669   6.413   5.017   4.049
 7235TIP3    H221670   6.408   4.902   3.951
 7236TIP3   OH221671   1.082   3.473   2.113
 7236TIP3    H121672   1.147   3.533   2.078
 7236TIP3    H221673   1.133   3.406   2.159
 7237TIP3   OH221674   6.547   4.845   1.063
 7237TIP3    H121675   6.566   4.899   0.987
 7237TIP3    H221676   6.568   4.756   1.035
 7238TIP3   OH221677   4.454   5.224   1.296
 7238TIP3    H121678   4.463   5.205   1.203
 7238TIP3    H221679   4.540   5.259   1.321
 7239TIP3   OH221680   6.683   3.833   3.878
 7239TIP3    H121681   6.745   3.894   3.918
 7239TIP3    H221682   6.598   3.856   3.916
 7240TIP3   OH221683   1.907   1.752   2.050
 7240TIP3    H121684   1.948   1.666   2.040
 7240TIP3    H221685   1.863   1.747   2.135
 7241TIP3   OH221686   0.572   6.217   0.739
 7241TIP3    H121687   0.650   6.259   0.776
 7241TIP3    H221688   0.512   6.289   0.722
 7242TIP3   OH221689   0.941   1.982   0.176
 7242TIP3    H121690   0.987   1.904   0.146
 7242TIP3    H221691   1.011   2.046   0.191
 7243TIP3   OH221692   5.053   4.002   0.930
 7243TIP3    H121693   5.148   4.014   0.931
 7243TIP3    H221694   5.018   4.090   0.946
 7244TIP3   OH221695   2.657   5.688   5.679
 7244TIP3    H121696   2.715   5.612   5.670
 7244TIP3    H221697   2.662   5.712   5.772
 7245TIP3   OH221698   2.369   5.423   5.650
 7245TIP3    H121699   2.433   5.352   5.659
 7245TIP3    H221700   2.371   5.469   5.734
 7246TIP3   OH221701   4.732   6.738   1.936
 7246TIP3    H121702   4.817   6.774   1.910
 7246TIP3    H221703   4.693   6.707   1.855
 7247TIP3   OH221704   6.923   3.390   3.464
 7247TIP3    H121705   7.004   3.413   3.510
 7247TIP3    H221706   6.874   3.472   3.458
 7248TIP3   OH221707   0.155   4.559   2.668
 7248TIP3    H121708   0.115   4.543   2.753
 7248TIP3    H221709   0.249   4.568   2.686
 7249TIP3   OH221710   2.690   1.407   1.298
 7249TIP3    H121711   2.701   1.409   1.203
 7249TIP3    H221712   2.644   1.324   1.315
 7250TIP3   OH221713   1.041   5.695   1.355
 7250TIP3    H121714   1.101   5.691   1.429
 7250TIP3    H221715   0.956   5.668   1.391
 7251TIP3   OH221716   5.557   6.109   4.127
 7251TIP3    H121717   5.641   6.087   4.088
 7251TIP3    H221718   5.553   6.205   4.122
 7252TIP3   OH221719   6.668   6.070   5.233
 7252TIP3    H121720   6.612   6.010   5.184
 7252TIP3    H221721   6.756   6.033   5.226
 7253TIP3   OH221722   1.321   4.945   0.550
 7253TIP3    H121723   1.247   4.890   0.575
 7253TIP3    H221724   1.397   4.906   0.593
 7254TIP3   OH221725   4.407   6.313   3.695
 7254TIP3    H121726   4.369   6.366   3.765
 7254TIP3    H221727   4.407   6.371   3.619
 7255TIP3   OH221728   6.851   0.631   5.326
 7255TIP3    H121729   6.775   0.637   5.269
 7255TIP3    H221730   6.870   0.722   5.351
 7256TIP3   OH221731   4.222   4.554   0.750
 7256TIP3    H121732   4.298   4.596   0.709
 7256TIP3    H221733   4.154   4.621   0.749
 7257TIP3   OH221734   0.274   6.037   2.283
 7257TIP3    H121735   0.205   6.061   2.221
 7257TIP3    H221736   0.264   5.942   2.294
 7258TIP3   OH221737   3.853   3.230   4.728
 7258TIP3    H121738   3.910   3.211   4.654
 7258TIP3    H221739   3.764   3.214   4.697
 7259TIP3   OH221740   5.894   2.690   5.298
 7259TIP3    H121741   5.899   2.760   5.232
 7259TIP3    H221742   5.847   2.619   5.254
 7260TIP3   OH221743   4.166   0.789   2.807
 7260TIP3    H121744   4.250   0.769   2.765
 7260TIP3    H221745   4.164   0.885   2.811
 7261TIP3   OH221746   4.680   6.148   2.569
 7261TIP3    H121747   4.775   6.146   2.555
 7261TIP3    H221748   4.663   6.069   2.620
 7262TIP3   OH221749   4.617   0.676   1.502
 7262TIP3    H121750   4.567   0.595   1.513
 7262TIP3    H221751   4.669   0.684   1.581
 7263TIP3   OH221752   1.926   0.905   2.756
 7263TIP3    H121753   1.990   0.889   2.825
 7263TIP3    H221754   1.845   0.865   2.787
 7264TIP3   OH221755   7.111   5.264   1.221
 7264TIP3    H121756   7.194   5.217   1.225
 7264TIP3    H221757   7.110   5.305   1.135
 7265TIP3   OH221758   6.942   5.926   3.036
 7265TIP3    H121759   6.923   6.019   3.023
 7265TIP3    H221760   7.036   5.922   3.053
 7266TIP3   OH221761   7.119   4.982   4.041
 7266TIP3    H121762   7.209   4.953   4.056
 7266TIP3    H221763   7.084   4.919   3.978
 7267TIP3   OH221764   2.175   3.652   2.943
 7267TIP3    H121765   2.224   3.635   2.863
 7267TIP3    H221766   2.190   3.575   2.998
 7268TIP3   OH221767   1.268   4.091   3.301
 7268TIP3    H121768   1.304   4.061   3.384
 7268TIP3    H221769   1.195   4.031   3.284
 7269TIP3   OH221770   2.955   4.373   1.346
 7269TIP3    H121771   3.009   4.385   1.268
 7269TIP3    H221772   2.870   4.344   1.312
 7270TIP3   OH221773   3.535   4.542   0.970
 7270TIP3    H121774   3.584   4.548   0.888
 7270TIP3    H221775   3.489   4.625   0.977
 7271TIP3   OH221776   2.637   2.168   0.887
 7271TIP3    H121777   2.670   2.227   0.955
 7271TIP3    H221778   2.562   2.214   0.849
 7272TIP3   OH221779   3.240   4.057   3.355
 7272TIP3    H121780   3.290   3.991   3.403
 7272TIP3    H221781   3.149   4.037   3.374
 7273TIP3   OH221782   4.303   4.771   0.114
 7273TIP3    H121783   4.263   4.684   0.111
 7273TIP3    H221784   4.350   4.778   0.031
 7274TIP3   OH221785   0.407   6.134   5.738
 7274TIP3    H121786   0.476   6.074   5.709
 7274TIP3    H221787   0.451   6.194   5.798
 7275TIP3   OH221788   6.745   3.239   0.615
 7275TIP3    H121789   6.680   3.294   0.570
 7275TIP3    H221790   6.715   3.235   0.706
 7276TIP3   OH221791   1.866   5.232   5.155
 7276TIP3    H121792   1.888   5.150   5.198
 7276TIP3    H221793   1.861   5.210   5.062
 7277TIP3   OH221794   2.469   3.456   1.160
 7277TIP3    H121795   2.462   3.423   1.071
 7277TIP3    H221796   2.426   3.390   1.214
 7278TIP3   OH221797   1.082   3.141   5.440
 7278TIP3    H121798   1.056   3.070   5.499
 7278TIP3    H221799   1.046   3.220   5.481
 7279TIP3   OH221800   5.546   6.380   2.849
 7279TIP3    H121801   5.492   6.314   2.893
 7279TIP3    H221802   5.623   6.389   2.904
 7280TIP3   OH221803   2.771   6.058   3.860
 7280TIP3    H121804   2.827   6.032   3.933
 7280TIP3    H221805   2.716   5.981   3.843
 7281TIP3   OH221806   4.938   1.539   3.598
 7281TIP3    H121807   4.916   1.447   3.612
 7281TIP3    H221808   4.855   1.581   3.577
 7282TIP3   OH221809   2.026   0.285   5.820
 7282TIP3    H121810   1.962   0.309   5.753
 7282TIP3    H221811   2.015   0.351   5.888
 7283TIP3   OH221812   0.902   1.323   1.648
 7283TIP3    H121813   0.950   1.241   1.663
 7283TIP3    H221814   0.956   1.372   1.586
 7284TIP3   OH221815   1.181   5.372   4.666
 7284TIP3    H121816   1.086   5.382   4.662
 7284TIP3    H221817   1.216   5.446   4.617
 7285TIP3   OH221818   5.730   2.428   1.401
 7285TIP3    H121819   5.769   2.460   1.320
 7285TIP3    H221820   5.724   2.506   1.457
 7286TIP3   OH221821   0.536   1.486   0.269
 7286TIP3    H121822   0.493   1.451   0.347
 7286TIP3    H221823   0.537   1.581   0.282
 7287TIP3   OH221824   3.910   3.780   0.691
 7287TIP3    H121825   3.990   3.759   0.642
 7287TIP3    H221826   3.938   3.847   0.754
 7288TIP3   OH221827   1.470   6.413   2.181
 7288TIP3    H121828   1.538   6.364   2.135
 7288TIP3    H221829   1.450   6.487   2.123
 7289TIP3   OH221830   3.671   3.621   5.298
 7289TIP3    H121831   3.735   3.563   5.256
 7289TIP3    H221832   3.687   3.611   5.392
 7290TIP3   OH221833   5.564   3.390   2.982
 7290TIP3    H121834   5.494   3.326   2.999
 7290TIP3    H221835   5.581   3.383   2.888
 7291TIP3   OH221836   2.460   5.285   2.700
 7291TIP3    H121837   2.485   5.192   2.696
 7291TIP3    H221838   2.395   5.295   2.631
 7292TIP3   OH221839   1.529   2.962   1.758
 7292TIP3    H121840   1.597   3.012   1.713
 7292TIP3    H221841   1.578   2.897   1.810
 7293TIP3   OH221842   5.171   2.727   2.921
 7293TIP3    H121843   5.225   2.648   2.919
 7293TIP3    H221844   5.115   2.716   2.997
 7294TIP3   OH221845   0.249   2.532   3.978
 7294TIP3    H121846   0.185   2.597   3.947
 7294TIP3    H221847   0.266   2.556   4.069
 7295TIP3   OH221848   4.875   4.753   2.762
 7295TIP3    H121849   4.808   4.789   2.820
 7295TIP3    H221850   4.825   4.709   2.693
 7296TIP3   OH221851   1.813   5.749   0.569
 7296TIP3    H121852   1.806   5.673   0.510
 7296TIP3    H221853   1.765   5.818   0.524
 7297TIP3   OH221854   0.323   1.599   0.475
 7297TIP3    H121855   0.291   1.535   0.540
 7297TIP3    H221856   0.403   1.635   0.514
 7298TIP3   OH221857   0.124   0.257   0.328
 7298TIP3    H121858   0.114   0.319   0.400
 7298TIP3    H221859   0.101   0.172   0.367
 7299TIP3   OH221860   5.745   1.045   4.100
 7299TIP3    H121861   5.730   1.100   4.023
 7299TIP3    H221862   5.666   0.992   4.107
 7300TIP3   OH221863   3.073   0.389   1.735
 7300TIP3    H121864   3.072   0.375   1.640
 7300TIP3    H221865   3.034   0.309   1.771
 7301TIP3   OH221866   1.123   4.631   4.821
 7301TIP3    H121867   1.135   4.590   4.907
 7301TIP3    H221868   1.080   4.563   4.769
 7302TIP3   OH221869   6.446   1.170   1.723
 7302TIP3    H121870   6.387   1.171   1.798
 7302TIP3    H221871   6.423   1.250   1.674
 7303TIP3   OH221872   5.682   1.621   3.411
 7303TIP3    H121873   5.603   1.625   3.464
 7303TIP3    H221874   5.674   1.695   3.350
 7304TIP3   OH221875   3.627   6.337   2.401
 7304TIP3    H121876   3.580   6.348   2.317
 7304TIP3    H221877   3.672   6.253   2.392
 7305TIP3   OH221878   3.732   4.688   4.838
 7305TIP3    H121879   3.674   4.728   4.903
 7305TIP3    H221880   3.700   4.722   4.754
 7306TIP3   OH221881   5.097   0.066   5.437
 7306TIP3    H121882   5.015   0.016   5.431
 7306TIP3    H221883   5.159   0.017   5.383
 7307TIP3   OH221884   6.868   4.540   3.594
 7307TIP3    H121885   6.803   4.478   3.627
 7307TIP3    H221886   6.951   4.492   3.597
 7308TIP3   OH221887   0.948   6.342   1.579
 7308TIP3    H121888   0.928   6.318   1.669
 7308TIP3    H221889   0.996   6.425   1.587
 7309TIP3   OH221890   0.276   4.042   1.190
 7309TIP3    H121891   0.239   4.087   1.115
 7309TIP3    H221892   0.242   3.953   1.185
 7310TIP3   OH221893   2.871   1.238   5.414
 7310TIP3    H121894   2.911   1.194   5.488
 7310TIP3    H221895   2.901   1.329   5.420
 7311TIP3   OH221896   0.022   2.179   1.465
 7311TIP3    H121897   0.070   2.182   1.548
 7311TIP3    H221898   0.091   2.176   1.398
 7312TIP3   OH221899   1.456   3.544   3.055
 7312TIP3    H121900   1.440   3.549   2.960
 7312TIP3    H221901   1.454   3.450   3.074
 7313TIP3   OH221902   1.444   3.055   1.210
 7313TIP3    H121903   1.446   3.150   1.219
 7313TIP3    H221904   1.451   3.039   1.116
 7314TIP3   OH221905   5.184   6.389   3.398
 7314TIP3    H121906   5.138   6.450   3.339
 7314TIP3    H221907   5.115   6.330   3.428
 7315TIP3   OH221908   5.988   4.935   2.970
 7315TIP3    H121909   6.072   4.980   2.960
 7315TIP3    H221910   5.980   4.920   3.064
 7316TIP3   OH221911   0.634   1.561   3.669
 7316TIP3    H121912   0.638   1.579   3.763
 7316TIP3    H221913   0.540   1.558   3.650
 7317TIP3   OH221914   0.491   4.586   2.073
 7317TIP3    H121915   0.495   4.562   1.980
 7317TIP3    H221916   0.520   4.507   2.119
 7318TIP3   OH221917   4.198   2.268   4.531
 7318TIP3    H121918   4.270   2.329   4.516
 7318TIP3    H221919   4.162   2.252   4.444
 7319TIP3   OH221920   1.558   1.566   2.215
 7319TIP3    H121921   1.590   1.477   2.202
 7319TIP3    H221922   1.627   1.611   2.263
 7320TIP3   OH221923   2.664   4.169   4.726
 7320TIP3    H121924   2.604   4.144   4.796
 7320TIP3    H221925   2.611   4.216   4.663
 7321TIP3   OH221926   7.143   3.635   2.503
 7321TIP3    H121927   7.048   3.618   2.501
 7321TIP3    H221928   7.183   3.552   2.477
 7322TIP3   OH221929   0.480   1.246   3.089
 7322TIP3    H121930   0.495   1.294   3.170
 7322TIP3    H221931   0.468   1.314   3.023
 7323TIP3   OH221932   6.841   4.650   4.579
 7323TIP3    H121933   6.872   4.706   4.651
 7323TIP3    H221934   6.877   4.564   4.598
 7324TIP3   OH221935   1.342   2.705   0.356
 7324TIP3    H121936   1.344   2.699   0.261
 7324TIP3    H221937   1.433   2.695   0.383
 7325TIP3   OH221938   0.631   3.161   2.125
 7325TIP3    H121939   0.586   3.208   2.195
 7325TIP3    H221940   0.704   3.117   2.169
 7326TIP3   OH221941   4.196   1.313   3.831
 7326TIP3    H121942   4.127   1.362   3.876
 7326TIP3    H221943   4.151   1.238   3.793
 7327TIP3   OH221944   4.317   3.435   1.237
 7327TIP3    H121945   4.333   3.427   1.143
 7327TIP3    H221946   4.404   3.450   1.275
 7328TIP3   OH221947   3.931   4.062   3.594
 7328TIP3    H121948   3.892   3.975   3.608
 7328TIP3    H221949   3.997   4.070   3.664
 7329TIP3   OH221950   3.963   0.672   2.678
 7329TIP3    H121951   4.038   0.717   2.717
 7329TIP3    H221952   3.888   0.704   2.727
 7330TIP3   OH221953   2.642   6.380   4.252
 7330TIP3    H121954   2.731   6.406   4.275
 7330TIP3    H221955   2.648   6.356   4.160
 7331TIP3   OH221956   5.622   4.273   1.238
 7331TIP3    H121957   5.590   4.229   1.317
 7331TIP3    H221958   5.701   4.319   1.266
 7332TIP3   OH221959   6.552   5.918   5.055
 7332TIP3    H121960   6.565   5.823   5.050
 7332TIP3    H221961   6.457   5.928   5.056
 7333TIP3   OH221962   2.992   6.092   5.162
 7333TIP3    H121963   3.002   6.007   5.205
 7333TIP3    H221964   3.015   6.156   5.230
 7334TIP3   OH221965   3.911   2.158   3.284
 7334TIP3    H121966   3.984   2.210   3.319
 7334TIP3    H221967   3.940   2.067   3.294
 7335TIP3   OH221968   5.313   5.763   0.569
 7335TIP3    H121969   5.336   5.760   0.477
 7335TIP3    H221970   5.335   5.852   0.597
 7336TIP3   OH221971   4.517   5.754   3.833
 7336TIP3    H121972   4.482   5.708   3.757
 7336TIP3    H221973   4.441   5.801   3.870
 7337TIP3   OH221974   5.728   5.062   2.001
 7337TIP3    H121975   5.661   5.069   1.933
 7337TIP3    H221976   5.771   4.978   1.983
 7338TIP3   OH221977   4.958   0.104   2.840
 7338TIP3    H121978   4.881   0.075   2.888
 7338TIP3    H221979   5.018   0.028   2.842
 7339TIP3   OH221980   5.855   2.391   5.310
 7339TIP3    H121981   5.917   2.440   5.364
 7339TIP3    H221982   5.788   2.362   5.371
 7340TIP3   OH221983   2.006   2.878   3.142
 7340TIP3    H121984   2.056   2.957   3.162
 7340TIP3    H221985   1.923   2.891   3.187
 7341TIP3   OH221986   2.035   1.548   4.778
 7341TIP3    H121987   2.003   1.600   4.851
 7341TIP3    H221988   1.957   1.529   4.726
 7342TIP3   OH221989   0.058   2.076   1.866
 7342TIP3    H121990   0.003   2.139   1.912
 7342TIP3    H221991   0.130   2.127   1.831
 7343TIP3   OH221992   0.246   4.277   3.247
 7343TIP3    H121993   0.270   4.243   3.161
 7343TIP3    H221994   0.151   4.264   3.253
 7344TIP3   OH221995   5.511   5.312   0.211
 7344TIP3    H121996   5.536   5.226   0.244
 7344TIP3    H221997   5.555   5.319   0.126
 7345TIP3   OH221998   0.082   6.500   0.226
 7345TIP3    H121999   0.010   6.563   0.237
 7345TIP3    H222000   0.159   6.554   0.208
 7346TIP3   OH222001   0.375   5.069   1.435
 7346TIP3    H122002   0.329   5.001   1.386
 7346TIP3    H222003   0.307   5.115   1.483
 7347TIP3   OH222004   2.642   0.071   2.646
 7347TIP3    H122005   2.681  -0.016   2.661
 7347TIP3    H222006   2.700   0.131   2.693
 7348TIP3   OH222007   4.848   4.491   1.455
 7348TIP3    H122008   4.853   4.477   1.360
 7348TIP3    H222009   4.887   4.577   1.468
 7349TIP3   OH222010   4.788   1.787   4.284
 7349TIP3    H122011   4.698   1.787   4.317
 7349TIP3    H222012   4.778   1.770   4.190
 7350TIP3   OH222013   0.986   5.256   0.716
 7350TIP3    H122014   0.975   5.329   0.777
 7350TIP3    H222015   1.079   5.235   0.720
 7351TIP3   OH222016   5.002   4.273   1.034
 7351TIP3    H122017   5.017   4.285   1.127
 7351TIP3    H222018   5.055   4.340   0.992
 7352TIP3   OH222019   4.570   2.567   4.668
 7352TIP3    H122020   4.600   2.627   4.600
 7352TIP3    H222021   4.477   2.552   4.647
 7353TIP3   OH222022   0.879   2.181   0.531
 7353TIP3    H122023   0.960   2.131   0.518
 7353TIP3    H222024   0.908   2.263   0.571
 7354TIP3   OH222025   1.778   6.080   5.135
 7354TIP3    H122026   1.700   6.114   5.178
 7354TIP3    H222027   1.757   5.989   5.115
 7355TIP3   OH222028   1.843   4.459   5.239
 7355TIP3    H122029   1.871   4.467   5.148
 7355TIP3    H222030   1.785   4.383   5.240
 7356TIP3   OH222031   2.686   0.338   2.442
 7356TIP3    H122032   2.769   0.297   2.469
 7356TIP3    H222033   2.655   0.383   2.521
 7357TIP3   OH222034   2.362   0.985   1.966
 7357TIP3    H122035   2.313   0.923   1.911
 7357TIP3    H222036   2.374   0.939   2.048
 7358TIP3   OH222037   1.303   5.819   2.623
 7358TIP3    H122038   1.216   5.831   2.583
 7358TIP3    H222039   1.348   5.759   2.564
 7359TIP3   OH222040   3.585   0.159   5.628
 7359TIP3    H122041   3.630   0.185   5.547
 7359TIP3    H222042   3.608   0.067   5.639
 7360TIP3   OH222043   6.210   0.510   1.889
 7360TIP3    H122044   6.121   0.505   1.855
 7360TIP3    H222045   6.265   0.520   1.812
 7361TIP3   OH222046   6.735   3.479   4.702
 7361TIP3    H122047   6.703   3.418   4.636
 7361TIP3    H222048   6.810   3.435   4.742
 7362TIP3   OH222049   6.471   3.887   5.669
 7362TIP3    H122050   6.443   3.818   5.729
 7362TIP3    H222051   6.390   3.915   5.626
 7363TIP3   OH222052   1.485   1.797   0.763
 7363TIP3    H122053   1.417   1.795   0.831
 7363TIP3    H222054   1.457   1.730   0.700
 7364TIP3   OH222055   0.010   5.560   4.373
 7364TIP3    H122056   0.097   5.530   4.350
 7364TIP3    H222057  -0.036   5.568   4.289
 7365TIP3   OH222058   6.668   6.481   1.196
 7365TIP3    H122059   6.608   6.419   1.239
 7365TIP3    H222060   6.751   6.434   1.189
 7366TIP3   OH222061   2.572   0.777   4.474
 7366TIP3    H122062   2.509   0.813   4.412
 7366TIP3    H222063   2.522   0.761   4.553
 7367TIP3   OH222064   4.835   2.124   5.209
 7367TIP3    H122065   4.791   2.041   5.229
 7367TIP3    H222066   4.860   2.116   5.117
 7368TIP3   OH222067   1.071   6.716   2.244
 7368TIP3    H122068   0.991   6.666   2.233
 7368TIP3    H222069   1.126   6.690   2.170
 7369TIP3   OH222070   3.428   6.165   3.134
 7369TIP3    H122071   3.472   6.100   3.188
 7369TIP3    H222072   3.492   6.235   3.123
 7370TIP3   OH222073   0.213   4.910   2.691
 7370TIP3    H122074   0.207   5.000   2.658
 7370TIP3    H222075   0.145   4.905   2.758
 7371TIP3   OH222076   2.355   4.918   2.417
 7371TIP3    H122077   2.364   4.871   2.499
 7371TIP3    H222078   2.264   4.946   2.415
 7372TIP3   OH222079   3.091   0.057   5.441
 7372TIP3    H122080   3.043   0.017   5.514
 7372TIP3    H222081   3.045   0.140   5.426
 7373TIP3   OH222082   5.719   3.287   3.854
 7373TIP3    H122083   5.676   3.218   3.804
 7373TIP3    H222084   5.647   3.345   3.880
 7374TIP3   OH222085   7.020   0.354   1.081
 7374TIP3    H122086   7.100   0.402   1.101
 7374TIP3    H222087   7.041   0.302   1.004
 7375TIP3   OH222088   6.599   4.676   0.140
 7375TIP3    H122089   6.514   4.685   0.098
 7375TIP3    H222090   6.662   4.708   0.075
 7376TIP3   OH222091   5.366   3.018   1.557
 7376TIP3    H122092   5.276   3.023   1.588
 7376TIP3    H222093   5.420   3.036   1.635
 7377TIP3   OH222094   5.770   1.546   1.530
 7377TIP3    H122095   5.703   1.610   1.557
 7377TIP3    H222096   5.740   1.516   1.445
 7378TIP3   OH222097   6.388   6.388   3.402
 7378TIP3    H122098   6.364   6.398   3.494
 7378TIP3    H222099   6.481   6.366   3.403
 7379TIP3   OH222100   2.075   4.894   0.477
 7379TIP3    H122101   2.031   4.852   0.551
 7379TIP3    H222102   2.004   4.926   0.421
 7380TIP3   OH222103   3.291   5.889   2.689
 7380TIP3    H122104   3.360   5.917   2.749
 7380TIP3    H222105   3.273   5.967   2.636
 7381TIP3   OH222106   5.913   5.938   3.057
 7381TIP3    H122107   5.867   6.020   3.074
 7381TIP3    H222108   6.001   5.965   3.028
 7382TIP3   OH222109   3.553   4.266   0.271
 7382TIP3    H122110   3.602   4.201   0.221
 7382TIP3    H222111   3.576   4.350   0.232
 7383TIP3   OH222112   0.111   0.901   4.530
 7383TIP3    H122113   0.077   0.885   4.442
 7383TIP3    H222114   0.035   0.892   4.587
 7384TIP3   OH222115   5.635   4.598   3.451
 7384TIP3    H122116   5.646   4.594   3.546
 7384TIP3    H222117   5.719   4.568   3.416
 7385TIP3   OH222118   3.567   3.865   2.571
 7385TIP3    H122119   3.644   3.877   2.627
 7385TIP3    H222120   3.529   3.782   2.600
 7386TIP3   OH222121   0.524   1.348   4.909
 7386TIP3    H122122   0.502   1.255   4.905
 7386TIP3    H222123   0.568   1.366   4.826
 7387TIP3   OH222124   5.065   3.264   1.065
 7387TIP3    H122125   5.082   3.341   1.010
 7387TIP3    H222126   5.123   3.275   1.140
 7388TIP3   OH222127   3.720   5.702   5.714
 7388TIP3    H122128   3.658   5.706   5.787
 7388TIP3    H222129   3.803   5.730   5.752
 7389TIP3   OH222130   0.793   1.118   3.601
 7389TIP3    H122131   0.876   1.095   3.559
 7389TIP3    H222132   0.780   1.210   3.579
 7390TIP3   OH222133   5.287   2.535   0.979
 7390TIP3    H122134   5.329   2.584   1.049
 7390TIP3    H222135   5.193   2.545   0.996
 7391TIP3   OH222136   5.490   6.760   1.758
 7391TIP3    H122137   5.532   6.678   1.733
 7391TIP3    H222138   5.411   6.764   1.704
 7392TIP3   OH222139   2.535   1.615   1.374
 7392TIP3    H122140   2.610   1.581   1.324
 7392TIP3    H222141   2.466   1.628   1.308
 7393TIP3   OH222142   5.613   6.747   1.419
 7393TIP3    H122143   5.556   6.671   1.410
 7393TIP3    H222144   5.681   6.734   1.353
 7394TIP3   OH222145   4.743   1.603   3.195
 7394TIP3    H122146   4.704   1.517   3.212
 7394TIP3    H222147   4.837   1.587   3.193
 7395TIP3   OH222148   2.056   4.370   3.176
 7395TIP3    H122149   1.984   4.433   3.178
 7395TIP3    H222150   2.110   4.393   3.252
 7396TIP3   OH222151   2.149   0.415   3.915
 7396TIP3    H122152   2.220   0.478   3.906
 7396TIP3    H222153   2.077   0.465   3.954
 7397TIP3   OH222154   4.827   2.604   0.611
 7397TIP3    H122155   4.830   2.699   0.611
 7397TIP3    H222156   4.817   2.580   0.704
 7398TIP3   OH222157   0.065   3.262   1.008
 7398TIP3    H122158   0.159   3.242   1.011
 7398TIP3    H222159   0.033   3.214   0.932
 7399TIP3   OH222160   2.466   0.133   1.010
 7399TIP3    H122161   2.390   0.075   1.002
 7399TIP3    H222162   2.457   0.172   1.097
 7400TIP3   OH222163   4.480   5.925   5.598
 7400TIP3    H122164   4.558   5.929   5.653
 7400TIP3    H222165   4.408   5.915   5.661
 7401TIP3   OH222166   7.174   0.999   2.502
 7401TIP3    H122167   7.133   0.979   2.586
 7401TIP3    H222168   7.228   1.075   2.519
 7402TIP3   OH222169   2.383   0.717   0.039
 7402TIP3    H122170   2.330   0.664   0.099
 7402TIP3    H222171   2.416   0.789   0.092
 7403TIP3   OH222172   6.631   6.044   4.788
 7403TIP3    H122173   6.638   6.139   4.800
 7403TIP3    H222174   6.587   6.013   4.868
 7404TIP3   OH222175   2.236   5.044   1.257
 7404TIP3    H122176   2.293   4.967   1.249
 7404TIP3    H222177   2.288   5.116   1.222
 7405TIP3   OH222178   2.515   1.747   5.378
 7405TIP3    H122179   2.420   1.754   5.388
 7405TIP3    H222180   2.527   1.684   5.307
 7406TIP3   OH222181   5.428   0.076   2.041
 7406TIP3    H122182   5.466   0.024   1.969
 7406TIP3    H222183   5.504   0.117   2.083
 7407TIP3   OH222184   6.832   6.460   4.668
 7407TIP3    H122185   6.797   6.480   4.755
 7407TIP3    H222186   6.762   6.410   4.625
 7408TIP3   OH222187   0.470   0.273   4.355
 7408TIP3    H122188   0.490   0.295   4.264
 7408TIP3    H222189   0.416   0.194   4.350
 7409TIP3   OH222190   2.439   3.098   4.542
 7409TIP3    H122191   2.471   3.149   4.616
 7409TIP3    H222192   2.513   3.041   4.518
 7410TIP3   OH222193   4.802   0.927   1.224
 7410TIP3    H122194   4.881   0.912   1.172
 7410TIP3    H222195   4.786   0.844   1.269
 7411TIP3   OH222196   4.624   2.376   2.539
 7411TIP3    H122197   4.623   2.358   2.446
 7411TIP3    H222198   4.589   2.465   2.547
 7412TIP3   OH222199   2.029   4.224   5.017
 7412TIP3    H122200   1.945   4.227   4.972
 7412TIP3    H222201   2.068   4.309   5.002
 7413TIP3   OH222202   4.260   5.563   3.421
 7413TIP3    H122203   4.280   5.623   3.350
 7413TIP3    H222204   4.165   5.566   3.429
 7414TIP3   OH222205   5.389   6.043   4.342
 7414TIP3    H122206   5.470   6.055   4.292
 7414TIP3    H222207   5.398   5.956   4.381
 7415TIP3   OH222208   5.599   5.468   1.149
 7415TIP3    H122209   5.552   5.540   1.106
 7415TIP3    H222210   5.576   5.391   1.098
 7416TIP3   OH222211   3.764   0.851   1.351
 7416TIP3    H122212   3.811   0.841   1.434
 7416TIP3    H222213   3.730   0.764   1.332
 7417TIP3   OH222214   5.966   3.106   0.519
 7417TIP3    H122215   5.992   3.170   0.453
 7417TIP3    H222216   5.931   3.159   0.590
 7418TIP3   OH222217   6.027   1.200   1.202
 7418TIP3    H122218   6.018   1.130   1.138
 7418TIP3    H222219   6.101   1.253   1.170
 7419TIP3   OH222220   1.306   0.244   4.177
 7419TIP3    H122221   1.399   0.268   4.183
 7419TIP3    H222222   1.259   0.321   4.206
 7420TIP3   OH222223   6.032   0.844   1.795
 7420TIP3    H122224   5.999   0.768   1.746
 7420TIP3    H222225   6.121   0.820   1.820
 7421TIP3   OH222226   0.062   5.626   1.879
 7421TIP3    H122227   0.125   5.558   1.904
 7421TIP3    H222228   0.069   5.691   1.948
 7422TIP3   OH222229   1.713   2.526   4.977
 7422TIP3    H122230   1.705   2.497   4.887
 7422TIP3    H222231   1.785   2.589   4.975
 7423TIP3   OH222232   3.255   0.173   4.546
 7423TIP3    H122233   3.218   0.115   4.613
 7423TIP3    H222234   3.325   0.121   4.506
 7424TIP3   OH222235   0.067   6.332   3.810
 7424TIP3    H122236   0.006   6.403   3.792
 7424TIP3    H222237   0.153   6.373   3.807
 7425TIP3   OH222238   0.312   4.052   5.356
 7425TIP3    H122239   0.256   3.994   5.306
 7425TIP3    H222240   0.302   4.138   5.315
 7426TIP3   OH222241   1.505   1.087   3.270
 7426TIP3    H122242   1.566   1.159   3.289
 7426TIP3    H222243   1.543   1.012   3.315
 7427TIP3   OH222244   1.507   2.581   3.444
 7427TIP3    H122245   1.460   2.617   3.369
 7427TIP3    H222246   1.439   2.538   3.496
 7428TIP3   OH222247   5.851   3.991   5.838
 7428TIP3    H122248   5.858   4.086   5.842
 7428TIP3    H222249   5.853   3.963   5.929
 7429TIP3   OH222250   4.279   1.146   4.293
 7429TIP3    H122251   4.290   1.209   4.222
 7429TIP3    H222252   4.337   1.177   4.363
 7430TIP3   OH222253   7.026   0.825   3.241
 7430TIP3    H122254   7.087   0.884   3.197
 7430TIP3    H222255   6.945   0.875   3.250
 7431TIP3   OH222256   3.966   0.535   0.253
 7431TIP3    H122257   4.007   0.616   0.283
 7431TIP3    H222258   3.873   0.558   0.244
 7432TIP3   OH222259   4.368   5.815   4.978
 7432TIP3    H122260   4.328   5.890   5.021
 7432TIP3    H222261   4.297   5.751   4.971
 7433TIP3   OH222262   1.773   0.265   3.901
 7433TIP3    H122263   1.688   0.258   3.858
 7433TIP3    H222264   1.764   0.214   3.981
 7434TIP3   OH222265   5.567   2.141   4.607
 7434TIP3    H122266   5.652   2.112   4.573
 7434TIP3    H222267   5.507   2.069   4.587
 7435TIP3   OH222268   4.536   0.839   3.526
 7435TIP3    H122269   4.525   0.781   3.451
 7435TIP3    H222270   4.572   0.920   3.489
 7436TIP3   OH222271   6.347   3.649   4.003
 7436TIP3    H122272   6.276   3.585   4.010
 7436TIP3    H222273   6.427   3.598   4.013
 7437TIP3   OH222274   6.550   6.650   0.410
 7437TIP3    H122275   6.612   6.586   0.446
 7437TIP3    H222276   6.512   6.693   0.486
 7438TIP3   OH222277   6.990   4.127   2.674
 7438TIP3    H122278   7.028   4.043   2.650
 7438TIP3    H222279   7.065   4.187   2.679
 7439TIP3   OH222280   4.825   1.486   1.450
 7439TIP3    H122281   4.891   1.417   1.450
 7439TIP3    H222282   4.857   1.550   1.387
 7440TIP3   OH222283   1.919   4.099   2.795
 7440TIP3    H122284   1.843   4.150   2.768
 7440TIP3    H222285   1.913   4.096   2.890
 7441TIP3   OH222286   4.316   1.000  -0.029
 7441TIP3    H122287   4.393   0.949  -0.053
 7441TIP3    H222288   4.299   1.056  -0.104
 7442TIP3   OH222289   2.370   4.158   4.371
 7442TIP3    H122290   2.285   4.202   4.372
 7442TIP3    H222291   2.379   4.120   4.459
 7443TIP3   OH222292   4.839   2.969   0.544
 7443TIP3    H122293   4.827   2.987   0.451
 7443TIP3    H222294   4.754   2.938   0.574
 7444TIP3   OH222295   4.665   3.753   5.220
 7444TIP3    H122296   4.712   3.740   5.302
 7444TIP3    H222297   4.720   3.712   5.153
 7445TIP3   OH222298   0.076   5.285   3.331
 7445TIP3    H122299   0.160   5.249   3.359
 7445TIP3    H222300   0.079   5.279   3.235
 7446TIP3   OH222301   6.500   0.648   1.249
 7446TIP3    H122302   6.430   0.632   1.312
 7446TIP3    H222303   6.458   0.635   1.164
 7447TIP3   OH222304   4.607   6.677   5.559
 7447TIP3    H122305   4.514   6.659   5.551
 7447TIP3    H222306   4.640   6.675   5.470
 7448TIP3   OH222307   3.497   3.375   0.493
 7448TIP3    H122308   3.428   3.377   0.427
 7448TIP3    H222309   3.577   3.398   0.446
 7449TIP3   OH222310   0.316   2.711   0.767
 7449TIP3    H122311   0.385   2.777   0.770
 7449TIP3    H222312   0.278   2.719   0.679
 7450TIP3   OH222313   2.979   5.946   2.783
 7450TIP3    H122314   2.988   6.041   2.790
 7450TIP3    H222315   3.056   5.912   2.828
 7451TIP3   OH222316   0.171   4.700   0.778
 7451TIP3    H122317   0.244   4.745   0.821
 7451TIP3    H222318   0.128   4.652   0.848
 7452TIP3   OH222319   0.093   0.348   2.566
 7452TIP3    H122320   0.055   0.436   2.571
 7452TIP3    H222321   0.180   0.361   2.529
 7453TIP3   OH222322   2.656   4.027   2.041
 7453TIP3    H122323   2.677   3.934   2.030
 7453TIP3    H222324   2.730   4.063   2.090
 7454TIP3   OH222325   0.383   3.082   0.568
 7454TIP3    H122326   0.386   3.067   0.662
 7454TIP3    H222327   0.291   3.068   0.544
 7455TIP3   OH222328   2.187   0.130   3.254
 7455TIP3    H122329   2.139   0.212   3.237
 7455TIP3    H222330   2.223   0.106   3.168
 7456TIP3   OH222331   7.098   3.760   1.694
 7456TIP3    H122332   7.145   3.813   1.758
 7456TIP3    H222333   7.147   3.677   1.692
 7457TIP3   OH222334   6.729   0.997   0.543
 7457TIP3    H122335   6.673   1.012   0.467
 7457TIP3    H222336   6.802   1.057   0.530
 7458TIP3   OH222337   0.519   3.941   4.773
 7458TIP3    H122338   0.590   4.005   4.775
 7458TIP3    H222339   0.455   3.973   4.837
 7459TIP3   OH222340   5.436   3.489   1.462
 7459TIP3    H122341   5.433   3.473   1.557
 7459TIP3    H222342   5.421   3.583   1.453
 7460TIP3   OH222343   4.837   2.153   3.315
 7460TIP3    H122344   4.870   2.069   3.284
 7460TIP3    H222345   4.797   2.133   3.399
 7461TIP3   OH222346   3.664   5.767   3.800
 7461TIP3    H122347   3.715   5.704   3.851
 7461TIP3    H222348   3.652   5.841   3.860
 7462TIP3   OH222349   5.497   5.732   3.715
 7462TIP3    H122350   5.491   5.650   3.666
 7462TIP3    H222351   5.585   5.765   3.697
 7463TIP3   OH222352   4.194   0.103   5.434
 7463TIP3    H122353   4.155   0.177   5.481
 7463TIP3    H222354   4.280   0.091   5.474
 7464TIP3   OH222355   0.148   2.914   4.355
 7464TIP3    H122356   0.232   2.939   4.394
 7464TIP3    H222357   0.099   2.996   4.348
 7465TIP3   OH222358   2.618   3.702   0.837
 7465TIP3    H122359   2.650   3.786   0.870
 7465TIP3    H222360   2.674   3.637   0.879
 7466TIP3   OH222361   7.117   3.205   3.685
 7466TIP3    H122362   7.046   3.154   3.645
 7466TIP3    H222363   7.075   3.251   3.758
 7467TIP3   OH222364   6.884   3.534   2.475
 7467TIP3    H122365   6.796   3.500   2.455
 7467TIP3    H222366   6.943   3.463   2.449
 7468TIP3   OH222367   2.014   0.885   0.930
 7468TIP3    H122368   1.976   0.973   0.921
 7468TIP3    H222369   2.084   0.883   0.865
 7469TIP3   OH222370   4.750   4.300   1.652
 7469TIP3    H122371   4.832   4.252   1.658
 7469TIP3    H222372   4.763   4.363   1.581
 7470TIP3   OH222373   6.633   3.796   1.800
 7470TIP3    H122374   6.690   3.766   1.729
 7470TIP3    H222375   6.694   3.824   1.869
 7471TIP3   OH222376   3.407   2.670   1.338
 7471TIP3    H122377   3.336   2.653   1.400
 7471TIP3    H222378   3.467   2.597   1.350
 7472TIP3   OH222379   0.482   2.543   5.867
 7472TIP3    H122380   0.435   2.608   5.920
 7472TIP3    H222381   0.506   2.590   5.787
 7473TIP3   OH222382   2.097   3.905   2.780
 7473TIP3    H122383   2.045   3.983   2.800
 7473TIP3    H222384   2.099   3.856   2.861
 7474TIP3   OH222385   0.554   1.713   1.111
 7474TIP3    H122386   0.466   1.712   1.149
 7474TIP3    H222387   0.562   1.629   1.068
 7475TIP3   OH222388   1.770   1.436   4.747
 7475TIP3    H122389   1.701   1.426   4.813
 7475TIP3    H222390   1.752   1.520   4.705
 7476TIP3   OH222391   0.382   3.601   2.496
 7476TIP3    H122392   0.466   3.573   2.460
 7476TIP3    H222393   0.365   3.686   2.455
 7477TIP3   OH222394   2.319   1.254   3.668
 7477TIP3    H122395   2.391   1.195   3.689
 7477TIP3    H222396   2.297   1.234   3.578
 7478TIP3   OH222397   2.364   2.966   1.054
 7478TIP3    H122398   2.334   2.909   1.125
 7478TIP3    H222399   2.457   2.947   1.045
 7479TIP3   OH222400   4.988   3.737   0.347
 7479TIP3    H122401   5.021   3.813   0.299
 7479TIP3    H222402   5.067   3.697   0.384
 7480TIP3   OH222403   3.858   4.039   0.913
 7480TIP3    H122404   3.936   4.052   0.858
 7480TIP3    H222405   3.784   4.055   0.854
 7481TIP3   OH222406   3.862   2.816   4.521
 7481TIP3    H122407   3.911   2.889   4.559
 7481TIP3    H222408   3.842   2.845   4.432
 7482TIP3   OH222409   1.712   3.419   2.670
 7482TIP3    H122410   1.726   3.430   2.576
 7482TIP3    H222411   1.750   3.333   2.690
 7483TIP3   OH222412   6.756   6.658   5.485
 7483TIP3    H122413   6.787   6.748   5.474
 7483TIP3    H222414   6.690   6.664   5.554
 7484TIP3   OH222415   0.703   4.888   2.972
 7484TIP3    H122416   0.621   4.885   2.923
 7484TIP3    H222417   0.677   4.905   3.062
 7485TIP3   OH222418   6.281   3.207   2.919
 7485TIP3    H122419   6.312   3.232   3.006
 7485TIP3    H222420   6.341   3.251   2.859
 7486TIP3   OH222421   1.603   1.728   2.831
 7486TIP3    H122422   1.587   1.705   2.740
 7486TIP3    H222423   1.516   1.735   2.870
 7487TIP3   OH222424   1.129   0.173   0.678
 7487TIP3    H122425   1.204   0.232   0.682
 7487TIP3    H222426   1.157   0.096   0.727
 7488TIP3   OH222427   3.829  -0.024   1.752
 7488TIP3    H122428   3.845  -0.106   1.706
 7488TIP3    H222429   3.848   0.044   1.687
 7489TIP3   OH222430   6.605   6.032   3.136
 7489TIP3    H122431   6.550   6.093   3.086
 7489TIP3    H222432   6.692   6.039   3.095
 7490TIP3   OH222433   1.331   6.223   0.142
 7490TIP3    H122434   1.377   6.183   0.216
 7490TIP3    H222435   1.260   6.163   0.122
 7491TIP3   OH222436   4.852   0.849   4.721
 7491TIP3    H122437   4.789   0.794   4.674
 7491TIP3    H222438   4.832   0.834   4.813
 7492TIP3   OH222439   2.718   1.541   5.002
 7492TIP3    H122440   2.662   1.518   5.075
 7492TIP3    H222441   2.797   1.578   5.043
 7493TIP3   OH222442   4.834   2.481   1.514
 7493TIP3    H122443   4.867   2.402   1.557
 7493TIP3    H222444   4.821   2.543   1.586
 7494TIP3   OH222445   5.976   5.878   4.724
 7494TIP3    H122446   6.035   5.880   4.800
 7494TIP3    H222447   6.029   5.915   4.653
 7495TIP3   OH222448   2.327   3.508   2.056
 7495TIP3    H122449   2.354   3.592   2.091
 7495TIP3    H222450   2.380   3.444   2.103
 7496TIP3   OH222451   6.054   5.112   3.872
 7496TIP3    H122452   6.031   5.037   3.818
 7496TIP3    H222453   5.970   5.146   3.903
 7497TIP3   OH222454   3.327   4.002   2.317
 7497TIP3    H122455   3.374   3.970   2.240
 7497TIP3    H222456   3.294   3.923   2.359
 7498TIP3   OH222457   6.652   1.277   1.895
 7498TIP3    H122458   6.692   1.199   1.934
 7498TIP3    H222459   6.607   1.245   1.817
 7499TIP3   OH222460   2.096   0.632   1.570
 7499TIP3    H122461   2.136   0.596   1.649
 7499TIP3    H222462   2.165   0.687   1.532
 7500TIP3   OH222463   5.495   4.824   4.010
 7500TIP3    H122464   5.545   4.763   4.064
 7500TIP3    H222465   5.498   4.786   3.922
 7501TIP3   OH222466   2.817   3.679   3.453
 7501TIP3    H122467   2.849   3.718   3.371
 7501TIP3    H222468   2.814   3.585   3.435
 7502TIP3   OH222469   7.032   1.480   5.326
 7502TIP3    H122470   7.093   1.472   5.400
 7502TIP3    H222471   7.054   1.405   5.270
 7503TIP3   OH222472   4.149   4.554   2.588
 7503TIP3    H122473   4.105   4.474   2.561
 7503TIP3    H222474   4.174   4.597   2.506
 7504TIP3   OH222475   6.668   3.294   0.996
 7504TIP3    H122476   6.658   3.362   0.929
 7504TIP3    H222477   6.632   3.333   1.076
 7505TIP3   OH222478   4.765   3.290   3.694
 7505TIP3    H122479   4.842   3.343   3.715
 7505TIP3    H222480   4.791   3.241   3.616
 7506TIP3   OH222481   0.824   1.421   3.968
 7506TIP3    H122482   0.755   1.487   3.965
 7506TIP3    H222483   0.777   1.338   3.960
 7507TIP3   OH222484   4.415   1.360   0.266
 7507TIP3    H122485   4.339   1.310   0.233
 7507TIP3    H222486   4.419   1.339   0.359
 7508TIP3   OH222487   3.357   3.582   0.121
 7508TIP3    H122488   3.445   3.618   0.122
 7508TIP3    H222489   3.368   3.491   0.147
 7509TIP3   OH222490   3.156   2.007   1.402
 7509TIP3    H122491   3.137   2.035   1.312
 7509TIP3    H222492   3.102   2.064   1.456
 7510TIP3   OH222493   5.524   6.704   5.378
 7510TIP3    H122494   5.584   6.663   5.439
 7510TIP3    H222495   5.441   6.710   5.425
 7511TIP3   OH222496   4.964   6.500   4.780
 7511TIP3    H122497   4.943   6.409   4.761
 7511TIP3    H222498   4.899   6.550   4.730
 7512TIP3   OH222499   3.370   6.029   5.376
 7512TIP3    H122500   3.282   5.996   5.395
 7512TIP3    H222501   3.403   5.973   5.306
 7513TIP3   OH222502   5.772   4.856   3.302
 7513TIP3    H122503   5.774   4.824   3.212
 7513TIP3    H222504   5.702   4.921   3.303
 7514TIP3   OH222505   3.086   3.782   1.356
 7514TIP3    H122506   3.088   3.864   1.306
 7514TIP3    H222507   3.111   3.715   1.292
 7515TIP3   OH222508   0.183   0.989   3.468
 7515TIP3    H122509   0.265   0.941   3.452
 7515TIP3    H222510   0.212   1.078   3.489
 7516TIP3   OH222511   2.291   2.925   0.470
 7516TIP3    H122512   2.276   2.985   0.397
 7516TIP3    H222513   2.303   2.840   0.429
 7517TIP3   OH222514   2.859   5.499   2.335
 7517TIP3    H122515   2.898   5.568   2.388
 7517TIP3    H222516   2.770   5.491   2.367
 7518TIP3   OH222517   3.717   4.414   5.559
 7518TIP3    H122518   3.743   4.324   5.543
 7518TIP3    H222519   3.736   4.460   5.477
 7519TIP3   OH222520   6.353   1.513   5.024
 7519TIP3    H122521   6.401   1.555   4.953
 7519TIP3    H222522   6.410   1.523   5.101
 7520TIP3   OH222523   1.548   2.107   0.876
 7520TIP3    H122524   1.500   2.025   0.875
 7520TIP3    H222525   1.564   2.125   0.969
 7521TIP3   OH222526   4.413   2.150   2.470
 7521TIP3    H122527   4.420   2.083   2.538
 7521TIP3    H222528   4.482   2.213   2.490
 7522TIP3   OH222529   6.074   1.452   2.895
 7522TIP3    H122530   6.039   1.502   2.821
 7522TIP3    H222531   6.032   1.366   2.886
 7523TIP3   OH222532   5.808   3.145   2.690
 7523TIP3    H122533   5.720   3.145   2.651
 7523TIP3    H222534   5.862   3.096   2.628
 7524TIP3   OH222535   0.861   4.965   5.227
 7524TIP3    H122536   0.903   4.937   5.308
 7524TIP3    H222537   0.768   4.970   5.248
 7525TIP3   OH222538   3.481   0.755   4.458
 7525TIP3    H122539   3.431   0.742   4.378
 7525TIP3    H222540   3.470   0.674   4.507
 7526TIP3   OH222541   1.647   2.004   2.486
 7526TIP3    H122542   1.681   1.926   2.442
 7526TIP3    H222543   1.567   1.974   2.530
 7527TIP3   OH222544   4.503   3.125   2.340
 7527TIP3    H122545   4.597   3.138   2.337
 7527TIP3    H222546   4.467   3.197   2.288
 7528TIP3   OH222547   5.433   5.831   1.745
 7528TIP3    H122548   5.376   5.755   1.734
 7528TIP3    H222549   5.477   5.816   1.829
 7529TIP3   OH222550   1.762   3.827   2.289
 7529TIP3    H122551   1.823   3.778   2.233
 7529TIP3    H222552   1.787   3.804   2.378
 7530TIP3   OH222553   6.768   5.317   5.352
 7530TIP3    H122554   6.807   5.233   5.378
 7530TIP3    H222555   6.819   5.344   5.275
 7531TIP3   OH222556   2.430   3.600   0.622
 7531TIP3    H122557   2.508   3.634   0.578
 7531TIP3    H222558   2.434   3.638   0.710
 7532TIP3   OH222559   6.541   0.936   5.224
 7532TIP3    H122560   6.556   0.970   5.136
 7532TIP3    H222561   6.584   0.999   5.282
 7533TIP3   OH222562   2.698   5.866   2.775
 7533TIP3    H122563   2.669   5.902   2.859
 7533TIP3    H222564   2.791   5.890   2.769
 7534TIP3   OH222565   6.474   5.205   3.009
 7534TIP3    H122566   6.467   5.280   3.068
 7534TIP3    H222567   6.491   5.131   3.066
 7535TIP3   OH222568   1.912   1.045   3.447
 7535TIP3    H122569   1.863   0.964   3.437
 7535TIP3    H222570   1.916   1.060   3.541
 7536TIP3   OH222571   2.535   2.529   4.589
 7536TIP3    H122572   2.501   2.604   4.638
 7536TIP3    H222573   2.470   2.513   4.521
 7537TIP3   OH222574   3.805   0.572   3.601
 7537TIP3    H122575   3.851   0.503   3.552
 7537TIP3    H222576   3.831   0.653   3.557
 7538TIP3   OH222577   1.377   4.656   2.650
 7538TIP3    H122578   1.361   4.642   2.557
 7538TIP3    H222579   1.473   4.660   2.658
 7539TIP3   OH222580   6.374   0.060   5.661
 7539TIP3    H122581   6.463   0.078   5.693
 7539TIP3    H222582   6.320   0.127   5.703
 7540TIP3   OH222583   6.207   2.593   3.124
 7540TIP3    H122584   6.157   2.671   3.100
 7540TIP3    H222585   6.231   2.607   3.216
 7541TIP3   OH222586   7.138   0.567   1.371
 7541TIP3    H122587   7.098   0.654   1.379
 7541TIP3    H222588   7.115   0.522   1.452
 7542TIP3   OH222589   2.122   4.235   4.656
 7542TIP3    H122590   2.130   4.249   4.562
 7542TIP3    H222591   2.090   4.318   4.691
 7543TIP3   OH222592   0.837   4.779   0.185
 7543TIP3    H122593   0.863   4.821   0.268
 7543TIP3    H222594   0.743   4.767   0.193
 7544TIP3   OH222595   5.000   0.310   3.195
 7544TIP3    H122596   5.087   0.338   3.167
 7544TIP3    H222597   5.017   0.249   3.267
 7545TIP3   OH222598   1.350   3.374   2.099
 7545TIP3    H122599   1.285   3.308   2.074
 7545TIP3    H222600   1.385   3.405   2.016
 7546TIP3   OH222601   3.230   5.568   2.313
 7546TIP3    H122602   3.262   5.654   2.341
 7546TIP3    H222603   3.203   5.525   2.395
 7547TIP3   OH222604   6.337   6.671   1.545
 7547TIP3    H122605   6.282   6.688   1.468
 7547TIP3    H222606   6.298   6.726   1.614
 7548TIP3   OH222607   4.259   3.545   0.478
 7548TIP3    H122608   4.207   3.469   0.448
 7548TIP3    H222609   4.333   3.548   0.418
 7549TIP3   OH222610   1.554   2.130   1.428
 7549TIP3    H122611   1.612   2.192   1.384
 7549TIP3    H222612   1.586   2.044   1.402
 7550TIP3   OH222613   5.040   3.016   4.135
 7550TIP3    H122614   5.085   2.956   4.076
 7550TIP3    H222615   4.987   3.071   4.078
 7551TIP3   OH222616   6.072   1.753   0.572
 7551TIP3    H122617   6.077   1.807   0.493
 7551TIP3    H222618   5.986   1.772   0.609
 7552TIP3   OH222619   1.768   1.319   2.637
 7552TIP3    H122620   1.763   1.277   2.723
 7552TIP3    H222621   1.678   1.348   2.621
 7553TIP3   OH222622   2.131   3.166   1.827
 7553TIP3    H122623   2.053   3.114   1.842
 7553TIP3    H222624   2.100   3.243   1.779
 7554TIP3   OH222625   2.966   6.311   4.049
 7554TIP3    H122626   2.957   6.236   4.107
 7554TIP3    H222627   2.968   6.387   4.108
 7555TIP3   OH222628   4.259   0.597   2.222
 7555TIP3    H122629   4.215   0.541   2.286
 7555TIP3    H222630   4.285   0.537   2.152
 7556TIP3   OH222631   1.280   0.694   1.443
 7556TIP3    H122632   1.240   0.767   1.396
 7556TIP3    H222633   1.252   0.616   1.393
 7557TIP3   OH222634   6.966   6.705   4.548
 7557TIP3    H122635   6.925   6.624   4.578
 7557TIP3    H222636   7.055   6.700   4.581
 7558TIP3   OH222637   1.053   6.118   5.731
 7558TIP3    H122638   1.046   6.033   5.775
 7558TIP3    H222639   1.063   6.181   5.802
 7559TIP3   OH222640   5.867   3.698   0.202
 7559TIP3    H122641   5.786   3.728   0.242
 7559TIP3    H222642   5.840   3.659   0.119
 7560TIP3   OH222643   0.686   2.877   2.323
 7560TIP3    H122644   0.638   2.841   2.249
 7560TIP3    H222645   0.724   2.800   2.366
 7561TIP3   OH222646   6.771   4.181   0.226
 7561TIP3    H122647   6.850   4.164   0.173
 7561TIP3    H222648   6.785   4.268   0.262
 7562TIP3   OH222649   3.108   3.325   5.659
 7562TIP3    H122650   3.042   3.374   5.708
 7562TIP3    H222651   3.185   3.324   5.717
 7563TIP3   OH222652   1.729   3.885   3.148
 7563TIP3    H122653   1.635   3.869   3.152
 7563TIP3    H222654   1.753   3.867   3.057
 7564TIP3   OH222655   1.585   2.137   5.021
 7564TIP3    H122656   1.608   2.222   5.059
 7564TIP3    H222657   1.647   2.125   4.949
 7565TIP3   OH222658   3.803   1.590   1.936
 7565TIP3    H122659   3.766   1.624   2.017
 7565TIP3    H222660   3.896   1.610   1.941
 7566TIP3   OH222661   2.584   4.500   3.377
 7566TIP3    H122662   2.491   4.521   3.387
 7566TIP3    H222663   2.624   4.582   3.349
 7567TIP3   OH222664   5.270   1.917   4.028
 7567TIP3    H122665   5.175   1.909   4.039
 7567TIP3    H222666   5.301   1.827   4.020
 7568TIP3   OH222667   3.205   6.484   4.011
 7568TIP3    H122668   3.272   6.439   3.958
 7568TIP3    H222669   3.135   6.419   4.020
 7569TIP3   OH222670   4.824   4.930   5.012
 7569TIP3    H122671   4.892   4.874   4.974
 7569TIP3    H222672   4.825   4.909   5.105
 7570TIP3   OH222673   2.998   6.636   3.938
 7570TIP3    H122674   3.060   6.577   3.980
 7570TIP3    H222675   2.952   6.581   3.874
 7571TIP3   OH222676   0.223   6.560   1.432
 7571TIP3    H122677   0.298   6.607   1.468
 7571TIP3    H222678   0.229   6.573   1.338
 7572TIP3   OH222679   2.779   4.659   1.268
 7572TIP3    H122680   2.861   4.615   1.245
 7572TIP3    H222681   2.729   4.593   1.316
 7573TIP3   OH222682   5.337   3.595   3.774
 7573TIP3    H122683   5.320   3.577   3.682
 7573TIP3    H222684   5.344   3.509   3.816
 7574TIP3   OH222685   4.824   5.899   0.160
 7574TIP3    H122686   4.740   5.922   0.122
 7574TIP3    H222687   4.869   5.850   0.092
 7575TIP3   OH222688   1.360   0.595   5.053
 7575TIP3    H122689   1.434   0.595   5.114
 7575TIP3    H222690   1.398   0.568   4.969
 7576TIP3   OH222691   7.191   3.029   5.214
 7576TIP3    H122692   7.139   3.098   5.256
 7576TIP3    H222693   7.255   3.004   5.280
 7577TIP3   OH222694   6.392   6.058   2.727
 7577TIP3    H122695   6.472   6.069   2.676
 7577TIP3    H222696   6.335   6.005   2.672
 7578TIP3   OH222697   1.366   4.405   4.167
 7578TIP3    H122698   1.371   4.433   4.259
 7578TIP3    H222699   1.443   4.445   4.127
 7579TIP3   OH222700   6.414   4.214   4.715
 7579TIP3    H122701   6.350   4.165   4.665
 7579TIP3    H222702   6.367   4.243   4.794
 7580TIP3   OH222703   5.968   4.089   2.848
 7580TIP3    H122704   5.996   4.117   2.761
 7580TIP3    H222705   5.976   4.168   2.902
 7581TIP3   OH222706   0.101   6.158   1.697
 7581TIP3    H122707   0.083   6.079   1.748
 7581TIP3    H222708   0.123   6.125   1.609
 7582TIP3   OH222709   2.478   2.635   5.154
 7582TIP3    H122710   2.447   2.609   5.067
 7582TIP3    H222711   2.402   2.675   5.195
 7583TIP3   OH222712   1.307   2.364   5.270
 7583TIP3    H122713   1.278   2.370   5.178
 7583TIP3    H222714   1.253   2.428   5.316
 7584TIP3   OH222715   0.753   2.205   0.277
 7584TIP3    H122716   0.790   2.143   0.214
 7584TIP3    H222717   0.818   2.209   0.348
 7585TIP3   OH222718   3.742   0.833   3.454
 7585TIP3    H122719   3.714   0.924   3.444
 7585TIP3    H222720   3.711   0.789   3.375
 7586TIP3   OH222721   3.424   1.303   3.754
 7586TIP3    H122722   3.343   1.354   3.748
 7586TIP3    H222723   3.488   1.354   3.705
 7587TIP3   OH222724   4.479   6.302   1.847
 7587TIP3    H122725   4.405   6.241   1.846
 7587TIP3    H222726   4.444   6.381   1.889
 7588TIP3   OH222727   3.630   3.463   4.574
 7588TIP3    H122728   3.560   3.477   4.510
 7588TIP3    H222729   3.593   3.400   4.636
 7589TIP3   OH222730   1.522   5.882   0.644
 7589TIP3    H122731   1.553   5.835   0.721
 7589TIP3    H222732   1.431   5.854   0.634
 7590TIP3   OH222733   7.030   5.273   4.479
 7590TIP3    H122734   7.079   5.191   4.480
 7590TIP3    H222735   7.076   5.330   4.541
 7591TIP3   OH222736   2.765   1.777   4.535
 7591TIP3    H122737   2.818   1.823   4.470
 7591TIP3    H222738   2.786   1.820   4.618
 7592TIP3   OH222739   6.986   1.523   0.701
 7592TIP3    H122740   7.061   1.583   0.704
 7592TIP3    H222741   6.919   1.571   0.652
 7593TIP3   OH222742   5.638   3.799   0.305
 7593TIP3    H122743   5.650   3.838   0.391
 7593TIP3    H222744   5.545   3.811   0.286
 7594TIP3   OH222745   1.463   0.773   1.979
 7594TIP3    H122746   1.545   0.819   1.960
 7594TIP3    H222747   1.452   0.783   2.074
 7595TIP3   OH222748   5.794   4.535   0.934
 7595TIP3    H122749   5.722   4.490   0.978
 7595TIP3    H222750   5.843   4.464   0.891
 7596TIP3   OH222751   5.534   5.082   1.425
 7596TIP3    H122752   5.597   5.012   1.406
 7596TIP3    H222753   5.583   5.163   1.408
 7597TIP3   OH222754   6.860   6.571   2.707
 7597TIP3    H122755   6.832   6.619   2.785
 7597TIP3    H222756   6.780   6.532   2.672
 7598TIP3   OH222757   6.017   0.466   2.365
 7598TIP3    H122758   6.093   0.436   2.315
 7598TIP3    H222759   6.033   0.559   2.378
 7599TIP3   OH222760   2.193   5.151   4.274
 7599TIP3    H122761   2.145   5.130   4.354
 7599TIP3    H222762   2.188   5.246   4.267
 7600TIP3   OH222763   0.521   5.271   4.584
 7600TIP3    H122764   0.431   5.286   4.612
 7600TIP3    H222765   0.573   5.284   4.663
 7601TIP3   OH222766   6.135   2.509   5.352
 7601TIP3    H122767   6.214   2.548   5.391
 7601TIP3    H222768   6.087   2.583   5.316
 7602TIP3   OH222769   5.374   3.343   1.896
 7602TIP3    H122770   5.428   3.421   1.906
 7602TIP3    H222771   5.359   3.311   1.985
 7603TIP3   OH222772   0.115   3.645   4.399
 7603TIP3    H122773   0.202   3.675   4.371
 7603TIP3    H222774   0.071   3.724   4.430
 7604TIP3   OH222775   1.083   1.003   2.347
 7604TIP3    H122776   1.122   0.956   2.420
 7604TIP3    H222777   1.077   0.939   2.277
 7605TIP3   OH222778   3.416   0.305   3.261
 7605TIP3    H122779   3.419   0.350   3.176
 7605TIP3    H222780   3.330   0.328   3.297
 7606TIP3   OH222781   2.917   3.306   0.942
 7606TIP3    H122782   2.836   3.268   0.908
 7606TIP3    H222783   2.974   3.231   0.961
 7607TIP3   OH222784   6.287   2.693   4.417
 7607TIP3    H122785   6.362   2.689   4.357
 7607TIP3    H222786   6.214   2.659   4.366
 7608TIP3   OH222787   4.173   0.297   0.777
 7608TIP3    H122788   4.248   0.322   0.830
 7608TIP3    H222789   4.097   0.311   0.834
 7609TIP3   OH222790   1.054   0.786   1.814
 7609TIP3    H122791   1.012   0.703   1.793
 7609TIP3    H222792   1.147   0.770   1.796
 7610TIP3   OH222793   4.319   2.470   5.584
 7610TIP3    H122794   4.304   2.564   5.589
 7610TIP3    H222795   4.380   2.458   5.511
 7611TIP3   OH222796   0.968   0.749   2.910
 7611TIP3    H122797   0.977   0.840   2.882
 7611TIP3    H222798   0.915   0.753   2.989
 7612TIP3   OH222799   5.453   0.085   4.619
 7612TIP3    H122800   5.389   0.141   4.663
 7612TIP3    H222801   5.414   0.066   4.534
 7613TIP3   OH222802   3.031   6.540   0.165
 7613TIP3    H122803   3.041   6.626   0.124
 7613TIP3    H222804   3.051   6.478   0.094
 7614TIP3   OH222805   6.079   4.752   1.184
 7614TIP3    H122806   6.038   4.819   1.128
 7614TIP3    H222807   6.168   4.782   1.197
 7615TIP3   OH222808   5.911   5.890   5.118
 7615TIP3    H122809   5.955   5.973   5.137
 7615TIP3    H222810   5.844   5.913   5.054
 7616TIP3   OH222811   3.263   5.431   1.491
 7616TIP3    H122812   3.182   5.465   1.530
 7616TIP3    H222813   3.277   5.485   1.413
 7617TIP3   OH222814   0.318   5.137   1.752
 7617TIP3    H122815   0.344   5.046   1.768
 7617TIP3    H222816   0.223   5.137   1.766
 7618TIP3   OH222817   5.618   0.198   1.062
 7618TIP3    H122818   5.614   0.123   1.001
 7618TIP3    H222819   5.545   0.254   1.034
 7619TIP3   OH222820   4.053   4.436   1.009
 7619TIP3    H122821   4.016   4.358   1.052
 7619TIP3    H222822   4.147   4.429   1.024
 7620TIP3   OH222823   0.444   6.635   0.085
 7620TIP3    H122824   0.362   6.659   0.128
 7620TIP3    H222825   0.469   6.552   0.127
 7621TIP3   OH222826   4.828   1.481  -0.001
 7621TIP3    H122827   4.868   1.399   0.026
 7621TIP3    H222828   4.742   1.481   0.039
 7622TIP3   OH222829   4.308   0.545   0.051
 7622TIP3    H122830   4.311   0.563   0.145
 7622TIP3    H222831   4.220   0.513   0.035
 7623TIP3   OH222832   3.838   4.149   5.067
 7623TIP3    H122833   3.793   4.079   5.114
 7623TIP3    H222834   3.930   4.122   5.066
 7624TIP3   OH222835   2.422   0.440   3.175
 7624TIP3    H122836   2.427   0.464   3.267
 7624TIP3    H222837   2.512   0.418   3.151
 7625TIP3   OH222838   1.678   1.100   0.388
 7625TIP3    H122839   1.662   1.170   0.325
 7625TIP3    H222840   1.711   1.027   0.335
 7626TIP3   OH222841   4.289   1.591   3.718
 7626TIP3    H122842   4.294   1.512   3.664
 7626TIP3    H222843   4.329   1.660   3.665
 7627TIP3   OH222844   0.521   3.657   5.930
 7627TIP3    H122845   0.455   3.650   5.861
 7627TIP3    H222846   0.483   3.611   6.004
 7628TIP3   OH222847   3.366   5.349   2.936
 7628TIP3    H122848   3.297   5.413   2.922
 7628TIP3    H222849   3.394   5.363   3.027
 7629TIP3   OH222850   4.735   3.739   3.811
 7629TIP3    H122851   4.772   3.656   3.840
 7629TIP3    H222852   4.642   3.734   3.835
 7630TIP3   OH222853   2.086   1.020   3.783
 7630TIP3    H122854   2.121   1.108   3.768
 7630TIP3    H222855   2.113   0.971   3.705
 7631TIP3   OH222856   1.063   6.788   1.094
 7631TIP3    H122857   0.988   6.797   1.035
 7631TIP3    H222858   1.067   6.695   1.115
 7632TIP3   OH222859   4.262   1.746   2.797
 7632TIP3    H122860   4.305   1.746   2.883
 7632TIP3    H222861   4.271   1.656   2.765
 7633TIP3   OH222862   4.960   5.001   0.654
 7633TIP3    H122863   4.902   4.966   0.722
 7633TIP3    H222864   4.962   4.934   0.586
 7634TIP3   OH222865   6.286   6.369   5.302
 7634TIP3    H122866   6.357   6.391   5.362
 7634TIP3    H222867   6.210   6.415   5.336
 7635TIP3   OH222868   2.927   0.183   2.478
 7635TIP3    H122869   2.955   0.134   2.556
 7635TIP3    H222870   3.008   0.214   2.439
 7636TIP3   OH222871   0.033   1.726   4.754
 7636TIP3    H122872   0.011   1.818   4.767
 7636TIP3    H222873  -0.036   1.678   4.799
 7637TIP3   OH222874   4.431   4.186   0.195
 7637TIP3    H122875   4.442   4.106   0.246
 7637TIP3    H222876   4.468   4.165   0.110
 7638TIP3   OH222877   1.490   6.257   5.481
 7638TIP3    H122878   1.426   6.238   5.549
 7638TIP3    H222879   1.488   6.352   5.472
 7639TIP3   OH222880   3.938   1.156   0.560
 7639TIP3    H122881   4.016   1.208   0.539
 7639TIP3    H222882   3.973   1.079   0.605
 7640TIP3   OH222883   4.805   1.747   0.167
 7640TIP3    H122884   4.758   1.785   0.241
 7640TIP3    H222885   4.798   1.652   0.181
 7641TIP3   OH222886   5.425   4.149   5.246
 7641TIP3    H122887   5.496   4.170   5.308
 7641TIP3    H222888   5.386   4.233   5.225
 7642TIP3   OH222889   1.475   3.424   3.767
 7642TIP3    H122890   1.567   3.411   3.741
 7642TIP3    H222891   1.434   3.339   3.753
 7643TIP3   OH222892   0.809   4.989   1.682
 7643TIP3    H122893   0.717   5.007   1.659
 7643TIP3    H222894   0.825   4.901   1.650
 7644TIP3   OH222895   2.691   5.908   3.061
 7644TIP3    H122896   2.636   5.976   3.100
 7644TIP3    H222897   2.652   5.826   3.091
 7645TIP3   OH222898   1.857   2.891   3.427
 7645TIP3    H122899   1.874   2.805   3.466
 7645TIP3    H222900   1.763   2.904   3.438
 7646TIP3   OH222901   0.790   6.457   0.526
 7646TIP3    H122902   0.727   6.487   0.591
 7646TIP3    H222903   0.797   6.530   0.464
 7647TIP3   OH222904   3.178   5.066   3.427
 7647TIP3    H122905   3.219   5.075   3.513
 7647TIP3    H222906   3.196   5.149   3.383
 7648TIP3   OH222907   6.252   6.724   1.821
 7648TIP3    H122908   6.182   6.763   1.874
 7648TIP3    H222909   6.330   6.775   1.842
 7649TIP3   OH222910   2.686   6.775   3.573
 7649TIP3    H122911   2.604   6.809   3.609
 7649TIP3    H222912   2.676   6.785   3.479
 7650TIP3   OH222913   6.140   5.824   0.518
 7650TIP3    H122914   6.210   5.767   0.488
 7650TIP3    H222915   6.067   5.766   0.537
 7651TIP3   OH222916   5.929   0.148   5.197
 7651TIP3    H122917   5.895   0.088   5.131
 7651TIP3    H222918   6.004   0.102   5.235
 7652TIP3   OH222919   4.845   3.881   2.859
 7652TIP3    H122920   4.818   3.789   2.863
 7652TIP3    H222921   4.807   3.920   2.938
 7653TIP3   OH222922   6.424   2.398   5.761
 7653TIP3    H122923   6.466   2.468   5.810
 7653TIP3    H222924   6.335   2.394   5.795
 7654TIP3   OH222925   6.133   2.543   3.523
 7654TIP3    H122926   6.203   2.602   3.495
 7654TIP3    H222927   6.138   2.469   3.463
 7655TIP3   OH222928   2.118   1.229   4.104
 7655TIP3    H122929   2.118   1.230   4.008
 7655TIP3    H222930   2.027   1.210   4.128
 7656TIP3   OH222931   1.388   0.564   2.780
 7656TIP3    H122932   1.475   0.584   2.814
 7656TIP3    H222933   1.341   0.647   2.784
 7657TIP3   OH222934   1.412   6.113   4.026
 7657TIP3    H122935   1.445   6.203   4.014
 7657TIP3    H222936   1.401   6.105   4.120
 7658TIP3   OH222937   4.900   1.855   4.688
 7658TIP3    H122938   4.806   1.862   4.701
 7658TIP3    H222939   4.926   1.940   4.652
 7659TIP3   OH222940   3.937   0.545   2.451
 7659TIP3    H122941   3.938   0.616   2.515
 7659TIP3    H222942   4.029   0.523   2.438
 7660TIP3   OH222943   4.424   0.105   2.270
 7660TIP3    H122944   4.386   0.049   2.338
 7660TIP3    H222945   4.469   0.174   2.319
 7661TIP3   OH222946   5.415   6.304   3.571
 7661TIP3    H122947   5.498   6.318   3.527
 7661TIP3    H222948   5.351   6.295   3.500
 7662TIP3   OH222949   5.685   5.663   1.877
 7662TIP3    H122950   5.663   5.651   1.784
 7662TIP3    H222951   5.766   5.613   1.889
 7663TIP3   OH222952   2.460   3.954   0.489
 7663TIP3    H122953   2.487   4.036   0.529
 7663TIP3    H222954   2.382   3.928   0.538
 7664TIP3   OH222955   0.183   4.468   1.722
 7664TIP3    H122956   0.208   4.558   1.703
 7664TIP3    H222957   0.264   4.418   1.711
 7665TIP3   OH222958   3.348   5.663   0.660
 7665TIP3    H122959   3.325   5.606   0.733
 7665TIP3    H222960   3.328   5.611   0.582
 7666TIP3   OH222961   7.038   5.245   3.184
 7666TIP3    H122962   7.064   5.321   3.134
 7666TIP3    H222963   6.943   5.238   3.169
 7667TIP3   OH222964   3.257   3.433   3.708
 7667TIP3    H122965   3.182   3.446   3.766
 7667TIP3    H222966   3.286   3.522   3.687
 7668TIP3   OH222967   0.212   4.441   4.163
 7668TIP3    H122968   0.200   4.536   4.166
 7668TIP3    H222969   0.123   4.406   4.160
 7669TIP3   OH222970   5.795   1.626   5.372
 7669TIP3    H122971   5.719   1.619   5.314
 7669TIP3    H222972   5.863   1.665   5.317
 7670TIP3   OH222973   2.898   6.504   3.729
 7670TIP3    H122974   2.987   6.531   3.708
 7670TIP3    H222975   2.866   6.462   3.648
 7671TIP3   OH222976   1.672   0.854   5.906
 7671TIP3    H122977   1.611   0.782   5.890
 7671TIP3    H222978   1.670   0.904   5.824
 7672TIP3   OH222979   6.254   1.759   1.467
 7672TIP3    H122980   6.228   1.846   1.436
 7672TIP3    H222981   6.349   1.757   1.454
 7673TIP3   OH222982   3.992   4.624   3.036
 7673TIP3    H122983   4.051   4.699   3.031
 7673TIP3    H222984   3.907   4.662   3.062
 7674TIP3   OH222985   4.622   3.022   3.810
 7674TIP3    H122986   4.569   3.016   3.889
 7674TIP3    H222987   4.696   3.077   3.834
 7675TIP3   OH222988   4.436   1.843   2.226
 7675TIP3    H122989   4.475   1.785   2.291
 7675TIP3    H222990   4.509   1.896   2.194
 7676TIP3   OH222991   0.852   2.543   2.809
 7676TIP3    H122992   0.858   2.459   2.855
 7676TIP3    H222993   0.770   2.538   2.760
 7677TIP3   OH222994   2.824   2.495   3.558
 7677TIP3    H122995   2.761   2.533   3.619
 7677TIP3    H222996   2.888   2.565   3.544
 7678TIP3   OH222997   4.711   3.339   1.902
 7678TIP3    H122998   4.806   3.325   1.905
 7678TIP3    H222999   4.698   3.424   1.945
 7679TIP3   OH223000   0.517   0.594   2.062
 7679TIP3    H123001   0.486   0.615   1.974
 7679TIP3    H223002   0.506   0.499   2.070
 7680TIP3   OH223003   5.694   5.269   2.348
 7680TIP3    H123004   5.638   5.193   2.334
 7680TIP3    H223005   5.780   5.232   2.368
 7681TIP3   OH223006   0.604   1.429   1.307
 7681TIP3    H123007   0.566   1.355   1.354
 7681TIP3    H223008   0.692   1.437   1.342
 7682TIP3   OH223009   1.368   3.625   0.348
 7682TIP3    H123010   1.311   3.612   0.424
 7682TIP3    H223011   1.309   3.629   0.273
 7683TIP3   OH223012   6.429   3.923   3.994
 7683TIP3    H123013   6.383   3.843   3.968
 7683TIP3    H223014   6.403   3.988   3.929
 7684TIP3   OH223015   0.378   1.679   1.788
 7684TIP3    H123016   0.352   1.592   1.756
 7684TIP3    H223017   0.468   1.689   1.758
 7685TIP3   OH223018   0.881   3.358   0.793
 7685TIP3    H123019   0.943   3.396   0.731
 7685TIP3    H223020   0.857   3.273   0.755
 7686TIP3   OH223021   1.887   4.607   1.571
 7686TIP3    H123022   1.957   4.549   1.599
 7686TIP3    H223023   1.920   4.695   1.588
 7687TIP3   OH223024   3.702   2.932   5.714
 7687TIP3    H123025   3.774   2.920   5.652
 7687TIP3    H223026   3.743   2.972   5.791
 7688TIP3   OH223027   3.845   6.456   4.663
 7688TIP3    H123028   3.773   6.412   4.618
 7688TIP3    H223029   3.806   6.538   4.694
 7689TIP3   OH223030   1.080   3.950   1.962
 7689TIP3    H123031   1.097   4.029   2.012
 7689TIP3    H223032   0.985   3.947   1.952
 7690TIP3   OH223033   5.826   0.924   1.403
 7690TIP3    H123034   5.796   1.014   1.417
 7690TIP3    H223035   5.750   0.869   1.424
 7691TIP3   OH223036   1.233   3.235   1.386
 7691TIP3    H123037   1.306   3.189   1.429
 7691TIP3    H223038   1.204   3.174   1.318
 7692TIP3   OH223039   2.040   2.143   3.499
 7692TIP3    H123040   2.132   2.149   3.473
 7692TIP3    H223041   1.993   2.126   3.418
 7693TIP3   OH223042   6.718   4.582   1.423
 7693TIP3    H123043   6.715   4.510   1.360
 7693TIP3    H223044   6.717   4.539   1.509
 7694TIP3   OH223045   3.636   6.285   0.285
 7694TIP3    H123046   3.698   6.224   0.324
 7694TIP3    H223047   3.682   6.319   0.208
 7695TIP3   OH223048   0.566   0.210   5.690
 7695TIP3    H123049   0.566   0.252   5.776
 7695TIP3    H223050   0.509   0.264   5.636
 7696TIP3   OH223051   3.657   1.379   4.984
 7696TIP3    H123052   3.699   1.464   4.971
 7696TIP3    H223053   3.568   1.390   4.950
 7697TIP3   OH223054   4.311   3.962   4.129
 7697TIP3    H123055   4.361   3.965   4.047
 7697TIP3    H223056   4.368   4.001   4.194
 7698TIP3   OH223057   6.873   2.450   0.259
 7698TIP3    H123058   6.880   2.488   0.171
 7698TIP3    H223059   6.798   2.392   0.255
 7699TIP3   OH223060   2.336   5.999   3.367
 7699TIP3    H123061   2.281   6.076   3.351
 7699TIP3    H223062   2.293   5.954   3.440
 7700TIP3   OH223063   0.608   4.872   4.168
 7700TIP3    H123064   0.636   4.879   4.260
 7700TIP3    H223065   0.689   4.867   4.118
 7701TIP3   OH223066   2.588   3.011   4.965
 7701TIP3    H123067   2.508   2.990   5.012
 7701TIP3    H223068   2.653   3.025   5.034
 7702TIP3   OH223069   6.810   3.055   5.262
 7702TIP3    H123070   6.846   2.970   5.288
 7702TIP3    H223071   6.885   3.114   5.264
 7703TIP3   OH223072   2.650   5.209   2.116
 7703TIP3    H123073   2.592   5.172   2.183
 7703TIP3    H223074   2.716   5.141   2.101
 7704TIP3   OH223075   6.546   2.952   2.041
 7704TIP3    H123076   6.490   2.928   1.967
 7704TIP3    H223077   6.547   3.047   2.040
 7705TIP3   OH223078   2.887   6.433   0.357
 7705TIP3    H123079   2.957   6.449   0.420
 7705TIP3    H223080   2.915   6.478   0.277
 7706TIP3   OH223081   3.733   1.083   3.707
 7706TIP3    H123082   3.652   1.076   3.757
 7706TIP3    H223083   3.773   0.996   3.716
 7707TIP3   OH223084   4.522   2.181   5.444
 7707TIP3    H123085   4.486   2.120   5.380
 7707TIP3    H223086   4.571   2.245   5.392
 7708TIP3   OH223087   3.337   2.290   3.361
 7708TIP3    H123088   3.344   2.229   3.435
 7708TIP3    H223089   3.302   2.370   3.399
 7709TIP3   OH223090   1.987   6.816   4.463
 7709TIP3    H123091   2.036   6.746   4.419
 7709TIP3    H223092   1.912   6.832   4.406
 7710TIP3   OH223093   6.911   6.347   1.213
 7710TIP3    H123094   6.937   6.259   1.186
 7710TIP3    H223095   6.980   6.375   1.274
 7711TIP3   OH223096   0.750   3.110   1.601
 7711TIP3    H123097   0.790   3.190   1.634
 7711TIP3    H223098   0.662   3.137   1.573
 7712TIP3   OH223099   5.107   5.235   0.642
 7712TIP3    H123100   5.031   5.289   0.667
 7712TIP3    H223101   5.070   5.149   0.624
 7713TIP3   OH223102   4.611   1.434   2.015
 7713TIP3    H123103   4.701   1.402   2.013
 7713TIP3    H223104   4.566   1.383   1.947
 7714TIP3   OH223105   1.204   2.370   5.579
 7714TIP3    H123106   1.165   2.285   5.600
 7714TIP3    H223107   1.254   2.393   5.658
 7715TIP3   OH223108   6.583   0.389   4.829
 7715TIP3    H123109   6.520   0.367   4.761
 7715TIP3    H223110   6.605   0.305   4.869
 7716TIP3   OH223111   4.883   1.216   0.097
 7716TIP3    H123112   4.971   1.203   0.133
 7716TIP3    H223113   4.886   1.172   0.012
 7717TIP3   OH223114   6.903   6.160   3.713
 7717TIP3    H123115   6.996   6.138   3.711
 7717TIP3    H223116   6.888   6.215   3.636
 7718TIP3   OH223117   5.528   4.100   1.444
 7718TIP3    H123118   5.539   4.055   1.360
 7718TIP3    H223119   5.486   4.035   1.500
 7719TIP3   OH223120   2.961   0.071   0.004
 7719TIP3    H123121   2.926  -0.015   0.027
 7719TIP3    H223122   2.957   0.074  -0.092
 7720TIP3   OH223123   4.672   3.467   4.166
 7720TIP3    H123124   4.578   3.462   4.183
 7720TIP3    H223125   4.710   3.497   4.248
 7721TIP3   OH223126   3.060   1.428   5.193
 7721TIP3    H123127   3.054   1.434   5.289
 7721TIP3    H223128   3.064   1.519   5.164
 7722TIP3   OH223129   3.675   1.509   2.200
 7722TIP3    H123130   3.610   1.483   2.135
 7722TIP3    H223131   3.681   1.435   2.259
 7723TIP3   OH223132   1.847   4.992   5.272
 7723TIP3    H123133   1.794   4.983   5.352
 7723TIP3    H223134   1.826   4.915   5.220
 7724TIP3   OH223135   1.514   3.138   1.981
 7724TIP3    H123136   1.427   3.111   1.951
 7724TIP3    H223137   1.554   3.181   1.905
 7725TIP3   OH223138   6.491   2.639   2.461
 7725TIP3    H123139   6.422   2.704   2.474
 7725TIP3    H223140   6.573   2.690   2.465
 7726TIP3   OH223141   4.920   0.951   2.299
 7726TIP3    H123142   4.985   1.016   2.274
 7726TIP3    H223143   4.939   0.931   2.391
 7727TIP3   OH223144   0.190   0.791   3.939
 7727TIP3    H123145   0.099   0.762   3.931
 7727TIP3    H223146   0.217   0.761   4.026
 7728TIP3   OH223147   2.297   6.699   1.154
 7728TIP3    H123148   2.225   6.646   1.190
 7728TIP3    H223149   2.290   6.783   1.199
 7729TIP3   OH223150   3.479   4.304   5.686
 7729TIP3    H123151   3.501   4.360   5.611
 7729TIP3    H223152   3.562   4.269   5.716
 7730TIP3   OH223153   1.282   2.447   0.364
 7730TIP3    H123154   1.196   2.460   0.325
 7730TIP3    H223155   1.312   2.534   0.387
 7731TIP3   OH223156   5.588   5.622   1.624
 7731TIP3    H123157   5.556   5.642   1.536
 7731TIP3    H223158   5.509   5.610   1.676
 7732TIP3   OH223159   0.382   3.755   5.033
 7732TIP3    H123160   0.461   3.732   5.082
 7732TIP3    H223161   0.394   3.847   5.010
 7733TIP3   OH223162   1.755   6.138   0.049
 7733TIP3    H123163   1.794   6.211   0.002
 7733TIP3    H223164   1.764   6.161   0.141
 7734TIP3   OH223165   4.841   2.968   1.709
 7734TIP3    H123166   4.749   2.953   1.730
 7734TIP3    H223167   4.844   3.056   1.671
 7735TIP3   OH223168   6.859   4.801   1.337
 7735TIP3    H123169   6.848   4.807   1.432
 7735TIP3    H223170   6.836   4.710   1.316
 7736TIP3   OH223171   0.668   5.258   3.937
 7736TIP3    H123172   0.667   5.351   3.915
 7736TIP3    H223173   0.618   5.215   3.867
 7737TIP3   OH223174   0.758   0.918   1.718
 7737TIP3    H123175   0.761   0.857   1.791
 7737TIP3    H223176   0.848   0.949   1.709
 7738TIP3   OH223177   6.628   1.744   1.831
 7738TIP3    H123178   6.618   1.732   1.737
 7738TIP3    H223179   6.619   1.838   1.845
 7739TIP3   OH223180   6.292   3.123   4.123
 7739TIP3    H123181   6.347   3.189   4.082
 7739TIP3    H223182   6.275   3.158   4.211
 7740TIP3   OH223183   1.178   5.206   3.334
 7740TIP3    H123184   1.189   5.287   3.383
 7740TIP3    H223185   1.177   5.137   3.400
 7741TIP3   OH223186   3.800   6.177   2.796
 7741TIP3    H123187   3.880   6.142   2.835
 7741TIP3    H223188   3.745   6.099   2.780
 7742TIP3   OH223189   5.082   0.151   1.085
 7742TIP3    H123190   5.071   0.148   1.180
 7742TIP3    H223191   4.995   0.134   1.050
 7743TIP3   OH223192   6.931   5.601   0.861
 7743TIP3    H123193   6.836   5.615   0.856
 7743TIP3    H223194   6.966   5.644   0.784
 7744TIP3   OH223195   5.603   6.102   2.812
 7744TIP3    H123196   5.651   6.185   2.808
 7744TIP3    H223197   5.533   6.112   2.747
 7745TIP3   OH223198   3.943   1.307   3.116
 7745TIP3    H123199   3.947   1.221   3.159
 7745TIP3    H223200   4.000   1.299   3.040
 7746TIP3   OH223201   4.634   3.382   4.877
 7746TIP3    H123202   4.649   3.287   4.878
 7746TIP3    H223203   4.540   3.392   4.862
 7747TIP3   OH223204   6.038   0.427   2.692
 7747TIP3    H123205   6.132   0.439   2.682
 7747TIP3    H223206   6.024   0.334   2.676
 7748TIP3   OH223207   1.637   4.618   2.307
 7748TIP3    H123208   1.722   4.662   2.302
 7748TIP3    H223209   1.644   4.562   2.385
 7749TIP3   OH223210   4.920   6.181   1.605
 7749TIP3    H123211   4.958   6.263   1.574
 7749TIP3    H223212   4.830   6.203   1.630
 7750TIP3   OH223213   4.976   3.252   1.878
 7750TIP3    H123214   5.035   3.321   1.910
 7750TIP3    H223215   5.009   3.231   1.790
 7751TIP3   OH223216   0.249   0.314   5.604
 7751TIP3    H123217   0.300   0.333   5.525
 7751TIP3    H223218   0.158   0.319   5.576
 7752TIP3   OH223219   5.401   4.372   3.108
 7752TIP3    H123220   5.426   4.301   3.167
 7752TIP3    H223221   5.477   4.430   3.107
 7753TIP3   OH223222   5.762   1.887   4.288
 7753TIP3    H123223   5.667   1.890   4.298
 7753TIP3    H223224   5.796   1.931   4.366
 7754TIP3   OH223225   5.760   3.001   2.395
 7754TIP3    H123226   5.828   3.034   2.337
 7754TIP3    H223227   5.724   2.925   2.349
 7755TIP3   OH223228   6.920   3.415   5.669
 7755TIP3    H123229   6.876   3.484   5.717
 7755TIP3    H223230   6.934   3.452   5.581
 7756TIP3   OH223231   4.121   6.271   2.353
 7756TIP3    H123232   4.189   6.332   2.381
 7756TIP3    H223233   4.133   6.264   2.258
 7757TIP3   OH223234   4.350   5.601   0.818
 7757TIP3    H123235   4.274   5.659   0.821
 7757TIP3    H223236   4.388   5.616   0.732
 7758TIP3   OH223237   5.246   5.861   2.577
 7758TIP3    H123238   5.338   5.840   2.560
 7758TIP3    H223239   5.249   5.948   2.615
 7759TIP3   OH223240   0.577   0.712   5.074
 7759TIP3    H123241   0.668   0.705   5.044
 7759TIP3    H223242   0.581   0.702   5.169
 7760TIP3   OH223243   0.923   4.178   5.361
 7760TIP3    H123244   0.839   4.150   5.325
 7760TIP3    H223245   0.988   4.145   5.299
 7761TIP3   OH223246   1.450   0.903   4.382
 7761TIP3    H123247   1.376   0.854   4.418
 7761TIP3    H223248   1.518   0.898   4.449
 7762TIP3   OH223249   4.266   0.536   4.675
 7762TIP3    H123250   4.264   0.505   4.765
 7762TIP3    H223251   4.242   0.629   4.681
 7763TIP3   OH223252   4.041   5.634   2.735
 7763TIP3    H123253   4.048   5.720   2.777
 7763TIP3    H223254   4.059   5.652   2.643
 7764TIP3   OH223255   5.801   0.367   0.152
 7764TIP3    H123256   5.771   0.308   0.083
 7764TIP3    H223257   5.725   0.376   0.210
 7765TIP3   OH223258   1.522   3.049   0.482
 7765TIP3    H123259   1.541   3.075   0.572
 7765TIP3    H223260   1.555   3.122   0.429
 7766TIP3   OH223261   1.622   2.442   0.811
 7766TIP3    H123262   1.562   2.434   0.737
 7766TIP3    H223263   1.669   2.359   0.814
 7767TIP3   OH223264   3.940   3.747   3.129
 7767TIP3    H123265   3.855   3.723   3.091
 7767TIP3    H223266   3.917   3.806   3.201
 7768TIP3   OH223267   0.259   4.170   1.937
 7768TIP3    H123268   0.222   4.140   1.854
 7768TIP3    H223269   0.259   4.092   1.992
 7769TIP3   OH223270   4.642   6.281   0.790
 7769TIP3    H123271   4.638   6.325   0.876
 7769TIP3    H223272   4.581   6.208   0.797
 7770TIP3   OH223273   0.357   2.036   4.776
 7770TIP3    H123274   0.300   2.111   4.795
 7770TIP3    H223275   0.298   1.970   4.742
 7771TIP3   OH223276   1.651   5.407   2.439
 7771TIP3    H123277   1.641   5.501   2.453
 7771TIP3    H223278   1.574   5.382   2.387
 7772TIP3   OH223279   5.935   4.976   4.405
 7772TIP3    H123280   5.855   4.959   4.454
 7772TIP3    H223281   5.974   4.890   4.390
 7773TIP3   OH223282   1.391   5.566   0.853
 7773TIP3    H123283   1.465   5.528   0.807
 7773TIP3    H223284   1.326   5.496   0.857
 7774TIP3   OH223285   4.593   5.543   3.156
 7774TIP3    H123286   4.604   5.627   3.112
 7774TIP3    H223287   4.593   5.565   3.249
 7775TIP3   OH223288   3.502   1.965   4.005
 7775TIP3    H123289   3.428   1.999   3.955
 7775TIP3    H223290   3.475   1.971   4.096
 7776TIP3   OH223291   2.286   1.631   3.055
 7776TIP3    H123292   2.347   1.583   2.998
 7776TIP3    H223293   2.259   1.707   3.003
 7777TIP3   OH223294   0.457   5.951   3.963
 7777TIP3    H123295   0.373   5.987   3.934
 7777TIP3    H223296   0.489   5.902   3.887
 7778TIP3   OH223297   2.244   5.434   4.248
 7778TIP3    H123298   2.188   5.511   4.254
 7778TIP3    H223299   2.316   5.451   4.308
 7779TIP3   OH223300   3.510   0.189   2.282
 7779TIP3    H123301   3.512   0.097   2.258
 7779TIP3    H223302   3.591   0.225   2.245
 7780TIP3   OH223303   1.802   1.910   1.849
 7780TIP3    H123304   1.736   1.845   1.873
 7780TIP3    H223305   1.872   1.898   1.913
 7781TIP3   OH223306   0.080   6.772   3.298
 7781TIP3    H123307   0.157   6.784   3.353
 7781TIP3    H223308   0.048   6.684   3.320
 7782TIP3   OH223309   6.616   4.419   2.949
 7782TIP3    H123310   6.578   4.355   3.010
 7782TIP3    H223311   6.642   4.493   3.005
 7783TIP3   OH223312   1.389   1.156   4.121
 7783TIP3    H123313   1.322   1.210   4.163
 7783TIP3    H223314   1.386   1.073   4.169
 7784TIP3   OH223315   1.127   2.779   0.519
 7784TIP3    H123316   1.179   2.724   0.460
 7784TIP3    H223317   1.144   2.744   0.606
 7785TIP3   OH223318   6.785   1.916   4.314
 7785TIP3    H123319   6.759   1.980   4.248
 7785TIP3    H223320   6.870   1.883   4.284
 7786TIP3   OH223321   3.098   4.295   4.811
 7786TIP3    H123322   3.109   4.247   4.729
 7786TIP3    H223323   3.004   4.297   4.826
 7787TIP3   OH223324   0.223   3.744   1.869
 7787TIP3    H123325   0.147   3.742   1.927
 7787TIP3    H223326   0.294   3.780   1.923
 7788TIP3   OH223327   6.832   5.667   4.093
 7788TIP3    H123328   6.796   5.583   4.065
 7788TIP3    H223329   6.786   5.686   4.175
 7789TIP3   OH223330   1.624   4.854   3.866
 7789TIP3    H123331   1.617   4.793   3.794
 7789TIP3    H223332   1.563   4.821   3.932
 7790TIP3   OH223333   6.529   2.630   1.798
 7790TIP3    H123334   6.618   2.635   1.831
 7790TIP3    H223335   6.474   2.661   1.870
 7791TIP3   OH223336   6.341   0.184   4.727
 7791TIP3    H123337   6.281   0.259   4.736
 7791TIP3    H223338   6.388   0.202   4.646
 7792TIP3   OH223339   3.229   0.820   5.828
 7792TIP3    H123340   3.231   0.728   5.854
 7792TIP3    H223341   3.309   0.833   5.777
 7793TIP3   OH223342   5.326   1.065   2.430
 7793TIP3    H123343   5.341   0.973   2.455
 7793TIP3    H223344   5.414   1.098   2.408
 7794TIP3   OH223345   2.925   6.510   4.291
 7794TIP3    H123346   2.927   6.606   4.292
 7794TIP3    H223347   2.986   6.484   4.360
 7795TIP3   OH223348   4.800   4.723   0.090
 7795TIP3    H123349   4.756   4.667   0.154
 7795TIP3    H223350   4.798   4.673   0.009
 7796TIP3   OH223351   5.598   1.391   3.078
 7796TIP3    H123352   5.655   1.315   3.092
 7796TIP3    H223353   5.658   1.459   3.047
 7797TIP3   OH223354   1.570   3.562   0.079
 7797TIP3    H123355   1.592   3.610   0.159
 7797TIP3    H223356   1.531   3.480   0.111
 7798TIP3   OH223357   7.132   6.058   3.439
 7798TIP3    H123358   7.096   5.971   3.458
 7798TIP3    H223359   7.145   6.097   3.526
 7799TIP3   OH223360   1.296   2.157   4.596
 7799TIP3    H123361   1.288   2.249   4.571
 7799TIP3    H223362   1.372   2.125   4.547
 7800TIP3   OH223363   5.742   5.485   4.263
 7800TIP3    H123364   5.651   5.491   4.236
 7800TIP3    H223365   5.776   5.573   4.252
 7801TIP3   OH223366   6.806   2.616   5.464
 7801TIP3    H123367   6.787   2.635   5.555
 7801TIP3    H223368   6.848   2.695   5.430
 7802TIP3   OH223369   0.666   2.350   1.319
 7802TIP3    H123370   0.661   2.408   1.243
 7802TIP3    H223371   0.590   2.374   1.372
 7803TIP3   OH223372   6.991   0.373   3.558
 7803TIP3    H123373   6.977   0.382   3.653
 7803TIP3    H223374   7.085   0.359   3.549
 7804TIP3   OH223375   6.855   1.125   2.111
 7804TIP3    H123376   6.867   1.053   2.173
 7804TIP3    H223377   6.893   1.201   2.155
 7805TIP3   OH223378   6.518   3.041   3.428
 7805TIP3    H123379   6.433   3.033   3.471
 7805TIP3    H223380   6.574   3.083   3.494
 7806TIP3   OH223381   3.485   5.548   2.657
 7806TIP3    H123382   3.468   5.461   2.620
 7806TIP3    H223383   3.406   5.598   2.637
 7807TIP3   OH223384   0.175   1.290   2.979
 7807TIP3    H123385   0.260   1.328   2.957
 7807TIP3    H223386   0.191   1.195   2.983
 7808TIP3   OH223387   0.912   0.213   0.179
 7808TIP3    H123388   0.849   0.280   0.151
 7808TIP3    H223389   0.994   0.240   0.140
 7809TIP3   OH223390   2.639   3.000   2.312
 7809TIP3    H123391   2.648   2.950   2.231
 7809TIP3    H223392   2.578   3.070   2.289
 7810TIP3   OH223393   6.325   3.218   5.582
 7810TIP3    H123394   6.351   3.161   5.655
 7810TIP3    H223395   6.330   3.161   5.505
 7811TIP3   OH223396   0.133   5.250   2.946
 7811TIP3    H123397   0.168   5.302   2.873
 7811TIP3    H223398   0.209   5.228   2.999
 7812TIP3   OH223399   1.239   1.228   0.468
 7812TIP3    H123400   1.318   1.177   0.486
 7812TIP3    H223401   1.241   1.298   0.534
 7813TIP3   OH223402   3.532   1.894   3.536
 7813TIP3    H123403   3.531   1.799   3.528
 7813TIP3    H223404   3.567   1.910   3.624
 7814TIP3   OH223405   1.779   4.896   0.666
 7814TIP3    H123406   1.793   4.923   0.757
 7814TIP3    H223407   1.848   4.832   0.649
 7815TIP3   OH223408   0.365   2.007   1.796
 7815TIP3    H123409   0.376   1.962   1.713
 7815TIP3    H223410   0.432   2.076   1.794
 7816TIP3   OH223411   3.788   0.179   0.426
 7816TIP3    H123412   3.877   0.196   0.456
 7816TIP3    H223413   3.773   0.087   0.447
 7817TIP3   OH223414   0.794   5.960   4.499
 7817TIP3    H123415   0.719   5.999   4.455
 7817TIP3    H223416   0.788   5.867   4.480
 7818TIP3   OH223417   0.510   4.802   2.310
 7818TIP3    H123418   0.509   4.708   2.296
 7818TIP3    H223419   0.446   4.817   2.380
 7819TIP3   OH223420   3.243   2.231   0.941
 7819TIP3    H123421   3.219   2.264   0.854
 7819TIP3    H223422   3.257   2.309   0.994
 7820TIP3   OH223423   5.211   4.614   4.733
 7820TIP3    H123424   5.150   4.597   4.661
 7820TIP3    H223425   5.297   4.592   4.697
 7821TIP3   OH223426   6.159   1.901   2.142
 7821TIP3    H123427   6.255   1.895   2.144
 7821TIP3    H223428   6.142   1.985   2.101
 7822TIP3   OH223429   4.102   5.674   0.381
 7822TIP3    H123430   4.196   5.652   0.387
 7822TIP3    H223431   4.079   5.656   0.290
 7823TIP3   OH223432   4.932   2.387   0.469
 7823TIP3    H123433   4.972   2.386   0.382
 7823TIP3    H223434   4.914   2.480   0.485
 7824TIP3   OH223435   1.398   5.817   0.313
 7824TIP3    H123436   1.341   5.856   0.246
 7824TIP3    H223437   1.343   5.813   0.392
 7825TIP3   OH223438   4.746   6.691   4.134
 7825TIP3    H123439   4.794   6.686   4.052
 7825TIP3    H223440   4.655   6.708   4.108
 7826TIP3   OH223441   4.054   4.873   1.517
 7826TIP3    H123442   3.967   4.903   1.542
 7826TIP3    H223443   4.078   4.927   1.442
 7827TIP3   OH223444   0.809   6.677   0.342
 7827TIP3    H123445   0.835   6.651   0.254
 7827TIP3    H223446   0.821   6.772   0.344
 7828TIP3   OH223447   0.340   3.016   2.208
 7828TIP3    H123448   0.293   3.056   2.134
 7828TIP3    H223449   0.367   3.090   2.262
 7829TIP3   OH223450   1.177   3.239   0.477
 7829TIP3    H123451   1.258   3.280   0.447
 7829TIP3    H223452   1.171   3.158   0.427
 7830TIP3   OH223453   4.094   4.094   3.824
 7830TIP3    H123454   4.077   4.102   3.918
 7830TIP3    H223455   4.164   4.156   3.806
 7831TIP3   OH223456   1.228   6.156   2.910
 7831TIP3    H123457   1.293   6.139   2.842
 7831TIP3    H223458   1.166   6.217   2.870
 7832TIP3   OH223459   5.422   5.768   4.740
 7832TIP3    H123460   5.469   5.844   4.773
 7832TIP3    H223461   5.463   5.748   4.656
 7833TIP3   OH223462   5.764   4.450   5.620
 7833TIP3    H123463   5.761   4.493   5.706
 7833TIP3    H223464   5.778   4.522   5.558
 7834TIP3   OH223465   0.903   1.612   2.338
 7834TIP3    H123466   0.933   1.696   2.302
 7834TIP3    H223467   0.946   1.606   2.423
 7835TIP3   OH223468   2.785   2.690   5.142
 7835TIP3    H123469   2.707   2.713   5.092
 7835TIP3    H223470   2.753   2.634   5.212
 7836TIP3   OH223471   4.481   3.018   0.576
 7836TIP3    H123472   4.410   2.993   0.517
 7836TIP3    H223473   4.522   2.935   0.600
 7837TIP3   OH223474   6.852   5.490   5.603
 7837TIP3    H123475   6.915   5.420   5.586
 7837TIP3    H223476   6.823   5.517   5.516
 7838TIP3   OH223477   2.631   6.272   3.723
 7838TIP3    H123478   2.707   6.228   3.762
 7838TIP3    H223479   2.662   6.303   3.638
 7839TIP3   OH223480   1.531   2.774   4.668
 7839TIP3    H123481   1.469   2.750   4.738
 7839TIP3    H223482   1.516   2.867   4.654
 7840TIP3   OH223483   5.575   4.203   2.545
 7840TIP3    H123484   5.638   4.132   2.536
 7840TIP3    H223485   5.533   4.209   2.459
 7841TIP3   OH223486   0.128   6.484   4.477
 7841TIP3    H123487   0.167   6.398   4.496
 7841TIP3    H223488   0.089   6.473   4.391
 7842TIP3   OH223489   5.835   5.448   3.818
 7842TIP3    H123490   5.916   5.433   3.771
 7842TIP3    H223491   5.847   5.403   3.902
 7843TIP3   OH223492   7.034   2.435   5.521
 7843TIP3    H123493   6.957   2.487   5.540
 7843TIP3    H223494   7.047   2.444   5.426
 7844TIP3   OH223495   4.168   4.070   5.809
 7844TIP3    H123496   4.111   4.127   5.757
 7844TIP3    H223497   4.237   4.043   5.748
 7845TIP3   OH223498   3.160   4.239   1.758
 7845TIP3    H123499   3.183   4.266   1.669
 7845TIP3    H223500   3.064   4.234   1.756
 7846TIP3   OH223501   4.105   0.594   2.987
 7846TIP3    H123502   4.112   0.666   2.925
 7846TIP3    H223503   4.038   0.621   3.049
 7847TIP3   OH223504   2.247   1.356   5.584
 7847TIP3    H123505   2.283   1.444   5.584
 7847TIP3    H223506   2.274   1.319   5.500
 7848TIP3   OH223507   3.285   2.731   4.741
 7848TIP3    H123508   3.224   2.673   4.694
 7848TIP3    H223509   3.340   2.672   4.791
 7849TIP3   OH223510   0.381   0.977   2.696
 7849TIP3    H123511   0.419   0.924   2.626
 7849TIP3    H223512   0.420   0.943   2.776
 7850TIP3   OH223513   5.398   5.618   0.788
 7850TIP3    H123514   5.368   5.652   0.704
 7850TIP3    H223515   5.335   5.550   0.811
 7851TIP3   OH223516   3.076   3.608   5.742
 7851TIP3    H123517   3.056   3.692   5.701
 7851TIP3    H223518   3.172   3.602   5.739
 7852TIP3   OH223519   3.263   0.059   3.659
 7852TIP3    H123520   3.233   0.042   3.749
 7852TIP3    H223521   3.210   0.001   3.605
 7853TIP3   OH223522   3.091   3.980   2.495
 7853TIP3    H123523   3.117   3.889   2.480
 7853TIP3    H223524   3.170   4.031   2.478
 7854TIP3   OH223525   7.065   3.864   4.218
 7854TIP3    H123526   7.021   3.782   4.240
 7854TIP3    H223527   7.118   3.843   4.141
 7855TIP3   OH223528   1.936   4.821   4.371
 7855TIP3    H123529   1.846   4.840   4.344
 7855TIP3    H223530   1.990   4.854   4.300
 7856TIP3   OH223531   4.723   1.314   3.230
 7856TIP3    H123532   4.640   1.294   3.273
 7856TIP3    H223533   4.787   1.316   3.302
 7857TIP3   OH223534   5.265   2.256   0.903
 7857TIP3    H123535   5.241   2.349   0.911
 7857TIP3    H223536   5.200   2.210   0.955
 7858TIP3   OH223537   1.511   4.121   2.779
 7858TIP3    H123538   1.454   4.057   2.823
 7858TIP3    H223539   1.497   4.203   2.827
 7859TIP3   OH223540   2.293   3.511   3.525
 7859TIP3    H123541   2.319   3.513   3.617
 7859TIP3    H223542   2.349   3.444   3.486
 7860TIP3   OH223543   4.153   1.222   2.960
 7860TIP3    H123544   4.238   1.249   2.926
 7860TIP3    H223545   4.104   1.195   2.883
 7861TIP3   OH223546   4.001   3.873   1.937
 7861TIP3    H123547   3.964   3.787   1.916
 7861TIP3    H223548   3.982   3.927   1.861
 7862TIP3   OH223549   0.328   2.472   3.411
 7862TIP3    H123550   0.387   2.400   3.436
 7862TIP3    H223551   0.271   2.433   3.345
 7863TIP3   OH223552   2.237   5.917   3.588
 7863TIP3    H123553   2.189   5.835   3.576
 7863TIP3    H223554   2.169   5.983   3.600
 7864TIP3   OH223555   6.530   1.494   3.407
 7864TIP3    H123556   6.575   1.452   3.480
 7864TIP3    H223557   6.586   1.570   3.385
 7865TIP3   OH223558   5.069   5.095   4.432
 7865TIP3    H123559   5.034   5.007   4.449
 7865TIP3    H223560   4.996   5.142   4.392
 7866TIP3   OH223561   5.570   3.425   4.735
 7866TIP3    H123562   5.525   3.497   4.780
 7866TIP3    H223563   5.514   3.348   4.752
 7867TIP3   OH223564   4.845   2.909   4.302
 7867TIP3    H123565   4.833   2.971   4.373
 7867TIP3    H223566   4.910   2.950   4.245
 7868TIP3   OH223567   3.956   2.529   2.074
 7868TIP3    H123568   3.957   2.593   2.145
 7868TIP3    H223569   3.863   2.517   2.055
 7869TIP3   OH223570   1.465   0.807   3.592
 7869TIP3    H123571   1.379   0.803   3.551
 7869TIP3    H223572   1.449   0.791   3.684
 7870TIP3   OH223573   5.284   2.215   0.177
 7870TIP3    H123574   5.262   2.224   0.269
 7870TIP3    H223575   5.377   2.191   0.177
 7871TIP3   OH223576   2.097   2.821   4.372
 7871TIP3    H123577   2.162   2.784   4.313
 7871TIP3    H223578   2.145   2.835   4.454
 7872TIP3   OH223579   4.363   1.088   2.647
 7872TIP3    H123580   4.447   1.045   2.663
 7872TIP3    H223581   4.376   1.134   2.564
 7873TIP3   OH223582   4.572   0.413   5.834
 7873TIP3    H123583   4.623   0.424   5.754
 7873TIP3    H223584   4.637   0.387   5.900
 7874TIP3   OH223585   2.059   1.653  -0.011
 7874TIP3    H123586   1.995   1.586   0.012
 7874TIP3    H223587   2.140   1.605  -0.028
 7875TIP3   OH223588   3.135   4.996   0.456
 7875TIP3    H123589   3.146   4.912   0.411
 7875TIP3    H223590   3.197   5.054   0.412
 7876TIP3   OH223591   5.913   3.155   3.636
 7876TIP3    H123592   5.965   3.074   3.628
 7876TIP3    H223593   5.914   3.175   3.729
 7877TIP3   OH223594   6.699   2.716   4.245
 7877TIP3    H123595   6.609   2.750   4.240
 7877TIP3    H223596   6.694   2.645   4.309
 7878TIP3   OH223597   4.074   6.632   4.905
 7878TIP3    H123598   4.111   6.571   4.969
 7878TIP3    H223599   4.094   6.594   4.820
 7879TIP3   OH223600   3.052   0.741   3.706
 7879TIP3    H123601   3.135   0.775   3.738
 7879TIP3    H223602   2.991   0.752   3.779
 7880TIP3   OH223603   3.240   4.028   5.675
 7880TIP3    H123604   3.325   3.997   5.708
 7880TIP3    H223605   3.261   4.071   5.592
 7881TIP3   OH223606   0.122   1.478   4.219
 7881TIP3    H123607   0.101   1.460   4.311
 7881TIP3    H223608   0.211   1.514   4.222
 7882TIP3   OH223609   1.722   2.450   4.438
 7882TIP3    H123610   1.810   2.429   4.407
 7882TIP3    H223611   1.667   2.378   4.407
 7883TIP3   OH223612   2.400   1.419   3.996
 7883TIP3    H123613   2.346   1.450   4.069
 7883TIP3    H223614   2.356   1.453   3.918
 7884TIP3   OH223615   2.747   2.984   4.623
 7884TIP3    H123616   2.744   3.077   4.644
 7884TIP3    H223617   2.818   2.949   4.677
 7885TIP3   OH223618   4.205   6.519   1.976
 7885TIP3    H123619   4.119   6.488   1.945
 7885TIP3    H223620   4.233   6.453   2.039
 7886TIP3   OH223621   2.419   2.410   0.955
 7886TIP3    H123622   2.489   2.387   1.016
 7886TIP3    H223623   2.400   2.502   0.975
 7887TIP3   OH223624   4.868   5.796   1.971
 7887TIP3    H123625   4.826   5.716   2.003
 7887TIP3    H223626   4.795   5.849   1.938
 7888TIP3   OH223627   0.756   3.604   3.896
 7888TIP3    H123628   0.804   3.525   3.872
 7888TIP3    H223629   0.824   3.670   3.909
 7889TIP3   OH223630   0.370   1.543   4.113
 7889TIP3    H123631   0.454   1.509   4.082
 7889TIP3    H223632   0.309   1.525   4.041
 7890TIP3   OH223633   5.749   0.364   5.212
 7890TIP3    H123634   5.672   0.352   5.156
 7890TIP3    H223635   5.789   0.277   5.218
 7891TIP3   OH223636   4.005   5.154   1.674
 7891TIP3    H123637   3.940   5.142   1.744
 7891TIP3    H223638   3.953   5.162   1.594
 7892TIP3   OH223639   0.918   5.690   0.745
 7892TIP3    H123640   0.928   5.607   0.793
 7892TIP3    H223641   0.992   5.743   0.773
 7893TIP3   OH223642   3.967   4.732   1.844
 7893TIP3    H123643   3.872   4.738   1.838
 7893TIP3    H223644   3.983   4.640   1.865
 7894TIP3   OH223645   4.365   2.506   3.132
 7894TIP3    H123646   4.393   2.567   3.200
 7894TIP3    H223647   4.367   2.557   3.051
 7895TIP3   OH223648   5.892   5.270   3.428
 7895TIP3    H123649   5.876   5.360   3.455
 7895TIP3    H223650   5.935   5.277   3.342
 7896TIP3   OH223651   5.410   6.319   3.269
 7896TIP3    H123652   5.372   6.255   3.208
 7896TIP3    H223653   5.337   6.345   3.324
 7897TIP3   OH223654   0.300   4.090   4.224
 7897TIP3    H123655   0.244   4.055   4.155
 7897TIP3    H223656   0.346   4.164   4.184
 7898TIP3   OH223657   4.773   4.831   3.215
 7898TIP3    H123658   4.776   4.924   3.236
 7898TIP3    H223659   4.825   4.789   3.283
 7899TIP3   OH223660   1.984   2.958   2.873
 7899TIP3    H123661   1.971   2.888   2.809
 7899TIP3    H223662   1.971   2.916   2.958
 7900TIP3   OH223663   3.164   1.159   5.226
 7900TIP3    H123664   3.093   1.176   5.287
 7900TIP3    H223665   3.193   1.246   5.197
 7901TIP3   OH223666   6.440   4.428   2.728
 7901TIP3    H123667   6.369   4.492   2.718
 7901TIP3    H223668   6.490   4.461   2.803
 7902TIP3   OH223669   4.866   1.284   4.074
 7902TIP3    H123670   4.862   1.265   4.168
 7902TIP3    H223671   4.869   1.380   4.069
 7903TIP3   OH223672   3.709   4.491   1.695
 7903TIP3    H123673   3.715   4.397   1.713
 7903TIP3    H223674   3.720   4.498   1.601
 7904TIP3   OH223675   3.814   4.518   5.083
 7904TIP3    H123676   3.896   4.469   5.078
 7904TIP3    H223677   3.805   4.557   4.996
 7905TIP3   OH223678   4.605   3.447   2.845
 7905TIP3    H123679   4.593   3.408   2.759
 7905TIP3    H223680   4.523   3.429   2.892
 7906TIP3   OH223681   0.083   5.508   1.045
 7906TIP3    H123682   0.072   5.603   1.048
 7906TIP3    H223683   0.173   5.496   1.013
 7907TIP3   OH223684   1.886   6.605   5.478
 7907TIP3    H123685   1.832   6.634   5.404
 7907TIP3    H223686   1.938   6.681   5.501
 7908TIP3   OH223687   3.923   3.390   3.142
 7908TIP3    H123688   3.852   3.447   3.115
 7908TIP3    H223689   3.959   3.356   3.060
 7909TIP3   OH223690   1.541   6.296   2.404
 7909TIP3    H123691   1.520   6.348   2.326
 7909TIP3    H223692   1.626   6.330   2.433
 7910TIP3   OH223693   0.390   1.894   4.534
 7910TIP3    H123694   0.421   1.984   4.531
 7910TIP3    H223695   0.410   1.859   4.448
 7911TIP3   OH223696   5.778   0.016   2.972
 7911TIP3    H123697   5.706   0.062   2.930
 7911TIP3    H223698   5.794  -0.060   2.915
 7912TIP3   OH223699   5.891   4.872   4.798
 7912TIP3    H123700   5.958   4.838   4.857
 7912TIP3    H223701   5.930   4.952   4.762
 7913TIP3   OH223702   6.012   1.509   5.527
 7913TIP3    H123703   6.065   1.589   5.530
 7913TIP3    H223704   5.922   1.540   5.517
 7914TIP3   OH223705   2.828   3.570   1.975
 7914TIP3    H123706   2.852   3.662   1.968
 7914TIP3    H223707   2.776   3.565   2.056
 7915TIP3   OH223708   1.453   4.310   3.245
 7915TIP3    H123709   1.406   4.382   3.203
 7915TIP3    H223710   1.385   4.244   3.262
 7916TIP3   OH223711   6.616   0.521   3.223
 7916TIP3    H123712   6.573   0.435   3.222
 7916TIP3    H223713   6.693   0.509   3.168
 7917TIP3   OH223714   1.787   2.206   0.749
 7917TIP3    H123715   1.708   2.163   0.782
 7917TIP3    H223716   1.859   2.151   0.778
 7918TIP3   OH223717   2.191   2.620   5.011
 7918TIP3    H123718   2.142   2.576   5.080
 7918TIP3    H223719   2.209   2.707   5.045
 7919TIP3   OH223720   4.749   2.549   3.778
 7919TIP3    H123721   4.763   2.455   3.787
 7919TIP3    H223722   4.809   2.575   3.708
 7920TIP3   OH223723   4.771   2.479   0.205
 7920TIP3    H123724   4.829   2.404   0.191
 7920TIP3    H223725   4.827   2.545   0.245
 7921TIP3   OH223726   3.962   1.824   4.632
 7921TIP3    H123727   3.869   1.805   4.620
 7921TIP3    H223728   3.965   1.919   4.647
 7922TIP3   OH223729   3.974   1.751   2.772
 7922TIP3    H123730   4.065   1.779   2.762
 7922TIP3    H223731   3.972   1.705   2.855
 7923TIP3   OH223732   5.546   1.792   1.471
 7923TIP3    H123733   5.499   1.874   1.483
 7923TIP3    H223734   5.480   1.724   1.485
 7924TIP3   OH223735   3.465   1.292   0.121
 7924TIP3    H123736   3.530   1.361   0.111
 7924TIP3    H223737   3.462   1.276   0.216
 7925TIP3   OH223738   3.182   1.462   1.903
 7925TIP3    H123739   3.152   1.423   1.985
 7925TIP3    H223740   3.151   1.401   1.835
 7926TIP3   OH223741   2.784   3.743   1.398
 7926TIP3    H123742   2.758   3.651   1.411
 7926TIP3    H223743   2.880   3.740   1.394
 7927TIP3   OH223744   4.869   2.265   1.681
 7927TIP3    H123745   4.779   2.260   1.713
 7927TIP3    H223746   4.923   2.262   1.759
 7928TIP3   OH223747   0.607   4.816   1.827
 7928TIP3    H123748   0.575   4.849   1.742
 7928TIP3    H223749   0.533   4.827   1.886
 7929TIP3   OH223750   6.180   1.317   0.151
 7929TIP3    H123751   6.236   1.331   0.227
 7929TIP3    H223752   6.203   1.388   0.091
 7930TIP3   OH223753   5.433   4.102   4.264
 7930TIP3    H123754   5.439   4.028   4.202
 7930TIP3    H223755   5.440   4.180   4.209
 7931TIP3   OH223756   5.424   0.542   1.984
 7931TIP3    H123757   5.474   0.519   2.062
 7931TIP3    H223758   5.374   0.463   1.963
 7932TIP3   OH223759   5.528   2.173   1.966
 7932TIP3    H123760   5.445   2.159   2.012
 7932TIP3    H223761   5.546   2.266   1.976
 7933TIP3   OH223762   6.255   3.034   3.500
 7933TIP3    H123763   6.187   3.083   3.454
 7933TIP3    H223764   6.228   2.942   3.492
 7934TIP3   OH223765   1.008   4.074   0.549
 7934TIP3    H123766   1.061   4.038   0.477
 7934TIP3    H223767   1.016   4.169   0.539
 7935TIP3   OH223768   0.935   6.345   2.304
 7935TIP3    H123769   1.029   6.327   2.299
 7935TIP3    H223770   0.905   6.344   2.214
 7936TIP3   OH223771   2.417   1.174   5.735
 7936TIP3    H123772   2.486   1.127   5.689
 7936TIP3    H223773   2.369   1.221   5.667
 7937TIP3   OH223774   0.320   3.521   0.315
 7937TIP3    H123775   0.226   3.533   0.331
 7937TIP3    H223776   0.336   3.429   0.334
 7938TIP3   OH223777   5.997   5.398   1.285
 7938TIP3    H123778   6.037   5.325   1.334
 7938TIP3    H223779   5.969   5.459   1.353
 7939TIP3   OH223780   4.471   4.668   3.508
 7939TIP3    H123781   4.400   4.620   3.464
 7939TIP3    H223782   4.546   4.609   3.503
 7940TIP3   OH223783   5.922   6.726   1.737
 7940TIP3    H123784   5.848   6.777   1.702
 7940TIP3    H223785   5.885   6.677   1.810
 7941TIP3   OH223786   4.197   6.272   1.221
 7941TIP3    H123787   4.109   6.270   1.258
 7941TIP3    H223788   4.230   6.359   1.244
 7942TIP3   OH223789   3.940   5.566   1.460
 7942TIP3    H123790   3.956   5.657   1.484
 7942TIP3    H223791   3.845   5.562   1.445
 7943TIP3   OH223792   1.045   4.786   1.877
 7943TIP3    H123793   1.040   4.882   1.869
 7943TIP3    H223794   1.136   4.765   1.860
 7944TIP3   OH223795   3.208   6.358   1.155
 7944TIP3    H123796   3.128   6.323   1.195
 7944TIP3    H223797   3.213   6.314   1.070
 7945TIP3   OH223798   4.362   6.240   5.010
 7945TIP3    H123799   4.452   6.207   4.997
 7945TIP3    H223800   4.318   6.222   4.927
 7946TIP3   OH223801   3.490   3.962   3.493
 7946TIP3    H123802   3.529   4.036   3.447
 7946TIP3    H223803   3.484   3.990   3.584
 7947TIP3   OH223804   3.071   4.651   1.181
 7947TIP3    H123805   3.128   4.574   1.174
 7947TIP3    H223806   3.064   4.684   1.091
 7948TIP3   OH223807   2.622   2.340   1.143
 7948TIP3    H123808   2.715   2.316   1.150
 7948TIP3    H223809   2.599   2.373   1.230
 7949TIP3   OH223810   3.069   1.882   0.946
 7949TIP3    H123811   2.977   1.871   0.970
 7949TIP3    H223812   3.116   1.823   1.004
 7950TIP3   OH223813   4.161   3.419   2.383
 7950TIP3    H123814   4.159   3.474   2.461
 7950TIP3    H223815   4.118   3.337   2.410
 7951TIP3   OH223816   4.775   5.055   2.837
 7951TIP3    H123817   4.721   4.976   2.840
 7951TIP3    H223818   4.793   5.075   2.929
 7952TIP3   OH223819   1.058   4.381   4.692
 7952TIP3    H123820   1.061   4.286   4.704
 7952TIP3    H223821   1.019   4.393   4.606
 7953TIP3   OH223822   6.648   5.788   3.568
 7953TIP3    H123823   6.643   5.871   3.520
 7953TIP3    H223824   6.721   5.800   3.629
 7954TIP3   OH223825   2.535   3.258   5.501
 7954TIP3    H123826   2.628   3.278   5.489
 7954TIP3    H223827   2.529   3.225   5.591
 7955TIP3   OH223828   3.110   6.335   2.379
 7955TIP3    H123829   3.020   6.332   2.411
 7955TIP3    H223830   3.102   6.362   2.287
 7956TIP3   OH223831   6.307   3.707   1.737
 7956TIP3    H123832   6.353   3.649   1.676
 7956TIP3    H223833   6.354   3.790   1.731
 7957TIP3   OH223834   0.887   3.699   3.585
 7957TIP3    H123835   0.939   3.643   3.642
 7957TIP3    H223836   0.923   3.684   3.497
 7958TIP3   OH223837   4.299   2.885   4.947
 7958TIP3    H123838   4.251   2.871   4.865
 7958TIP3    H223839   4.366   2.949   4.925
 7959TIP3   OH223840   1.910   4.194   3.896
 7959TIP3    H123841   1.905   4.123   3.960
 7959TIP3    H223842   1.837   4.252   3.919
 7960TIP3   OH223843   6.328   5.601   5.306
 7960TIP3    H123844   6.352   5.675   5.361
 7960TIP3    H223845   6.272   5.639   5.238
 7961TIP3   OH223846   6.597   4.988   1.512
 7961TIP3    H123847   6.686   4.956   1.525
 7961TIP3    H223848   6.559   4.928   1.447
 7962TIP3   OH223849   5.081   0.266   4.425
 7962TIP3    H123850   5.048   0.355   4.419
 7962TIP3    H223851   5.004   0.213   4.448
 7963TIP3   OH223852   5.289   4.263   1.410
 7963TIP3    H123853   5.365   4.218   1.372
 7963TIP3    H223854   5.319   4.352   1.425
 7964TIP3   OH223855   6.843   1.739   0.026
 7964TIP3    H123856   6.764   1.702   0.066
 7964TIP3    H223857   6.812   1.781  -0.054
 7965TIP3   OH223858   2.434   5.725   5.458
 7965TIP3    H123859   2.464   5.715   5.368
 7965TIP3    H223860   2.507   5.692   5.511
 7966TIP3   OH223861   7.253   6.246   5.852
 7966TIP3    H123862   7.222   6.309   5.787
 7966TIP3    H223863   7.216   6.162   5.824
 7967TIP3   OH223864   1.668   1.965   1.233
 7967TIP3    H123865   1.666   2.046   1.182
 7967TIP3    H223866   1.756   1.964   1.272
 7968TIP3   OH223867   5.994   1.766   0.130
 7968TIP3    H123868   5.943   1.696   0.171
 7968TIP3    H223869   5.930   1.813   0.076
 7969TIP3   OH223870   6.634   3.931   5.194
 7969TIP3    H123871   6.644   4.020   5.226
 7969TIP3    H223872   6.621   3.941   5.100
 7970TIP3   OH223873   1.242   1.182   4.920
 7970TIP3    H123874   1.262   1.181   4.827
 7970TIP3    H223875   1.191   1.262   4.932
 7971TIP3   OH223876   4.060   6.095   2.827
 7971TIP3    H123877   4.021   6.020   2.871
 7971TIP3    H223878   4.141   6.061   2.787
 7972TIP3   OH223879   4.059   1.047   3.145
 7972TIP3    H123880   4.131   1.005   3.192
 7972TIP3    H223881   4.100   1.114   3.091
 7973TIP3   OH223882   1.297   6.491   3.437
 7973TIP3    H123883   1.268   6.531   3.519
 7973TIP3    H223884   1.341   6.562   3.390
 7974TIP3   OH223885   5.143   6.420   5.907
 7974TIP3    H123886   5.184   6.371   5.835
 7974TIP3    H223887   5.190   6.391   5.985
 7975TIP3   OH223888   2.133   0.538   5.320
 7975TIP3    H123889   2.112   0.468   5.382
 7975TIP3    H223890   2.227   0.526   5.303
 7976TIP3   OH223891   5.017   5.184   5.081
 7976TIP3    H123892   5.013   5.273   5.116
 7976TIP3    H223893   5.093   5.145   5.124
 7977TIP3   OH223894   0.840   4.782   2.728
 7977TIP3    H123895   0.773   4.792   2.796
 7977TIP3    H223896   0.899   4.856   2.742
 7978TIP3   OH223897   6.721   4.652   2.492
 7978TIP3    H123898   6.673   4.659   2.410
 7978TIP3    H223899   6.686   4.574   2.534
 7979TIP3   OH223900   5.730   6.122   5.654
 7979TIP3    H123901   5.736   6.026   5.653
 7979TIP3    H223902   5.642   6.140   5.687
 7980TIP3   OH223903   3.245   1.902   0.496
 7980TIP3    H123904   3.184   1.975   0.511
 7980TIP3    H223905   3.321   1.922   0.551
 7981TIP3   OH223906   4.348   0.114   0.374
 7981TIP3    H123907   4.420   0.165   0.337
 7981TIP3    H223908   4.339   0.039   0.315
 7982TIP3   OH223909   0.672   0.927   1.116
 7982TIP3    H123910   0.751   0.940   1.169
 7982TIP3    H223911   0.601   0.917   1.181
 7983TIP3   OH223912   5.054   4.254   5.678
 7983TIP3    H123913   5.075   4.299   5.596
 7983TIP3    H223914   5.055   4.323   5.745
 7984TIP3   OH223915   2.466   5.997   3.718
 7984TIP3    H123916   2.376   5.993   3.687
 7984TIP3    H223917   2.459   5.982   3.812
 7985TIP3   OH223918   4.039   5.870   5.455
 7985TIP3    H123919   4.035   5.799   5.519
 7985TIP3    H223920   4.070   5.829   5.375
 7986TIP3   OH223921   5.825   1.161   2.552
 7986TIP3    H123922   5.774   1.175   2.632
 7986TIP3    H223923   5.841   1.067   2.550
 7987TIP3   OH223924   5.560   6.385   5.134
 7987TIP3    H123925   5.558   6.370   5.228
 7987TIP3    H223926   5.515   6.469   5.122
 7988TIP3   OH223927   2.796   0.191   2.847
 7988TIP3    H123928   2.868   0.152   2.797
 7988TIP3    H223929   2.820   0.179   2.938
 7989TIP3   OH223930   0.564   2.706   1.950
 7989TIP3    H123931   0.488   2.686   2.006
 7989TIP3    H223932   0.632   2.734   2.011
 7990TIP3   OH223933   4.817   6.373   3.912
 7990TIP3    H123934   4.809   6.310   3.983
 7990TIP3    H223935   4.907   6.365   3.883
 7991TIP3   OH223936   5.712   5.819   5.539
 7991TIP3    H123937   5.768   5.745   5.561
 7991TIP3    H223938   5.642   5.817   5.604
 7992TIP3   OH223939   4.430   5.545   3.637
 7992TIP3    H123940   4.366   5.539   3.565
 7992TIP3    H223941   4.455   5.454   3.655
 7993TIP3   OH223942   6.140   1.175   1.436
 7993TIP3    H123943   6.127   1.266   1.463
 7993TIP3    H223944   6.073   1.160   1.369
 7994TIP3   OH223945   4.621   0.221   5.143
 7994TIP3    H123946   4.594   0.154   5.081
 7994TIP3    H223947   4.704   0.254   5.110
 7995TIP3   OH223948   5.016   1.577   3.146
 7995TIP3    H123949   5.067   1.508   3.104
 7995TIP3    H223950   4.983   1.630   3.074
 7996TIP3   OH223951   3.805   2.199   2.490
 7996TIP3    H123952   3.854   2.119   2.508
 7996TIP3    H223953   3.766   2.223   2.574
 7997TIP3   OH223954   6.698   3.717   3.648
 7997TIP3    H123955   6.605   3.726   3.628
 7997TIP3    H223956   6.708   3.756   3.735
 7998TIP3   OH223957   4.047   1.562   2.197
 7998TIP3    H123958   4.118   1.503   2.222
 7998TIP3    H223959   4.071   1.593   2.110
 7999TIP3   OH223960   0.465   4.798   2.581
 7999TIP3    H123961   0.404   4.845   2.638
 7999TIP3    H223962   0.550   4.836   2.600
 8000TIP3   OH223963   6.060   6.750   0.784
 8000TIP3    H123964   6.118   6.727   0.856
 8000TIP3    H223965   6.043   6.667   0.739
 8001TIP3   OH223966   6.254   3.928   2.964
 8001TIP3    H123967   6.167   3.888   2.964
 8001TIP3    H223968   6.237   4.022   2.964
 8002TIP3   OH223969   3.485   3.747   5.452
 8002TIP3    H123970   3.531   3.695   5.386
 8002TIP3    H223971   3.399   3.764   5.412
 8003TIP3   OH223972   0.015   1.428   1.206
 8003TIP3    H123973   0.105   1.440   1.234
 8003TIP3    H223974   0.015   1.346   1.157
 8004TIP3   OH223975   0.082   6.404   2.452
 8004TIP3    H123976   0.095   6.498   2.459
 8004TIP3    H223977   0.017   6.384   2.519
 8005TIP3   OH223978   1.988   1.763   4.361
 8005TIP3    H123979   2.080   1.773   4.385
 8005TIP3    H223980   1.957   1.691   4.416
 8006TIP3   OH223981   6.493   2.148   3.042
 8006TIP3    H123982   6.582   2.147   3.007
 8006TIP3    H223983   6.475   2.056   3.065
 8007TIP3   OH223984   1.069   6.075   3.776
 8007TIP3    H123985   0.974   6.084   3.778
 8007TIP3    H223986   1.102   6.157   3.812
 8008TIP3   OH223987   0.211   5.196   1.183
 8008TIP3    H123988   0.186   5.263   1.118
 8008TIP3    H223989   0.306   5.194   1.179
 8009TIP3   OH223990   3.320   0.297   2.068
 8009TIP3    H123991   3.382   0.341   2.010
 8009TIP3    H223992   3.370   0.280   2.148
 8010TIP3   OH223993   4.217   5.508   2.434
 8010TIP3    H123994   4.141   5.455   2.458
 8010TIP3    H223995   4.183   5.597   2.427
 8011TIP3   OH223996   6.798   3.498   1.442
 8011TIP3    H123997   6.797   3.496   1.538
 8011TIP3    H223998   6.890   3.500   1.418
 8012TIP3   OH223999   6.834   2.860   1.138
 8012TIP3    H124000   6.834   2.912   1.218
 8012TIP3    H224001   6.873   2.916   1.072
 8013TIP3   OH224002   5.144   3.586   5.660
 8013TIP3    H124003   5.121   3.650   5.593
 8013TIP3    H224004   5.234   3.559   5.639
 8014TIP3   OH224005   3.902   3.229   4.025
 8014TIP3    H124006   3.828   3.177   4.055
 8014TIP3    H224007   3.874   3.266   3.941
 8015TIP3   OH224008   3.147   6.491   5.660
 8015TIP3    H124009   3.056   6.463   5.675
 8015TIP3    H224010   3.146   6.585   5.678
 8016TIP3   OH224011   5.459   5.765   2.021
 8016TIP3    H124012   5.535   5.709   2.006
 8016TIP3    H224013   5.396   5.708   2.066
 8017TIP3   OH224014   4.708   5.120   5.506
 8017TIP3    H124015   4.731   5.057   5.574
 8017TIP3    H224016   4.673   5.195   5.554
 8018TIP3   OH224017   1.063   5.620   4.289
 8018TIP3    H124018   1.109   5.553   4.237
 8018TIP3    H224019   1.086   5.703   4.247
 8019TIP3   OH224020   3.414   0.161   5.868
 8019TIP3    H124021   3.450   0.214   5.796
 8019TIP3    H224022   3.372   0.087   5.825
 8020TIP3   OH224023   2.349   5.388   1.479
 8020TIP3    H124024   2.266   5.410   1.520
 8020TIP3    H224025   2.416   5.424   1.538
 8021TIP3   OH224026   7.137   4.973   3.457
 8021TIP3    H124027   7.043   4.978   3.441
 8021TIP3    H224028   7.177   5.019   3.383
 8022TIP3   OH224029   3.611   4.213   3.319
 8022TIP3    H124030   3.622   4.284   3.382
 8022TIP3    H224031   3.532   4.237   3.270
 8023TIP3   OH224032   1.889   3.511   5.391
 8023TIP3    H124033   1.874   3.419   5.368
 8023TIP3    H224034   1.931   3.507   5.477
 8024TIP3   OH224035   0.429   6.536   3.541
 8024TIP3    H124036   0.427   6.582   3.457
 8024TIP3    H224037   0.437   6.444   3.518
 8025TIP3   OH224038   3.317   6.317   5.821
 8025TIP3    H124039   3.412   6.329   5.813
 8025TIP3    H224040   3.280   6.379   5.759
 8026TIP3   OH224041   2.493   3.500   4.561
 8026TIP3    H124042   2.417   3.508   4.502
 8026TIP3    H224043   2.457   3.512   4.649
 8027TIP3   OH224044   0.234   1.542   5.654
 8027TIP3    H124045   0.306   1.489   5.620
 8027TIP3    H224046   0.211   1.500   5.737
 8028TIP3   OH224047   7.057   6.827   1.376
 8028TIP3    H124048   7.100   6.810   1.460
 8028TIP3    H224049   7.053   6.741   1.333
 8029TIP3   OH224050   4.938   2.676   0.274
 8029TIP3    H124051   4.967   2.731   0.347
 8029TIP3    H224052   4.989   2.708   0.199
 8030TIP3   OH224053   4.980   1.715   4.917
 8030TIP3    H124054   4.951   1.774   4.848
 8030TIP3    H224055   5.071   1.741   4.934
 8031TIP3   OH224056   7.047   2.163   5.606
 8031TIP3    H124057   7.032   2.243   5.555
 8031TIP3    H224058   7.005   2.094   5.554
 8032TIP3   OH224059   2.373   2.990   2.591
 8032TIP3    H124060   2.427   3.025   2.661
 8032TIP3    H224061   2.337   3.067   2.547
 8033TIP3   OH224062   0.571   2.048   1.388
 8033TIP3    H124063   0.576   2.007   1.474
 8033TIP3    H224064   0.576   2.142   1.405
 8034TIP3   OH224065   3.507   6.162   5.563
 8034TIP3    H124066   3.483   6.131   5.476
 8034TIP3    H224067   3.453   6.110   5.623
 8035TIP3   OH224068   4.877   1.347   2.003
 8035TIP3    H124069   4.909   1.385   1.922
 8035TIP3    H224070   4.894   1.253   1.994
 8036TIP3   OH224071   5.223   0.486   3.495
 8036TIP3    H124072   5.218   0.395   3.524
 8036TIP3    H224073   5.206   0.537   3.574
 8037TIP3   OH224074   3.099   0.382   4.450
 8037TIP3    H124075   3.107   0.443   4.523
 8037TIP3    H224076   3.139   0.301   4.481
 8038TIP3   OH224077   6.360   6.108   5.599
 8038TIP3    H124078   6.330   6.074   5.515
 8038TIP3    H224079   6.453   6.086   5.602
 8039TIP3   OH224080   4.907   6.049   3.907
 8039TIP3    H124081   4.851   6.090   3.841
 8039TIP3    H224082   4.860   5.969   3.933
 8040TIP3   OH224083   6.073   3.311   3.430
 8040TIP3    H124084   6.108   3.323   3.518
 8040TIP3    H224085   5.982   3.341   3.436
 8041TIP3   OH224086   2.427   6.484   3.650
 8041TIP3    H124087   2.508   6.455   3.692
 8041TIP3    H224088   2.433   6.579   3.648
 8042TIP3   OH224089   2.357   4.546   2.911
 8042TIP3    H124090   2.382   4.455   2.927
 8042TIP3    H224091   2.272   4.556   2.953
 8043TIP3   OH224092   6.754   5.505   3.826
 8043TIP3    H124093   6.758   5.452   3.906
 8043TIP3    H224094   6.840   5.494   3.785
 8044TIP3   OH224095   0.532   1.109   3.402
 8044TIP3    H124096   0.608   1.099   3.459
 8044TIP3    H224097   0.564   1.082   3.316
 8045TIP3   OH224098   1.060   5.093   5.615
 8045TIP3    H124099   1.042   5.020   5.556
 8045TIP3    H224100   1.140   5.067   5.661
 8046TIP3   OH224101   0.522   3.988   0.168
 8046TIP3    H124102   0.539   3.894   0.179
 8046TIP3    H224103   0.593   4.019   0.113
 8047TIP3   OH224104   6.953   1.658   1.807
 8047TIP3    H124105   6.905   1.738   1.829
 8047TIP3    H224106   6.991   1.676   1.722
 8048TIP3   OH224107   2.741   2.486   0.636
 8048TIP3    H124108   2.667   2.493   0.574
 8048TIP3    H224109   2.710   2.425   0.703
 8049TIP3   OH224110   1.332   6.708   5.671
 8049TIP3    H124111   1.333   6.670   5.759
 8049TIP3    H224112   1.410   6.762   5.667
 8050TIP3   OH224113   0.906   2.596   5.385
 8050TIP3    H124114   0.986   2.593   5.334
 8050TIP3    H224115   0.837   2.614   5.321
 8051TIP3   OH224116   4.354   6.361   4.130
 8051TIP3    H124117   4.312   6.327   4.051
 8051TIP3    H224118   4.375   6.452   4.109
 8052TIP3   OH224119   6.326   2.858   2.481
 8052TIP3    H124120   6.358   2.927   2.424
 8052TIP3    H224121   6.329   2.896   2.569
 8053TIP3   OH224122   5.219   6.440   3.973
 8053TIP3    H124123   5.276   6.457   3.897
 8053TIP3    H224124   5.174   6.358   3.951
 8054TIP3   OH224125   2.403   3.020   0.764
 8054TIP3    H124126   2.308   3.028   0.759
 8054TIP3    H224127   2.418   2.938   0.811
 8055TIP3   OH224128   0.212   0.370   1.587
 8055TIP3    H124129   0.196   0.296   1.529
 8055TIP3    H224130   0.250   0.437   1.531
 8056TIP3   OH224131   1.785   3.415   2.417
 8056TIP3    H124132   1.712   3.400   2.357
 8056TIP3    H224133   1.834   3.487   2.378
 8057TIP3   OH224134   1.056   1.497   4.625
 8057TIP3    H124135   1.001   1.552   4.682
 8057TIP3    H224136   1.101   1.559   4.569
 8058TIP3   OH224137   6.925   6.175   4.732
 8058TIP3    H124138   6.837   6.211   4.747
 8058TIP3    H224139   6.958   6.222   4.655
 8059TIP3   OH224140   0.778   4.988   3.985
 8059TIP3    H124141   0.726   5.067   3.997
 8059TIP3    H224142   0.847   5.014   3.923
 8060TIP3   OH224143   0.778   1.369   0.171
 8060TIP3    H124144   0.777   1.306   0.243
 8060TIP3    H224145   0.692   1.412   0.175
 8061TIP3   OH224146   5.899   5.740   0.652
 8061TIP3    H124147   5.954   5.678   0.700
 8061TIP3    H224148   5.811   5.702   0.656
 8062TIP3   OH224149   1.827   2.147   4.368
 8062TIP3    H124150   1.863   2.142   4.279
 8062TIP3    H224151   1.749   2.201   4.360
 8063TIP3   OH224152   6.827   4.847   2.787
 8063TIP3    H124153   6.849   4.914   2.852
 8063TIP3    H224154   6.910   4.830   2.742
 8064TIP3   OH224155   1.742   5.064   3.605
 8064TIP3    H124156   1.694   5.102   3.679
 8064TIP3    H224157   1.675   5.024   3.551
 8065TIP3   OH224158   3.537   5.135   2.224
 8065TIP3    H124159   3.542   5.100   2.313
 8065TIP3    H224160   3.443   5.135   2.204
 8066TIP3   OH224161   3.288   5.096   4.759
 8066TIP3    H124162   3.309   5.187   4.781
 8066TIP3    H224163   3.319   5.086   4.668
 8067TIP3   OH224164   6.516   6.449   5.432
 8067TIP3    H124165   6.604   6.419   5.408
 8067TIP3    H224166   6.525   6.480   5.522
 8068TIP3   OH224167   4.182   1.057   1.178
 8068TIP3    H124168   4.222   1.142   1.196
 8068TIP3    H224169   4.089   1.069   1.197
 8069TIP3   OH224170   1.550   0.709   1.235
 8069TIP3    H124171   1.549   0.633   1.293
 8069TIP3    H224172   1.637   0.709   1.196
 8070TIP3   OH224173   3.942   0.501   4.216
 8070TIP3    H124174   4.019   0.558   4.216
 8070TIP3    H224175   3.887   0.535   4.145
 8071TIP3   OH224176   3.693   1.529   0.468
 8071TIP3    H124177   3.701   1.491   0.380
 8071TIP3    H224178   3.668   1.620   0.452
 8072TIP3   OH224179   2.490   3.188   0.546
 8072TIP3    H124180   2.532   3.260   0.593
 8072TIP3    H224181   2.472   3.122   0.613
 8073TIP3   OH224182   1.003   5.286   5.830
 8073TIP3    H124183   1.048   5.317   5.752
 8073TIP3    H224184   0.942   5.218   5.799
 8074TIP3   OH224185   6.574   0.953   0.288
 8074TIP3    H124186   6.613   0.916   0.209
 8074TIP3    H224187   6.556   1.044   0.265
 8075TIP3   OH224188   7.138   4.697   3.041
 8075TIP3    H124189   7.067   4.683   3.103
 8075TIP3    H224190   7.216   4.665   3.086
 8076TIP3   OH224191   2.418   0.868   5.498
 8076TIP3    H124192   2.472   0.863   5.576
 8076TIP3    H224193   2.475   0.841   5.426
 8077TIP3   OH224194   3.815   4.567   5.350
 8077TIP3    H124195   3.831   4.549   5.258
 8077TIP3    H224196   3.838   4.659   5.362
 8078TIP3   OH224197   5.367   2.009   0.426
 8078TIP3    H124198   5.330   2.081   0.476
 8078TIP3    H224199   5.462   2.018   0.438
 8079TIP3   OH224200   3.746   2.417   3.369
 8079TIP3    H124201   3.698   2.436   3.449
 8079TIP3    H224202   3.812   2.487   3.364
 8080TIP3   OH224203   0.590   0.458   3.252
 8080TIP3    H124204   0.622   0.546   3.233
 8080TIP3    H224205   0.507   0.452   3.205
 8081TIP3   OH224206   1.503   1.058   2.355
 8081TIP3    H124207   1.594   1.061   2.327
 8081TIP3    H224208   1.453   1.087   2.278
 8082TIP3   OH224209   0.861   4.055   1.649
 8082TIP3    H124210   0.868   4.151   1.644
 8082TIP3    H224211   0.821   4.029   1.566
 8083TIP3   OH224212   5.106   3.502   0.935
 8083TIP3    H124213   5.035   3.507   0.871
 8083TIP3    H224214   5.094   3.579   0.991
 8084TIP3   OH224215   2.534   1.611   2.245
 8084TIP3    H124216   2.505   1.702   2.253
 8084TIP3    H224217   2.605   1.603   2.309
 8085TIP3   OH224218   6.263   3.080   4.852
 8085TIP3    H124219   6.348   3.108   4.886
 8085TIP3    H224220   6.211   3.063   4.931
 8086TIP3   OH224221   1.174   4.881   2.156
 8086TIP3    H124222   1.078   4.877   2.153
 8086TIP3    H224223   1.202   4.792   2.136
 8087TIP3   OH224224   1.424   2.216   3.589
 8087TIP3    H124225   1.359   2.213   3.519
 8087TIP3    H224226   1.413   2.134   3.637
 8088TIP3   OH224227   4.368   1.994   3.843
 8088TIP3    H124228   4.315   1.919   3.871
 8088TIP3    H224229   4.331   2.069   3.890
 8089TIP3   OH224230   6.745   4.940   4.012
 8089TIP3    H124231   6.655   4.914   4.029
 8089TIP3    H224232   6.777   4.876   3.948
 8090TIP3   OH224233   2.805   1.331   2.399
 8090TIP3    H124234   2.894   1.330   2.433
 8090TIP3    H224235   2.813   1.301   2.309
 8091TIP3   OH224236   4.687   3.797   5.507
 8091TIP3    H124237   4.598   3.770   5.527
 8091TIP3    H224238   4.738   3.772   5.584
 8092TIP3   OH224239   5.539   6.685   2.217
 8092TIP3    H124240   5.601   6.640   2.160
 8092TIP3    H224241   5.476   6.617   2.244
 8093TIP3   OH224242   5.944   4.106   4.486
 8093TIP3    H124243   5.853   4.127   4.505
 8093TIP3    H224244   5.953   4.118   4.391
 8094TIP3   OH224245   5.182   5.516   1.212
 8094TIP3    H124246   5.220   5.598   1.244
 8094TIP3    H224247   5.096   5.512   1.254
 8095TIP3   OH224248   6.550   2.393   3.865
 8095TIP3    H124249   6.593   2.378   3.949
 8095TIP3    H224250   6.611   2.358   3.800
 8096TIP3   OH224251   4.762   0.837   2.549
 8096TIP3    H124252   4.795   0.816   2.462
 8096TIP3    H224253   4.840   0.856   2.601
 8097TIP3   OH224254   7.044   1.764   4.928
 8097TIP3    H124255   7.075   1.697   4.989
 8097TIP3    H224256   7.070   1.847   4.968
 8098TIP3   OH224257   6.500   0.963   1.096
 8098TIP3    H124258   6.485   0.954   1.190
 8098TIP3    H224259   6.591   0.938   1.084
 8099TIP3   OH224260   0.583   1.356   5.173
 8099TIP3    H124261   0.583   1.371   5.078
 8099TIP3    H224262   0.497   1.388   5.202
 8100TIP3   OH224263   7.213   1.542   5.029
 8100TIP3    H124264   7.303   1.532   4.999
 8100TIP3    H224265   7.197   1.465   5.083
 8101TIP3   OH224266   7.016   1.797   1.563
 8101TIP3    H124267   6.964   1.781   1.483
 8101TIP3    H224268   6.972   1.871   1.605
 8102TIP3   OH224269   6.451   6.556   0.817
 8102TIP3    H124270   6.423   6.584   0.904
 8102TIP3    H224271   6.369   6.536   0.771
 8103TIP3   OH224272   3.108   5.234   2.729
 8103TIP3    H124273   3.037   5.173   2.748
 8103TIP3    H224274   3.185   5.178   2.719
 8104TIP3   OH224275   4.965   3.446   3.391
 8104TIP3    H124276   5.004   3.503   3.324
 8104TIP3    H224277   4.961   3.360   3.349
 8105TIP3   OH224278   1.582   0.094   4.997
 8105TIP3    H124279   1.540   0.053   4.922
 8105TIP3    H224280   1.510   0.126   5.051
 8106TIP3   OH224281   1.055   1.177   1.979
 8106TIP3    H124282   1.099   1.255   2.011
 8106TIP3    H224283   1.030   1.129   2.058
 8107TIP3   OH224284   4.747   1.964   2.213
 8107TIP3    H124285   4.767   1.882   2.258
 8107TIP3    H224286   4.830   1.993   2.175
 8108TIP3   OH224287   6.304   4.947   5.395
 8108TIP3    H124288   6.249   4.989   5.461
 8108TIP3    H224289   6.242   4.913   5.330
 8109TIP3   OH224290   3.870   3.157   0.823
 8109TIP3    H124291   3.903   3.223   0.883
 8109TIP3    H224292   3.797   3.201   0.778
 8110TIP3   OH224293   4.142   4.120   1.208
 8110TIP3    H124294   4.154   4.032   1.175
 8110TIP3    H224295   4.230   4.154   1.222
 8111TIP3   OH224296   0.135   4.221   0.682
 8111TIP3    H124297   0.084   4.302   0.681
 8111TIP3    H224298   0.091   4.164   0.618
 8112TIP3   OH224299   1.500   4.128   0.723
 8112TIP3    H124300   1.460   4.081   0.650
 8112TIP3    H224301   1.444   4.205   0.736
 8113TIP3   OH224302   7.023   2.206   3.102
 8113TIP3    H124303   7.052   2.118   3.123
 8113TIP3    H224304   7.042   2.257   3.181
 8114TIP3   OH224305   2.441   5.774   4.397
 8114TIP3    H124306   2.453   5.689   4.439
 8114TIP3    H224307   2.500   5.773   4.322
 8115TIP3   OH224308   3.175   2.922   0.671
 8115TIP3    H124309   3.170   2.843   0.726
 8115TIP3    H224310   3.146   2.893   0.585
 8116TIP3   OH224311   5.177   6.596   5.425
 8116TIP3    H124312   5.093   6.583   5.469
 8116TIP3    H224313   5.225   6.656   5.481
 8117TIP3   OH224314   7.175   3.314   1.563
 8117TIP3    H124315   7.086   3.340   1.540
 8117TIP3    H224316   7.166   3.266   1.645
 8118TIP3   OH224317   5.720   2.316   2.335
 8118TIP3    H124318   5.642   2.272   2.300
 8118TIP3    H224319   5.793   2.264   2.303
 8119TIP3   OH224320   0.981   1.493   1.252
 8119TIP3    H124321   0.986   1.398   1.267
 8119TIP3    H224322   0.921   1.525   1.319
 8120TIP3   OH224323   6.979   1.866   2.500
 8120TIP3    H124324   6.925   1.934   2.540
 8120TIP3    H224325   6.995   1.803   2.571
 8121TIP3   OH224326   4.996   3.257   3.052
 8121TIP3    H124327   5.049   3.266   3.132
 8121TIP3    H224328   5.037   3.317   2.990
 8122TIP3   OH224329   0.106   3.530   1.673
 8122TIP3    H124330   0.063   3.498   1.752
 8122TIP3    H224331   0.102   3.456   1.612
 8123TIP3   OH224332   5.320   4.064   0.550
 8123TIP3    H124333   5.253   4.074   0.482
 8123TIP3    H224334   5.319   3.970   0.571
 8124TIP3   OH224335   5.296   0.303   1.954
 8124TIP3    H124336   5.347   0.283   1.876
 8124TIP3    H224337   5.310   0.228   2.012
 8125TIP3   OH224338   2.336   4.513   4.826
 8125TIP3    H124339   2.259   4.566   4.849
 8125TIP3    H224340   2.349   4.456   4.901
 8126TIP3   OH224341   5.274   1.621   0.947
 8126TIP3    H124342   5.204   1.562   0.917
 8126TIP3    H224343   5.330   1.565   1.000
 8127TIP3   OH224344   4.216   5.588   3.776
 8127TIP3    H124345   4.306   5.571   3.747
 8127TIP3    H224346   4.192   5.670   3.732
 8128TIP3   OH224347   3.852   1.415   3.358
 8128TIP3    H124348   3.910   1.400   3.283
 8128TIP3    H224349   3.898   1.374   3.431
 8129TIP3   OH224350   2.707   0.463   3.017
 8129TIP3    H124351   2.716   0.432   3.107
 8129TIP3    H224352   2.765   0.539   3.011
 8130TIP3   OH224353   4.847   6.563   1.198
 8130TIP3    H124354   4.842   6.652   1.232
 8130TIP3    H224355   4.775   6.517   1.242
 8131TIP3   OH224356   4.789   1.488   4.438
 8131TIP3    H124357   4.724   1.486   4.508
 8131TIP3    H224358   4.861   1.541   4.473
 8132TIP3   OH224359   7.070   5.050   1.399
 8132TIP3    H124360   7.063   5.138   1.361
 8132TIP3    H224361   7.020   5.056   1.480
 8133TIP3   OH224362   4.654   1.750   1.301
 8133TIP3    H124363   4.666   1.815   1.371
 8133TIP3    H224364   4.585   1.693   1.333
 8134TIP3   OH224365   1.463   2.616   5.065
 8134TIP3    H124366   1.424   2.529   5.056
 8134TIP3    H224367   1.549   2.608   5.024
 8135TIP3   OH224368   3.758   0.739   4.740
 8135TIP3    H124369   3.676   0.722   4.788
 8135TIP3    H224370   3.793   0.652   4.721
 8136TIP3   OH224371   5.248   5.636   4.310
 8136TIP3    H124372   5.211   5.651   4.397
 8136TIP3    H224373   5.174   5.647   4.250
 8137TIP3   OH224374   6.875   5.479   4.439
 8137TIP3    H124375   6.899   5.387   4.450
 8137TIP3    H224376   6.950   5.527   4.473
 8138TIP3   OH224377   2.652   2.964   3.711
 8138TIP3    H124378   2.712   3.013   3.655
 8138TIP3    H224379   2.598   2.914   3.650
 8139TIP3   OH224380   0.130   5.773   5.775
 8139TIP3    H124381   0.191   5.797   5.705
 8139TIP3    H224382   0.044   5.778   5.734
 8140TIP3   OH224383  -0.007   2.393   2.346
 8140TIP3    H124384  -0.002   2.325   2.413
 8140TIP3    H224385   0.081   2.429   2.342
 8141TIP3   OH224386   1.248   5.122   4.575
 8141TIP3    H124387   1.335   5.149   4.543
 8141TIP3    H224388   1.203   5.205   4.593
 8142TIP3   OH224389   2.490   6.082   3.148
 8142TIP3    H124390   2.483   6.177   3.142
 8142TIP3    H224391   2.432   6.058   3.221
 8143TIP3   OH224392   3.714   1.168   2.754
 8143TIP3    H124393   3.773   1.101   2.721
 8143TIP3    H224394   3.681   1.131   2.837
 8144TIP3   OH224395   0.713   4.761   2.061
 8144TIP3    H124396   0.633   4.714   2.087
 8144TIP3    H224397   0.695   4.791   1.972
 8145TIP3   OH224398   0.727   5.549   5.738
 8145TIP3    H124399   0.654   5.562   5.678
 8145TIP3    H224400   0.788   5.619   5.717
 8146TIP3   OH224401   0.416   5.042   0.013
 8146TIP3    H124402   0.325   5.061   0.037
 8146TIP3    H224403   0.431   5.096  -0.064
 8147TIP3   OH224404   6.064   4.611   1.947
 8147TIP3    H124405   6.020   4.550   2.005
 8147TIP3    H224406   6.145   4.634   1.993
 8148TIP3   OH224407   3.117   1.601   2.400
 8148TIP3    H124408   3.040   1.596   2.343
 8148TIP3    H224409   3.082   1.590   2.488
 8149TIP3   OH224410   2.732   2.348   2.531
 8149TIP3    H124411   2.760   2.347   2.440
 8149TIP3    H224412   2.709   2.257   2.551
 8150TIP3   OH224413   0.634   3.085   2.865
 8150TIP3    H124414   0.547   3.121   2.845
 8150TIP3    H224415   0.671   3.145   2.930
 8151TIP3   OH224416   7.149   2.124   0.008
 8151TIP3    H124417   7.076   2.078   0.049
 8151TIP3    H224418   7.227   2.086   0.048
 8152TIP3   OH224419   4.945   4.731   1.712
 8152TIP3    H124420   4.951   4.746   1.618
 8152TIP3    H224421   4.868   4.676   1.723
 8153TIP3   OH224422   4.810   0.135   1.594
 8153TIP3    H124423   4.820   0.064   1.657
 8153TIP3    H224424   4.798   0.214   1.647
 8154TIP3   OH224425   6.643   0.976   1.643
 8154TIP3    H124426   6.591   1.054   1.660
 8154TIP3    H224427   6.579   0.907   1.629
 8155TIP3   OH224428   6.424   0.113   3.719
 8155TIP3    H124429   6.336   0.122   3.756
 8155TIP3    H224430   6.476   0.074   3.788
 8156TIP3   OH224431   5.384   1.545   4.462
 8156TIP3    H124432   5.376   1.558   4.557
 8156TIP3    H224433   5.456   1.602   4.436
 8157TIP3   OH224434   2.414   5.082   2.220
 8157TIP3    H124435   2.343   5.049   2.163
 8157TIP3    H224436   2.392   5.048   2.307
 8158TIP3   OH224437   3.756   2.940   0.207
 8158TIP3    H124438   3.737   3.003   0.277
 8158TIP3    H224439   3.828   2.980   0.158
 8159TIP3   OH224440   2.377   4.086   5.752
 8159TIP3    H124441   2.308   4.020   5.748
 8159TIP3    H224442   2.364   4.129   5.837
 8160TIP3   OH224443   3.928   6.396   3.615
 8160TIP3    H124444   4.006   6.451   3.626
 8160TIP3    H224445   3.876   6.412   3.694
 8161TIP3   OH224446   4.405   3.535   3.198
 8161TIP3    H124447   4.410   3.525   3.103
 8161TIP3    H224448   4.311   3.544   3.216
 8162TIP3   OH224449   2.808   2.576   3.262
 8162TIP3    H124450   2.796   2.514   3.333
 8162TIP3    H224451   2.903   2.586   3.254
 8163TIP3   OH224452   6.622   2.091   5.805
 8163TIP3    H124453   6.651   2.183   5.806
 8163TIP3    H224454   6.703   2.041   5.791
 8164TIP3   OH224455   4.719   3.596   2.559
 8164TIP3    H124456   4.766   3.677   2.576
 8164TIP3    H224457   4.628   3.616   2.581
 8165TIP3   OH224458   3.253   4.754   5.109
 8165TIP3    H124459   3.236   4.847   5.092
 8165TIP3    H224460   3.334   4.735   5.062
 8166TIP3   OH224461   4.858   2.831   0.850
 8166TIP3    H124462   4.945   2.842   0.812
 8166TIP3    H224463   4.874   2.812   0.942
 8167TIP3   OH224464   0.653   0.275   3.798
 8167TIP3    H124465   0.739   0.243   3.771
 8167TIP3    H224466   0.666   0.369   3.812
 8168TIP3   OH224467   6.998   6.625   0.271
 8168TIP3    H124468   6.959   6.564   0.208
 8168TIP3    H224469   6.997   6.578   0.354
 8169TIP3   OH224470   3.414   3.719   2.915
 8169TIP3    H124471   3.459   3.800   2.937
 8169TIP3    H224472   3.437   3.658   2.985
 8170TIP3   OH224473   0.467   2.185   4.577
 8170TIP3    H124474   0.431   2.130   4.647
 8170TIP3    H224475   0.503   2.262   4.622
 8171TIP3   OH224476   6.621   5.015   1.916
 8171TIP3    H124477   6.604   5.071   1.840
 8171TIP3    H224478   6.640   5.076   1.987
 8172TIP3   OH224479   1.419   5.099   2.563
 8172TIP3    H124480   1.416   5.018   2.512
 8172TIP3    H224481   1.395   5.167   2.501
 8173TIP3   OH224482   2.881   6.439   1.855
 8173TIP3    H124483   2.855   6.347   1.853
 8173TIP3    H224484   2.945   6.447   1.784
 8174TIP3   OH224485   4.011   5.651   5.601
 8174TIP3    H124486   4.025   5.557   5.593
 8174TIP3    H224487   4.009   5.668   5.695
 8175TIP3   OH224488   0.216   3.457   4.722
 8175TIP3    H124489   0.239   3.548   4.705
 8175TIP3    H224490   0.133   3.462   4.768
 8176TIP3   OH224491   4.299   4.255   2.475
 8176TIP3    H124492   4.323   4.187   2.413
 8176TIP3    H224493   4.203   4.254   2.475
 8177TIP3   OH224494   6.073   1.344   2.040
 8177TIP3    H124495   6.053   1.435   2.063
 8177TIP3    H224496   5.997   1.315   1.989
 8178TIP3   OH224497   2.497   4.390   2.714
 8178TIP3    H124498   2.550   4.460   2.676
 8178TIP3    H224499   2.407   4.414   2.694
 8179TIP3   OH224500   0.051   3.256   2.668
 8179TIP3    H124501   0.012   3.237   2.753
 8179TIP3    H224502   0.070   3.170   2.631
 8180TIP3   OH224503   6.262   1.660   1.979
 8180TIP3    H124504   6.264   1.726   1.909
 8180TIP3    H224505   6.223   1.583   1.938
 8181TIP3   OH224506   1.763   1.673   0.536
 8181TIP3    H124507   1.675   1.681   0.574
 8181TIP3    H224508   1.750   1.618   0.459
 8182TIP3   OH224509   3.308   6.253   5.004
 8182TIP3    H124510   3.263   6.309   5.067
 8182TIP3    H224511   3.238   6.222   4.947
 8183TIP3   OH224512   5.219   2.485   0.094
 8183TIP3    H124513   5.296   2.453   0.047
 8183TIP3    H224514   5.249   2.499   0.184
 8184TIP3   OH224515   3.316   1.706   2.559
 8184TIP3    H124516   3.304   1.672   2.648
 8184TIP3    H224517   3.381   1.647   2.520
 8185TIP3   OH224518   1.168   0.136   3.726
 8185TIP3    H124519   1.241   0.075   3.740
 8185TIP3    H224520   1.198   0.193   3.656
 8186TIP3   OH224521   4.176   5.768   1.710
 8186TIP3    H124522   4.143   5.694   1.761
 8186TIP3    H224523   4.244   5.807   1.764
 8187TIP3   OH224524   0.135   4.880   2.142
 8187TIP3    H124525   0.177   4.965   2.155
 8187TIP3    H224526   0.152   4.832   2.223
 8188TIP3   OH224527   6.705   6.782   4.242
 8188TIP3    H124528   6.626   6.833   4.226
 8188TIP3    H224529   6.719   6.788   4.337
 8189TIP3   OH224530   5.084   2.762   1.468
 8189TIP3    H124531   5.104   2.845   1.425
 8189TIP3    H224532   4.998   2.738   1.434
 8190TIP3   OH224533   0.338   3.052   2.559
 8190TIP3    H124534   0.329   3.085   2.649
 8190TIP3    H224535   0.251   3.019   2.537
 8191TIP3   OH224536   0.520   2.840   4.745
 8191TIP3    H124537   0.538   2.919   4.694
 8191TIP3    H224538   0.425   2.837   4.753
 8192TIP3   OH224539   5.367   4.389   5.835
 8192TIP3    H124540   5.287   4.440   5.846
 8192TIP3    H224541   5.361   4.352   5.747
 8193TIP3   OH224542   4.031   1.000   4.921
 8193TIP3    H124543   4.055   1.077   4.870
 8193TIP3    H224544   4.108   0.981   4.974
 8194TIP3   OH224545   6.499   6.030   2.394
 8194TIP3    H124546   6.478   6.053   2.303
 8194TIP3    H224547   6.417   5.994   2.429
 8195TIP3   OH224548   2.132   5.567   5.613
 8195TIP3    H124549   2.215   5.519   5.610
 8195TIP3    H224550   2.153   5.653   5.577
 8196TIP3   OH224551   2.541   2.343   5.750
 8196TIP3    H124552   2.480   2.413   5.724
 8196TIP3    H224553   2.601   2.334   5.676
 8197TIP3   OH224554   4.190   0.778   4.728
 8197TIP3    H124555   4.282   0.804   4.729
 8197TIP3    H224556   4.145   0.852   4.686
 8198TIP3   OH224557   0.665   3.417   2.616
 8198TIP3    H124558   0.593   3.438   2.675
 8198TIP3    H224559   0.645   3.329   2.584
 8199TIP3   OH224560   6.055   3.401   4.302
 8199TIP3    H124561   6.135   3.440   4.267
 8199TIP3    H224562   6.014   3.359   4.227
 8200TIP3   OH224563   2.940   3.370   4.480
 8200TIP3    H124564   2.895   3.358   4.397
 8200TIP3    H224565   2.895   3.444   4.521
 8201TIP3   OH224566   2.448   2.998   5.228
 8201TIP3    H124567   2.536   3.023   5.258
 8201TIP3    H224568   2.392   3.013   5.304
 8202TIP3   OH224569   5.024   5.291   2.660
 8202TIP3    H124570   5.092   5.295   2.592
 8202TIP3    H224571   5.024   5.200   2.689
 8203TIP3   OH224572   2.577   5.464   2.032
 8203TIP3    H124573   2.547   5.509   2.111
 8203TIP3    H224574   2.617   5.383   2.064
 8204TIP3   OH224575   6.325   1.056   2.385
 8204TIP3    H124576   6.379   1.090   2.313
 8204TIP3    H224577   6.235   1.061   2.352
 8205TIP3   OH224578   0.620   6.534   0.743
 8205TIP3    H124579   0.572   6.584   0.809
 8205TIP3    H224580   0.553   6.504   0.682
 8206TIP3   OH224581   0.007   3.839   0.080
 8206TIP3    H124582   0.059   3.787   0.142
 8206TIP3    H224583   0.064   3.851   0.005
 8207TIP3   OH224584   6.732   0.891   0.064
 8207TIP3    H124585   6.718   0.858  -0.025
 8207TIP3    H224586   6.801   0.957   0.054
 8208TIP3   OH224587   2.369   4.808   3.225
 8208TIP3    H124588   2.340   4.743   3.289
 8208TIP3    H224589   2.438   4.858   3.270
 8209TIP3   OH224590   2.869   5.818   4.706
 8209TIP3    H124591   2.832   5.759   4.772
 8209TIP3    H224592   2.958   5.835   4.736
 8210TIP3   OH224593   6.628   0.068   2.419
 8210TIP3    H124594   6.571  -0.009   2.427
 8210TIP3    H224595   6.614   0.099   2.330
 8211TIP3   OH224596   2.740   6.735   4.832
 8211TIP3    H124597   2.764   6.695   4.748
 8211TIP3    H224598   2.678   6.804   4.808
 8212TIP3   OH224599   7.128   0.595   2.628
 8212TIP3    H124600   7.073   0.587   2.706
 8212TIP3    H224601   7.081   0.656   2.572
 8213TIP3   OH224602   0.611   0.160   5.311
 8213TIP3    H124603   0.658   0.087   5.351
 8213TIP3    H224604   0.670   0.192   5.242
 8214TIP3   OH224605   4.723   5.343   2.451
 8214TIP3    H124606   4.646   5.361   2.397
 8214TIP3    H224607   4.796   5.385   2.405
 8215TIP3   OH224608   1.251   5.148   0.722
 8215TIP3    H124609   1.316   5.119   0.786
 8215TIP3    H224610   1.257   5.084   0.651
 8216TIP3   OH224611   2.610   6.140   0.760
 8216TIP3    H124612   2.642   6.067   0.707
 8216TIP3    H224613   2.601   6.212   0.697
 8217TIP3   OH224614   5.313   3.811   0.650
 8217TIP3    H124615   5.248   3.748   0.678
 8217TIP3    H224616   5.396   3.775   0.681
 8218TIP3   OH224617   0.191   3.786   1.116
 8218TIP3    H124618   0.103   3.801   1.080
 8218TIP3    H224619   0.223   3.710   1.068
 8219TIP3   OH224620   0.989   1.872   1.363
 8219TIP3    H124621   0.911   1.834   1.321
 8219TIP3    H224622   1.052   1.883   1.291
 8220TIP3   OH224623   2.287   3.451   5.312
 8220TIP3    H124624   2.331   3.509   5.374
 8220TIP3    H224625   2.232   3.509   5.260
 8221TIP3   OH224626   4.172   6.010   1.105
 8221TIP3    H124627   4.086   6.019   1.064
 8221TIP3    H224628   4.184   6.092   1.153
 8222TIP3   OH224629   2.438   3.570   4.836
 8222TIP3    H124630   2.488   3.589   4.915
 8222TIP3    H224631   2.348   3.591   4.859
 8223TIP3   OH224632   5.939   4.757   4.108
 8223TIP3    H124633   5.976   4.740   4.194
 8223TIP3    H224634   5.979   4.839   4.079
 8224TIP3   OH224635   3.851   5.785   3.446
 8224TIP3    H124636   3.899   5.702   3.443
 8224TIP3    H224637   3.763   5.760   3.474
 8225TIP3   OH224638   2.184   3.163   1.063
 8225TIP3    H124639   2.180   3.166   0.967
 8225TIP3    H224640   2.266   3.119   1.082
 8226TIP3   OH224641   5.467   3.001   3.445
 8226TIP3    H124642   5.445   2.956   3.363
 8226TIP3    H224643   5.445   3.093   3.429
 8227TIP3   OH224644   6.633   4.382   2.500
 8227TIP3    H124645   6.665   4.301   2.540
 8227TIP3    H224646   6.556   4.406   2.552
 8228TIP3   OH224647   2.053   3.491   5.619
 8228TIP3    H124648   2.147   3.506   5.629
 8228TIP3    H224649   2.019   3.489   5.708
 8229TIP3   OH224650   2.715   2.145   4.660
 8229TIP3    H124651   2.797   2.194   4.654
 8229TIP3    H224652   2.660   2.184   4.591
 8230TIP3   OH224653   5.649   1.970   2.584
 8230TIP3    H124654   5.563   2.009   2.602
 8230TIP3    H224655   5.673   1.926   2.666
 8231TIP3   OH224656   1.597   1.232   5.334
 8231TIP3    H124657   1.581   1.219   5.241
 8231TIP3    H224658   1.588   1.327   5.347
 8232TIP3   OH224659   1.873   4.488   4.975
 8232TIP3    H124660   1.827   4.438   4.908
 8232TIP3    H224661   1.854   4.579   4.955
 8233TIP3   OH224662   1.863   1.174   4.098
 8233TIP3    H124663   1.842   1.138   4.011
 8233TIP3    H224664   1.795   1.240   4.114
 8234TIP3   OH224665   2.819   0.760   0.752
 8234TIP3    H124666   2.829   0.807   0.835
 8234TIP3    H224667   2.761   0.816   0.700
 8235TIP3   OH224668   2.546   3.872   3.980
 8235TIP3    H124669   2.628   3.920   3.978
 8235TIP3    H224670   2.498   3.909   4.054
 8236TIP3   OH224671   6.740   0.795   1.133
 8236TIP3    H124672   6.664   0.771   1.186
 8236TIP3    H224673   6.760   0.717   1.082
 8237TIP3   OH224674   0.089   3.086   4.892
 8237TIP3    H124675   0.032   3.069   4.967
 8237TIP3    H224676   0.177   3.064   4.923
 8238TIP3   OH224677   5.207   5.077   4.788
 8238TIP3    H124678   5.219   4.992   4.832
 8238TIP3    H224679   5.118   5.104   4.812
 8239TIP3   OH224680   1.685   0.832   2.432
 8239TIP3    H124681   1.765   0.883   2.442
 8239TIP3    H224682   1.715   0.741   2.429
 8240TIP3   OH224683   1.219   3.723   4.922
 8240TIP3    H124684   1.173   3.694   4.843
 8240TIP3    H224685   1.301   3.675   4.921
 8241TIP3   OH224686   6.015   4.501   2.314
 8241TIP3    H124687   6.108   4.501   2.335
 8241TIP3    H224688   5.977   4.567   2.372
 8242TIP3   OH224689   0.916   3.245   2.301
 8242TIP3    H124690   0.948   3.207   2.383
 8242TIP3    H224691   0.921   3.340   2.315
 8243TIP3   OH224692   3.973   4.547   5.620
 8243TIP3    H124693   3.912   4.544   5.547
 8243TIP3    H224694   3.917   4.555   5.697
 8244TIP3   OH224695   0.137   4.726   0.313
 8244TIP3    H124696   0.152   4.741   0.220
 8244TIP3    H224697   0.205   4.778   0.357
 8245TIP3   OH224698   5.385   0.804   0.365
 8245TIP3    H124699   5.342   0.719   0.361
 8245TIP3    H224700   5.465   0.788   0.415
 8246TIP3   OH224701   0.282   4.542   5.780
 8246TIP3    H124702   0.208   4.558   5.722
 8246TIP3    H224703   0.358   4.543   5.722
 8247TIP3   OH224704   2.086   5.702   2.517
 8247TIP3    H124705   2.148   5.727   2.449
 8247TIP3    H224706   2.003   5.742   2.490
 8248TIP3   OH224707   0.837   4.219   4.544
 8248TIP3    H124708   0.800   4.225   4.456
 8248TIP3    H224709   0.800   4.293   4.591
 8249TIP3   OH224710   2.554   5.298   0.068
 8249TIP3    H124711   2.584   5.374   0.018
 8249TIP3    H224712   2.484   5.260   0.015
 8250TIP3   OH224713   3.050   4.684   3.724
 8250TIP3    H124714   2.956   4.686   3.740
 8250TIP3    H224715   3.071   4.592   3.711
 8251TIP3   OH224716   4.257   6.386   2.696
 8251TIP3    H124717   4.176   6.430   2.721
 8251TIP3    H224718   4.254   6.383   2.600
 8252TIP3   OH224719   1.198   2.494   3.520
 8252TIP3    H124720   1.108   2.462   3.528
 8252TIP3    H224721   1.237   2.440   3.452
 8253TIP3   OH224722   3.193   2.225   2.161
 8253TIP3    H124723   3.138   2.169   2.106
 8253TIP3    H224724   3.158   2.313   2.149
 8254TIP3   OH224725   6.693   2.293   3.676
 8254TIP3    H124726   6.781   2.291   3.713
 8254TIP3    H224727   6.678   2.205   3.642
 8255TIP3   OH224728   1.788   5.523   1.688
 8255TIP3    H124729   1.852   5.451   1.689
 8255TIP3    H224730   1.703   5.478   1.685
 8256TIP3   OH224731   2.141   5.088   5.119
 8256TIP3    H124732   2.088   5.024   5.071
 8256TIP3    H224733   2.231   5.066   5.097
 8257TIP3   OH224734   0.289   5.963   3.154
 8257TIP3    H124735   0.247   6.049   3.166
 8257TIP3    H224736   0.369   5.983   3.105
 8258TIP3   OH224737   3.682   3.951   1.660
 8258TIP3    H124738   3.771   3.920   1.645
 8258TIP3    H224739   3.665   3.932   1.752
 8259TIP3   OH224740   3.990   3.129   0.072
 8259TIP3    H124741   3.963   3.099  -0.014
 8259TIP3    H224742   3.933   3.204   0.090
 8260TIP3   OH224743   2.186   4.752   4.894
 8260TIP3    H124744   2.098   4.782   4.914
 8260TIP3    H224745   2.216   4.810   4.824
 8261TIP3   OH224746   4.605   2.360   2.800
 8261TIP3    H124747   4.522   2.312   2.800
 8261TIP3    H224748   4.630   2.364   2.708
 8262TIP3   OH224749   4.469   0.428   2.645
 8262TIP3    H124750   4.504   0.480   2.718
 8262TIP3    H224751   4.384   0.397   2.677
 8263TIP3   OH224752   2.174   1.197   5.173
 8263TIP3    H124753   2.118   1.196   5.250
 8263TIP3    H224754   2.124   1.245   5.107
 8264TIP3   OH224755   3.218   2.844   3.725
 8264TIP3    H124756   3.164   2.858   3.647
 8264TIP3    H224757   3.231   2.931   3.761
 8265TIP3   OH224758   1.203   6.756   1.898
 8265TIP3    H124759   1.140   6.806   1.845
 8265TIP3    H224760   1.287   6.772   1.856
 8266TIP3   OH224761   1.424   0.491   3.862
 8266TIP3    H124762   1.443   0.402   3.893
 8266TIP3    H224763   1.490   0.546   3.906
 8267TIP3   OH224764   5.553   1.448   4.069
 8267TIP3    H124765   5.529   1.358   4.087
 8267TIP3    H224766   5.642   1.444   4.035
 8268TIP3   OH224767   1.812   5.514   0.419
 8268TIP3    H124768   1.906   5.521   0.403
 8268TIP3    H224769   1.774   5.496   0.333
 8269TIP3   OH224770   5.674   5.335   1.380
 8269TIP3    H124771   5.649   5.371   1.294
 8269TIP3    H224772   5.768   5.354   1.387
 8270TIP3   OH224773   6.590   6.066   1.145
 8270TIP3    H124774   6.537   6.137   1.110
 8270TIP3    H224775   6.665   6.060   1.086
 8271TIP3   OH224776   0.420   5.978   5.283
 8271TIP3    H124777   0.348   5.915   5.285
 8271TIP3    H224778   0.499   5.924   5.276
 8272TIP3   OH224779   4.279   0.874   3.621
 8272TIP3    H124780   4.246   0.812   3.685
 8272TIP3    H224781   4.371   0.853   3.611
 8273TIP3   OH224782   5.076   5.306   1.615
 8273TIP3    H124783   5.155   5.291   1.563
 8273TIP3    H224784   5.047   5.394   1.590
 8274TIP3   OH224785   2.551   6.535   1.654
 8274TIP3    H124786   2.528   6.548   1.562
 8274TIP3    H224787   2.547   6.441   1.667
 8275TIP3   OH224788   0.867   0.333   2.031
 8275TIP3    H124789   0.773   0.339   2.047
 8275TIP3    H224790   0.885   0.240   2.021
 8276TIP3   OH224791   0.090   2.129   4.305
 8276TIP3    H124792   0.083   2.223   4.291
 8276TIP3    H224793   0.134   2.096   4.227
 8277TIP3   OH224794   2.292   1.799   3.991
 8277TIP3    H124795   2.377   1.825   3.958
 8277TIP3    H224796   2.297   1.704   4.000
 8278TIP3   OH224797   5.024   2.655   2.058
 8278TIP3    H124798   4.952   2.651   1.995
 8278TIP3    H224799   4.983   2.682   2.140
 8279TIP3   OH224800   2.670   5.670   5.049
 8279TIP3    H124801   2.703   5.757   5.068
 8279TIP3    H224802   2.733   5.633   4.987
 8280TIP3   OH224803   6.428   6.138   4.175
 8280TIP3    H124804   6.497   6.082   4.210
 8280TIP3    H224805   6.454   6.155   4.085
 8281TIP3   OH224806   7.208   4.592   2.266
 8281TIP3    H124807   7.199   4.590   2.171
 8281TIP3    H224808   7.159   4.669   2.294
 8282TIP3   OH224809   6.333   4.193   1.002
 8282TIP3    H124810   6.350   4.115   1.055
 8282TIP3    H224811   6.302   4.158   0.918
 8283TIP3   OH224812   3.005   5.199   3.138
 8283TIP3    H124813   3.033   5.241   3.057
 8283TIP3    H224814   3.086   5.162   3.175
 8284TIP3   OH224815   2.244   1.014   4.864
 8284TIP3    H124816   2.234   1.088   4.804
 8284TIP3    H224817   2.330   1.027   4.903
 8285TIP3   OH224818   4.985   3.456   4.814
 8285TIP3    H124819   4.926   3.504   4.755
 8285TIP3    H224820   4.963   3.488   4.901
 8286TIP3   OH224821   1.973   0.421   2.074
 8286TIP3    H124822   1.959   0.476   1.997
 8286TIP3    H224823   1.947   0.476   2.148
 8287TIP3   OH224824   4.564   3.662   4.647
 8287TIP3    H124825   4.657   3.668   4.625
 8287TIP3    H224826   4.534   3.584   4.601
 8288TIP3   OH224827   4.319   3.924   0.310
 8288TIP3    H124828   4.283   3.919   0.398
 8288TIP3    H224829   4.413   3.911   0.321
 8289TIP3   OH224830   0.240   0.102   3.128
 8289TIP3    H124831   0.151   0.079   3.102
 8289TIP3    H224832   0.267   0.168   3.064
 8290TIP3   OH224833   5.766   1.019   1.999
 8290TIP3    H124834   5.810   1.085   1.945
 8290TIP3    H224835   5.703   1.069   2.050
 8291TIP3   OH224836   1.390   1.206   5.541
 8291TIP3    H124837   1.481   1.179   5.527
 8291TIP3    H224838   1.339   1.147   5.485
 8292TIP3   OH224839   6.928   4.792   4.816
 8292TIP3    H124840   7.017   4.758   4.810
 8292TIP3    H224841   6.888   4.742   4.886
 8293TIP3   OH224842   0.823   4.833   3.449
 8293TIP3    H124843   0.874   4.914   3.442
 8293TIP3    H224844   0.821   4.815   3.543
 8294TIP3   OH224845   5.907   4.301   0.896
 8294TIP3    H124846   5.951   4.294   0.981
 8294TIP3    H224847   5.964   4.254   0.836
 8295TIP3   OH224848   1.039   2.809   0.167
 8295TIP3    H124849   1.119   2.768   0.134
 8295TIP3    H224850   0.994   2.840   0.088
 8296TIP3   OH224851   0.261   1.170   5.639
 8296TIP3    H124852   0.194   1.122   5.687
 8296TIP3    H224853   0.243   1.150   5.547
 8297TIP3   OH224854   0.908   4.583   1.958
 8297TIP3    H124855   0.954   4.658   1.921
 8297TIP3    H224856   0.845   4.620   2.020
 8298TIP3   OH224857   4.386   2.648   2.883
 8298TIP3    H124858   4.405   2.741   2.874
 8298TIP3    H224859   4.467   2.604   2.858
 8299TIP3   OH224860   5.009   3.793   4.069
 8299TIP3    H124861   4.992   3.718   4.012
 8299TIP3    H224862   4.935   3.852   4.053
 8300TIP3   OH224863   5.840   6.127   1.639
 8300TIP3    H124864   5.825   6.147   1.732
 8300TIP3    H224865   5.778   6.057   1.619
 8301TIP3   OH224866   3.675   1.189   0.973
 8301TIP3    H124867   3.639   1.228   0.893
 8301TIP3    H224868   3.643   1.246   1.043
 8302TIP3   OH224869   2.096   3.548   1.905
 8302TIP3    H124870   2.162   3.516   1.966
 8302TIP3    H224871   2.142   3.555   1.821
 8303TIP3   OH224872   3.507   3.591   1.783
 8303TIP3    H124873   3.426   3.577   1.734
 8303TIP3    H224874   3.486   3.564   1.872
 8304TIP3   OH224875   5.612   3.136   1.198
 8304TIP3    H124876   5.590   3.087   1.119
 8304TIP3    H224877   5.528   3.147   1.244
 8305TIP3   OH224878   7.055   5.212   0.691
 8305TIP3    H124879   7.054   5.286   0.631
 8305TIP3    H224880   7.072   5.252   0.777
 8306TIP3   OH224881   0.437   4.532   2.652
 8306TIP3    H124882   0.451   4.504   2.743
 8306TIP3    H224883   0.442   4.627   2.656
 8307TIP3   OH224884   1.215   0.812   3.496
 8307TIP3    H124885   1.195   0.719   3.503
 8307TIP3    H224886   1.207   0.832   3.403
 8308TIP3   OH224887   2.026   2.669   3.525
 8308TIP3    H124888   2.008   2.576   3.512
 8308TIP3    H224889   2.112   2.683   3.485
 8309TIP3   OH224890   3.993   6.178   5.715
 8309TIP3    H124891   4.050   6.169   5.639
 8309TIP3    H224892   3.905   6.190   5.678
 8310TIP3   OH224893   4.765   3.357   5.826
 8310TIP3    H124894   4.764   3.387   5.735
 8310TIP3    H224895   4.838   3.404   5.866
 8311TIP3   OH224896   4.562   2.941   1.054
 8311TIP3    H124897   4.563   3.024   1.006
 8311TIP3    H224898   4.650   2.906   1.042
 8312TIP3   OH224899   3.897   5.643   0.685
 8312TIP3    H124900   3.803   5.638   0.665
 8312TIP3    H224901   3.925   5.726   0.646
 8313TIP3   OH224902   6.882   4.721   3.404
 8313TIP3    H124903   6.937   4.686   3.334
 8313TIP3    H224904   6.881   4.652   3.470
 8314TIP3   OH224905   3.451   6.544   0.528
 8314TIP3    H124906   3.457   6.502   0.614
 8314TIP3    H224907   3.426   6.635   0.547
 8315TIP3   OH224908   4.372   2.464   4.417
 8315TIP3    H124909   4.336   2.525   4.353
 8315TIP3    H224910   4.447   2.424   4.372
 8316TIP3   OH224911   6.742   2.756   3.788
 8316TIP3    H124912   6.778   2.837   3.751
 8316TIP3    H224913   6.661   2.784   3.831
 8317TIP3   OH224914   6.390   0.504   5.038
 8317TIP3    H124915   6.374   0.464   4.953
 8317TIP3    H224916   6.396   0.598   5.021
 8318TIP3   OH224917   0.045   1.604   1.633
 8318TIP3    H124918   0.079   1.690   1.659
 8318TIP3    H224919   0.077   1.544   1.701
 8319TIP3   OH224920   4.882   5.255   3.756
 8319TIP3    H124921   4.906   5.283   3.845
 8319TIP3    H224922   4.964   5.264   3.707
 8320TIP3   OH224923   1.673   4.182   3.089
 8320TIP3    H124924   1.588   4.170   3.129
 8320TIP3    H224925   1.715   4.096   3.094
 8321TIP3   OH224926   1.894   4.727   0.100
 8321TIP3    H124927   1.832   4.755   0.167
 8321TIP3    H224928   1.965   4.686   0.149
 8322TIP3   OH224929   7.253   6.445   4.211
 8322TIP3    H124930   7.189   6.499   4.164
 8322TIP3    H224931   7.228   6.355   4.192
 8323TIP3   OH224932   6.328   0.001   1.995
 8323TIP3    H124933   6.296   0.088   1.969
 8323TIP3    H224934   6.248  -0.047   2.020
 8324TIP3   OH224935   2.263   1.515   3.790
 8324TIP3    H124936   2.294   1.449   3.727
 8324TIP3    H224937   2.175   1.538   3.759
 8325TIP3   OH224938   5.511   5.506   3.558
 8325TIP3    H124939   5.522   5.459   3.475
 8325TIP3    H224940   5.552   5.449   3.623
 8326TIP3   OH224941   3.023   5.540   3.788
 8326TIP3    H124942   3.055   5.605   3.726
 8326TIP3    H224943   2.971   5.480   3.736
 8327TIP3   OH224944   3.779   0.358   1.893
 8327TIP3    H124945   3.684   0.371   1.891
 8327TIP3    H224946   3.790   0.263   1.884
 8328TIP3   OH224947   2.201   0.672   2.049
 8328TIP3    H124948   2.177   0.691   2.140
 8328TIP3    H224949   2.262   0.599   2.055
 8329TIP3   OH224950   6.327   1.428   2.253
 8329TIP3    H124951   6.396   1.464   2.196
 8329TIP3    H224952   6.315   1.338   2.222
 8330TIP3   OH224953   0.190   1.627   3.916
 8330TIP3    H124954   0.210   1.695   3.980
 8330TIP3    H224955   0.180   1.675   3.833
 8331TIP3   OH224956   1.325   6.175   1.321
 8331TIP3    H124957   1.402   6.149   1.271
 8331TIP3    H224958   1.251   6.139   1.271
 8332TIP3   OH224959   3.233   0.047   2.024
 8332TIP3    H124960   3.264   0.136   2.005
 8332TIP3    H224961   3.247   0.037   2.118
 8333TIP3   OH224962   6.664   1.129   5.804
 8333TIP3    H124963   6.617   1.170   5.731
 8333TIP3    H224964   6.648   1.187   5.878
 8334TIP3   OH224965   5.097   2.290   3.189
 8334TIP3    H124966   5.153   2.272   3.114
 8334TIP3    H224967   5.037   2.215   3.193
 8335TIP3   OH224968   1.163   1.800   4.903
 8335TIP3    H124969   1.107   1.789   4.826
 8335TIP3    H224970   1.237   1.853   4.872
 8336TIP3   OH224971   0.738   3.569   4.624
 8336TIP3    H124972   0.753   3.631   4.696
 8336TIP3    H224973   0.644   3.576   4.606
 8337TIP3   OH224974   0.432   3.319   4.850
 8337TIP3    H124975   0.490   3.377   4.898
 8337TIP3    H224976   0.374   3.377   4.801
 8338TIP3   OH224977   1.679   4.775   5.741
 8338TIP3    H124978   1.744   4.742   5.803
 8338TIP3    H224979   1.648   4.698   5.694
 8339TIP3   OH224980   5.683   2.902   0.079
 8339TIP3    H124981   5.738   2.838   0.126
 8339TIP3    H224982   5.624   2.936   0.146
 8340TIP3   OH224983   7.149   1.596   5.608
 8340TIP3    H124984   7.152   1.501   5.600
 8340TIP3    H224985   7.220   1.617   5.670
 8341TIP3   OH224986   3.553   1.758   0.461
 8341TIP3    H124987   3.540   1.786   0.370
 8341TIP3    H224988   3.533   1.836   0.513
 8342TIP3   OH224989   0.465   2.461   5.609
 8342TIP3    H124990   0.544   2.504   5.574
 8342TIP3    H224991   0.499   2.394   5.668
 8343TIP3   OH224992   4.461   4.182   0.961
 8343TIP3    H124993   4.424   4.176   1.050
 8343TIP3    H224994   4.550   4.213   0.974
 8344TIP3   OH224995   2.369   1.371   5.106
 8344TIP3    H124996   2.304   1.302   5.120
 8344TIP3    H224997   2.391   1.366   5.013
 8345TIP3   OH224998   6.586   5.143   4.183
 8345TIP3    H124999   6.589   5.054   4.218
 8345TIP3    H225000   6.511   5.183   4.226
 8346TIP3   OH225001   4.329  -0.020   4.773
 8346TIP3    H125002   4.406   0.024   4.736
 8346TIP3    H225003   4.255   0.033   4.744
 8347TIP3   OH225004   2.834   2.159   5.251
 8347TIP3    H125005   2.806   2.070   5.271
 8347TIP3    H225006   2.874   2.153   5.164
 8348TIP3   OH225007   0.241   2.745   5.088
 8348TIP3    H125008   0.278   2.821   5.043
 8348TIP3    H225009   0.316   2.705   5.133
 8349TIP3   OH225010   5.306   2.688   5.138
 8349TIP3    H125011   5.266   2.641   5.211
 8349TIP3    H225012   5.233   2.733   5.095
 8350TIP3   OH225013   4.393   1.290   2.869
 8350TIP3    H125014   4.472   1.296   2.923
 8350TIP3    H225015   4.421   1.240   2.792
 8351TIP3   OH225016   6.605   1.555   2.869
 8351TIP3    H125017   6.609   1.650   2.881
 8351TIP3    H225018   6.524   1.541   2.820
 8352TIP3   OH225019   2.733   2.897   0.409
 8352TIP3    H125020   2.689   2.940   0.336
 8352TIP3    H225021   2.667   2.890   0.478
 8353TIP3   OH225022   3.849   2.762   0.421
 8353TIP3    H125023   3.824   2.849   0.451
 8353TIP3    H225024   3.838   2.765   0.326
 8354TIP3   OH225025   7.190   4.763   4.416
 8354TIP3    H125026   7.210   4.711   4.494
 8354TIP3    H225027   7.140   4.838   4.449
 8355TIP3   OH225028   6.132   3.071   1.244
 8355TIP3    H125029   6.073   3.079   1.319
 8355TIP3    H225030   6.099   2.994   1.196
 8356TIP3   OH225031   5.333   5.186   1.914
 8356TIP3    H125032   5.274   5.143   1.853
 8356TIP3    H225033   5.384   5.115   1.952
 8357TIP3   OH225034   7.236   5.043   2.403
 8357TIP3    H125035   7.279   4.957   2.405
 8357TIP3    H225036   7.202   5.055   2.491
 8358TIP3   OH225037   4.158   1.789   3.862
 8358TIP3    H125038   4.167   1.753   3.950
 8358TIP3    H225039   4.173   1.715   3.803
 8359TIP3   OH225040   0.649   0.839   3.522
 8359TIP3    H125041   0.721   0.775   3.515
 8359TIP3    H225042   0.690   0.918   3.557
 8360TIP3   OH225043   6.788   1.146   3.547
 8360TIP3    H125044   6.780   1.051   3.537
 8360TIP3    H225045   6.879   1.164   3.522
 8361TIP3   OH225046   3.387   5.805   1.320
 8361TIP3    H125047   3.395   5.853   1.238
 8361TIP3    H225048   3.340   5.864   1.378
 8362TIP3   OH225049   5.531   6.749   4.846
 8362TIP3    H125050   5.458   6.801   4.879
 8362TIP3    H225051   5.598   6.757   4.914
 8363TIP3   OH225052   1.224   3.055   3.369
 8363TIP3    H125053   1.153   3.102   3.325
 8363TIP3    H225054   1.261   2.998   3.301
 8364TIP3   OH225055   5.512   5.066   4.923
 8364TIP3    H125056   5.520   4.990   4.867
 8364TIP3    H225057   5.420   5.065   4.951
 8365TIP3   OH225058   6.058   2.164   5.577
 8365TIP3    H125059   6.112   2.184   5.501
 8365TIP3    H225060   6.019   2.248   5.601
 8366TIP3   OH225061   0.491   4.182   1.018
 8366TIP3    H125062   0.485   4.202   1.111
 8366TIP3    H225063   0.410   4.136   0.998
 8367TIP3   OH225064   5.608   0.562   1.245
 8367TIP3    H125065   5.616   0.478   1.291
 8367TIP3    H225066   5.685   0.567   1.190
 8368TIP3   OH225067   0.522   4.684   1.443
 8368TIP3    H125068   0.499   4.622   1.513
 8368TIP3    H225069   0.535   4.629   1.366
 8369TIP3   OH225070   1.624   5.791   4.872
 8369TIP3    H125071   1.569   5.841   4.813
 8369TIP3    H225072   1.634   5.706   4.829
 8370TIP3   OH225073   4.560   0.301   0.338
 8370TIP3    H125074   4.553   0.301   0.243
 8370TIP3    H225075   4.631   0.362   0.357
 8371TIP3   OH225076   4.225   0.055   3.333
 8371TIP3    H125077   4.162   0.003   3.383
 8371TIP3    H225078   4.270  -0.008   3.277
 8372TIP3   OH225079   2.565   0.134   3.736
 8372TIP3    H125080   2.618   0.149   3.657
 8372TIP3    H225081   2.504   0.064   3.710
 8373TIP3   OH225082   5.305   2.232   4.674
 8373TIP3    H125083   5.390   2.201   4.706
 8373TIP3    H225084   5.318   2.249   4.581
 8374TIP3   OH225085   4.556   4.773   0.284
 8374TIP3    H125086   4.556   4.752   0.377
 8374TIP3    H225087   4.494   4.712   0.244
 8375TIP3   OH225088   0.314   4.417   0.620
 8375TIP3    H125089   0.228   4.419   0.662
 8375TIP3    H225090   0.298   4.447   0.531
 8376TIP3   OH225091   0.785   0.959   3.984
 8376TIP3    H125092   0.858   0.996   3.935
 8376TIP3    H225093   0.759   0.882   3.934
 8377TIP3   OH225094   2.896   6.763   4.198
 8377TIP3    H125095   2.803   6.746   4.180
 8377TIP3    H225096   2.936   6.771   4.111
 8378TIP3   OH225097   1.193   2.514   2.245
 8378TIP3    H125098   1.137   2.518   2.322
 8378TIP3    H225099   1.278   2.543   2.276
 8379TIP3   OH225100   5.872   0.872   3.049
 8379TIP3    H125101   5.933   0.945   3.038
 8379TIP3    H225102   5.908   0.803   2.993
 8380TIP3   OH225103   0.897   1.060   5.631
 8380TIP3    H125104   0.908   1.049   5.726
 8380TIP3    H225105   0.841   1.137   5.622
 8381TIP3   OH225106   4.524   6.227   4.287
 8381TIP3    H125107   4.462   6.275   4.233
 8381TIP3    H225108   4.580   6.294   4.326
 8382TIP3   OH225109   2.753   0.037   2.316
 8382TIP3    H125110   2.788   0.097   2.382
 8382TIP3    H225111   2.694   0.091   2.263
 8383TIP3   OH225112   0.282   3.308   2.223
 8383TIP3    H125113   0.374   3.312   2.251
 8383TIP3    H225114   0.271   3.385   2.167
 8384TIP3   OH225115   6.898   0.202   3.329
 8384TIP3    H125116   6.956   0.255   3.385
 8384TIP3    H225117   6.899   0.247   3.245
 8385TIP3   OH225118   1.787   1.709   3.038
 8385TIP3    H125119   1.721   1.696   2.971
 8385TIP3    H225120   1.814   1.621   3.064
 8386TIP3   OH225121   3.929   2.095   3.620
 8386TIP3    H125122   3.981   2.130   3.692
 8386TIP3    H225123   3.990   2.091   3.546
 8387TIP3   OH225124   6.376   6.554   3.732
 8387TIP3    H125125   6.461   6.582   3.698
 8387TIP3    H225126   6.370   6.462   3.708
 8388TIP3   OH225127   3.665   5.480   1.330
 8388TIP3    H125128   3.605   5.471   1.404
 8388TIP3    H225129   3.665   5.394   1.288
 8389TIP3   OH225130   1.419   6.695   5.073
 8389TIP3    H125131   1.482   6.652   5.130
 8389TIP3    H225132   1.472   6.742   5.008
 8390TIP3   OH225133   3.524   5.108   3.840
 8390TIP3    H125134   3.518   5.072   3.928
 8390TIP3    H225135   3.613   5.141   3.833
 8391TIP3   OH225136   0.831   0.732   4.353
 8391TIP3    H125137   0.879   0.701   4.276
 8391TIP3    H225138   0.827   0.827   4.342
 8392TIP3   OH225139   6.685   4.094   4.304
 8392TIP3    H125140   6.669   4.121   4.394
 8392TIP3    H225141   6.600   4.066   4.271
 8393TIP3   OH225142   3.637   2.793   5.356
 8393TIP3    H125143   3.581   2.765   5.428
 8393TIP3    H225144   3.622   2.888   5.349
 8394TIP3   OH225145   5.536   5.331   4.505
 8394TIP3    H125146   5.459   5.335   4.450
 8394TIP3    H225147   5.584   5.254   4.475
 8395TIP3   OH225148   3.950   2.981   3.903
 8395TIP3    H125149   4.042   2.969   3.881
 8395TIP3    H225150   3.946   3.068   3.942
 8396TIP3   OH225151   1.769   3.035   1.645
 8396TIP3    H125152   1.852   3.023   1.691
 8396TIP3    H225153   1.786   3.002   1.556
 8397TIP3   OH225154   5.379   2.313   4.152
 8397TIP3    H125155   5.317   2.331   4.082
 8397TIP3    H225156   5.458   2.361   4.127
 8398TIP3   OH225157   7.084   1.416   4.135
 8398TIP3    H125158   7.176   1.444   4.131
 8398TIP3    H225159   7.045   1.472   4.202
 8399TIP3   OH225160   1.045   0.818   5.785
 8399TIP3    H125161   1.140   0.804   5.787
 8399TIP3    H225162   1.030   0.870   5.707
 8400TIP3   OH225163   2.267   0.627   1.172
 8400TIP3    H125164   2.206   0.583   1.114
 8400TIP3    H225165   2.299   0.558   1.230
 8401TIP3   OH225166   5.877   0.045   3.225
 8401TIP3    H125167   5.840   0.055   3.137
 8401TIP3    H225168   5.894   0.135   3.254
 8402TIP3   OH225169   4.936   4.626   2.337
 8402TIP3    H125170   4.896   4.558   2.284
 8402TIP3    H225171   4.870   4.694   2.343
 8403TIP3   OH225172   2.672   4.599   0.442
 8403TIP3    H125173   2.749   4.654   0.455
 8403TIP3    H225174   2.599   4.660   0.438
 8404TIP3   OH225175   6.161   4.339   0.678
 8404TIP3    H125176   6.189   4.324   0.588
 8404TIP3    H225177   6.191   4.261   0.725
 8405TIP3   OH225178   1.031   1.051   3.496
 8405TIP3    H125179   1.078   1.116   3.444
 8405TIP3    H225180   1.074   1.054   3.582
 8406TIP3   OH225181   5.000   0.752   2.062
 8406TIP3    H125182   4.915   0.795   2.073
 8406TIP3    H225183   5.044   0.764   2.146
 8407TIP3   OH225184   7.171   2.676   5.116
 8407TIP3    H125185   7.181   2.699   5.023
 8407TIP3    H225186   7.258   2.693   5.154
 8408TIP3   OH225187   3.512   6.529   5.854
 8408TIP3    H125188   3.573   6.458   5.871
 8408TIP3    H225189   3.567   6.604   5.831
 8409TIP3   OH225190   5.161   4.200   0.724
 8409TIP3    H125191   5.207   4.208   0.808
 8409TIP3    H225192   5.226   4.163   0.665
 8410TIP3   OH225193   0.896   4.500   0.158
 8410TIP3    H125194   0.988   4.474   0.165
 8410TIP3    H225195   0.898   4.595   0.148
 8411TIP3   OH225196   3.218   1.107   3.320
 8411TIP3    H125197   3.155   1.166   3.278
 8411TIP3    H225198   3.301   1.124   3.275
 8412TIP3   OH225199   1.231   3.537   3.222
 8412TIP3    H125200   1.310   3.560   3.173
 8412TIP3    H225201   1.249   3.450   3.257
 8413TIP3   OH225202   0.435   3.339   0.606
 8413TIP3    H125203   0.417   3.251   0.573
 8413TIP3    H225204   0.487   3.381   0.537
 8414TIP3   OH225205   3.772   6.682   3.848
 8414TIP3    H125206   3.773   6.769   3.888
 8414TIP3    H225207   3.806   6.696   3.759
 8415TIP3   OH225208   4.744   3.717   2.190
 8415TIP3    H125209   4.703   3.682   2.111
 8415TIP3    H225210   4.823   3.761   2.159
 8416TIP3   OH225211   1.969   1.267   1.187
 8416TIP3    H125212   2.022   1.203   1.234
 8416TIP3    H225213   1.997   1.351   1.222
 8417TIP3   OH225214   4.019   4.173   4.368
 8417TIP3    H125215   4.107   4.205   4.388
 8417TIP3    H225216   3.961   4.246   4.390
 8418TIP3   OH225217   6.695   2.171   1.095
 8418TIP3    H125218   6.762   2.236   1.076
 8418TIP3    H225219   6.734   2.088   1.067
 8419TIP3   OH225220   2.369   0.164   4.021
 8419TIP3    H125221   2.310   0.201   3.955
 8419TIP3    H225222   2.454   0.202   4.001
 8420TIP3   OH225223   2.405   3.165   2.273
 8420TIP3    H125224   2.324   3.194   2.315
 8420TIP3    H225225   2.378   3.135   2.187
 8421TIP3   OH225226   5.166   1.846   4.463
 8421TIP3    H125227   5.144   1.803   4.380
 8421TIP3    H225228   5.104   1.918   4.470
 8422TIP3   OH225229   2.667   3.023   2.925
 8422TIP3    H125230   2.712   2.955   2.974
 8422TIP3    H225231   2.593   3.048   2.979
 8423TIP3   OH225232   3.002   6.475   1.331
 8423TIP3    H125233   2.929   6.456   1.272
 8423TIP3    H225234   3.051   6.544   1.287
 8424TIP3   OH225235   5.600   5.961   0.475
 8424TIP3    H125236   5.641   5.892   0.421
 8424TIP3    H225237   5.667   5.984   0.539
 8425TIP3   OH225238   2.494   3.779   5.837
 8425TIP3    H125239   2.438   3.791   5.761
 8425TIP3    H225240   2.536   3.693   5.823
 8426TIP3   OH225241   1.696   2.431   1.093
 8426TIP3    H125242   1.670   2.460   1.005
 8426TIP3    H225243   1.791   2.427   1.090
 8427TIP3   OH225244   2.398   3.947   4.202
 8427TIP3    H125245   2.390   4.028   4.251
 8427TIP3    H225246   2.309   3.916   4.190
 8428TIP3   OH225247   6.394   5.283   1.837
 8428TIP3    H125248   6.419   5.260   1.747
 8428TIP3    H225249   6.459   5.347   1.864
 8429TIP3   OH225250   5.846   0.510   2.094
 8429TIP3    H125251   5.897   0.441   2.136
 8429TIP3    H225252   5.854   0.493   2.001
 8430TIP3   OH225253   3.086   5.939   0.873
 8430TIP3    H125254   3.086   5.844   0.861
 8430TIP3    H225255   2.994   5.961   0.890
 8431TIP3   OH225256   4.132   5.069   0.378
 8431TIP3    H125257   4.068   4.998   0.371
 8431TIP3    H225258   4.097   5.127   0.445
 8432TIP3   OH225259   0.664   3.098   0.971
 8432TIP3    H125260   0.620   3.182   0.986
 8432TIP3    H225261   0.697   3.105   0.881
 8433TIP3   OH225262   0.023   0.241   1.759
 8433TIP3    H125263   0.081   0.285   1.697
 8433TIP3    H225264   0.082   0.200   1.822
 8434TIP3   OH225265   4.378   2.784   1.953
 8434TIP3    H125266   4.373   2.868   1.999
 8434TIP3    H225267   4.287   2.753   1.950
 8435TIP3   OH225268   5.078   6.526   2.578
 8435TIP3    H125269   5.122   6.555   2.498
 8435TIP3    H225270   5.003   6.475   2.547
 8436TIP3   OH225271   0.566   1.880   2.732
 8436TIP3    H125272   0.548   1.935   2.656
 8436TIP3    H225273   0.616   1.806   2.697
 8437TIP3   OH225274   1.274   4.981   5.706
 8437TIP3    H125275   1.227   4.898   5.718
 8437TIP3    H225276   1.347   4.958   5.648
 8438TIP3   OH225277   1.104   5.646   3.643
 8438TIP3    H125278   1.120   5.605   3.558
 8438TIP3    H225279   1.191   5.665   3.677
 8439TIP3   OH225280   4.182   1.749   0.797
 8439TIP3    H125281   4.144   1.678   0.848
 8439TIP3    H225282   4.268   1.764   0.836
 8440TIP3   OH225283   1.032   5.599   4.554
 8440TIP3    H125284   1.054   5.609   4.462
 8440TIP3    H225285   1.071   5.676   4.597
 8441TIP3   OH225286   2.184   3.867   0.077
 8441TIP3    H125287   2.200   3.890   0.169
 8441TIP3    H225288   2.141   3.944   0.040
 8442TIP3   OH225289   2.541   2.114   0.441
 8442TIP3    H125290   2.570   2.182   0.381
 8442TIP3    H225291   2.476   2.064   0.390
 8443TIP3   OH225292   6.261   4.726   2.176
 8443TIP3    H125293   6.169   4.747   2.193
 8443TIP3    H225294   6.304   4.811   2.165
 8444TIP3   OH225295   5.200   5.436   0.859
 8444TIP3    H125296   5.114   5.453   0.898
 8444TIP3    H225297   5.227   5.353   0.898
 8445TIP3   OH225298   1.427   4.912   2.360
 8445TIP3    H125299   1.385   4.826   2.367
 8445TIP3    H225300   1.355   4.974   2.373
 8446TIP3   OH225301   1.936   6.295   3.405
 8446TIP3    H125302   1.998   6.260   3.470
 8446TIP3    H225303   1.854   6.248   3.422
 8447TIP3   OH225304   4.239   1.257   5.153
 8447TIP3    H125305   4.241   1.174   5.201
 8447TIP3    H225306   4.263   1.234   5.063
 8448TIP3   OH225307   4.126   2.944   4.168
 8448TIP3    H125308   4.181   2.903   4.101
 8448TIP3    H225309   4.179   3.016   4.201
 8449TIP3   OH225310   4.463   1.137   0.722
 8449TIP3    H125311   4.517   1.094   0.656
 8449TIP3    H225312   4.524   1.154   0.795
 8450TIP3   OH225313   0.849   0.951   4.838
 8450TIP3    H125314   0.868   0.958   4.745
 8450TIP3    H225315   0.831   1.041   4.866
 8451TIP3   OH225316   7.224   5.427   1.532
 8451TIP3    H125317   7.266   5.513   1.544
 8451TIP3    H225318   7.180   5.411   1.614
 8452TIP3   OH225319   6.454   0.750   3.264
 8452TIP3    H125320   6.367   0.710   3.263
 8452TIP3    H225321   6.514   0.675   3.269
 8453TIP3   OH225322   6.087   6.309   1.728
 8453TIP3    H125323   6.157   6.245   1.737
 8453TIP3    H225324   6.028   6.271   1.664
 8454TIP3   OH225325   0.994   3.571   4.430
 8454TIP3    H125326   0.935   3.551   4.357
 8454TIP3    H225327   0.954   3.646   4.473
 8455TIP3   OH225328   3.464   5.903   0.025
 8455TIP3    H125329   3.409   5.929   0.098
 8455TIP3    H225330   3.415   5.931  -0.053
 8456TIP3   OH225331   4.942   1.830   5.722
 8456TIP3    H125332   4.930   1.794   5.810
 8456TIP3    H225333   4.961   1.923   5.737
 8457TIP3   OH225334   4.138   3.232   5.428
 8457TIP3    H125335   4.232   3.215   5.433
 8457TIP3    H225336   4.102   3.152   5.389
 8458TIP3   OH225337   5.888   4.792   0.962
 8458TIP3    H125338   5.846   4.707   0.968
 8458TIP3    H225339   5.928   4.794   0.875
 8459TIP3   OH225340   2.157   1.785   3.562
 8459TIP3    H125341   2.250   1.768   3.571
 8459TIP3    H225342   2.148   1.826   3.475
 8460TIP3   OH225343   4.942   2.053   2.036
 8460TIP3    H125344   5.007   2.047   1.966
 8460TIP3    H225345   4.887   2.127   2.010
 8461TIP3   OH225346   2.467   4.883   3.903
 8461TIP3    H125347   2.450   4.808   3.959
 8461TIP3    H225348   2.390   4.938   3.913
 8462TIP3   OH225349   2.891   2.776   4.765
 8462TIP3    H125350   2.861   2.702   4.712
 8462TIP3    H225351   2.882   2.746   4.855
 8463TIP3   OH225352   4.262   0.381   3.111
 8463TIP3    H125353   4.225   0.383   3.199
 8463TIP3    H225354   4.218   0.452   3.065
 8464TIP3   OH225355   3.717   1.640   4.874
 8464TIP3    H125356   3.674   1.722   4.898
 8464TIP3    H225357   3.688   1.623   4.785
 8465TIP3   OH225358   1.470   3.427   5.864
 8465TIP3    H125359   1.565   3.428   5.859
 8465TIP3    H225360   1.446   3.335   5.859
 8466TIP3   OH225361   0.806   1.566   0.460
 8466TIP3    H125362   0.771   1.617   0.388
 8466TIP3    H225363   0.737   1.504   0.482
 8467TIP3   OH225364   5.314   2.213   1.219
 8467TIP3    H125365   5.355   2.299   1.221
 8467TIP3    H225366   5.387   2.152   1.210
 8468TIP3   OH225367   3.223   5.405   3.974
 8468TIP3    H125368   3.164   5.454   3.917
 8468TIP3    H225369   3.174   5.325   3.995
 8469TIP3   OH225370   2.503   3.532   2.530
 8469TIP3    H125371   2.543   3.609   2.489
 8469TIP3    H225372   2.574   3.468   2.536
 8470TIP3   OH225373   1.486   3.615   4.900
 8470TIP3    H125374   1.494   3.554   4.827
 8470TIP3    H225375   1.489   3.560   4.978
 8471TIP3   OH225376   1.579   0.414   0.163
 8471TIP3    H125377   1.489   0.383   0.155
 8471TIP3    H225378   1.620   0.355   0.226
 8472TIP3   OH225379   3.177   1.297   0.243
 8472TIP3    H125380   3.190   1.379   0.195
 8472TIP3    H225381   3.241   1.300   0.314
 8473TIP3   OH225382   6.506   1.292   4.125
 8473TIP3    H125383   6.437   1.358   4.133
 8473TIP3    H225384   6.587   1.338   4.148
 8474TIP3   OH225385   5.899   5.471   1.524
 8474TIP3    H125386   5.849   5.424   1.591
 8474TIP3    H225387   5.987   5.477   1.559
 8475TIP3   OH225388   0.214   3.876   4.624
 8475TIP3    H125389   0.199   3.953   4.677
 8475TIP3    H225390   0.128   3.849   4.593
 8476TIP3   OH225391   2.869   6.602   5.532
 8476TIP3    H125392   2.866   6.535   5.601
 8476TIP3    H225393   2.869   6.685   5.580
 8477TIP3   OH225394   4.414   0.730   2.682
 8477TIP3    H125395   4.463   0.809   2.701
 8477TIP3    H225396   4.411   0.726   2.586
 8478TIP3   OH225397   5.482   0.690   2.344
 8478TIP3    H125398   5.412   0.710   2.406
 8478TIP3    H225399   5.487   0.766   2.287
 8479TIP3   OH225400   6.500   5.949   0.762
 8479TIP3    H125401   6.460   5.943   0.849
 8479TIP3    H225402   6.431   5.987   0.707
 8480TIP3   OH225403   4.170   5.281   3.415
 8480TIP3    H125404   4.213   5.366   3.403
 8480TIP3    H225405   4.238   5.227   3.455
 8481TIP3   OH225406   3.900   3.559   1.819
 8481TIP3    H125407   3.805   3.571   1.818
 8481TIP3    H225408   3.923   3.541   1.727
 8482TIP3   OH225409   0.790   5.307   5.591
 8482TIP3    H125410   0.793   5.384   5.647
 8482TIP3    H225411   0.759   5.236   5.648
 8483TIP3   OH225412   5.252   6.212   5.002
 8483TIP3    H125413   5.229   6.304   4.986
 8483TIP3    H225414   5.187   6.163   4.951
 8484TIP3   OH225415   1.630   5.109   1.742
 8484TIP3    H125416   1.580   5.028   1.740
 8484TIP3    H225417   1.718   5.083   1.770
 8485TIP3   OH225418   5.411   4.518   1.390
 8485TIP3    H125419   5.362   4.564   1.458
 8485TIP3    H225420   5.449   4.588   1.336
 8486TIP3   OH225421   2.140   1.715   0.292
 8486TIP3    H125422   2.100   1.658   0.226
 8486TIP3    H225423   2.177   1.655   0.357
 8487TIP3   OH225424   0.910   0.308   0.629
 8487TIP3    H125425   0.874   0.245   0.567
 8487TIP3    H225426   0.996   0.273   0.653
 8488TIP3   OH225427   1.902   4.067   5.272
 8488TIP3    H125428   1.838   4.000   5.248
 8488TIP3    H225429   1.933   4.102   5.189
 8489TIP3   OH225430   0.497   4.375   1.858
 8489TIP3    H125431   0.480   4.286   1.825
 8489TIP3    H225432   0.552   4.416   1.792
 8490TIP3   OH225433   0.361   1.441   5.329
 8490TIP3    H125434   0.298   1.410   5.264
 8490TIP3    H225435   0.408   1.363   5.357
 8491TIP3   OH225436   1.207   1.440   2.050
 8491TIP3    H125437   1.232   1.446   1.958
 8491TIP3    H225438   1.181   1.529   2.073
 8492TIP3   OH225439   5.809   1.416   5.852
 8492TIP3    H125440   5.732   1.408   5.795
 8492TIP3    H225441   5.774   1.404   5.941
 8493TIP3   OH225442   3.481   6.457   3.552
 8493TIP3    H125443   3.404   6.473   3.498
 8493TIP3    H225444   3.495   6.363   3.548
 8494TIP3   OH225445   6.832   1.016   5.018
 8494TIP3    H125446   6.868   1.104   5.017
 8494TIP3    H225447   6.901   0.962   5.056
 8495TIP3   OH225448  -0.021   1.858   2.915
 8495TIP3    H125449   0.072   1.845   2.934
 8495TIP3    H225450  -0.059   1.887   2.997
 8496TIP3   OH225451   0.506   2.128   5.740
 8496TIP3    H125452   0.546   2.045   5.714
 8496TIP3    H225453   0.577   2.192   5.732
 8497TIP3   OH225454   2.666   1.042   4.092
 8497TIP3    H125455   2.634   0.952   4.088
 8497TIP3    H225456   2.690   1.055   4.184
 8498TIP3   OH225457   4.077   1.668   4.865
 8498TIP3    H125458   4.027   1.698   4.789
 8498TIP3    H225459   4.072   1.573   4.861
 8499TIP3   OH225460   0.568   6.578   2.587
 8499TIP3    H125461   0.609   6.653   2.544
 8499TIP3    H225462   0.629   6.506   2.571
 8500TIP3   OH225463   0.521   3.218   4.341
 8500TIP3    H125464   0.566   3.173   4.270
 8500TIP3    H225465   0.585   3.283   4.372
 8501TIP3   OH225466   2.758   1.656   5.625
 8501TIP3    H125467   2.816   1.608   5.684
 8501TIP3    H225468   2.704   1.588   5.584
 8502TIP3   OH225469   3.825   2.242   0.626
 8502TIP3    H125470   3.894   2.283   0.573
 8502TIP3    H225471   3.753   2.305   0.623
 8503TIP3   OH225472   4.746   5.659   4.085
 8503TIP3    H125473   4.672   5.606   4.056
 8503TIP3    H225474   4.713   5.749   4.083
 8504TIP3   OH225475   6.660   2.430   0.055
 8504TIP3    H125476   6.654   2.520   0.088
 8504TIP3    H225477   6.635   2.436  -0.037
 8505TIP3   OH225478   3.214   5.889   3.004
 8505TIP3    H125479   3.290   5.947   3.007
 8505TIP3    H225480   3.250   5.802   3.015
 8506TIP3   OH225481   4.781   2.742   2.533
 8506TIP3    H125482   4.872   2.735   2.507
 8506TIP3    H225483   4.771   2.678   2.604
 8507TIP3   OH225484   3.545   5.621   2.918
 8507TIP3    H125485   3.535   5.560   2.845
 8507TIP3    H225486   3.634   5.607   2.949
 8508TIP3   OH225487   2.201   2.746   1.780
 8508TIP3    H125488   2.135   2.720   1.844
 8508TIP3    H225489   2.282   2.754   1.830
 8509TIP3   OH225490   4.691   0.167   0.545
 8509TIP3    H125491   4.658   0.213   0.468
 8509TIP3    H225492   4.623   0.181   0.612
 8510TIP3   OH225493   5.543   1.429   2.056
 8510TIP3    H125494   5.630   1.466   2.072
 8510TIP3    H225495   5.557   1.334   2.061
 8511TIP3   OH225496   3.175   5.468   1.212
 8511TIP3    H125497   3.203   5.409   1.141
 8511TIP3    H225498   3.122   5.534   1.168
 8512TIP3   OH225499   3.471   6.108   1.429
 8512TIP3    H125500   3.392   6.102   1.375
 8512TIP3    H225501   3.446   6.164   1.503
 8513TIP3   OH225502   3.792   1.509   1.405
 8513TIP3    H125503   3.835   1.433   1.366
 8513TIP3    H225504   3.807   1.580   1.342
 8514TIP3   OH225505   4.698   6.575   2.966
 8514TIP3    H125506   4.776   6.616   2.928
 8514TIP3    H225507   4.649   6.542   2.890
 8515TIP3   OH225508   1.005   4.844   5.447
 8515TIP3    H125509   1.072   4.781   5.421
 8515TIP3    H225510   0.961   4.804   5.521
 8516TIP3   OH225511   4.580   3.828   4.875
 8516TIP3    H125512   4.590   3.766   4.803
 8516TIP3    H225513   4.666   3.869   4.884
 8517TIP3   OH225514   5.783   6.627   4.115
 8517TIP3    H125515   5.864   6.678   4.121
 8517TIP3    H225516   5.749   6.648   4.028
 8518TIP3   OH225517   2.774   4.297   3.336
 8518TIP3    H125518   2.838   4.367   3.322
 8518TIP3    H225519   2.689   4.341   3.334
 8519TIP3   OH225520   0.689   0.747   3.817
 8519TIP3    H125521   0.743   0.766   3.739
 8519TIP3    H225522   0.603   0.725   3.781
 8520TIP3   OH225523   2.306   1.431   0.800
 8520TIP3    H125524   2.272   1.454   0.714
 8520TIP3    H225525   2.231   1.441   0.859
 8521TIP3   OH225526   5.627   4.394   1.516
 8521TIP3    H125527   5.702   4.452   1.506
 8521TIP3    H225528   5.559   4.434   1.461
 8522TIP3   OH225529   2.212   1.343   2.822
 8522TIP3    H125530   2.166   1.427   2.826
 8522TIP3    H225531   2.241   1.336   2.731
 8523TIP3   OH225532   1.560   5.130   2.801
 8523TIP3    H125533   1.480   5.106   2.754
 8523TIP3    H225534   1.534   5.201   2.860
 8524TIP3   OH225535   2.788   1.353   0.168
 8524TIP3    H125536   2.846   1.391   0.234
 8524TIP3    H225537   2.848   1.323   0.100
 8525TIP3   OH225538   2.625   3.282   4.331
 8525TIP3    H125539   2.590   3.301   4.418
 8525TIP3    H225540   2.679   3.357   4.310
 8526TIP3   OH225541   6.078   3.539   1.744
 8526TIP3    H125542   6.073   3.622   1.695
 8526TIP3    H225543   6.165   3.540   1.783
 8527TIP3   OH225544   5.230   4.376   4.392
 8527TIP3    H125545   5.248   4.287   4.362
 8527TIP3    H225546   5.258   4.432   4.320
 8528TIP3   OH225547   6.056   2.448   1.904
 8528TIP3    H125548   6.033   2.419   1.815
 8528TIP3    H225549   6.142   2.410   1.919
 8529TIP3   OH225550   5.067   5.426   5.497
 8529TIP3    H125551   5.000   5.427   5.565
 8529TIP3    H225552   5.150   5.422   5.546
 8530TIP3   OH225553   4.114   1.196   4.633
 8530TIP3    H125554   4.123   1.100   4.633
 8530TIP3    H225555   4.035   1.213   4.582
 8531TIP3   OH225556   5.714   2.251   1.659
 8531TIP3    H125557   5.656   2.321   1.629
 8531TIP3    H225558   5.690   2.176   1.605
 8532TIP3   OH225559   3.893   0.539   1.714
 8532TIP3    H125560   3.840   0.491   1.778
 8532TIP3    H225561   3.881   0.492   1.632
 8533TIP3   OH225562   4.416   2.870   0.339
 8533TIP3    H125563   4.362   2.871   0.260
 8533TIP3    H225564   4.504   2.852   0.307
 8534TIP3   OH225565   4.853   5.896   1.138
 8534TIP3    H125566   4.899   5.814   1.124
 8534TIP3    H225567   4.872   5.949   1.061
 8535TIP3   OH225568   3.092   3.885   4.477
 8535TIP3    H125569   3.043   3.813   4.437
 8535TIP3    H225570   3.182   3.871   4.449
 8536TIP3   OH225571   1.207   0.194   1.314
 8536TIP3    H125572   1.247   0.166   1.396
 8536TIP3    H225573   1.227   0.288   1.308
 8537TIP3   OH225574   7.162   5.081   2.692
 8537TIP3    H125575   7.171   5.032   2.774
 8537TIP3    H225576   7.068   5.094   2.682
 8538TIP3   OH225577   6.814   2.620   0.973
 8538TIP3    H125578   6.834   2.620   0.879
 8538TIP3    H225579   6.841   2.707   1.003
 8539TIP3   OH225580   4.910   6.551   5.506
 8539TIP3    H125581   4.884   6.559   5.598
 8539TIP3    H225582   4.828   6.554   5.457
 8540TIP3   OH225583   2.442   6.494   0.228
 8540TIP3    H125584   2.422   6.427   0.162
 8540TIP3    H225585   2.422   6.451   0.312
 8541TIP3   OH225586   1.820   1.107   3.800
 8541TIP3    H125587   1.913   1.090   3.809
 8541TIP3    H225588   1.815   1.191   3.754
 8542TIP3   OH225589   4.589   0.933   2.728
 8542TIP3    H125590   4.658   0.969   2.783
 8542TIP3    H225591   4.635   0.890   2.656
 8543TIP3   OH225592   2.323   4.765   0.695
 8543TIP3    H125593   2.380   4.824   0.646
 8543TIP3    H225594   2.258   4.823   0.736
 8544TIP3   OH225595   1.857   3.134   2.083
 8544TIP3    H125596   1.781   3.145   2.140
 8544TIP3    H225597   1.878   3.223   2.054
 8545TIP3   OH225598   6.248   4.315   3.417
 8545TIP3    H125599   6.293   4.279   3.494
 8545TIP3    H225600   6.271   4.257   3.346
 8546TIP3   OH225601   5.839   5.551   2.218
 8546TIP3    H125602   5.815   5.620   2.156
 8546TIP3    H225603   5.839   5.470   2.167
 8547TIP3   OH225604   3.085   0.658   3.446
 8547TIP3    H125605   3.064   0.742   3.404
 8547TIP3    H225606   3.076   0.675   3.540
 8548TIP3   OH225607   5.113   5.965   4.675
 8548TIP3    H125608   5.067   6.002   4.750
 8548TIP3    H225609   5.169   6.035   4.643
 8549TIP3   OH225610   1.796   2.662   1.551
 8549TIP3    H125611   1.819   2.733   1.491
 8549TIP3    H225612   1.841   2.585   1.516
 8550TIP3   OH225613   4.240   0.308   3.432
 8550TIP3    H125614   4.255   0.299   3.526
 8550TIP3    H225615   4.220   0.220   3.402
 8551TIP3   OH225616   5.766   4.885   5.378
 8551TIP3    H125617   5.765   4.894   5.283
 8551TIP3    H225618   5.676   4.859   5.401
 8552TIP3   OH225619   1.388   4.050   3.043
 8552TIP3    H125620   1.417   3.997   3.117
 8552TIP3    H225621   1.372   4.137   3.080
 8553TIP3   OH225622   6.590   3.256   2.015
 8553TIP3    H125623   6.516   3.314   1.993
 8553TIP3    H225624   6.659   3.316   2.042
 8554TIP3   OH225625   1.381   3.057   0.919
 8554TIP3    H125626   1.313   3.096   0.865
 8554TIP3    H225627   1.463   3.091   0.884
 8555TIP3   OH225628   5.820   2.631   4.862
 8555TIP3    H125629   5.804   2.621   4.956
 8555TIP3    H225630   5.905   2.674   4.857
 8556TIP3   OH225631   2.929   5.454   4.662
 8556TIP3    H125632   2.978   5.523   4.618
 8556TIP3    H225633   2.975   5.373   4.639
 8557TIP3   OH225634   6.486   6.730   2.805
 8557TIP3    H125635   6.423   6.786   2.760
 8557TIP3    H225636   6.520   6.672   2.737
 8558TIP3   OH225637   5.076   6.512   1.044
 8558TIP3    H125638   5.093   6.434   1.097
 8558TIP3    H225639   4.991   6.544   1.075
 8559TIP3   OH225640   5.222   1.435   3.700
 8559TIP3    H125641   5.138   1.469   3.669
 8559TIP3    H225642   5.233   1.352   3.654
 8560TIP3   OH225643   6.060   0.511   0.591
 8560TIP3    H125644   6.012   0.448   0.538
 8560TIP3    H225645   6.141   0.526   0.544
 8561TIP3   OH225646   5.911   2.371   4.855
 8561TIP3    H125647   5.908   2.387   4.761
 8561TIP3    H225648   5.896   2.457   4.895
 8562TIP3   OH225649   4.774   4.412   3.226
 8562TIP3    H125650   4.825   4.345   3.272
 8562TIP3    H225651   4.808   4.495   3.261
 8563TIP3   OH225652   7.068   3.806   3.866
 8563TIP3    H125653   7.111   3.774   3.786
 8563TIP3    H225654   7.024   3.886   3.840
 8564TIP3   OH225655   5.456   5.437   1.888
 8564TIP3    H125656   5.467   5.343   1.876
 8564TIP3    H225657   5.475   5.451   1.981
 8565TIP3   OH225658   3.778   2.595   5.224
 8565TIP3    H125659   3.751   2.661   5.287
 8565TIP3    H225660   3.754   2.512   5.265
 8566TIP3   OH225661   5.981   3.000   4.078
 8566TIP3    H125662   5.968   2.917   4.033
 8566TIP3    H225663   6.010   2.976   4.166
 8567TIP3   OH225664   5.595   1.850   2.146
 8567TIP3    H125665   5.601   1.860   2.051
 8567TIP3    H225666   5.659   1.912   2.181
 8568TIP3   OH225667   4.580   3.791   1.301
 8568TIP3    H125668   4.609   3.855   1.366
 8568TIP3    H225669   4.564   3.843   1.222
 8569TIP3   OH225670   1.040   5.369   3.174
 8569TIP3    H125671   1.072   5.299   3.232
 8569TIP3    H225672   1.063   5.340   3.086
 8570TIP3   OH225673   4.983   6.112   4.885
 8570TIP3    H125674   4.933   6.188   4.856
 8570TIP3    H225675   4.932   6.074   4.956
 8571TIP3   OH225676   5.737   2.856   3.282
 8571TIP3    H125677   5.733   2.942   3.322
 8571TIP3    H225678   5.803   2.809   3.333
 8572TIP3   OH225679   4.338   5.567   1.330
 8572TIP3    H125680   4.402   5.556   1.260
 8572TIP3    H225681   4.297   5.652   1.312
 8573TIP3   OH225682   6.380   5.295   1.114
 8573TIP3    H125683   6.329   5.247   1.180
 8573TIP3    H225684   6.414   5.227   1.056
 8574TIP3   OH225685   1.781   0.038   1.892
 8574TIP3    H125686   1.839   0.105   1.929
 8574TIP3    H225687   1.693   0.072   1.908
 8575TIP3   OH225688   3.805   0.750   5.480
 8575TIP3    H125689   3.746   0.815   5.441
 8575TIP3    H225690   3.855   0.716   5.407
 8576TIP3   OH225691   5.409   0.346   0.940
 8576TIP3    H125692   5.365   0.309   0.864
 8576TIP3    H225693   5.340   0.394   0.986
 8577TIP3   OH225694   4.580   2.137   0.956
 8577TIP3    H125695   4.615   2.114   1.043
 8577TIP3    H225696   4.657   2.162   0.905
 8578TIP3   OH225697   1.106   3.578   2.967
 8578TIP3    H125698   1.150   3.497   2.941
 8578TIP3    H225699   1.105   3.576   3.062
 8579TIP3   OH225700   6.918   3.623   4.007
 8579TIP3    H125701   6.937   3.635   4.100
 8579TIP3    H225702   6.964   3.695   3.964
 8580TIP3   OH225703   1.635   1.321   2.187
 8580TIP3    H125704   1.676   1.263   2.251
 8580TIP3    H225705   1.695   1.321   2.113
 8581TIP3   OH225706   0.417   3.685   4.696
 8581TIP3    H125707   0.469   3.750   4.743
 8581TIP3    H225708   0.364   3.736   4.635
 8582TIP3   OH225709   6.500   5.145   5.314
 8582TIP3    H125710   6.587   5.105   5.327
 8582TIP3    H225711   6.439   5.071   5.319
 8583TIP3   OH225712   2.406   5.635   1.192
 8583TIP3    H125713   2.423   5.591   1.109
 8583TIP3    H225714   2.319   5.606   1.218
 8584TIP3   OH225715   6.238   5.789   5.512
 8584TIP3    H125716   6.250   5.837   5.594
 8584TIP3    H225717   6.161   5.830   5.471
 8585TIP3   OH225718   3.255   2.583   3.065
 8585TIP3    H125719   3.346   2.562   3.089
 8585TIP3    H225720   3.214   2.498   3.050
 8586TIP3   OH225721   2.615   5.987   3.497
 8586TIP3    H125722   2.561   6.038   3.437
 8586TIP3    H225723   2.578   6.006   3.584
 8587TIP3   OH225724   2.476   1.466   0.427
 8587TIP3    H125725   2.390   1.460   0.468
 8587TIP3    H225726   2.458   1.502   0.340
 8588TIP3   OH225727   3.587   6.270   5.802
 8588TIP3    H125728   3.599   6.178   5.826
 8588TIP3    H225729   3.611   6.274   5.710
 8589TIP3   OH225730   2.237   0.663   5.599
 8589TIP3    H125731   2.305   0.597   5.587
 8589TIP3    H225732   2.275   0.743   5.564
 8590TIP3   OH225733   6.733   5.665   5.783
 8590TIP3    H125734   6.782   5.628   5.710
 8590TIP3    H225735   6.798   5.679   5.852
 8591TIP3   OH225736   3.987   2.135   0.825
 8591TIP3    H125737   3.928   2.183   0.766
 8591TIP3    H225738   4.052   2.096   0.767
 8592TIP3   OH225739   4.626   4.326   5.041
 8592TIP3    H125740   4.690   4.263   5.008
 8592TIP3    H225741   4.664   4.411   5.019
 8593TIP3   OH225742   4.977   0.904   2.702
 8593TIP3    H125743   5.027   0.861   2.632
 8593TIP3    H225744   5.005   0.995   2.700
 8594TIP3   OH225745   2.489   0.516   4.768
 8594TIP3    H125746   2.457   0.606   4.779
 8594TIP3    H225747   2.580   0.526   4.743
 8595TIP3   OH225748   5.501   1.874   4.280
 8595TIP3    H125749   5.431   1.938   4.295
 8595TIP3    H225750   5.462   1.808   4.223
 8596TIP3   OH225751   3.445   5.486   1.885
 8596TIP3    H125752   3.529   5.470   1.842
 8596TIP3    H225753   3.457   5.452   1.974
 8597TIP3   OH225754   1.461   4.055   4.193
 8597TIP3    H125755   1.533   4.117   4.179
 8597TIP3    H225756   1.435   4.029   4.105
 8598TIP3   OH225757   2.932   2.088   4.999
 8598TIP3    H125758   2.925   2.113   4.907
 8598TIP3    H225759   2.870   2.016   5.009
 8599TIP3   OH225760   4.038   6.156   3.815
 8599TIP3    H125761   4.126   6.174   3.781
 8599TIP3    H225762   4.004   6.087   3.758
 8600TIP3   OH225763   6.096   6.404   1.357
 8600TIP3    H125764   6.091   6.443   1.445
 8600TIP3    H225765   6.170   6.343   1.362
 8601TIP3   OH225766   5.734   4.324   4.182
 8601TIP3    H125767   5.728   4.329   4.278
 8601TIP3    H225768   5.773   4.238   4.165
 8602TIP3   OH225769   3.644   6.427   2.678
 8602TIP3    H125770   3.634   6.384   2.593
 8602TIP3    H225771   3.726   6.390   2.713
 8603TIP3   OH225772   3.843   4.796   1.302
 8603TIP3    H125773   3.825   4.826   1.392
 8603TIP3    H225774   3.913   4.853   1.271
 8604TIP3   OH225775   6.285   6.175   0.129
 8604TIP3    H125776   6.277   6.081   0.142
 8604TIP3    H225777   6.240   6.213   0.205
 8605TIP3   OH225778   3.685   0.223   1.353
 8605TIP3    H125779   3.694   0.140   1.307
 8605TIP3    H225780   3.606   0.262   1.316
 8606TIP3   OH225781   2.814   5.066   3.396
 8606TIP3    H125782   2.909   5.077   3.389
 8606TIP3    H225783   2.798   5.060   3.490
 8607TIP3   OH225784   0.414   4.303   2.161
 8607TIP3    H125785   0.341   4.313   2.222
 8607TIP3    H225786   0.377   4.256   2.086
 8608TIP3   OH225787   1.842   5.425   4.251
 8608TIP3    H125788   1.752   5.452   4.269
 8608TIP3    H225789   1.893   5.464   4.321
 8609TIP3   OH225790   5.272   0.938   0.163
 8609TIP3    H125791   5.324   0.898   0.234
 8609TIP3    H225792   5.326   0.928   0.085
 8610TIP3   OH225793   3.920   0.332   0.900
 8610TIP3    H125794   3.868   0.376   0.967
 8610TIP3    H225795   3.891   0.372   0.818
 8611TIP3   OH225796   2.340   0.799   3.100
 8611TIP3    H125797   2.388   0.748   3.035
 8611TIP3    H225798   2.263   0.831   3.054
 8612TIP3   OH225799   4.049   2.271   1.261
 8612TIP3    H125800   4.016   2.190   1.222
 8612TIP3    H225801   3.992   2.339   1.225
 8613TIP3   OH225802   6.498   6.181   0.417
 8613TIP3    H125803   6.404   6.188   0.433
 8613TIP3    H225804   6.538   6.230   0.489
 8614TIP3   OH225805   4.047   1.796   5.706
 8614TIP3    H125806   4.048   1.884   5.743
 8614TIP3    H225807   4.097   1.804   5.625
 8615TIP3   OH225808   6.906   2.034   5.828
 8615TIP3    H125809   6.970   2.053   5.760
 8615TIP3    H225810   6.945   2.065   5.909
 8616TIP3   OH225811   6.333   3.954   4.501
 8616TIP3    H125812   6.347   3.957   4.406
 8616TIP3    H225813   6.422   3.954   4.537
 8617TIP3   OH225814   6.470   6.179   2.151
 8617TIP3    H125815   6.471   6.113   2.082
 8617TIP3    H225816   6.392   6.232   2.132
 8618TIP3   OH225817   6.524   6.305   0.699
 8618TIP3    H125818   6.492   6.369   0.763
 8618TIP3    H225819   6.604   6.271   0.739
 8619TIP3   OH225820   4.109   2.904   1.681
 8619TIP3    H125821   4.132   2.824   1.728
 8619TIP3    H225822   4.192   2.943   1.657
 8620TIP3   OH225823   4.462   3.674   4.272
 8620TIP3    H125824   4.540   3.715   4.310
 8620TIP3    H225825   4.389   3.706   4.325
 8621TIP3   OH225826   2.372   5.307   4.707
 8621TIP3    H125827   2.457   5.284   4.744
 8621TIP3    H225828   2.311   5.305   4.781
 8622TIP3   OH225829   6.241   4.637   0.742
 8622TIP3    H125830   6.335   4.645   0.723
 8622TIP3    H225831   6.225   4.543   0.749
 8623TIP3   OH225832   6.504   2.411   5.314
 8623TIP3    H125833   6.524   2.331   5.265
 8623TIP3    H225834   6.551   2.401   5.396
 8624TIP3   OH225835   2.619   2.174   3.027
 8624TIP3    H125836   2.608   2.251   3.083
 8624TIP3    H225837   2.575   2.198   2.945
 8625TIP3   OH225838   5.010   2.990   5.433
 8625TIP3    H125839   5.092   2.961   5.472
 8625TIP3    H225840   4.951   3.003   5.508
 8626TIP3   OH225841   4.576   4.121   0.598
 8626TIP3    H125842   4.495   4.171   0.597
 8626TIP3    H225843   4.645   4.187   0.600
 8627TIP3   OH225844   5.584   4.179   3.606
 8627TIP3    H125845   5.599   4.089   3.635
 8627TIP3    H225846   5.500   4.203   3.644
 8628TIP3   OH225847   2.883   5.966   0.285
 8628TIP3    H125848   2.932   6.048   0.275
 8628TIP3    H225849   2.793   5.988   0.261
 8629TIP3   OH225850   5.802   3.121   2.971
 8629TIP3    H125851   5.789   3.136   2.878
 8629TIP3    H225852   5.769   3.033   2.987
 8630TIP3   OH225853   2.757   4.034   4.461
 8630TIP3    H125854   2.770   3.952   4.414
 8630TIP3    H225855   2.782   4.014   4.551
 8631TIP3   OH225856   3.146   2.104   3.214
 8631TIP3    H125857   3.146   2.026   3.271
 8631TIP3    H225858   3.187   2.172   3.267
 8632TIP3   OH225859   1.871   1.006   5.175
 8632TIP3    H125860   1.871   1.042   5.086
 8632TIP3    H225861   1.942   0.941   5.174
 8633TIP3   OH225862   6.297   2.284   2.882
 8633TIP3    H125863   6.219   2.307   2.933
 8633TIP3    H225864   6.360   2.253   2.946
 8634TIP3   OH225865   4.461   4.278   3.354
 8634TIP3    H125866   4.462   4.200   3.298
 8634TIP3    H225867   4.547   4.278   3.396
 8635TIP3   OH225868   5.318   4.181   0.942
 8635TIP3    H125869   5.336   4.155   1.032
 8635TIP3    H225870   5.403   4.213   0.909
 8636TIP3   OH225871   5.852   4.498   3.271
 8636TIP3    H125872   5.863   4.412   3.312
 8636TIP3    H225873   5.922   4.502   3.206
 8637TIP3   OH225874   3.928   5.366   4.798
 8637TIP3    H125875   3.997   5.302   4.782
 8637TIP3    H225876   3.943   5.396   4.888
 8638TIP3   OH225877   0.745   2.458   4.078
 8638TIP3    H125878   0.694   2.538   4.070
 8638TIP3    H225879   0.714   2.417   4.159
 8639TIP3   OH225880   2.549   6.273   4.004
 8639TIP3    H125881   2.521   6.363   4.018
 8639TIP3    H225882   2.589   6.273   3.917
 8640TIP3   OH225883   3.700   1.917   1.912
 8640TIP3    H125884   3.742   1.939   1.829
 8640TIP3    H225885   3.773   1.899   1.971
 8641TIP3   OH225886   2.913   2.722   2.699
 8641TIP3    H125887   2.945   2.738   2.787
 8641TIP3    H225888   2.893   2.809   2.664
 8642TIP3   OH225889   6.580   4.735   2.771
 8642TIP3    H125890   6.663   4.782   2.779
 8642TIP3    H225891   6.524   4.794   2.722
 8643TIP3   OH225892   1.262   6.562   2.091
 8643TIP3    H125893   1.225   6.630   2.034
 8643TIP3    H225894   1.306   6.502   2.030
 8644TIP3   OH225895   2.954   0.102   1.460
 8644TIP3    H125896   2.868   0.066   1.481
 8644TIP3    H225897   3.015   0.033   1.485
 8645TIP3   OH225898   5.331   0.115   0.630
 8645TIP3    H125899   5.286   0.167   0.697
 8645TIP3    H225900   5.273   0.040   0.615
 8646TIP3   OH225901   3.796   6.077   5.995
 8646TIP3    H125902   3.883   6.036   5.995
 8646TIP3    H225903   3.744   6.022   5.936
 8647TIP3   OH225904   5.874   1.923   1.063
 8647TIP3    H125905   5.890   1.829   1.074
 8647TIP3    H225906   5.933   1.950   0.993
 8648TIP3   OH225907   3.310   5.570   5.308
 8648TIP3    H125908   3.359   5.489   5.291
 8648TIP3    H225909   3.220   5.542   5.319
 8649TIP3   OH225910   0.982   6.188   4.500
 8649TIP3    H125911   0.924   6.112   4.508
 8649TIP3    H225912   1.029   6.190   4.583
 8650TIP3   OH225913   3.034   2.262   3.916
 8650TIP3    H125914   2.956   2.217   3.948
 8650TIP3    H225915   3.102   2.242   3.980
 8651TIP3   OH225916   0.849   2.899   0.407
 8651TIP3    H125917   0.799   2.980   0.399
 8651TIP3    H225918   0.932   2.916   0.363
 8652TIP3   OH225919   0.032   3.697   3.368
 8652TIP3    H125920   0.106   3.754   3.347
 8652TIP3    H225921  -0.004   3.734   3.449
 8653TIP3   OH225922   0.622   6.262   2.904
 8653TIP3    H125923   0.647   6.355   2.906
 8653TIP3    H225924   0.612   6.242   2.811
 8654TIP3   OH225925   4.456   2.111   1.368
 8654TIP3    H125926   4.394   2.076   1.305
 8654TIP3    H225927   4.499   2.034   1.406
 8655TIP3   OH225928   6.263   2.327   4.293
 8655TIP3    H125929   6.298   2.252   4.246
 8655TIP3    H225930   6.337   2.387   4.302
 8656TIP3   OH225931   0.365   0.437   3.876
 8656TIP3    H125932   0.350   0.471   3.964
 8656TIP3    H225933   0.278   0.435   3.836
 8657TIP3   OH225934   7.146   0.163   0.137
 8657TIP3    H125935   7.231   0.123   0.151
 8657TIP3    H225936   7.094   0.139   0.214
 8658TIP3   OH225937   1.102   1.999   4.249
 8658TIP3    H125938   1.119   2.053   4.325
 8658TIP3    H225939   1.188   1.974   4.217
 8659TIP3   OH225940   1.046   1.611   1.014
 8659TIP3    H125941   1.049   1.582   1.105
 8659TIP3    H225942   0.953   1.606   0.991
 8660TIP3   OH225943   7.243   2.762   4.117
 8660TIP3    H125944   7.224   2.846   4.158
 8660TIP3    H225945   7.157   2.720   4.108
 8661TIP3   OH225946   5.428   0.952   1.368
 8661TIP3    H125947   5.502   0.903   1.403
 8661TIP3    H225948   5.432   1.037   1.411
 8662TIP3   OH225949   2.384   0.296   4.886
 8662TIP3    H125950   2.320   0.318   4.954
 8662TIP3    H225951   2.406   0.380   4.845
 8663TIP3   OH225952   1.416   0.875   0.332
 8663TIP3    H125953   1.487   0.833   0.283
 8663TIP3    H225954   1.405   0.960   0.290
 8664TIP3   OH225955   6.155   5.838   1.309
 8664TIP3    H125956   6.202   5.903   1.360
 8664TIP3    H225957   6.069   5.876   1.295
 8665TIP3   OH225958   2.093   4.872   3.108
 8665TIP3    H125959   2.179   4.914   3.107
 8665TIP3    H225960   2.031   4.945   3.113
 8666TIP3   OH225961   4.887   2.946   5.201
 8666TIP3    H125962   4.795   2.924   5.218
 8666TIP3    H225963   4.929   2.940   5.287
 8667TIP3   OH225964   4.336   3.232   2.878
 8667TIP3    H125965   4.396   3.259   2.809
 8667TIP3    H225966   4.391   3.227   2.957
 8668TIP3   OH225967   0.745   1.362   3.486
 8668TIP3    H125968   0.720   1.428   3.552
 8668TIP3    H225969   0.817   1.403   3.438
 8669TIP3   OH225970   2.033   3.465   1.066
 8669TIP3    H125971   2.119   3.428   1.042
 8669TIP3    H225972   1.978   3.449   0.989
 8670TIP3   OH225973   6.454   2.871   2.951
 8670TIP3    H125974   6.480   2.778   2.947
 8670TIP3    H225975   6.396   2.876   3.027
 8671TIP3   OH225976   5.430   3.669   1.680
 8671TIP3    H125977   5.459   3.648   1.769
 8671TIP3    H225978   5.335   3.677   1.687
 8672TIP3   OH225979   0.911   2.511   3.194
 8672TIP3    H125980   0.965   2.582   3.158
 8672TIP3    H225981   0.838   2.556   3.236
 8673TIP3   OH225982   6.277   5.523   3.191
 8673TIP3    H125983   6.250   5.545   3.102
 8673TIP3    H225984   6.370   5.501   3.183
 8674TIP3   OH225985   5.875   1.245   1.864
 8674TIP3    H125986   5.918   1.213   1.785
 8674TIP3    H225987   5.844   1.332   1.841
 8675TIP3   OH225988   2.985   1.552   5.743
 8675TIP3    H125989   2.994   1.634   5.791
 8675TIP3    H225990   2.920   1.501   5.792
 8676TIP3   OH225991   2.970   4.501   3.285
 8676TIP3    H125992   2.939   4.556   3.213
 8676TIP3    H225993   2.985   4.561   3.358
 8677TIP3   OH225994   7.072   2.193   2.759
 8677TIP3    H125995   7.058   2.235   2.675
 8677TIP3    H225996   7.064   2.264   2.823
 8678TIP3   OH225997   6.542   1.200   2.269
 8678TIP3    H125998   6.551   1.270   2.204
 8678TIP3    H225999   6.622   1.148   2.259
 8679TIP3   OH226000   2.395   5.211   1.945
 8679TIP3    H126001   2.414   5.302   1.922
 8679TIP3    H226002   2.425   5.202   2.036
 8680TIP3   OH226003   6.382   1.878   4.470
 8680TIP3    H126004   6.414   1.965   4.494
 8680TIP3    H226005   6.435   1.818   4.522
 8681TIP3   OH226006   6.314   0.484   2.974
 8681TIP3    H126007   6.406   0.505   2.958
 8681TIP3    H226008   6.316   0.420   3.046
 8682TIP3   OH226009   5.065   3.475   2.878
 8682TIP3    H126010   5.045   3.453   2.787
 8682TIP3    H226011   5.137   3.537   2.872
 8683TIP3   OH226012   2.018   4.309   1.580
 8683TIP3    H126013   2.073   4.373   1.625
 8683TIP3    H226014   2.031   4.328   1.487
 8684TIP3   OH226015   6.281   1.000   2.096
 8684TIP3    H126016   6.339   0.924   2.103
 8684TIP3    H226017   6.193   0.963   2.096
 8685TIP3   OH226018   2.292   4.976   5.474
 8685TIP3    H126019   2.215   5.033   5.473
 8685TIP3    H226020   2.264   4.898   5.426
 8686TIP3   OH226021   6.121   0.752   2.331
 8686TIP3    H126022   6.028   0.763   2.309
 8686TIP3    H226023   6.163   0.732   2.247
 8687TIP3   OH226024   3.774   3.756   4.680
 8687TIP3    H126025   3.823   3.742   4.760
 8687TIP3    H226026   3.688   3.785   4.709
 8688TIP3   OH226027   3.332   0.669   1.396
 8688TIP3    H126028   3.309   0.732   1.328
 8688TIP3    H226029   3.371   0.595   1.348
 8689TIP3   OH226030   4.400   4.410   3.025
 8689TIP3    H126031   4.370   4.446   3.109
 8689TIP3    H226032   4.328   4.427   2.965
 8690TIP3   OH226033   3.328   5.504   0.872
 8690TIP3    H126034   3.403   5.523   0.928
 8690TIP3    H226035   3.302   5.415   0.896
 8691TIP3   OH226036   3.627   2.917   1.328
 8691TIP3    H126037   3.631   2.864   1.248
 8691TIP3    H226038   3.537   2.951   1.330
 8692TIP3   OH226039   3.230   4.816   3.318
 8692TIP3    H126040   3.219   4.794   3.225
 8692TIP3    H226041   3.210   4.909   3.323
 8693TIP3   OH226042   0.658   5.229   2.007
 8693TIP3    H126043   0.751   5.240   2.026
 8693TIP3    H226044   0.630   5.157   2.064
 8694TIP3   OH226045   5.830   3.890   4.659
 8694TIP3    H126046   5.800   3.816   4.606
 8694TIP3    H226047   5.870   3.949   4.596
 8695TIP3   OH226048   3.701   0.597   0.181
 8695TIP3    H126049   3.614   0.562   0.162
 8695TIP3    H226050   3.717   0.660   0.111
 8696TIP3   OH226051   2.042   5.949   4.328
 8696TIP3    H126052   2.075   5.867   4.290
 8696TIP3    H226053   1.999   5.922   4.409
 8697TIP3   OH226054   6.827   5.476   2.363
 8697TIP3    H126055   6.882   5.501   2.437
 8697TIP3    H226056   6.852   5.537   2.293
 8698TIP3   OH226057   2.913   2.077   1.609
 8698TIP3    H126058   2.910   1.981   1.600
 8698TIP3    H226059   2.828   2.106   1.575
 8699TIP3   OH226060   6.840   5.795   0.284
 8699TIP3    H126061   6.769   5.736   0.312
 8699TIP3    H226062   6.803   5.842   0.209
 8700TIP3   OH226063   5.641   4.984   3.812
 8700TIP3    H126064   5.563   5.035   3.835
 8700TIP3    H226065   5.665   5.014   3.724
 8701TIP3   OH226066   0.313   5.852   5.579
 8701TIP3    H126067   0.404   5.880   5.582
 8701TIP3    H226068   0.316   5.762   5.549
 8702TIP3   OH226069   6.754   3.849   4.373
 8702TIP3    H126070   6.681   3.800   4.335
 8702TIP3    H226071   6.735   3.940   4.350
 8703TIP3   OH226072   4.982   6.672   5.014
 8703TIP3    H126073   4.945   6.584   5.004
 8703TIP3    H226074   4.907   6.731   5.006
 8704TIP3   OH226075   0.441   1.859   3.920
 8704TIP3    H126076   0.406   1.940   3.883
 8704TIP3    H226077   0.521   1.887   3.965
 8705TIP3   OH226078   3.119   4.872   2.517
 8705TIP3    H126079   3.077   4.957   2.503
 8705TIP3    H226080   3.090   4.817   2.444
 8706TIP3   OH226081   6.290   0.865   5.333
 8706TIP3    H126082   6.236   0.842   5.257
 8706TIP3    H226083   6.368   0.906   5.295
 8707TIP3   OH226084   3.149   0.023   1.723
 8707TIP3    H126085   3.202   0.026   1.643
 8707TIP3    H226086   3.180   0.097   1.775
 8708TIP3   OH226087   2.325   4.536   1.989
 8708TIP3    H126088   2.365   4.597   1.928
 8708TIP3    H226089   2.398   4.498   2.038
 8709TIP3   OH226090   1.272   3.385   1.114
 8709TIP3    H126091   1.258   3.479   1.124
 8709TIP3    H226092   1.187   3.346   1.134
 8710TIP3   OH226093   1.344   3.012   4.371
 8710TIP3    H126094   1.321   3.009   4.278
 8710TIP3    H226095   1.419   2.954   4.379
 8711TIP3   OH226096   1.391   3.247   2.345
 8711TIP3    H126097   1.402   3.299   2.265
 8711TIP3    H226098   1.351   3.308   2.407
 8712TIP3   OH226099   2.220   3.232   4.443
 8712TIP3    H126100   2.152   3.171   4.412
 8712TIP3    H226101   2.299   3.179   4.447
 8713TIP3   OH226102   3.248   1.650   0.731
 8713TIP3    H126103   3.263   1.738   0.695
 8713TIP3    H226104   3.302   1.647   0.810
 8714TIP3   OH226105  -0.003   0.846   2.220
 8714TIP3    H126106   0.017   0.891   2.303
 8714TIP3    H226107  -0.024   0.757   2.246
 8715TIP3   OH226108   0.566   3.152   4.671
 8715TIP3    H126109   0.512   3.196   4.736
 8715TIP3    H226110   0.586   3.221   4.606
 8716TIP3   OH226111   3.396   4.067   2.627
 8716TIP3    H126112   3.432   4.096   2.711
 8716TIP3    H226113   3.452   3.995   2.600
 8717TIP3   OH226114   3.258   4.776   0.352
 8717TIP3    H126115   3.312   4.805   0.425
 8717TIP3    H226116   3.308   4.706   0.310
 8718TIP3   OH226117   7.112   0.062   1.572
 8718TIP3    H126118   7.136   0.135   1.628
 8718TIP3    H226119   7.037   0.022   1.616
 8719TIP3   OH226120   6.056   2.132   2.037
 8719TIP3    H126121   6.008   2.156   1.958
 8719TIP3    H226122   6.135   2.186   2.034
 8720TIP3   OH226123   3.690   5.315   3.011
 8720TIP3    H126124   3.736   5.348   2.934
 8720TIP3    H226125   3.736   5.356   3.085
 8721TIP3   OH226126   5.267   5.779   1.283
 8721TIP3    H126127   5.244   5.819   1.367
 8721TIP3    H226128   5.195   5.804   1.224
 8722TIP3   OH226129   6.198   0.269   0.268
 8722TIP3    H126130   6.291   0.284   0.255
 8722TIP3    H226131   6.176   0.199   0.206
 8723TIP3   OH226132   1.615   1.702   1.850
 8723TIP3    H126133   1.548   1.664   1.907
 8723TIP3    H226134   1.675   1.630   1.831
 8724TIP3   OH226135   2.832   2.643   0.993
 8724TIP3    H126136   2.900   2.581   1.017
 8724TIP3    H226137   2.836   2.649   0.898
 8725TIP3   OH226138   5.878   4.392   1.299
 8725TIP3    H126139   5.914   4.336   1.231
 8725TIP3    H226140   5.954   4.428   1.344
 8726TIP3   OH226141   0.041   1.811   2.412
 8726TIP3    H126142   0.048   1.736   2.352
 8726TIP3    H226143  -0.051   1.812   2.438
 8727TIP3   OH226144   1.379   4.633   2.377
 8727TIP3    H126145   1.464   4.629   2.334
 8727TIP3    H226146   1.325   4.571   2.327
 8728TIP3   OH226147   4.032   2.067   0.480
 8728TIP3    H126148   4.052   1.976   0.499
 8728TIP3    H226149   4.117   2.111   0.482
 8729TIP3   OH226150   1.164   4.454   5.064
 8729TIP3    H126151   1.132   4.520   5.125
 8729TIP3    H226152   1.217   4.395   5.117
 8730TIP3   OH226153   0.596   3.539   1.191
 8730TIP3    H126154   0.663   3.475   1.168
 8730TIP3    H226155   0.602   3.606   1.122
 8731TIP3   OH226156   4.326   6.025   4.332
 8731TIP3    H126157   4.342   6.023   4.426
 8731TIP3    H226158   4.378   6.099   4.300
 8732TIP3   OH226159   6.568   0.419   1.012
 8732TIP3    H126160   6.475   0.440   1.001
 8732TIP3    H226161   6.568   0.334   1.056
 8733TIP3   OH226162   2.119   4.303   4.308
 8733TIP3    H126163   2.076   4.382   4.339
 8733TIP3    H226164   2.120   4.313   4.212
 8734TIP3   OH226165   4.033   4.155   5.368
 8734TIP3    H126166   3.980   4.099   5.425
 8734TIP3    H226167   4.069   4.096   5.302
 8735TIP3   OH226168   2.858   6.799   5.058
 8735TIP3    H126169   2.837   6.793   4.965
 8735TIP3    H226170   2.793   6.742   5.100
 8736TIP3   OH226171   2.082   6.073   5.457
 8736TIP3    H126172   2.084   5.978   5.461
 8736TIP3    H226173   2.054   6.093   5.367
 8737TIP3   OH226174   1.897   6.175   4.456
 8737TIP3    H126175   1.944   6.109   4.405
 8737TIP3    H226176   1.878   6.131   4.539
 8738TIP3   OH226177   5.278   0.729   1.845
 8738TIP3    H126178   5.333   0.668   1.895
 8738TIP3    H226179   5.338   0.771   1.784
 8739TIP3   OH226180  -0.025   4.659   0.509
 8739TIP3    H126181   0.017   4.690   0.590
 8739TIP3    H226182   0.028   4.697   0.439
 8740TIP3   OH226183   4.620   4.568   4.209
 8740TIP3    H126184   4.604   4.662   4.218
 8740TIP3    H226185   4.534   4.528   4.220
 8741TIP3   OH226186   6.311   6.451   4.589
 8741TIP3    H126187   6.234   6.502   4.615
 8741TIP3    H226188   6.375   6.467   4.658
 8742TIP3   OH226189   7.223   0.085   3.497
 8742TIP3    H126190   7.211   0.002   3.452
 8742TIP3    H226191   7.315   0.084   3.525
 8743TIP3   OH226192   4.646   4.859   0.545
 8743TIP3    H126193   4.614   4.922   0.610
 8743TIP3    H226194   4.673   4.913   0.470
 8744TIP3   OH226195   3.861   6.153   4.037
 8744TIP3    H126196   3.916   6.152   4.116
 8744TIP3    H226197   3.921   6.170   3.965
 8745TIP3   OH226198   2.203   1.336   1.338
 8745TIP3    H126199   2.249   1.417   1.316
 8745TIP3    H226200   2.261   1.266   1.309
 8746TIP3   OH226201   4.698   2.047   2.525
 8746TIP3    H126202   4.762   1.981   2.550
 8746TIP3    H226203   4.662   2.015   2.442
 8747TIP3   OH226204   0.190   6.118   1.432
 8747TIP3    H126205   0.164   6.089   1.345
 8747TIP3    H226206   0.255   6.187   1.417
 8748TIP3   OH226207   3.995   2.572   4.574
 8748TIP3    H126208   4.048   2.559   4.496
 8748TIP3    H226209   3.942   2.650   4.555
 8749TIP3   OH226210   3.969   6.640   1.116
 8749TIP3    H126211   3.989   6.649   1.023
 8749TIP3    H226212   3.922   6.720   1.138
 8750TIP3   OH226213   5.708   4.368   4.464
 8750TIP3    H126214   5.624   4.383   4.507
 8750TIP3    H226215   5.770   4.422   4.514
 8751TIP3   OH226216   4.772   2.413   4.761
 8751TIP3    H126217   4.700   2.472   4.741
 8751TIP3    H226218   4.730   2.328   4.777
 8752TIP3   OH226219   6.910   0.997   1.614
 8752TIP3    H126220   6.897   1.090   1.632
 8752TIP3    H226221   6.827   0.955   1.637
 8753TIP3   OH226222   3.569   2.964   2.067
 8753TIP3    H126223   3.579   2.869   2.065
 8753TIP3    H226224   3.570   2.991   1.976
 8754TIP3   OH226225   6.637   6.109   5.573
 8754TIP3    H126226   6.659   6.177   5.509
 8754TIP3    H226227   6.719   6.093   5.620
 8755TIP3   OH226228   3.305   6.417   0.320
 8755TIP3    H126229   3.376   6.473   0.350
 8755TIP3    H226230   3.232   6.437   0.379
 8756TIP3   OH226231   6.927   0.887   5.336
 8756TIP3    H126232   6.936   0.975   5.375
 8756TIP3    H226233   6.977   0.892   5.255
 8757TIP3   OH226234   1.470   1.615   0.556
 8757TIP3    H126235   1.434   1.689   0.506
 8757TIP3    H226236   1.480   1.546   0.491
 8758TIP3   OH226237   1.152   0.448   4.704
 8758TIP3    H126238   1.170   0.485   4.618
 8758TIP3    H226239   1.235   0.410   4.733
 8759TIP3   OH226240   1.653   3.805   4.354
 8759TIP3    H126241   1.585   3.823   4.289
 8759TIP3    H226242   1.717   3.750   4.308
 8760TIP3   OH226243   6.955   4.978   1.150
 8760TIP3    H126244   6.923   5.066   1.170
 8760TIP3    H226245   6.918   4.923   1.218
 8761TIP3   OH226246   0.873   0.528   1.011
 8761TIP3    H126247   0.940   0.579   1.055
 8761TIP3    H226248   0.863   0.570   0.925
 8762TIP3   OH226249   4.312   3.126   1.297
 8762TIP3    H126250   4.256   3.099   1.371
 8762TIP3    H226251   4.266   3.095   1.220
 8763TIP3   OH226252   0.848   0.011   2.610
 8763TIP3    H126253   0.829  -0.081   2.625
 8763TIP3    H226254   0.781   0.040   2.548
 8764TIP3   OH226255   6.455   3.808   0.425
 8764TIP3    H126256   6.541   3.846   0.409
 8764TIP3    H226257   6.473   3.722   0.465
 8765TIP3   OH226258   6.018   3.670   2.060
 8765TIP3    H126259   6.034   3.745   2.004
 8765TIP3    H226260   6.014   3.595   2.001
 8766TIP3   OH226261   0.661   0.417   0.089
 8766TIP3    H126262   0.594   0.466   0.137
 8766TIP3    H226263   0.614   0.341   0.054
 8767TIP3   OH226264   4.487   4.650   2.753
 8767TIP3    H126265   4.402   4.606   2.745
 8767TIP3    H226266   4.465   4.743   2.759
 8768TIP3   OH226267   5.563   2.426   2.790
 8768TIP3    H126268   5.527   2.350   2.746
 8768TIP3    H226269   5.618   2.468   2.724
 8769TIP3   OH226270   4.364   6.041   2.849
 8769TIP3    H126271   4.339   6.130   2.871
 8769TIP3    H226272   4.458   6.046   2.831
 8770TIP3   OH226273   2.134   5.605   1.247
 8770TIP3    H126274   2.122   5.666   1.321
 8770TIP3    H226275   2.105   5.521   1.281
 8771TIP3   OH226276   5.288   2.974   3.198
 8771TIP3    H126277   5.272   2.902   3.258
 8771TIP3    H226278   5.307   2.932   3.114
 8772TIP3   OH226279   4.221   5.334   4.369
 8772TIP3    H126280   4.167   5.281   4.310
 8772TIP3    H226281   4.304   5.287   4.375
 8773TIP3   OH226282   6.315   6.292   3.687
 8773TIP3    H126283   6.226   6.292   3.723
 8773TIP3    H226284   6.339   6.200   3.681
 8774TIP3   OH226285   6.257   4.203   2.915
 8774TIP3    H126286   6.170   4.243   2.926
 8774TIP3    H226287   6.265   4.191   2.820
 8775TIP3   OH226288   4.975   2.530   4.623
 8775TIP3    H126289   4.990   2.451   4.571
 8775TIP3    H226290   4.907   2.504   4.685
 8776TIP3   OH226291   1.456   6.474   4.735
 8776TIP3    H126292   1.462   6.379   4.745
 8776TIP3    H226293   1.546   6.503   4.722
 8777TIP3   OH226294   4.251   3.136   4.333
 8777TIP3    H126295   4.312   3.085   4.385
 8777TIP3    H226296   4.209   3.196   4.395
 8778TIP3   OH226297   5.223   4.185   3.411
 8778TIP3    H126298   5.293   4.249   3.423
 8778TIP3    H226299   5.268   4.101   3.407
 8779TIP3   OH226300   2.134   0.605   2.557
 8779TIP3    H126301   2.053   0.609   2.606
 8779TIP3    H226302   2.193   0.552   2.611
 8780TIP3   OH226303   1.418   6.054   2.703
 8780TIP3    H126304   1.390   5.967   2.675
 8780TIP3    H226305   1.393   6.112   2.630
 8781TIP3   OH226306   6.987   2.264   3.803
 8781TIP3    H126307   7.045   2.252   3.879
 8781TIP3    H226308   6.998   2.183   3.753
 8782TIP3   OH226309   4.241   5.373   4.006
 8782TIP3    H126310   4.280   5.437   4.066
 8782TIP3    H226311   4.230   5.422   3.924
 8783TIP3   OH226312   4.412   6.546   0.766
 8783TIP3    H126313   4.393   6.469   0.712
 8783TIP3    H226314   4.441   6.510   0.850
 8784TIP3   OH226315   3.246   4.265   4.301
 8784TIP3    H126316   3.323   4.218   4.270
 8784TIP3    H226317   3.208   4.304   4.222
 8785TIP3   OH226318   5.217   3.555   2.277
 8785TIP3    H126319   5.186   3.608   2.350
 8785TIP3    H226320   5.275   3.491   2.317
 8786TIP3   OH226321   1.599   3.045   3.996
 8786TIP3    H126322   1.537   2.988   4.042
 8786TIP3    H226323   1.682   3.035   4.044
 8787TIP3   OH226324   6.114   4.293   1.970
 8787TIP3    H126325   6.037   4.250   2.006
 8787TIP3    H226326   6.142   4.353   2.040
 8788TIP3   OH226327   3.271   6.257   3.730
 8788TIP3    H126328   3.315   6.177   3.700
 8788TIP3    H226329   3.316   6.280   3.812
 8789TIP3   OH226330   2.530   0.250   2.920
 8789TIP3    H126331   2.552   0.343   2.926
 8789TIP3    H226332   2.589   0.215   2.853
 8790TIP3   OH226333   6.748   3.365   4.197
 8790TIP3    H126334   6.837   3.391   4.220
 8790TIP3    H226335   6.736   3.280   4.238
 8791TIP3   OH226336   6.099   4.948   5.194
 8791TIP3    H126337   6.057   4.891   5.130
 8791TIP3    H226338   6.057   5.033   5.182
 8792TIP3   OH226339   5.052   4.106   4.408
 8792TIP3    H126340   4.971   4.128   4.360
 8792TIP3    H226341   5.108   4.064   4.343
 8793TIP3   OH226342   3.514   0.399   4.885
 8793TIP3    H126343   3.533   0.421   4.976
 8793TIP3    H226344   3.488   0.307   4.887
 8794TIP3   OH226345   0.971   2.435   0.641
 8794TIP3    H126346   1.037   2.473   0.698
 8794TIP3    H226347   0.901   2.500   0.637
 8795TIP3   OH226348   5.463   4.954   1.936
 8795TIP3    H126349   5.501   4.911   2.012
 8795TIP3    H226350   5.522   4.933   1.864
 8796TIP3   OH226351   1.986   3.524   5.052
 8796TIP3    H126352   1.989   3.432   5.023
 8796TIP3    H226353   1.894   3.547   5.050
 8797TIP3   OH226354   2.089   6.619   2.087
 8797TIP3    H126355   2.139   6.679   2.142
 8797TIP3    H226356   2.033   6.570   2.147
 8798TIP3   OH226357   6.608   0.249   3.188
 8798TIP3    H126358   6.699   0.229   3.213
 8798TIP3    H226359   6.579   0.172   3.139
 8799TIP3   OH226360   2.881   4.974   1.247
 8799TIP3    H126361   2.851   4.883   1.240
 8799TIP3    H226362   2.802   5.027   1.241
 8800TIP3   OH226363   5.258   2.477   3.359
 8800TIP3    H126364   5.202   2.404   3.332
 8800TIP3    H226365   5.331   2.436   3.405
 8801TIP3   OH226366   6.192   6.760   3.176
 8801TIP3    H126367   6.267   6.701   3.172
 8801TIP3    H226368   6.228   6.846   3.156
 8802TIP3   OH226369   4.079   6.751   1.540
 8802TIP3    H126370   4.016   6.699   1.590
 8802TIP3    H226371   4.027   6.789   1.469
 8803TIP3   OH226372   1.101   6.191   3.274
 8803TIP3    H126373   1.197   6.196   3.276
 8803TIP3    H226374   1.078   6.138   3.350
 8804TIP3   OH226375   0.512   5.728   4.437
 8804TIP3    H126376   0.603   5.707   4.420
 8804TIP3    H226377   0.493   5.802   4.379
 8805TIP3   OH226378   1.611   4.462   3.002
 8805TIP3    H126379   1.529   4.495   3.038
 8805TIP3    H226380   1.616   4.371   3.033
 8806TIP3   OH226381   4.522   3.012   3.568
 8806TIP3    H126382   4.485   3.098   3.550
 8806TIP3    H226383   4.554   3.018   3.658
 8807TIP3   OH226384   2.274   0.533   2.337
 8807TIP3    H126385   2.224   0.565   2.412
 8807TIP3    H226386   2.361   0.571   2.348
 8808TIP3   OH226387   2.380   3.261   3.370
 8808TIP3    H126388   2.430   3.311   3.305
 8808TIP3    H226389   2.445   3.208   3.415
 8809TIP3   OH226390   6.639   3.547   4.030
 8809TIP3    H126391   6.720   3.590   4.003
 8809TIP3    H226392   6.665   3.460   4.057
 8810TIP3   OH226393   3.605   1.692   0.765
 8810TIP3    H126394   3.588   1.600   0.742
 8810TIP3    H226395   3.664   1.723   0.695
 8811TIP3   OH226396   0.592   5.042   4.428
 8811TIP3    H126397   0.673   5.092   4.416
 8811TIP3    H226398   0.531   5.104   4.466
 8812TIP3   OH226399   7.134   6.683   2.309
 8812TIP3    H126400   7.045   6.682   2.344
 8812TIP3    H226401   7.181   6.745   2.365
 8813TIP3   OH226402   2.039   0.901   4.697
 8813TIP3    H126403   2.104   0.912   4.767
 8813TIP3    H226404   2.075   0.833   4.641
 8814TIP3   OH226405   3.109   1.039   4.982
 8814TIP3    H126406   3.178   0.973   4.974
 8814TIP3    H226407   3.134   1.090   5.059
 8815TIP3   OH226408   5.221   5.516   3.436
 8815TIP3    H126409   5.154   5.469   3.487
 8815TIP3    H226410   5.304   5.481   3.468
 8816TIP3   OH226411   0.131   4.345   2.321
 8816TIP3    H126412   0.044   4.307   2.326
 8816TIP3    H226413   0.116   4.438   2.304
 8817TIP3   OH226414   1.861   6.856   2.482
 8817TIP3    H126415   1.889   6.832   2.570
 8817TIP3    H226416   1.786   6.914   2.495
 8818TIP3   OH226417   2.785   4.838   0.212
 8818TIP3    H126418   2.764   4.817   0.303
 8818TIP3    H226419   2.869   4.883   0.216
 8819TIP3   OH226420   5.856   6.381   5.620
 8819TIP3    H126421   5.819   6.295   5.600
 8819TIP3    H226422   5.923   6.395   5.554
 8820TIP3   OH226423   4.364   0.283   4.451
 8820TIP3    H126424   4.374   0.204   4.505
 8820TIP3    H226425   4.276   0.314   4.469
 8821TIP3   OH226426   4.707   3.102   4.836
 8821TIP3    H126427   4.781   3.113   4.895
 8821TIP3    H226428   4.659   3.027   4.871
 8822TIP3   OH226429   5.158   4.183   3.991
 8822TIP3    H126430   5.089   4.240   4.025
 8822TIP3    H226431   5.148   4.101   4.040
 8823TIP3   OH226432   6.029   1.913   3.180
 8823TIP3    H126433   6.106   1.937   3.129
 8823TIP3    H226434   6.025   1.817   3.173
 8824TIP3   OH226435   2.328   4.572   5.518
 8824TIP3    H126436   2.330   4.634   5.590
 8824TIP3    H226437   2.327   4.486   5.560
 8825TIP3   OH226438   2.048   1.529   3.603
 8825TIP3    H126439   2.003   1.499   3.524
 8825TIP3    H226440   2.073   1.620   3.584
 8826TIP3   OH226441   5.178   0.210   0.813
 8826TIP3    H126442   5.091   0.221   0.774
 8826TIP3    H226443   5.161   0.207   0.907
 8827TIP3   OH226444   4.637   2.846   0.700
 8827TIP3    H126445   4.721   2.834   0.744
 8827TIP3    H226446   4.571   2.829   0.767
 8828TIP3   OH226447   2.483   0.623   2.950
 8828TIP3    H126448   2.570   0.601   2.983
 8828TIP3    H226449   2.427   0.551   2.981
 8829TIP3   OH226450   3.245   3.276   1.987
 8829TIP3    H126451   3.334   3.310   1.978
 8829TIP3    H226452   3.210   3.277   1.898
 8830TIP3   OH226453   2.106   4.041   3.752
 8830TIP3    H126454   2.168   4.105   3.719
 8830TIP3    H226455   2.033   4.093   3.785
 8831TIP3   OH226456   2.298   5.397   3.976
 8831TIP3    H126457   2.286   5.470   4.036
 8831TIP3    H226458   2.292   5.319   4.031
 8832TIP3   OH226459   6.825   5.236   1.674
 8832TIP3    H126460   6.822   5.287   1.593
 8832TIP3    H226461   6.760   5.167   1.661
 8833TIP3   OH226462   5.898   3.307   1.369
 8833TIP3    H126463   5.980   3.308   1.419
 8833TIP3    H226464   5.856   3.224   1.392
 8834TIP3   OH226465   4.048   0.104   1.019
 8834TIP3    H126466   3.973   0.049   1.041
 8834TIP3    H226467   4.011   0.174   0.965
 8835TIP3   OH226468   4.504   3.195   0.785
 8835TIP3    H126469   4.530   3.131   0.719
 8835TIP3    H226470   4.408   3.195   0.782
 8836TIP3   OH226471   0.467   2.466   1.456
 8836TIP3    H126472   0.442   2.536   1.396
 8836TIP3    H226473   0.502   2.510   1.533
 8837TIP3   OH226474   6.445   1.537   5.299
 8837TIP3    H126475   6.383   1.545   5.372
 8837TIP3    H226476   6.482   1.624   5.289
 8838TIP3   OH226477   1.876   3.033   2.387
 8838TIP3    H126478   1.794   3.013   2.342
 8838TIP3    H226479   1.940   2.975   2.346
 8839TIP3   OH226480   4.361   3.160   5.692
 8839TIP3    H126481   4.389   3.168   5.601
 8839TIP3    H226482   4.370   3.249   5.727
 8840TIP3   OH226483   5.538   2.192   0.785
 8840TIP3    H126484   5.469   2.205   0.849
 8840TIP3    H226485   5.585   2.114   0.816
 8841TIP3   OH226486   1.090   5.048   1.526
 8841TIP3    H126487   1.000   5.015   1.520
 8841TIP3    H226488   1.090   5.126   1.470
 8842TIP3   OH226489   5.472   0.881   2.924
 8842TIP3    H126490   5.412   0.951   2.899
 8842TIP3    H226491   5.526   0.866   2.845
 8843TIP3   OH226492   2.355   3.122   3.857
 8843TIP3    H126493   2.374   3.184   3.927
 8843TIP3    H226494   2.400   3.042   3.882
 8844TIP3   OH226495   2.676   1.787   0.362
 8844TIP3    H126496   2.638   1.822   0.443
 8844TIP3    H226497   2.614   1.722   0.332
 8845TIP3   OH226498   1.052   4.499   4.034
 8845TIP3    H126499   1.066   4.423   4.090
 8845TIP3    H226500   1.035   4.463   3.947
 8846TIP3   OH226501   1.853   4.579   0.372
 8846TIP3    H126502   1.932   4.595   0.320
 8846TIP3    H226503   1.869   4.496   0.416
 8847TIP3   OH226504   4.945   6.574   2.856
 8847TIP3    H126505   4.972   6.593   2.766
 8847TIP3    H226506   5.007   6.508   2.886
 8848TIP3   OH226507   6.101   1.611   1.300
 8848TIP3    H126508   6.163   1.667   1.347
 8848TIP3    H226509   6.122   1.624   1.208
 8849TIP3   OH226510   5.098   5.987   0.659
 8849TIP3    H126511   5.192   5.968   0.661
 8849TIP3    H226512   5.082   6.018   0.570
 8850TIP3   OH226513   0.427   4.846   3.736
 8850TIP3    H126514   0.432   4.783   3.664
 8850TIP3    H226515   0.449   4.795   3.814
 8851TIP3   OH226516   4.024   4.979   1.965
 8851TIP3    H126517   4.038   4.906   1.905
 8851TIP3    H226518   3.951   5.028   1.927
 8852TIP3   OH226519   4.199   1.105   5.705
 8852TIP3    H126520   4.236   1.093   5.793
 8852TIP3    H226521   4.273   1.090   5.646
 8853TIP3   OH226522   4.015   2.416   0.501
 8853TIP3    H126523   4.093   2.389   0.453
 8853TIP3    H226524   4.039   2.500   0.541
 8854TIP3   OH226525   2.267   6.503   5.057
 8854TIP3    H126526   2.247   6.588   5.097
 8854TIP3    H226527   2.262   6.520   4.963
 8855TIP3   OH226528   4.842   3.604   4.633
 8855TIP3    H126529   4.875   3.694   4.639
 8855TIP3    H226530   4.865   3.576   4.544
 8856TIP3   OH226531   2.330   5.585   0.699
 8856TIP3    H126532   2.245   5.628   0.702
 8856TIP3    H226533   2.387   5.646   0.652
 8857TIP3   OH226534   6.594   6.521   2.627
 8857TIP3    H126535   6.553   6.571   2.556
 8857TIP3    H226536   6.571   6.430   2.608
 8858TIP3   OH226537   3.246   5.129   2.167
 8858TIP3    H126538   3.185   5.059   2.143
 8858TIP3    H226539   3.190   5.200   2.198
 8859TIP3   OH226540   2.473   6.784   1.847
 8859TIP3    H126541   2.542   6.718   1.844
 8859TIP3    H226542   2.393   6.734   1.868
 8860TIP3   OH226543   5.062   3.511   4.002
 8860TIP3    H126544   5.094   3.431   4.044
 8860TIP3    H226545   5.140   3.554   3.968
 8861TIP3   OH226546   2.297   5.114   4.011
 8861TIP3    H126547   2.253   5.132   4.094
 8861TIP3    H226548   2.390   5.119   4.033
 8862TIP3   OH226549   6.027   0.331   1.758
 8862TIP3    H126550   6.077   0.277   1.697
 8862TIP3    H226551   6.035   0.286   1.842
 8863TIP3   OH226552   4.248   1.087   2.311
 8863TIP3    H126553   4.333   1.068   2.352
 8863TIP3    H226554   4.209   1.000   2.297
 8864TIP3   OH226555   1.389   4.223   3.702
 8864TIP3    H126556   1.477   4.260   3.697
 8864TIP3    H226557   1.331   4.298   3.687
 8865TIP3   OH226558   4.617   5.895   1.256
 8865TIP3    H126559   4.708   5.886   1.229
 8865TIP3    H226560   4.569   5.836   1.198
 8866TIP3   OH226561   6.085   1.863   4.468
 8866TIP3    H126562   6.178   1.860   4.492
 8866TIP3    H226563   6.067   1.956   4.456
 8867TIP3   OH226564   5.683   0.539   4.731
 8867TIP3    H126565   5.618   0.490   4.680
 8867TIP3    H226566   5.637   0.619   4.757
 8868TIP3   OH226567   2.945   0.378   4.849
 8868TIP3    H126568   2.874   0.318   4.824
 8868TIP3    H226569   2.902   0.462   4.861
 8869TIP3   OH226570   6.686   3.062   2.410
 8869TIP3    H126571   6.712   3.091   2.323
 8869TIP3    H226572   6.743   3.110   2.470
 8870TIP3   OH226573   0.918   3.018   1.335
 8870TIP3    H126574   0.986   2.991   1.397
 8870TIP3    H226575   0.846   3.047   1.390
 8871TIP3   OH226576   5.460   0.902   1.711
 8871TIP3    H126577   5.439   0.993   1.733
 8871TIP3    H226578   5.556   0.898   1.716
 8872TIP3   OH226579   6.219   4.199   0.105
 8872TIP3    H126580   6.237   4.123   0.161
 8872TIP3    H226581   6.250   4.274   0.156
 8873TIP3   OH226582   5.612   1.877   5.811
 8873TIP3    H126583   5.643   1.818   5.743
 8873TIP3    H226584   5.575   1.951   5.763
 8874TIP3   OH226585   1.421   6.518   5.459
 8874TIP3    H126586   1.357   6.536   5.527
 8874TIP3    H226587   1.461   6.603   5.440
 8875TIP3   OH226588  -0.022   2.391   1.946
 8875TIP3    H126589  -0.096   2.397   2.006
 8875TIP3    H226590   0.055   2.400   2.002
 8876TIP3   OH226591   4.116   3.494   3.308
 8876TIP3    H126592   4.096   3.585   3.288
 8876TIP3    H226593   4.050   3.444   3.259
 8877TIP3   OH226594   3.297   5.702   5.558
 8877TIP3    H126595   3.218   5.664   5.596
 8877TIP3    H226596   3.335   5.631   5.506
 8878TIP3   OH226597   4.507   2.854   3.087
 8878TIP3    H126598   4.465   2.932   3.051
 8878TIP3    H226599   4.584   2.887   3.134
 8879TIP3   OH226600   2.773   0.635   4.206
 8879TIP3    H126601   2.724   0.629   4.287
 8879TIP3    H226602   2.718   0.687   4.148
 8880TIP3   OH226603   6.049   0.481   1.194
 8880TIP3    H126604   5.987   0.417   1.158
 8880TIP3    H226605   6.070   0.447   1.281
 8881TIP3   OH226606   5.820   5.028   0.457
 8881TIP3    H126607   5.836   5.114   0.419
 8881TIP3    H226608   5.811   5.045   0.551
 8882TIP3   OH226609   1.072   3.493   0.642
 8882TIP3    H126610   1.033   3.579   0.630
 8882TIP3    H226611   1.165   3.506   0.620
 8883TIP3   OH226612   2.601   1.962   3.397
 8883TIP3    H126613   2.666   1.999   3.338
 8883TIP3    H226614   2.628   1.992   3.484
 8884TIP3   OH226615   2.101   6.381   4.073
 8884TIP3    H126616   2.025   6.329   4.095
 8884TIP3    H226617   2.175   6.321   4.080
 8885TIP3   OH226618   6.448   2.177   2.195
 8885TIP3    H126619   6.391   2.114   2.240
 8885TIP3    H226620   6.493   2.223   2.265
 8886TIP3   OH226621   1.659   1.888   0.215
 8886TIP3    H126622   1.749   1.885   0.250
 8886TIP3    H226623   1.648   1.804   0.171
 8887TIP3   OH226624   5.496   4.351   0.169
 8887TIP3    H126625   5.521   4.307   0.088
 8887TIP3    H226626   5.496   4.283   0.236
 8888TIP3   OH226627   1.003   1.994   2.072
 8888TIP3    H126628   0.993   2.070   2.129
 8888TIP3    H226629   1.060   2.024   2.001
 8889TIP3   OH226630   0.926   0.516   1.823
 8889TIP3    H126631   0.928   0.445   1.759
 8889TIP3    H226632   0.908   0.473   1.906
 8890TIP3   OH226633   5.138   3.940   1.279
 8890TIP3    H126634   5.119   4.033   1.270
 8890TIP3    H226635   5.088   3.912   1.355
 8891TIP3   OH226636   6.915   2.270   4.267
 8891TIP3    H126637   6.896   2.234   4.354
 8891TIP3    H226638   6.994   2.224   4.240
 8892TIP3   OH226639   3.931   3.833   1.404
 8892TIP3    H126640   3.909   3.857   1.314
 8892TIP3    H226641   3.965   3.743   1.397
 8893TIP3   OH226642   4.996   3.827   5.252
 8893TIP3    H126643   5.000   3.921   5.270
 8893TIP3    H226644   5.032   3.787   5.331
 8894TIP3   OH226645   2.476   2.123   4.449
 8894TIP3    H126646   2.409   2.147   4.386
 8894TIP3    H226647   2.518   2.045   4.412
 8895TIP3   OH226648   2.186   3.666   4.888
 8895TIP3    H126649   2.175   3.753   4.925
 8895TIP3    H226650   2.134   3.609   4.944
 8896TIP3   OH226651   3.420   4.788   0.820
 8896TIP3    H126652   3.404   4.848   0.893
 8896TIP3    H226653   3.510   4.805   0.794
 8897TIP3   OH226654   3.925   5.136   3.495
 8897TIP3    H126655   4.005   5.188   3.484
 8897TIP3    H226656   3.938   5.089   3.577
 8898TIP3   OH226657   3.072   2.952   3.513
 8898TIP3    H126658   3.026   3.016   3.568
 8898TIP3    H226659   3.082   2.995   3.429
 8899TIP3   OH226660   3.906   6.055   1.044
 8899TIP3    H126661   3.825   6.079   1.090
 8899TIP3    H226662   3.876   6.006   0.968
 8900TIP3   OH226663   5.608   0.192   1.335
 8900TIP3    H126664   5.518   0.171   1.361
 8900TIP3    H226665   5.607   0.188   1.239
 8901TIP3   OH226666   6.036   6.532   1.576
 8901TIP3    H126667   6.059   6.468   1.643
 8901TIP3    H226668   5.993   6.603   1.625
 8902TIP3   OH226669   0.760   0.611   1.341
 8902TIP3    H126670   0.699   0.673   1.381
 8902TIP3    H226671   0.837   0.664   1.320
 8903TIP3   OH226672   3.668   0.512   5.138
 8903TIP3    H126673   3.652   0.503   5.232
 8903TIP3    H226674   3.763   0.513   5.130
 8904TIP3   OH226675   5.799   0.664   3.794
 8904TIP3    H126676   5.823   0.572   3.803
 8904TIP3    H226677   5.850   0.695   3.719
 8905TIP3   OH226678   6.197   5.404   1.536
 8905TIP3    H126679   6.217   5.354   1.456
 8905TIP3    H226680   6.238   5.353   1.606
 8906TIP3   OH226681   0.538   1.046   5.422
 8906TIP3    H126682   0.555   1.002   5.338
 8906TIP3    H226683   0.571   0.984   5.488
 8907TIP3   OH226684   6.503   1.248   1.066
 8907TIP3    H126685   6.579   1.291   1.028
 8907TIP3    H226686   6.512   1.156   1.042
 8908TIP3   OH226687   0.096   3.798   4.946
 8908TIP3    H126688   0.108   3.829   5.036
 8908TIP3    H226689   0.185   3.791   4.911
 8909TIP3   OH226690   5.733   3.296   4.353
 8909TIP3    H126691   5.754   3.203   4.354
 8909TIP3    H226692   5.765   3.328   4.269
 8910TIP3   OH226693   5.508   1.673   0.825
 8910TIP3    H126694   5.554   1.613   0.884
 8910TIP3    H226695   5.417   1.670   0.855
 8911TIP3   OH226696   3.744   5.932   0.831
 8911TIP3    H126697   3.681   5.860   0.829
 8911TIP3    H226698   3.704   5.998   0.888
 8912TIP3   OH226699   0.248   0.215   1.128
 8912TIP3    H126700   0.180   0.281   1.115
 8912TIP3    H226701   0.247   0.197   1.222
 8913TIP3   OH226702   0.936   2.567   1.431
 8913TIP3    H126703   0.916   2.574   1.338
 8913TIP3    H226704   0.853   2.583   1.476
 8914TIP3   OH226705   1.335   2.366   1.161
 8914TIP3    H126706   1.275   2.440   1.155
 8914TIP3    H226707   1.285   2.298   1.206
 8915TIP3   OH226708   0.019   5.531   3.508
 8915TIP3    H126709   0.086   5.487   3.455
 8915TIP3    H226710  -0.053   5.547   3.447
 8916TIP3   OH226711   1.220   6.004   1.072
 8916TIP3    H126712   1.154   6.004   1.002
 8916TIP3    H226713   1.302   6.025   1.027
 8917TIP3   OH226714   5.112   3.773   1.047
 8917TIP3    H126715   5.091   3.810   1.133
 8917TIP3    H226716   5.070   3.832   0.985
 8918TIP3   OH226717   6.646   0.858   2.292
 8918TIP3    H126718   6.573   0.857   2.354
 8918TIP3    H226719   6.713   0.911   2.334
 8919TIP3   OH226720   2.488   1.749   5.699
 8919TIP3    H126721   2.479   1.711   5.786
 8919TIP3    H226722   2.566   1.707   5.662
 8920TIP3   OH226723   2.785   1.052   2.757
 8920TIP3    H126724   2.860   1.041   2.817
 8920TIP3    H226725   2.785   1.145   2.736
 8921TIP3   OH226726   6.908   2.862   0.644
 8921TIP3    H126727   6.941   2.783   0.602
 8921TIP3    H226728   6.878   2.917   0.571
 8922TIP3   OH226729   2.486   5.219   4.359
 8922TIP3    H126730   2.535   5.147   4.398
 8922TIP3    H226731   2.395   5.187   4.357
 8923TIP3   OH226732   5.866   6.733   5.514
 8923TIP3    H126733   5.786   6.680   5.514
 8923TIP3    H226734   5.892   6.738   5.422
 8924TIP3   OH226735   2.537   4.062   4.949
 8924TIP3    H126736   2.446   4.055   4.980
 8924TIP3    H226737   2.589   4.028   5.022
 8925TIP3   OH226738   0.577   5.942   5.646
 8925TIP3    H126739   0.598   5.889   5.569
 8925TIP3    H226740   0.607   5.889   5.720
 8926TIP3   OH226741   3.492   5.887   1.061
 8926TIP3    H126742   3.510   5.978   1.035
 8926TIP3    H226743   3.568   5.863   1.115
 8927TIP3   OH226744   6.979   3.117   0.192
 8927TIP3    H126745   7.019   3.095   0.108
 8927TIP3    H226746   6.897   3.159   0.170
 8928TIP3   OH226747   2.759   6.195   1.888
 8928TIP3    H126748   2.664   6.178   1.883
 8928TIP3    H226749   2.799   6.116   1.852
 8929TIP3   OH226750   1.253   6.570   4.912
 8929TIP3    H126751   1.290   6.632   4.975
 8929TIP3    H226752   1.327   6.544   4.858
 8930TIP3   OH226753   4.132   5.198   4.754
 8930TIP3    H126754   4.104   5.106   4.754
 8930TIP3    H226755   4.210   5.199   4.699
 8931TIP3   OH226756   3.192   5.192   4.242
 8931TIP3    H126757   3.112   5.176   4.192
 8931TIP3    H226758   3.248   5.116   4.223
 8932TIP3   OH226759   3.176   2.058   1.144
 8932TIP3    H126760   3.109   1.991   1.127
 8932TIP3    H226761   3.181   2.108   1.063
 8933TIP3   OH226762   6.495   0.466   2.229
 8933TIP3    H126763   6.443   0.415   2.292
 8933TIP3    H226764   6.583   0.431   2.238
 8934TIP3   OH226765   0.735   5.748   0.017
 8934TIP3    H126766   0.716   5.821  -0.042
 8934TIP3    H226767   0.690   5.771   0.098
 8935TIP3   OH226768   5.511   6.430   4.339
 8935TIP3    H126769   5.422   6.400   4.319
 8935TIP3    H226770   5.556   6.429   4.255
 8936TIP3   OH226771   3.469   5.744   0.350
 8936TIP3    H126772   3.421   5.676   0.397
 8936TIP3    H226773   3.526   5.696   0.291
 8937TIP3   OH226774   6.815   4.438   1.644
 8937TIP3    H126775   6.765   4.357   1.655
 8937TIP3    H226776   6.901   4.419   1.682
 8938TIP3   OH226777   0.780   6.039   0.717
 8938TIP3    H126778   0.700   6.091   0.706
 8938TIP3    H226779   0.851   6.098   0.690
 8939TIP3   OH226780   5.504   5.677   1.364
 8939TIP3    H126781   5.411   5.692   1.347
 8939TIP3    H226782   5.523   5.593   1.321
 8940TIP3   OH226783   4.426   1.103   5.921
 8940TIP3    H126784   4.521   1.111   5.932
 8940TIP3    H226785   4.399   1.187   5.884
 8941TIP3   OH226786   3.300   4.107   0.275
 8941TIP3    H126787   3.377   4.050   0.264
 8941TIP3    H226788   3.282   4.141   0.187
 8942TIP3   OH226789   6.691   1.965   1.488
 8942TIP3    H126790   6.731   2.046   1.519
 8942TIP3    H226791   6.624   1.944   1.553
 8943TIP3   OH226792   6.184   5.482   0.412
 8943TIP3    H126793   6.245   5.446   0.348
 8943TIP3    H226794   6.235   5.549   0.458
 8944TIP3   OH226795   0.533   0.861   4.149
 8944TIP3    H126796   0.512   0.768   4.156
 8944TIP3    H226797   0.541   0.877   4.055
 8945TIP3   OH226798   0.984   4.562   2.890
 8945TIP3    H126799   0.900   4.602   2.868
 8945TIP3    H226800   0.961   4.492   2.952
 8946TIP3   OH226801   4.926   6.070   5.834
 8946TIP3    H126802   4.881   5.992   5.865
 8946TIP3    H226803   4.976   6.041   5.758
 8947TIP3   OH226804   6.566   2.974   0.424
 8947TIP3    H126805   6.536   3.047   0.477
 8947TIP3    H226806   6.662   2.976   0.432
 8948TIP3   OH226807   6.130   3.138   3.236
 8948TIP3    H126808   6.136   3.219   3.285
 8948TIP3    H226809   6.054   3.149   3.179
 8949TIP3   OH226810   4.104   3.011   2.058
 8949TIP3    H126811   4.143   3.033   1.974
 8949TIP3    H226812   4.178   3.001   2.117
 8950TIP3   OH226813   5.753   6.353   5.865
 8950TIP3    H126814   5.809   6.332   5.790
 8950TIP3    H226815   5.805   6.415   5.916
 8951TIP3   OH226816   6.540   6.265   2.558
 8951TIP3    H126817   6.559   6.171   2.555
 8951TIP3    H226818   6.452   6.272   2.520
 8952TIP3   OH226819   0.678   1.567   5.378
 8952TIP3    H126820   0.771   1.570   5.355
 8952TIP3    H226821   0.646   1.486   5.338
 8953TIP3   OH226822   0.539   4.924   1.584
 8953TIP3    H126823   0.534   4.857   1.517
 8953TIP3    H226824   0.483   4.995   1.553
 8954TIP3   OH226825   5.564   3.402   0.169
 8954TIP3    H126826   5.562   3.323   0.115
 8954TIP3    H226827   5.604   3.374   0.251
 8955TIP3   OH226828   6.662   4.070   3.597
 8955TIP3    H126829   6.733   4.007   3.585
 8955TIP3    H226830   6.590   4.036   3.542
 8956TIP3   OH226831   6.423   0.887   2.789
 8956TIP3    H126832   6.354   0.831   2.753
 8956TIP3    H226833   6.488   0.826   2.825
 8957TIP3   OH226834   5.773   2.240   3.682
 8957TIP3    H126835   5.816   2.158   3.656
 8957TIP3    H226836   5.688   2.212   3.715
 8958TIP3   OH226837   5.351   0.631   5.206
 8958TIP3    H126838   5.306   0.678   5.136
 8958TIP3    H226839   5.291   0.635   5.280
 8959TIP3   OH226840   3.188   3.613   1.954
 8959TIP3    H126841   3.151   3.542   1.901
 8959TIP3    H226842   3.188   3.689   1.896
 8960TIP3   OH226843   3.782   1.742   5.623
 8960TIP3    H126844   3.870   1.704   5.618
 8960TIP3    H226845   3.786   1.801   5.697
 8961TIP3   OH226846   6.829   3.043   0.432
 8961TIP3    H126847   6.826   3.136   0.453
 8961TIP3    H226848   6.883   3.038   0.353
 8962TIP3   OH226849   0.706   1.684   5.646
 8962TIP3    H126850   0.713   1.656   5.555
 8962TIP3    H226851   0.704   1.602   5.696
 8963TIP3   OH226852   2.727   1.887   5.270
 8963TIP3    H126853   2.643   1.848   5.295
 8963TIP3    H226854   2.792   1.838   5.321
 8964TIP3   OH226855   5.344   3.266   4.411
 8964TIP3    H126856   5.323   3.301   4.498
 8964TIP3    H226857   5.288   3.189   4.401
 8965TIP3   OH226858   5.637   0.394   3.936
 8965TIP3    H126859   5.669   0.304   3.943
 8965TIP3    H226860   5.636   0.412   3.842
 8966TIP3   OH226861   3.216   4.424   0.254
 8966TIP3    H126862   3.256   4.339   0.271
 8966TIP3    H226863   3.157   4.438   0.328
 8967TIP3   OH226864   3.144   1.015   1.729
 8967TIP3    H126865   3.059   1.001   1.771
 8967TIP3    H226866   3.141   0.959   1.652
 8968TIP3   OH226867   6.377   3.489   5.632
 8968TIP3    H126868   6.434   3.540   5.574
 8968TIP3    H226869   6.387   3.398   5.601
 8969TIP3   OH226870   6.689  -0.003   0.394
 8969TIP3    H126871   6.780   0.008   0.368
 8969TIP3    H226872   6.678   0.054   0.470
 8970TIP3   OH226873   4.008   5.320   0.284
 8970TIP3    H126874   4.056   5.237   0.291
 8970TIP3    H226875   4.047   5.363   0.208
 8971TIP3   OH226876   3.136   1.841   5.307
 8971TIP3    H126877   3.109   1.930   5.287
 8971TIP3    H226878   3.062   1.804   5.355
 8972TIP3   OH226879   2.237   1.086   1.640
 8972TIP3    H126880   2.183   1.154   1.600
 8972TIP3    H226881   2.268   1.125   1.722
 8973TIP3   OH226882   0.387   4.169   0.532
 8973TIP3    H126883   0.390   4.119   0.614
 8973TIP3    H226884   0.356   4.255   0.558
 8974TIP3   OH226885   3.310   5.960   5.700
 8974TIP3    H126886   3.285   5.889   5.641
 8974TIP3    H226887   3.228   5.988   5.741
 8975TIP3   OH226888   0.826   2.651   2.330
 8975TIP3    H126889   0.848   2.587   2.262
 8975TIP3    H226890   0.883   2.630   2.403
 8976TIP3   OH226891   0.039   0.490   0.185
 8976TIP3    H126892   0.084   0.416   0.225
 8976TIP3    H226893   0.031   0.466   0.092
 8977TIP3   OH226894   2.794   6.368   2.832
 8977TIP3    H126895   2.879   6.338   2.802
 8977TIP3    H226896   2.790   6.341   2.924
 8978TIP3   OH226897   6.968   5.830   3.446
 8978TIP3    H126898   6.924   5.867   3.523
 8978TIP3    H226899   6.896   5.800   3.390
 8979TIP3   OH226900   6.909   5.963   5.639
 8979TIP3    H126901   6.972   5.929   5.703
 8979TIP3    H226902   6.905   5.894   5.572
 8980TIP3   OH226903   4.988   1.437   1.762
 8980TIP3    H126904   5.084   1.431   1.764
 8980TIP3    H226905   4.963   1.398   1.678
 8981TIP3   OH226906   1.628   0.867   0.900
 8981TIP3    H126907   1.700   0.829   0.951
 8981TIP3    H226908   1.672   0.918   0.831
 8982TIP3   OH226909   1.562   4.541   3.439
 8982TIP3    H126910   1.589   4.449   3.436
 8982TIP3    H226911   1.537   4.561   3.349
 8983TIP3   OH226912   6.366   3.598   1.271
 8983TIP3    H126913   6.312   3.521   1.250
 8983TIP3    H226914   6.334   3.666   1.211
 8984TIP3   OH226915   4.224   6.476   5.115
 8984TIP3    H126916   4.287   6.404   5.112
 8984TIP3    H226917   4.157   6.447   5.177
 8985TIP3   OH226918   5.449   1.571   5.540
 8985TIP3    H126919   5.476   1.606   5.455
 8985TIP3    H226920   5.389   1.637   5.575
 8986TIP3   OH226921   3.312   2.445   1.111
 8986TIP3    H126922   3.375   2.489   1.053
 8986TIP3    H226923   3.367   2.405   1.179
 8987TIP3   OH226924   1.420   6.037   3.424
 8987TIP3    H126925   1.423   5.995   3.338
 8987TIP3    H226926   1.465   5.976   3.482
 8988TIP3   OH226927   0.692   4.026   1.424
 8988TIP3    H126928   0.597   4.021   1.438
 8988TIP3    H226929   0.725   3.939   1.448
 8989TIP3   OH226930   0.878   6.744   2.918
 8989TIP3    H126931   0.869   6.783   3.004
 8989TIP3    H226932   0.931   6.807   2.868
 8990TIP3   OH226933   2.738   0.962   4.345
 8990TIP3    H126934   2.678   0.899   4.385
 8990TIP3    H226935   2.738   1.036   4.405
 8991TIP3   OH226936   6.162   3.367   0.465
 8991TIP3    H126937   6.185   3.441   0.522
 8991TIP3    H226938   6.242   3.349   0.416
 8992TIP3   OH226939   6.372   2.666   3.656
 8992TIP3    H126940   6.305   2.600   3.646
 8992TIP3    H226941   6.454   2.621   3.633
 8993TIP3   OH226942   4.089   3.548   2.850
 8993TIP3    H126943   4.052   3.463   2.872
 8993TIP3    H226944   4.106   3.590   2.934
 8994TIP3   OH226945   1.784   4.185   4.888
 8994TIP3    H126946   1.774   4.196   4.793
 8994TIP3    H226947   1.780   4.090   4.902
 8995TIP3   OH226948   0.562   0.966   5.001
 8995TIP3    H126949   0.578   0.872   4.994
 8995TIP3    H226950   0.643   1.001   5.038
 8996TIP3   OH226951   2.131   4.613   3.899
 8996TIP3    H126952   2.085   4.624   3.816
 8996TIP3    H226953   2.122   4.697   3.944
 8997TIP3   OH226954   4.049   0.224   0.528
 8997TIP3    H126955   4.060   0.130   0.539
 8997TIP3    H226956   4.069   0.261   0.614
 8998TIP3   OH226957   0.035   1.123   5.436
 8998TIP3    H126958   0.015   1.145   5.345
 8998TIP3    H226959   0.086   1.042   5.430
 8999TIP3   OH226960   6.166   1.540   1.718
 8999TIP3    H126961   6.110   1.484   1.664
 8999TIP3    H226962   6.255   1.518   1.692
 9000TIP3   OH226963   6.757   6.457   1.492
 9000TIP3    H126964   6.782   6.522   1.427
 9000TIP3    H226965   6.684   6.496   1.540
 9001TIP3   OH226966   1.557   2.313   1.668
 9001TIP3    H126967   1.541   2.254   1.594
 9001TIP3    H226968   1.548   2.400   1.632
 9002TIP3   OH226969   2.267   1.910   1.129
 9002TIP3    H126970   2.360   1.894   1.143
 9002TIP3    H226971   2.243   1.975   1.195
 9003TIP3   OH226972   0.934   2.271   4.985
 9003TIP3    H126973   0.842   2.245   4.997
 9003TIP3    H226974   0.968   2.210   4.920
 9004TIP3   OH226975   3.820   1.351   5.645
 9004TIP3    H126976   3.741   1.402   5.659
 9004TIP3    H226977   3.877   1.408   5.593
 9005TIP3   OH226978   4.286   5.821   3.003
 9005TIP3    H126979   4.286   5.749   2.941
 9005TIP3    H226980   4.302   5.899   2.950
 9006TIP3   OH226981   2.780   4.427   2.369
 9006TIP3    H126982   2.809   4.456   2.282
 9006TIP3    H226983   2.704   4.481   2.388
 9007TIP3   OH226984   5.470   1.066   5.746
 9007TIP3    H126985   5.491   1.044   5.655
 9007TIP3    H226986   5.391   1.017   5.766
 9008TIP3   OH226987   3.570   5.987   5.886
 9008TIP3    H126988   3.489   6.001   5.837
 9008TIP3    H226989   3.565   5.896   5.915
 9009TIP3   OH226990   6.348   4.584   1.352
 9009TIP3    H126991   6.413   4.653   1.337
 9009TIP3    H226992   6.386   4.506   1.311
 9010TIP3   OH226993   3.543   4.377   2.498
 9010TIP3    H126994   3.573   4.300   2.545
 9010TIP3    H226995   3.476   4.343   2.438
 9011TIP3   OH226996   0.516   1.653   4.950
 9011TIP3    H126997   0.505   1.558   4.956
 9011TIP3    H226998   0.450   1.681   4.887
 9012TIP3   OH226999   5.445   6.446   1.903
 9012TIP3    H127000   5.504   6.470   1.974
 9012TIP3    H227001   5.476   6.359   1.874
 9013TIP3   OH227002   3.839   4.845   5.431
 9013TIP3    H127003   3.932   4.862   5.417
 9013TIP3    H227004   3.811   4.912   5.493
 9014TIP3   OH227005   6.787   3.719   5.305
 9014TIP3    H127006   6.842   3.673   5.242
 9014TIP3    H227007   6.745   3.788   5.254
 9015TIP3   OH227008   0.435   0.652   3.722
 9015TIP3    H127009   0.360   0.648   3.663
 9015TIP3    H227010   0.432   0.570   3.771
 9016TIP3   OH227011   2.956   5.920   1.509
 9016TIP3    H127012   2.961   5.868   1.429
 9016TIP3    H227013   3.043   5.914   1.547
 9017TIP3   OH227014   6.504   0.517   4.238
 9017TIP3    H127015   6.488   0.549   4.327
 9017TIP3    H227016   6.426   0.541   4.189
 9018TIP3   OH227017   0.013   2.384   4.287
 9018TIP3    H127018   0.072   2.458   4.272
 9018TIP3    H227019  -0.058   2.420   4.339
 9019TIP3   OH227020   5.526   0.893   4.489
 9019TIP3    H127021   5.476   0.811   4.480
 9019TIP3    H227022   5.527   0.930   4.401
 9020TIP3   OH227023   0.813   6.027   4.085
 9020TIP3    H127024   0.813   5.947   4.032
 9020TIP3    H227025   0.724   6.033   4.119
 9021TIP3   OH227026   3.806   5.816   2.514
 9021TIP3    H127027   3.800   5.855   2.602
 9021TIP3    H227028   3.789   5.890   2.455
 9022TIP3   OH227029   5.233   6.494   1.690
 9022TIP3    H127030   5.148   6.459   1.718
 9022TIP3    H227031   5.289   6.485   1.767
 9023TIP3   OH227032   5.652   2.121   2.853
 9023TIP3    H127033   5.633   2.155   2.940
 9023TIP3    H227034   5.577   2.148   2.799
 9024TIP3   OH227035   4.394   0.084   5.820
 9024TIP3    H127036   4.335   0.030   5.873
 9024TIP3    H227037   4.344   0.164   5.802
 9025TIP3   OH227038   6.727   4.136   2.622
 9025TIP3    H127039   6.822   4.136   2.635
 9025TIP3    H227040   6.707   4.046   2.596
 9026TIP3   OH227041   2.908   4.139   3.071
 9026TIP3    H127042   2.936   4.194   3.144
 9026TIP3    H227043   2.903   4.198   2.996
 9027TIP3   OH227044   2.094   1.251   4.772
 9027TIP3    H127045   2.051   1.221   4.851
 9027TIP3    H227046   2.105   1.346   4.785
 9028TIP3   OH227047   4.288   3.691   1.706
 9028TIP3    H127048   4.282   3.611   1.654
 9028TIP3    H227049   4.212   3.743   1.677
 9029TIP3   OH227050   0.104   3.443   3.349
 9029TIP3    H127051   0.081   3.536   3.347
 9029TIP3    H227052   0.086   3.416   3.440
 9030TIP3   OH227053   6.951   0.079   4.033
 9030TIP3    H127054   7.038   0.116   4.045
 9030TIP3    H227055   6.899   0.150   3.994
 9031TIP3   OH227056   0.977   5.011   2.714
 9031TIP3    H127057   0.978   5.079   2.647
 9031TIP3    H227058   1.049   4.953   2.691
 9032TIP3   OH227059   5.024   2.766   3.552
 9032TIP3    H127060   4.938   2.805   3.535
 9032TIP3    H227061   5.008   2.672   3.559
 9033TIP3   OH227062   3.951   1.986   3.938
 9033TIP3    H127063   3.990   2.050   3.878
 9033TIP3    H227064   4.008   1.909   3.930
 9034TIP3   OH227065   7.013   3.884   5.113
 9034TIP3    H127066   7.075   3.908   5.044
 9034TIP3    H227067   6.984   3.968   5.149
 9035TIP3   OH227068   2.651   5.702   3.878
 9035TIP3    H127069   2.721   5.679   3.940
 9035TIP3    H227070   2.604   5.620   3.863
 9036TIP3   OH227071   5.166   5.708   4.569
 9036TIP3    H127072   5.248   5.676   4.606
 9036TIP3    H227073   5.157   5.797   4.602
 9037TIP3   OH227074   5.231   6.149   1.524
 9037TIP3    H127075   5.178   6.153   1.604
 9037TIP3    H227076   5.303   6.210   1.540
 9038TIP3   OH227077   0.975   2.221   2.642
 9038TIP3    H127078   1.012   2.135   2.622
 9038TIP3    H227079   0.923   2.208   2.721
 9039TIP3   OH227080   4.892   1.259   1.204
 9039TIP3    H127081   4.960   1.314   1.242
 9039TIP3    H227082   4.852   1.313   1.137
 9040TIP3   OH227083   5.378   1.913   5.308
 9040TIP3    H127084   5.383   1.890   5.401
 9040TIP3    H227085   5.419   1.839   5.263
 9041TIP3   OH227086   2.231   2.468   4.200
 9041TIP3    H127087   2.259   2.556   4.223
 9041TIP3    H227088   2.235   2.465   4.105
 9042TIP3   OH227089   1.865   5.426   0.690
 9042TIP3    H127090   1.835   5.337   0.675
 9042TIP3    H227091   1.861   5.469   0.605
 9043TIP3   OH227092   5.850   3.195   5.647
 9043TIP3    H127093   5.878   3.111   5.610
 9043TIP3    H227094   5.931   3.244   5.657
 9044TIP3   OH227095   0.587   1.077   0.336
 9044TIP3    H127096   0.526   1.131   0.387
 9044TIP3    H227097   0.674   1.105   0.365
 9045TIP3   OH227098   0.721   1.878   4.902
 9045TIP3    H127099   0.783   1.887   4.974
 9045TIP3    H227100   0.656   1.816   4.935
 9046TIP3   OH227101   3.641   2.275   5.921
 9046TIP3    H127102   3.599   2.359   5.901
 9046TIP3    H227103   3.655   2.235   5.835
 9047TIP3   OH227104   4.354   5.827   5.855
 9047TIP3    H127105   4.393   5.904   5.897
 9047TIP3    H227106   4.267   5.821   5.894
 9048TIP3   OH227107   1.133   3.964   5.586
 9048TIP3    H127108   1.042   3.958   5.556
 9048TIP3    H227109   1.160   3.874   5.601
 9049TIP3   OH227110   6.807   6.511   5.822
 9049TIP3    H127111   6.821   6.551   5.908
 9049TIP3    H227112   6.765   6.427   5.841
 9050TIP3   OH227113   3.358   6.198   1.692
 9050TIP3    H127114   3.292   6.184   1.760
 9050TIP3    H227115   3.311   6.244   1.622
 9051TIP3   OH227116   0.569   4.449   2.895
 9051TIP3    H127117   0.565   4.532   2.943
 9051TIP3    H227118   0.611   4.388   2.956
 9052TIP3   OH227119   2.585   1.915   0.614
 9052TIP3    H127120   2.505   1.865   0.599
 9052TIP3    H227121   2.569   2.000   0.574
 9053TIP3   OH227122   0.750   6.512   2.845
 9053TIP3    H127123   0.757   6.530   2.751
 9053TIP3    H227124   0.791   6.587   2.887
 9054TIP3   OH227125   5.391   3.223   3.126
 9054TIP3    H127126   5.377   3.142   3.176
 9054TIP3    H227127   5.376   3.197   3.035
 9055TIP3   OH227128   1.035   6.519   1.178
 9055TIP3    H127129   1.107   6.503   1.117
 9055TIP3    H227130   1.013   6.433   1.212
 9056TIP3   OH227131   3.931   1.055   0.848
 9056TIP3    H127132   3.848   1.102   0.855
 9056TIP3    H227133   3.990   1.117   0.807
 9057TIP3   OH227134   1.474   3.137   5.873
 9057TIP3    H127135   1.496   3.130   5.966
 9057TIP3    H227136   1.542   3.086   5.829
 9058TIP3   OH227137   0.051   4.689   5.357
 9058TIP3    H127138   0.005   4.641   5.289
 9058TIP3    H227139   0.132   4.639   5.372
 9059TIP3   OH227140   6.937   2.026   1.095
 9059TIP3    H127141   6.986   1.956   1.139
 9059TIP3    H227142   6.995   2.102   1.102
 9060TIP3   OH227143   4.156   6.293   1.607
 9060TIP3    H127144   4.247   6.272   1.585
 9060TIP3    H227145   4.120   6.330   1.527
 9061TIP3   OH227146   1.869   3.380   0.832
 9061TIP3    H127147   1.777   3.406   0.836
 9061TIP3    H227148   1.889   3.374   0.739
 9062TIP3   OH227149   6.830   3.404   2.049
 9062TIP3    H127150   6.830   3.400   1.953
 9062TIP3    H227151   6.911   3.450   2.071
 9063TIP3   OH227152   5.596   4.157   5.472
 9063TIP3    H127153   5.601   4.100   5.548
 9063TIP3    H227154   5.684   4.195   5.466
 9064TIP3   OH227155   5.924   3.111   4.646
 9064TIP3    H127156   5.863   3.068   4.587
 9064TIP3    H227157   5.927   3.202   4.616
 9065TIP3   OH227158   3.117   5.894   5.381
 9065TIP3    H127159   3.045   5.832   5.370
 9065TIP3    H227160   3.164   5.863   5.458
 9066TIP3   OH227161   0.370   3.114   5.262
 9066TIP3    H127162   0.374   3.132   5.168
 9066TIP3    H227163   0.416   3.030   5.271
 9067TIP3   OH227164   2.899   4.449   2.107
 9067TIP3    H127165   2.928   4.533   2.072
 9067TIP3    H227166   2.979   4.400   2.122
 9068TIP3   OH227167   4.047   0.645   1.932
 9068TIP3    H127168   4.025   0.651   1.839
 9068TIP3    H227169   4.046   0.736   1.963
 9069TIP3   OH227170   1.687   4.836   4.963
 9069TIP3    H127171   1.670   4.783   5.041
 9069TIP3    H227172   1.662   4.780   4.890
 9070TIP3   OH227173   2.323   2.732   4.234
 9070TIP3    H127174   2.399   2.745   4.292
 9070TIP3    H227175   2.356   2.754   4.147
 9071TIP3   OH227176   6.603   6.439   3.927
 9071TIP3    H127177   6.543   6.495   3.976
 9071TIP3    H227178   6.547   6.373   3.887
 9072TIP3   OH227179   3.898   1.479   1.688
 9072TIP3    H127180   3.859   1.521   1.765
 9072TIP3    H227181   3.840   1.405   1.670
 9073TIP3   OH227182   6.189   3.629   0.645
 9073TIP3    H127183   6.228   3.714   0.626
 9073TIP3    H227184   6.231   3.600   0.726
 9074TIP3   OH227185   3.697   5.750   1.193
 9074TIP3    H127186   3.771   5.711   1.146
 9074TIP3    H227187   3.668   5.682   1.254
 9075TIP3   OH227188   4.288   5.827   1.294
 9075TIP3    H127189   4.215   5.880   1.261
 9075TIP3    H227190   4.321   5.877   1.369
 9076TIP3   OH227191   2.309   3.795   5.110
 9076TIP3    H127192   2.332   3.843   5.190
 9076TIP3    H227193   2.230   3.747   5.133
 9077TIP3   OH227194   6.362   3.727   5.020
 9077TIP3    H127195   6.321   3.649   4.983
 9077TIP3    H227196   6.442   3.739   4.969
 9078TIP3   OH227197   4.612   2.369   2.245
 9078TIP3    H127198   4.573   2.302   2.189
 9078TIP3    H227199   4.647   2.433   2.183
 9079TIP3   OH227200   2.681   6.040   2.315
 9079TIP3    H127201   2.628   5.962   2.295
 9079TIP3    H227202   2.623   6.113   2.294
 9080TIP3   OH227203   6.529   5.374   5.692
 9080TIP3    H127204   6.512   5.280   5.701
 9080TIP3    H227205   6.624   5.382   5.703
 9081TIP3   OH227206   6.378   3.040   4.397
 9081TIP3    H127207   6.324   3.094   4.454
 9081TIP3    H227208   6.431   2.987   4.457
 9082TIP3   OH227209   3.113   1.061   2.095
 9082TIP3    H127210   3.053   1.102   2.032
 9082TIP3    H227211   3.199   1.065   2.051
 9083TIP3   OH227212   0.127   3.470   2.500
 9083TIP3    H127213   0.218   3.495   2.484
 9083TIP3    H227214   0.132   3.392   2.555
 9084TIP3   OH227215   1.892   5.795   4.892
 9084TIP3    H127216   1.902   5.700   4.896
 9084TIP3    H227217   1.797   5.809   4.884
 9085TIP3   OH227218   1.677   4.957   2.397
 9085TIP3    H127219   1.591   4.923   2.370
 9085TIP3    H227220   1.740   4.893   2.362
 9086TIP3   OH227221   1.059   4.458   5.354
 9086TIP3    H127222   0.967   4.457   5.329
 9086TIP3    H227223   1.070   4.380   5.409
 9087TIP3   OH227224   0.439   6.704   0.453
 9087TIP3    H127225   0.443   6.789   0.409
 9087TIP3    H227226   0.478   6.720   0.539
 9088TIP3   OH227227   1.398   2.400   0.630
 9088TIP3    H127228   1.334   2.427   0.563
 9088TIP3    H227229   1.349   2.341   0.688
 9089TIP3   OH227230   3.301   5.628   3.022
 9089TIP3    H127231   3.322   5.578   3.102
 9089TIP3    H227232   3.380   5.622   2.969
 9090TIP3   OH227233   1.697   5.854   5.615
 9090TIP3    H127234   1.666   5.875   5.527
 9090TIP3    H227235   1.793   5.860   5.609
 9091TIP3   OH227236   1.700   4.197   4.617
 9091TIP3    H127237   1.724   4.130   4.552
 9091TIP3    H227238   1.723   4.280   4.575
 9092TIP3   OH227239   2.385   0.865   4.296
 9092TIP3    H127240   2.344   0.921   4.230
 9092TIP3    H227241   2.319   0.798   4.314
 9093TIP3   OH227242   0.166   5.160   0.106
 9093TIP3    H127243   0.130   5.106   0.176
 9093TIP3    H227244   0.109   5.237   0.103
 9094TIP3   OH227245   2.345   0.779   1.786
 9094TIP3    H127246   2.400   0.707   1.817
 9094TIP3    H227247   2.256   0.745   1.792
 9095TIP3   OH227248   3.454   4.619   3.773
 9095TIP3    H127249   3.481   4.661   3.691
 9095TIP3    H227250   3.530   4.566   3.799
 9096TIP3   OH227251   7.007   4.803   0.967
 9096TIP3    H127252   6.989   4.867   1.036
 9096TIP3    H227253   6.957   4.833   0.892
 9097TIP3   OH227254   3.016   6.438   4.887
 9097TIP3    H127255   3.047   6.349   4.869
 9097TIP3    H227256   2.998   6.475   4.801
 9098TIP3   OH227257   6.266   1.055   4.884
 9098TIP3    H127258   6.186   1.103   4.905
 9098TIP3    H227259   6.330   1.088   4.948
 9099TIP3   OH227260   3.550   1.944   2.161
 9099TIP3    H127261   3.581   1.904   2.243
 9099TIP3    H227262   3.607   1.908   2.094
 9100TIP3   OH227263   4.073   2.800   5.805
 9100TIP3    H127264   4.000   2.788   5.865
 9100TIP3    H227265   4.093   2.893   5.809
 9101TIP3   OH227266   2.609   6.380   5.728
 9101TIP3    H127267   2.608   6.456   5.786
 9101TIP3    H227268   2.626   6.306   5.786
 9102TIP3   OH227269   6.844   6.604   4.902
 9102TIP3    H127270   6.786   6.639   4.969
 9102TIP3    H227271   6.932   6.616   4.937
 9103TIP3   OH227272   2.603   1.550   3.146
 9103TIP3    H127273   2.577   1.494   3.220
 9103TIP3    H227274   2.520   1.584   3.113
 9104TIP3   OH227275   2.962   3.877   5.369
 9104TIP3    H127276   2.905   3.803   5.348
 9104TIP3    H227277   2.968   3.876   5.465
 9105TIP3   OH227278   0.078   6.660   2.079
 9105TIP3    H127279   0.005   6.664   2.140
 9105TIP3    H227280   0.155   6.679   2.132
 9106TIP3   OH227281   6.450   2.804   4.227
 9106TIP3    H127282   6.417   2.834   4.143
 9106TIP3    H227283   6.422   2.871   4.290
 9107TIP3   OH227284   1.490   6.465   0.386
 9107TIP3    H127285   1.395   6.460   0.378
 9107TIP3    H227286   1.517   6.376   0.407
 9108TIP3   OH227287   1.475   1.731   3.234
 9108TIP3    H127288   1.558   1.745   3.279
 9108TIP3    H227289   1.420   1.805   3.260
 9109TIP3   OH227290   3.240   3.794   4.258
 9109TIP3    H127291   3.187   3.726   4.301
 9109TIP3    H227292   3.297   3.745   4.199
 9110TIP3   OH227293   6.513   2.601   4.547
 9110TIP3    H127294   6.517   2.579   4.640
 9110TIP3    H227295   6.424   2.632   4.533
 9111TIP3   OH227296   4.295   2.889   0.063
 9111TIP3    H127297   4.285   2.794   0.064
 9111TIP3    H227298   4.249   2.917  -0.016
 9112TIP3   OH227299   5.742   4.598   3.717
 9112TIP3    H127300   5.830   4.629   3.696
 9112TIP3    H227301   5.755   4.538   3.791
 9113TIP3   OH227302   1.694   0.144   4.149
 9113TIP3    H127303   1.628   0.087   4.110
 9113TIP3    H227304   1.651   0.229   4.157
 9114TIP3   OH227305   4.575   6.048   2.252
 9114TIP3    H127306   4.630   6.126   2.261
 9114TIP3    H227307   4.617   5.983   2.309
 9115TIP3   OH227308   1.720   6.687   2.236
 9115TIP3    H127309   1.759   6.749   2.298
 9115TIP3    H227310   1.626   6.691   2.254
 9116TIP3   OH227311   3.702   6.694   5.744
 9116TIP3    H127312   3.686   6.647   5.662
 9116TIP3    H227313   3.775   6.752   5.724
 9117TIP3   OH227314   3.134   0.304   1.485
 9117TIP3    H127315   3.136   0.358   1.405
 9117TIP3    H227316   3.087   0.225   1.458
 9118TIP3   OH227317   5.160   4.730   5.708
 9118TIP3    H127318   5.250   4.735   5.740
 9118TIP3    H227319   5.166   4.676   5.630
 9119TIP3   OH227320   1.891   6.478   5.066
 9119TIP3    H127321   1.959   6.449   5.127
 9119TIP3    H227322   1.921   6.447   4.981
 9120TIP3   OH227323   2.557   4.708   1.107
 9120TIP3    H127324   2.556   4.637   1.043
 9120TIP3    H227325   2.646   4.706   1.143
 9121TIP3   OH227326   4.448   0.607   3.368
 9121TIP3    H127327   4.399   0.554   3.431
 9121TIP3    H227328   4.387   0.676   3.343
 9122TIP3   OH227329   3.849   6.623   2.992
 9122TIP3    H127330   3.826   6.612   3.084
 9122TIP3    H227331   3.845   6.717   2.976
 9123TIP3   OH227332   1.583   0.444   0.990
 9123TIP3    H127333   1.516   0.477   0.931
 9123TIP3    H227334   1.542   0.370   1.035
 9124TIP3   OH227335   6.495   0.306   5.178
 9124TIP3    H127336   6.413   0.278   5.139
 9124TIP3    H227337   6.495   0.401   5.171
 9125TIP3   OH227338   3.378   2.476   3.920
 9125TIP3    H127339   3.372   2.403   3.982
 9125TIP3    H227340   3.301   2.529   3.937
 9126TIP3   OH227341   2.467   2.799   3.163
 9126TIP3    H127342   2.482   2.764   3.251
 9126TIP3    H227343   2.540   2.766   3.111
 9127TIP3   OH227344   1.485   0.291   1.502
 9127TIP3    H127345   1.422   0.254   1.564
 9127TIP3    H227346   1.556   0.325   1.557
 9128TIP3   OH227347   6.166   4.324   3.713
 9128TIP3    H127348   6.178   4.231   3.733
 9128TIP3    H227349   6.073   4.332   3.693
 9129TIP3   OH227350   1.738   5.203   0.321
 9129TIP3    H127351   1.737   5.274   0.385
 9129TIP3    H227352   1.727   5.246   0.236
 9130TIP3   OH227353   0.526   6.181   4.598
 9130TIP3    H127354   0.570   6.239   4.536
 9130TIP3    H227355   0.494   6.239   4.667
 9131TIP3   OH227356   3.245   6.049   1.253
 9131TIP3    H127357   3.164   6.102   1.251
 9131TIP3    H227358   3.290   6.072   1.173
 9132TIP3   OH227359   7.065   3.958   0.809
 9132TIP3    H127360   7.062   3.977   0.903
 9132TIP3    H227361   6.987   3.905   0.793
 9133TIP3   OH227362   2.927   3.575   3.169
 9133TIP3    H127363   2.894   3.501   3.219
 9133TIP3    H227364   2.848   3.620   3.138
 9134TIP3   OH227365   0.305   2.219   5.131
 9134TIP3    H127366   0.312   2.124   5.117
 9134TIP3    H227367   0.318   2.230   5.225
 9135TIP3   OH227368   3.763   0.110   4.472
 9135TIP3    H127369   3.738   0.037   4.529
 9135TIP3    H227370   3.843   0.079   4.428
 9136TIP3   OH227371   2.544   4.960   0.997
 9136TIP3    H127372   2.577   4.998   1.079
 9136TIP3    H227373   2.536   4.866   1.016
 9137TIP3   OH227374   3.308   0.460   2.503
 9137TIP3    H127375   3.260   0.539   2.479
 9137TIP3    H227376   3.399   0.487   2.507
 9138TIP3   OH227377   3.602   3.071   1.816
 9138TIP3    H127378   3.522   3.046   1.768
 9138TIP3    H227379   3.670   3.016   1.778
 9139TIP3   OH227380   7.134   2.307   0.305
 9139TIP3    H127381   7.046   2.286   0.274
 9139TIP3    H227382   7.130   2.400   0.330
 9140TIP3   OH227383   6.503   2.864   5.372
 9140TIP3    H127384   6.423   2.915   5.382
 9140TIP3    H227385   6.571   2.917   5.415
 9141TIP3   OH227386   6.742   6.556   0.824
 9141TIP3    H127387   6.651   6.533   0.809
 9141TIP3    H227388   6.739   6.644   0.863
 9142TIP3   OH227389   1.375   1.640   5.305
 9142TIP3    H127390   1.336   1.580   5.369
 9142TIP3    H227391   1.441   1.688   5.355
 9143TIP3   OH227392   5.447   6.630   3.006
 9143TIP3    H127393   5.477   6.608   3.094
 9143TIP3    H227394   5.525   6.617   2.951
 9144TIP3   OH227395   6.665   3.847   2.466
 9144TIP3    H127396   6.701   3.810   2.547
 9144TIP3    H227397   6.688   3.782   2.399
 9145TIP3   OH227398   2.767   4.376   5.588
 9145TIP3    H127399   2.848   4.361   5.538
 9145TIP3    H227400   2.784   4.457   5.637
 9146TIP3   OH227401   3.618   2.141   4.928
 9146TIP3    H127402   3.676   2.087   4.982
 9146TIP3    H227403   3.631   2.230   4.960
 9147TIP3   OH227404   1.049   5.121   1.778
 9147TIP3    H127405   0.957   5.107   1.754
 9147TIP3    H227406   1.096   5.116   1.695
 9148TIP3   OH227407   1.585   6.157   1.174
 9148TIP3    H127408   1.608   6.064   1.183
 9148TIP3    H227409   1.620   6.198   1.253
 9149TIP3   OH227410   5.549   3.728   3.497
 9149TIP3    H127411   5.618   3.695   3.439
 9149TIP3    H227412   5.516   3.807   3.452
 9150TIP3   OH227413   3.565   3.133   3.067
 9150TIP3    H127414   3.560   3.042   3.097
 9150TIP3    H227415   3.642   3.135   3.010
 9151TIP3   OH227416   2.634   2.337   5.204
 9151TIP3    H127417   2.638   2.408   5.269
 9151TIP3    H227418   2.717   2.291   5.214
 9152TIP3   OH227419   5.599   2.200   3.110
 9152TIP3    H127420   5.648   2.139   3.165
 9152TIP3    H227421   5.536   2.241   3.169
 9153TIP3   OH227422   4.160   1.805   5.425
 9153TIP3    H127423   4.209   1.734   5.384
 9153TIP3    H227424   4.227   1.863   5.461
 9154TIP3   OH227425   4.339   4.564   4.196
 9154TIP3    H127426   4.365   4.526   4.113
 9154TIP3    H227427   4.244   4.551   4.199
 9155TIP3   OH227428   3.554   0.524   2.415
 9155TIP3    H127429   3.613   0.456   2.446
 9155TIP3    H227430   3.512   0.486   2.338
 9156TIP3   OH227431   2.189   5.703   4.288
 9156TIP3    H127432   2.275   5.732   4.320
 9156TIP3    H227433   2.141   5.679   4.367
 9157TIP3   OH227434   2.251   4.704   0.986
 9157TIP3    H127435   2.203   4.773   0.941
 9157TIP3    H227436   2.198   4.682   1.062
 9158TIP3   OH227437   2.783   2.934   0.865
 9158TIP3    H127438   2.830   2.865   0.819
 9158TIP3    H227439   2.707   2.891   0.904
 9159TIP3   OH227440   5.091   3.213   3.321
 9159TIP3    H127441   5.146   3.135   3.318
 9159TIP3    H227442   5.147   3.281   3.359
 9160TIP3   OH227443   4.376   1.959   0.373
 9160TIP3    H127444   4.345   1.945   0.283
 9160TIP3    H227445   4.307   1.922   0.428
 9161TIP3   OH227446   4.278   3.488   1.528
 9161TIP3    H127447   4.228   3.422   1.578
 9161TIP3    H227448   4.236   3.490   1.442
 9162TIP3   OH227449   2.500   1.556   4.611
 9162TIP3    H127450   2.553   1.583   4.537
 9162TIP3    H227451   2.534   1.605   4.685
 9163TIP3   OH227452   3.927   6.504   0.263
 9163TIP3    H127453   3.888   6.427   0.305
 9163TIP3    H227454   4.004   6.523   0.316
 9164TIP3   OH227455   3.349   5.609   3.647
 9164TIP3    H127456   3.371   5.521   3.679
 9164TIP3    H227457   3.416   5.629   3.582
 9165TIP3   OH227458   1.285   4.305   3.025
 9165TIP3    H127459   1.285   4.364   2.949
 9165TIP3    H227460   1.193   4.280   3.036
 9166TIP3   OH227461   2.802   6.688   2.522
 9166TIP3    H127462   2.796   6.602   2.563
 9166TIP3    H227463   2.896   6.704   2.515
 9167TIP3   OH227464   6.034   5.893   2.170
 9167TIP3    H127465   6.056   5.895   2.077
 9167TIP3    H227466   6.035   5.985   2.196
 9168TIP3   OH227467   0.874   4.523   1.602
 9168TIP3    H127468   0.876   4.435   1.563
 9168TIP3    H227469   0.961   4.558   1.586
 9169TIP3   OH227470   3.733   3.237   1.491
 9169TIP3    H127471   3.643   3.213   1.469
 9169TIP3    H227472   3.726   3.325   1.528
 9170TIP3   OH227473   2.584   2.133   2.130
 9170TIP3    H127474   2.573   2.223   2.102
 9170TIP3    H227475   2.678   2.117   2.126
 9171TIP3   OH227476   5.041   4.427   1.978
 9171TIP3    H127477   5.039   4.427   1.882
 9171TIP3    H227478   4.949   4.437   2.003
 9172TIP3   OH227479   2.995   6.167   1.223
 9172TIP3    H127480   2.937   6.240   1.202
 9172TIP3    H227481   2.940   6.089   1.214
 9173TIP3   OH227482   4.675   2.352   3.580
 9173TIP3    H127483   4.673   2.257   3.574
 9173TIP3    H227484   4.583   2.378   3.589
 9174TIP3   OH227485   1.683   2.095   3.502
 9174TIP3    H127486   1.607   2.147   3.530
 9174TIP3    H227487   1.660   2.064   3.414
 9175TIP3   OH227488   5.905   2.234   0.440
 9175TIP3    H127489   5.907   2.193   0.527
 9175TIP3    H227490   5.984   2.202   0.396
 9176TIP3   OH227491   4.015   3.731   4.515
 9176TIP3    H127492   3.936   3.756   4.564
 9176TIP3    H227493   3.984   3.664   4.454
 9177TIP3   OH227494   6.542   5.456   3.182
 9177TIP3    H127495   6.561   5.523   3.248
 9177TIP3    H227496   6.625   5.445   3.135
 9178TIP3   OH227497   5.234   2.740   3.319
 9178TIP3    H127498   5.261   2.648   3.320
 9178TIP3    H227499   5.162   2.744   3.383
 9179TIP3   OH227500   1.816   0.777   0.433
 9179TIP3    H127501   1.743   0.804   0.489
 9179TIP3    H227502   1.890   0.830   0.464
 9180TIP3   OH227503   0.515   3.727   1.364
 9180TIP3    H127504   0.586   3.742   1.426
 9180TIP3    H227505   0.519   3.634   1.344
 9181TIP3   OH227506   5.218   2.530   0.701
 9181TIP3    H127507   5.282   2.541   0.772
 9181TIP3    H227508   5.152   2.597   0.718
 9182TIP3   OH227509   6.675   5.546   4.647
 9182TIP3    H127510   6.757   5.501   4.667
 9182TIP3    H227511   6.653   5.519   4.558
 9183TIP3   OH227512   4.274   6.762   0.850
 9183TIP3    H127513   4.183   6.734   0.843
 9183TIP3    H227514   4.325   6.683   0.829
 9184TIP3   OH227515   2.274   6.755   5.856
 9184TIP3    H127516   2.312   6.812   5.922
 9184TIP3    H227517   2.180   6.771   5.862
 9185TIP3   OH227518   4.958   0.195   2.009
 9185TIP3    H127519   4.926   0.147   1.933
 9185TIP3    H227520   4.881   0.206   2.064
 9186TIP3   OH227521   2.515   2.444   1.706
 9186TIP3    H127522   2.419   2.443   1.706
 9186TIP3    H227523   2.538   2.530   1.740
 9187TIP3   OH227524   3.932   4.676   4.480
 9187TIP3    H127525   3.964   4.766   4.484
 9187TIP3    H227526   3.836   4.685   4.476
 9188TIP3   OH227527   3.870   6.335   3.135
 9188TIP3    H127528   3.787   6.349   3.181
 9188TIP3    H227529   3.865   6.395   3.060
 9189TIP3   OH227530   1.354   0.820   1.717
 9189TIP3    H127531   1.366   0.915   1.709
 9189TIP3    H227532   1.408   0.796   1.792
 9190TIP3   OH227533   2.792   2.508   2.041
 9190TIP3    H127534   2.809   2.514   1.947
 9190TIP3    H227535   2.875   2.479   2.079
 9191TIP3   OH227536   2.692   1.634   3.585
 9191TIP3    H127537   2.713   1.546   3.618
 9191TIP3    H227538   2.773   1.663   3.544
 9192TIP3   OH227539   4.625   6.442   2.150
 9192TIP3    H127540   4.578   6.515   2.190
 9192TIP3    H227541   4.664   6.395   2.223
 9193TIP3   OH227542   2.545   4.412   3.696
 9193TIP3    H127543   2.569   4.343   3.633
 9193TIP3    H227544   2.523   4.487   3.642
 9194TIP3   OH227545   4.601   1.186   1.239
 9194TIP3    H127546   4.571   1.260   1.186
 9194TIP3    H227547   4.531   1.121   1.232
 9195TIP3   OH227548   3.935   0.194   1.493
 9195TIP3    H127549   3.998   0.178   1.422
 9195TIP3    H227550   3.849   0.188   1.450
 9196TIP3   OH227551   0.892   0.143   4.234
 9196TIP3    H127552   0.879   0.237   4.226
 9196TIP3    H227553   0.914   0.115   4.145
 9197TIP3   OH227554   1.736   1.433   3.145
 9197TIP3    H127555   1.699   1.366   3.202
 9197TIP3    H227556   1.830   1.415   3.142
 9198TIP3   OH227557   2.939   3.436   5.059
 9198TIP3    H127558   2.985   3.519   5.045
 9198TIP3    H227559   3.009   3.371   5.064
 9199TIP3   OH227560   2.775   5.329   0.658
 9199TIP3    H127561   2.726   5.300   0.736
 9199TIP3    H227562   2.776   5.252   0.601
 9200TIP3   OH227563   3.239   6.128   2.490
 9200TIP3    H127564   3.182   6.204   2.500
 9200TIP3    H227565   3.293   6.149   2.414
 9201TIP3   OH227566   2.125   6.115   0.145
 9201TIP3    H127567   2.091   6.046   0.202
 9201TIP3    H227568   2.203   6.077   0.106
 9202TIP3   OH227569   5.017   1.768   3.874
 9202TIP3    H127570   5.004   1.814   3.791
 9202TIP3    H227571   4.974   1.823   3.939
 9203TIP3   OH227572   5.545   3.096   4.338
 9203TIP3    H127573   5.598   3.035   4.389
 9203TIP3    H227574   5.536   3.173   4.394
 9204TIP3   OH227575   0.229   2.612   4.229
 9204TIP3    H127576   0.266   2.596   4.316
 9204TIP3    H227577   0.178   2.692   4.239
 9205TIP3   OH227578   1.462   6.713   2.258
 9205TIP3    H127579   1.431   6.762   2.333
 9205TIP3    H227580   1.386   6.662   2.229
 9206TIP3   OH227581   6.511   3.703   4.787
 9206TIP3    H127582   6.564   3.773   4.749
 9206TIP3    H227583   6.536   3.625   4.737
 9207TIP3   OH227584   4.921   1.346   0.772
 9207TIP3    H127585   4.981   1.414   0.742
 9207TIP3    H227586   4.978   1.277   0.808
 9208TIP3   OH227587   0.430   2.276   5.365
 9208TIP3    H127588   0.460   2.343   5.427
 9208TIP3    H227589   0.458   2.193   5.405
 9209TIP3   OH227590   7.028   1.208   2.395
 9209TIP3    H127591   7.066   1.123   2.416
 9209TIP3    H227592   7.099   1.257   2.352
 9210TIP3   OH227593   2.419   3.348   0.923
 9210TIP3    H127594   2.339   3.391   0.893
 9210TIP3    H227595   2.411   3.258   0.893
 9211TIP3   OH227596   2.027   6.546   2.349
 9211TIP3    H127597   2.118   6.518   2.341
 9211TIP3    H227598   2.013   6.555   2.443
 9212TIP3   OH227599   4.392   5.219   3.585
 9212TIP3    H127600   4.465   5.165   3.555
 9212TIP3    H227601   4.414   5.243   3.674
 9213TIP3   OH227602   1.343   3.365   0.128
 9213TIP3    H127603   1.413   3.315   0.087
 9213TIP3    H227604   1.273   3.367   0.063
 9214TIP3   OH227605   3.982   3.249   2.568
 9214TIP3    H127606   3.925   3.295   2.630
 9214TIP3    H227607   3.923   3.219   2.499
 9215TIP3   OH227608   2.970   0.215   1.956
 9215TIP3    H127609   2.930   0.247   2.036
 9215TIP3    H227610   3.063   0.207   1.977
 9216TIP3   OH227611   3.243   0.789   1.950
 9216TIP3    H127612   3.251   0.715   2.011
 9216TIP3    H227613   3.197   0.753   1.874
 9217TIP3   OH227614   6.673   0.792   4.024
 9217TIP3    H127615   6.585   0.799   4.061
 9217TIP3    H227616   6.716   0.874   4.049
 9218TIP3   OH227617   2.364   5.805   3.166
 9218TIP3    H127618   2.454   5.776   3.155
 9218TIP3    H227619   2.361   5.841   3.255
 9219TIP3   OH227620   2.150   2.032   0.374
 9219TIP3    H127621   2.060   2.033   0.342
 9219TIP3    H227622   2.142   2.007   0.466
 9220TIP3   OH227623   1.040   0.508   2.771
 9220TIP3    H127624   0.990   0.451   2.831
 9220TIP3    H227625   1.031   0.596   2.809
 9221TIP3   OH227626   2.830   6.317   2.390
 9221TIP3    H127627   2.754   6.368   2.418
 9221TIP3    H227628   2.812   6.296   2.298
 9222TIP3   OH227629   2.872   3.271   2.404
 9222TIP3    H127630   2.882   3.360   2.369
 9222TIP3    H227631   2.854   3.217   2.327
 9223TIP3   OH227632   3.397   4.149   3.133
 9223TIP3    H127633   3.318   4.185   3.092
 9223TIP3    H227634   3.365   4.094   3.205
 9224TIP3   OH227635   2.238   5.532   3.340
 9224TIP3    H127636   2.327   5.549   3.371
 9224TIP3    H227637   2.249   5.494   3.253
 9225TIP3   OH227638   2.496   4.812   0.408
 9225TIP3    H127639   2.468   4.899   0.439
 9225TIP3    H227640   2.576   4.829   0.359
 9226TIP3   OH227641   4.090   3.878   2.415
 9226TIP3    H127642   4.086   3.791   2.375
 9226TIP3    H227643   3.999   3.908   2.416
 9227TIP3   OH227644   5.284   0.249   4.771
 9227TIP3    H127645   5.193   0.222   4.779
 9227TIP3    H227646   5.306   0.287   4.856
 9228TIP3   OH227647   5.495   4.490   3.916
 9228TIP3    H127648   5.464   4.556   3.854
 9228TIP3    H227649   5.565   4.534   3.964
 9229TIP3   OH227650   5.770   3.580   3.012
 9229TIP3    H127651   5.711   3.655   3.018
 9229TIP3    H227652   5.712   3.504   3.004
 9230TIP3   OH227653   4.571   3.976   1.986
 9230TIP3    H127654   4.499   4.028   2.021
 9230TIP3    H227655   4.544   3.954   1.897
 9231TIP3   OH227656   6.986   5.800   1.658
 9231TIP3    H127657   7.059   5.811   1.597
 9231TIP3    H227658   6.929   5.735   1.616
 9232TIP3   OH227659   4.569   0.937   3.089
 9232TIP3    H127660   4.526   0.855   3.066
 9232TIP3    H227661   4.642   0.944   3.028
 9233TIP3   OH227662   2.715   0.440   5.049
 9233TIP3    H127663   2.756   0.526   5.040
 9233TIP3    H227664   2.684   0.418   4.961
 9234TIP3   OH227665   3.319   2.964   4.478
 9234TIP3    H127666   3.317   2.988   4.386
 9234TIP3    H227667   3.251   3.018   4.519
 9235TIP3   OH227668   0.639   1.434   4.678
 9235TIP3    H127669   0.612   1.350   4.641
 9235TIP3    H227670   0.624   1.497   4.608
 9236TIP3   OH227671   6.015   3.937   5.621
 9236TIP3    H127672   5.965   3.973   5.694
 9236TIP3    H227673   6.076   4.007   5.597
 9237TIP3   OH227674   6.585   3.877   0.833
 9237TIP3    H127675   6.530   3.882   0.911
 9237TIP3    H227676   6.545   3.939   0.772
 9238TIP3   OH227677   0.422   2.832   4.113
 9238TIP3    H127678   0.380   2.917   4.097
 9238TIP3    H227679   0.378   2.798   4.191
 9239TIP3   OH227680   3.522   0.452   1.922
 9239TIP3    H127681   3.527   0.521   1.989
 9239TIP3    H227682   3.449   0.478   1.866
 9240TIP3   OH227683   2.767   1.110   3.369
 9240TIP3    H127684   2.810   1.165   3.303
 9240TIP3    H227685   2.704   1.058   3.319
 9241TIP3   OH227686   4.608   2.638   0.404
 9241TIP3    H127687   4.658   2.704   0.357
 9241TIP3    H227688   4.673   2.590   0.456
 9242TIP3   OH227689   0.424   2.904   3.112
 9242TIP3    H127690   0.375   2.981   3.138
 9242TIP3    H227691   0.473   2.931   3.034
 9243TIP3   OH227692   2.015   2.071   1.412
 9243TIP3    H127693   2.018   2.084   1.317
 9243TIP3    H227694   2.079   2.133   1.447
 9244TIP3   OH227695   5.928   1.272   5.459
 9244TIP3    H127696   5.971   1.354   5.484
 9244TIP3    H227697   5.940   1.267   5.364
 9245TIP3   OH227698   2.714   6.324   4.872
 9245TIP3    H127699   2.773   6.393   4.902
 9245TIP3    H227700   2.764   6.243   4.883
 9246TIP3   OH227701   5.104   5.509   1.950
 9246TIP3    H127702   5.028   5.451   1.955
 9246TIP3    H227703   5.167   5.471   2.011
 9247TIP3   OH227704   0.608   1.616   3.957
 9247TIP3    H127705   0.677   1.676   3.987
 9247TIP3    H227706   0.529   1.670   3.955
 9248TIP3   OH227707   6.895   3.981   1.613
 9248TIP3    H127708   6.908   3.887   1.615
 9248TIP3    H227709   6.963   4.014   1.553
 9249TIP3   OH227710   6.403   5.288   4.913
 9249TIP3    H127711   6.458   5.248   4.847
 9249TIP3    H227712   6.314   5.259   4.891
 9250TIP3   OH227713   0.084   4.396   2.909
 9250TIP3    H127714   0.004   4.388   2.857
 9250TIP3    H227715   0.063   4.354   2.992
 9251TIP3   OH227716   1.040   5.301   5.374
 9251TIP3    H127717   1.004   5.294   5.286
 9251TIP3    H227718   0.973   5.262   5.430
 9252TIP3   OH227719   2.848   0.321   2.163
 9252TIP3    H127720   2.883   0.402   2.200
 9252TIP3    H227721   2.763   0.310   2.206
 9253TIP3   OH227722   2.622   3.914   3.526
 9253TIP3    H127723   2.533   3.885   3.544
 9253TIP3    H227724   2.676   3.837   3.541
 9254TIP3   OH227725   6.120   4.042   2.350
 9254TIP3    H127726   6.124   4.044   2.255
 9254TIP3    H227727   6.201   3.998   2.377
 9255TIP3   OH227728   1.998   0.115   5.433
 9255TIP3    H127729   1.903   0.108   5.445
 9255TIP3    H227730   2.010   0.113   5.338
 9256TIP3   OH227731   0.807   3.531   4.230
 9256TIP3    H127732   0.766   3.452   4.195
 9256TIP3    H227733   0.789   3.598   4.164
 9257TIP3   OH227734   0.401   2.735   2.172
 9257TIP3    H127735   0.309   2.723   2.150
 9257TIP3    H227736   0.403   2.814   2.225
 9258TIP3   OH227737   4.646   4.848   1.874
 9258TIP3    H127738   4.556   4.875   1.857
 9258TIP3    H227739   4.662   4.776   1.813
 9259TIP3   OH227740   5.477   6.469   3.813
 9259TIP3    H127741   5.421   6.544   3.794
 9259TIP3    H227742   5.466   6.411   3.738
 9260TIP3   OH227743   1.562   0.604   5.830
 9260TIP3    H127744   1.641   0.556   5.855
 9260TIP3    H227745   1.578   0.630   5.739
 9261TIP3   OH227746   3.235   3.374   2.316
 9261TIP3    H127747   3.256   3.281   2.320
 9261TIP3    H227748   3.294   3.409   2.249
 9262TIP3   OH227749   5.348   1.801   5.704
 9262TIP3    H127750   5.415   1.867   5.717
 9262TIP3    H227751   5.283   1.842   5.648
 9263TIP3   OH227752   3.342   2.563   2.037
 9263TIP3    H127753   3.379   2.613   2.110
 9263TIP3    H227754   3.385   2.597   1.959
 9264TIP3   OH227755   7.009   2.313   1.406
 9264TIP3    H127756   6.961   2.315   1.323
 9264TIP3    H227757   7.076   2.246   1.393
 9265TIP3   OH227758   2.775   5.308   3.251
 9265TIP3    H127759   2.850   5.294   3.194
 9265TIP3    H227760   2.769   5.228   3.304
 9266TIP3   OH227761   0.116   5.572   5.037
 9266TIP3    H127762   0.064   5.644   5.002
 9266TIP3    H227763   0.090   5.566   5.129
 9267TIP3   OH227764   0.025   3.277   0.526
 9267TIP3    H127765   0.079   3.336   0.579
 9267TIP3    H227766   0.081   3.255   0.451
 9268TIP3   OH227767   0.693   3.993   3.452
 9268TIP3    H127768   0.662   3.911   3.491
 9268TIP3    H227769   0.631   4.059   3.483
 9269TIP3   OH227770   6.668   2.326   2.050
 9269TIP3    H127771   6.627   2.288   2.128
 9269TIP3    H227772   6.664   2.421   2.065
 9270TIP3   OH227773   7.163   1.095   1.588
 9270TIP3    H127774   7.072   1.066   1.575
 9270TIP3    H227775   7.204   1.023   1.637
 9271TIP3   OH227776   6.872   5.351   1.419
 9271TIP3    H127777   6.889   5.435   1.463
 9271TIP3    H227778   6.910   5.361   1.332
 9272TIP3   OH227779   6.343   4.805   3.172
 9272TIP3    H127780   6.278   4.815   3.241
 9272TIP3    H227781   6.338   4.713   3.148
 9273TIP3   OH227782   0.134   1.633   4.497
 9273TIP3    H127783   0.107   1.667   4.583
 9273TIP3    H227784   0.119   1.707   4.438
 9274TIP3   OH227785   5.299   3.402   0.713
 9274TIP3    H127786   5.204   3.411   0.722
 9274TIP3    H227787   5.331   3.397   0.803
 9275TIP3   OH227788   2.024   3.246   5.027
 9275TIP3    H127789   2.117   3.247   5.048
 9275TIP3    H227790   2.002   3.153   5.021
 9276TIP3   OH227791   5.507   0.534   4.133
 9276TIP3    H127792   5.591   0.524   4.087
 9276TIP3    H227793   5.456   0.458   4.105
 9277TIP3   OH227794   2.274   6.191   2.763
 9277TIP3    H127795   2.253   6.251   2.834
 9277TIP3    H227796   2.229   6.110   2.786
 9278TIP3   OH227797   5.737   2.788   1.167
 9278TIP3    H127798   5.772   2.714   1.217
 9278TIP3    H227799   5.647   2.762   1.147
 9279TIP3   OH227800   0.396   5.339   4.198
 9279TIP3    H127801   0.419   5.260   4.150
 9279TIP3    H227802   0.478   5.372   4.234
 9280TIP3   OH227803   5.898   3.116   4.944
 9280TIP3    H127804   5.989   3.129   4.972
 9280TIP3    H227805   5.904   3.103   4.850
 9281TIP3   OH227806   1.108   1.755   0.115
 9281TIP3    H127807   1.156   1.744   0.197
 9281TIP3    H227808   1.117   1.671   0.071
 9282TIP3   OH227809   3.890   3.967   4.195
 9282TIP3    H127810   3.941   4.032   4.243
 9282TIP3    H227811   3.956   3.910   4.155
 9283TIP3   OH227812   2.448   5.166   1.621
 9283TIP3    H127813   2.363   5.178   1.580
 9283TIP3    H227814   2.455   5.238   1.684
 9284TIP3   OH227815   3.742   0.362   2.576
 9284TIP3    H127816   3.807   0.396   2.515
 9284TIP3    H227817   3.751   0.416   2.654
 9285TIP3   OH227818   0.916   4.711   4.158
 9285TIP3    H127819   0.953   4.654   4.090
 9285TIP3    H227820   0.827   4.678   4.171
 9286TIP3   OH227821   6.648   2.028   3.607
 9286TIP3    H127822   6.583   1.959   3.621
 9286TIP3    H227823   6.674   2.018   3.515
 9287TIP3   OH227824   4.175   2.653   5.228
 9287TIP3    H127825   4.218   2.738   5.225
 9287TIP3    H227826   4.167   2.633   5.321
 9288TIP3   OH227827   0.979   5.200   5.131
 9288TIP3    H127828   0.927   5.121   5.148
 9288TIP3    H227829   1.022   5.182   5.047
 9289TIP3   OH227830   2.838   4.259   3.744
 9289TIP3    H127831   2.795   4.258   3.830
 9289TIP3    H227832   2.883   4.175   3.739
 9290TIP3   OH227833   2.727   6.642   1.837
 9290TIP3    H127834   2.687   6.612   1.755
 9290TIP3    H227835   2.780   6.567   1.867
 9291TIP3   OH227836   3.784   4.283   2.302
 9291TIP3    H127837   3.762   4.191   2.283
 9291TIP3    H227838   3.760   4.294   2.394
 9292TIP3   OH227839   6.108   3.971   1.130
 9292TIP3    H127840   6.049   3.919   1.076
 9292TIP3    H227841   6.195   3.938   1.108
 9293TIP3   OH227842   0.005   5.011   0.657
 9293TIP3    H127843  -0.031   5.099   0.672
 9293TIP3    H227844   0.060   4.995   0.734
 9294TIP3   OH227845   0.144   4.799   2.435
 9294TIP3    H127846   0.149   4.704   2.445
 9294TIP3    H227847   0.149   4.833   2.525
 9295TIP3   OH227848   3.690   2.799   1.087
 9295TIP3    H127849   3.696   2.765   0.998
 9295TIP3    H227850   3.780   2.818   1.111
 9296TIP3   OH227851   3.734   4.528   1.427
 9296TIP3    H127852   3.708   4.459   1.366
 9296TIP3    H227853   3.736   4.608   1.374
 9297TIP3   OH227854   1.305   2.591   4.177
 9297TIP3    H127855   1.314   2.574   4.271
 9297TIP3    H227856   1.339   2.512   4.135
 9298TIP3   OH227857   0.197   2.537   5.351
 9298TIP3    H127858   0.176   2.506   5.439
 9298TIP3    H227859   0.136   2.489   5.294
 9299TIP3   OH227860   5.408   2.246   4.965
 9299TIP3    H127861   5.425   2.156   4.936
 9299TIP3    H227862   5.313   2.249   4.980
 9300TIP3   OH227863   2.871   3.813   0.414
 9300TIP3    H127864   2.963   3.837   0.398
 9300TIP3    H227865   2.841   3.776   0.331
 9301TIP3   OH227866   0.083   1.260   3.448
 9301TIP3    H127867   0.119   1.304   3.372
 9301TIP3    H227868   0.157   1.249   3.508
 9302TIP3   OH227869   4.860   6.669   1.645
 9302TIP3    H127870   4.944   6.709   1.667
 9302TIP3    H227871   4.804   6.743   1.620
 9303TIP3   OH227872   2.583   2.758   5.528
 9303TIP3    H127873   2.534   2.791   5.603
 9303TIP3    H227874   2.621   2.675   5.558
 9304TIP3   OH227875   2.261   6.619   4.772
 9304TIP3    H127876   2.342   6.590   4.729
 9304TIP3    H227877   2.199   6.548   4.757
 9305TIP3   OH227878   1.781   6.014   3.082
 9305TIP3    H127879   1.694   5.985   3.057
 9305TIP3    H227880   1.827   6.028   2.999
 9306TIP3   OH227881   6.341   6.178   4.590
 9306TIP3    H127882   6.413   6.163   4.528
 9306TIP3    H227883   6.322   6.272   4.581
 9307TIP3   OH227884   1.044   0.451   0.056
 9307TIP3    H127885   0.968   0.510   0.056
 9307TIP3    H227886   1.078   0.455  -0.033
 9308TIP3   OH227887   2.834   0.875   3.502
 9308TIP3    H127888   2.850   0.955   3.452
 9308TIP3    H227889   2.891   0.882   3.578
 9309TIP3   OH227890   4.597   5.573   3.429
 9309TIP3    H127891   4.526   5.576   3.494
 9309TIP3    H227892   4.669   5.620   3.471
 9310TIP3   OH227893   4.858   0.706   5.483
 9310TIP3    H127894   4.855   0.634   5.420
 9310TIP3    H227895   4.818   0.780   5.437
 9311TIP3   OH227896   6.614   1.415   2.513
 9311TIP3    H127897   6.586   1.333   2.473
 9311TIP3    H227898   6.550   1.430   2.583
 9312TIP3   OH227899   2.124   4.526   1.710
 9312TIP3    H127900   2.206   4.574   1.703
 9312TIP3    H227901   2.098   4.535   1.801
 9313TIP3   OH227902   0.978   2.134   2.938
 9313TIP3    H127903   0.926   2.055   2.924
 9313TIP3    H227904   0.914   2.202   2.959
 9314TIP3   OH227905   1.213   6.468   3.181
 9314TIP3    H127906   1.232   6.471   3.275
 9314TIP3    H227907   1.267   6.397   3.148
 9315TIP3   OH227908   5.415   6.068   4.806
 9315TIP3    H127909   5.451   6.155   4.788
 9315TIP3    H227910   5.425   6.056   4.900
 9316TIP3   OH227911   4.715   0.064   3.013
 9316TIP3    H127912   4.646   0.084   2.950
 9316TIP3    H227913   4.706   0.130   3.081
 9317TIP3   OH227914   2.500   0.782   0.284
 9317TIP3    H127915   2.565   0.850   0.268
 9317TIP3    H227916   2.545   0.700   0.265
 9318TIP3   OH227917   5.902   2.001   2.436
 9318TIP3    H127918   5.976   1.990   2.495
 9318TIP3    H227919   5.825   1.980   2.489
 9319TIP3   OH227920   4.750   5.760   0.429
 9319TIP3    H127921   4.801   5.830   0.389
 9319TIP3    H227922   4.716   5.710   0.355
 9320TIP3   OH227923   4.765   5.729   4.708
 9320TIP3    H127924   4.808   5.707   4.791
 9320TIP3    H227925   4.673   5.739   4.730
 9321TIP3   OH227926   1.865   3.445   2.055
 9321TIP3    H127927   1.794   3.498   2.018
 9321TIP3    H227928   1.939   3.458   1.996
 9322TIP3   OH227929   7.170   0.548   2.173
 9322TIP3    H127930   7.142   0.562   2.083
 9322TIP3    H227931   7.091   0.561   2.225
 9323TIP3   OH227932   3.983   5.394   0.565
 9323TIP3    H127933   3.982   5.488   0.586
 9323TIP3    H227934   4.005   5.391   0.473
 9324TIP3   OH227935   3.768   0.845   0.823
 9324TIP3    H127936   3.834   0.914   0.833
 9324TIP3    H227937   3.787   0.806   0.738
 9325TIP3   OH227938   2.055   6.690   0.641
 9325TIP3    H127939   2.085   6.601   0.622
 9325TIP3    H227940   2.102   6.745   0.579
 9326TIP3   OH227941   3.156   2.531   4.613
 9326TIP3    H127942   3.164   2.464   4.681
 9326TIP3    H227943   3.220   2.505   4.547
 9327TIP3   OH227944   2.640   5.992   4.777
 9327TIP3    H127945   2.600   5.905   4.781
 9327TIP3    H227946   2.723   5.982   4.822
 9328TIP3   OH227947   3.566   4.749   5.061
 9328TIP3    H127948   3.555   4.767   5.154
 9328TIP3    H227949   3.566   4.654   5.055
 9329TIP3   OH227950   1.513   5.954   1.534
 9329TIP3    H127951   1.590   5.953   1.590
 9329TIP3    H227952   1.547   5.961   1.445
 9330TIP3   OH227953   3.824   5.163   3.897
 9330TIP3    H127954   3.858   5.115   3.821
 9330TIP3    H227955   3.899   5.168   3.957
 9331TIP3   OH227956   3.760   4.139   5.474
 9331TIP3    H127957   3.679   4.158   5.425
 9331TIP3    H227958   3.793   4.058   5.436
 9332TIP3   OH227959   5.811   4.482   2.125
 9332TIP3    H127960   5.755   4.558   2.142
 9332TIP3    H227961   5.876   4.483   2.195
 9333TIP3   OH227962   0.549   5.641   1.163
 9333TIP3    H127963   0.505   5.590   1.095
 9333TIP3    H227964   0.497   5.626   1.242
 9334TIP3   OH227965   2.182   5.728   5.837
 9334TIP3    H127966   2.179   5.683   5.753
 9334TIP3    H227967   2.228   5.667   5.895
 9335TIP3   OH227968   3.712   6.468   0.471
 9335TIP3    H127969   3.647   6.531   0.501
 9335TIP3    H227970   3.665   6.410   0.411
 9336TIP3   OH227971   3.955   6.032   4.844
 9336TIP3    H127972   4.016   6.099   4.813
 9336TIP3    H227973   3.939   6.055   4.935
 9337TIP3   OH227974   0.480   0.424   1.767
 9337TIP3    H127975   0.481   0.517   1.789
 9337TIP3    H227976   0.413   0.415   1.700
 9338TIP3   OH227977   1.892   0.418   1.440
 9338TIP3    H127978   1.930   0.506   1.448
 9338TIP3    H227979   1.965   0.362   1.416
 9339TIP3   OH227980   1.208   1.117   2.590
 9339TIP3    H127981   1.183   1.089   2.502
 9339TIP3    H227982   1.161   1.199   2.603
 9340TIP3   OH227983   2.498   5.058   0.207
 9340TIP3    H127984   2.560   5.006   0.155
 9340TIP3    H227985   2.508   5.147   0.172
 9341TIP3   OH227986   3.605   0.063   5.170
 9341TIP3    H127987   3.683   0.016   5.142
 9341TIP3    H227988   3.556  -0.001   5.222
 9342TIP3   OH227989   0.972   6.061   2.242
 9342TIP3    H127990   1.062   6.071   2.212
 9342TIP3    H227991   0.949   6.146   2.279
 9343TIP3   OH227992   5.895   1.025   5.059
 9343TIP3    H127993   5.834   1.048   5.129
 9343TIP3    H227994   5.862   1.071   4.982
 9344TIP3   OH227995   3.261   6.768   0.915
 9344TIP3    H127996   3.230   6.770   0.825
 9344TIP3    H227997   3.355   6.755   0.908
 9345TIP3   OH227998   5.273   6.337   5.431
 9345TIP3    H127999   5.247   6.429   5.432
 9345TIP3    H228000   5.360   6.337   5.390
 9346TIP3   OH228001   3.857   2.995   3.164
 9346TIP3    H128002   3.769   2.992   3.201
 9346TIP3    H228003   3.912   3.030   3.234
 9347TIP3   OH228004   4.160   1.955   1.944
 9347TIP3    H128005   4.075   1.941   1.987
 9347TIP3    H228006   4.137   1.991   1.858
 9348TIP3   OH228007   7.020   5.280   5.542
 9348TIP3    H128008   6.996   5.207   5.599
 9348TIP3    H228009   7.004   5.248   5.453
 9349TIP3   OH228010   0.132   3.541   3.938
 9349TIP3    H128011   0.045   3.517   3.906
 9349TIP3    H228012   0.191   3.477   3.898
 9350TIP3   OH228013   5.515   5.435   2.151
 9350TIP3    H128014   5.467   5.512   2.183
 9350TIP3    H228015   5.573   5.411   2.224
 9351TIP3   OH228016   2.801   5.727   1.292
 9351TIP3    H128017   2.891   5.758   1.283
 9351TIP3    H228018   2.763   5.741   1.205
 9352TIP3   OH228019   5.817   5.372   3.160
 9352TIP3    H128020   5.849   5.282   3.165
 9352TIP3    H228021   5.784   5.381   3.071
 9353TIP3   OH228022   1.937   0.899   1.643
 9353TIP3    H128023   1.988   0.837   1.591
 9353TIP3    H228024   1.965   0.883   1.733
 9354TIP3   OH228025   5.003   2.574   3.857
 9354TIP3    H128026   5.013   2.610   3.945
 9354TIP3    H228027   4.908   2.568   3.845
 9355TIP3   OH228028   0.857   5.122   4.435
 9355TIP3    H128029   0.868   5.217   4.443
 9355TIP3    H228030   0.918   5.097   4.365
 9356TIP3   OH228031   2.171   5.869   4.621
 9356TIP3    H128032   2.135   5.788   4.583
 9356TIP3    H228033   2.175   5.851   4.715
 9357TIP3   OH228034   5.873   5.613   5.562
 9357TIP3    H128035   5.933   5.600   5.488
 9357TIP3    H228036   5.914   5.566   5.635
 9358TIP3   OH228037   4.377   5.625   0.373
 9358TIP3    H128038   4.442   5.660   0.434
 9358TIP3    H228039   4.429   5.589   0.302
 9359TIP3   OH228040   6.981   3.056   3.170
 9359TIP3    H128041   6.905   3.045   3.227
 9359TIP3    H228042   7.042   3.108   3.222
 9360TIP3   OH228043   0.460   1.251   3.827
 9360TIP3    H128044   0.532   1.250   3.891
 9360TIP3    H228045   0.430   1.160   3.825
 9361TIP3   OH228046   5.584   2.080   1.241
 9361TIP3    H128047   5.584   1.985   1.228
 9361TIP3    H228048   5.657   2.096   1.301
 9362TIP3   OH228049   0.198   4.848   0.079
 9362TIP3    H128050   0.232   4.917   0.135
 9362TIP3    H228051   0.275   4.809   0.038
 9363TIP3   OH228052   0.131   1.417   0.168
 9363TIP3    H128053   0.217   1.379   0.150
 9363TIP3    H228054   0.139   1.454   0.256
 9364TIP3   OH228055   5.396   3.296   3.416
 9364TIP3    H128056   5.381   3.376   3.464
 9364TIP3    H228057   5.433   3.325   3.332
 9365TIP3   OH228058   1.223   4.737   5.786
 9365TIP3    H128059   1.187   4.656   5.750
 9365TIP3    H228060   1.250   4.714   5.875
 9366TIP3   OH228061   2.839   5.328   1.046
 9366TIP3    H128062   2.796   5.347   1.129
 9366TIP3    H228063   2.882   5.410   1.022
 9367TIP3   OH228064   5.361   4.314   4.090
 9367TIP3    H128065   5.412   4.342   4.014
 9367TIP3    H228066   5.287   4.266   4.053
 9368TIP3   OH228067   6.465   5.704   4.455
 9368TIP3    H128068   6.488   5.611   4.457
 9368TIP3    H228069   6.548   5.750   4.467
 9369TIP3   OH228070   4.634   6.077   3.159
 9369TIP3    H128071   4.620   6.157   3.110
 9369TIP3    H228072   4.583   6.088   3.239
 9370TIP3   OH228073   6.676   3.797   2.755
 9370TIP3    H128074   6.621   3.729   2.794
 9370TIP3    H228075   6.635   3.879   2.782
 9371TIP3   OH228076   6.603   6.651   3.633
 9371TIP3    H128077   6.614   6.731   3.684
 9371TIP3    H228078   6.687   6.639   3.588
 9372TIP3   OH228079   2.756   3.640   4.807
 9372TIP3    H128080   2.688   3.629   4.874
 9372TIP3    H228081   2.776   3.734   4.808
 9373TIP3   OH228082   1.191   2.252   2.429
 9373TIP3    H128083   1.218   2.161   2.419
 9373TIP3    H228084   1.154   2.256   2.517
 9374TIP3   OH228085   2.344   6.188   4.920
 9374TIP3    H128086   2.387   6.249   4.860
 9374TIP3    H228087   2.408   6.119   4.934
 9375TIP3   OH228088   2.674   5.069   0.786
 9375TIP3    H128089   2.767   5.052   0.803
 9375TIP3    H228090   2.628   5.022   0.855
 9376TIP3   OH228091   6.832   1.240   2.923
 9376TIP3    H128092   6.920   1.203   2.936
 9376TIP3    H228093   6.843   1.303   2.852
 9377TIP3   OH228094   5.979   4.713   3.510
 9377TIP3    H128095   5.936   4.717   3.424
 9377TIP3    H228096   6.067   4.681   3.491
 9378TIP3   OH228097   4.544   3.277   3.079
 9378TIP3    H128098   4.507   3.322   3.155
 9378TIP3    H228099   4.609   3.217   3.116
 9379TIP3   OH228100   0.524   6.074   3.073
 9379TIP3    H128101   0.553   6.153   3.028
 9379TIP3    H228102   0.592   6.058   3.139
 9380TIP3   OH228103   3.091   1.445   4.010
 9380TIP3    H128104   3.067   1.378   3.946
 9380TIP3    H228105   3.091   1.400   4.094
 9381TIP3   OH228106   2.453   2.921   4.018
 9381TIP3    H128107   2.457   2.904   3.924
 9381TIP3    H228108   2.545   2.926   4.046
 9382TIP3   OH228109   2.912   2.245   1.846
 9382TIP3    H128110   2.946   2.157   1.827
 9382TIP3    H228111   2.987   2.292   1.882
 9383TIP3   OH228112   5.473   2.441   1.278
 9383TIP3    H128113   5.421   2.481   1.348
 9383TIP3    H228114   5.542   2.393   1.324
 9384TIP3   OH228115   2.540   5.433   3.859
 9384TIP3    H128116   2.453   5.417   3.894
 9384TIP3    H228117   2.583   5.348   3.860
 9385TIP3   OH228118   6.452   0.411   3.716
 9385TIP3    H128119   6.544   0.435   3.716
 9385TIP3    H228120   6.451   0.318   3.739
 9386TIP3   OH228121   3.095   3.111   3.257
 9386TIP3    H128122   3.077   3.201   3.287
 9386TIP3    H228123   3.166   3.121   3.194
 9387TIP3   OH228124   6.919   1.179   0.455
 9387TIP3    H128125   6.992   1.223   0.500
 9387TIP3    H228126   6.924   1.211   0.365
 9388TIP3   OH228127   6.975   5.911   4.832
 9388TIP3    H128128   6.899   5.908   4.889
 9388TIP3    H228129   6.979   6.001   4.800
 9389TIP3   OH228130   1.306   1.363   4.657
 9389TIP3    H128131   1.221   1.397   4.685
 9389TIP3    H228132   1.314   1.389   4.566
 9390TIP3   OH228133   5.278   2.059   2.177
 9390TIP3    H128134   5.190   2.086   2.151
 9390TIP3    H228135   5.290   1.973   2.136
 9391TIP3   OH228136   3.931   1.048   1.642
 9391TIP3    H128137   3.910   0.955   1.630
 9391TIP3    H228138   3.871   1.078   1.710
 9392TIP3   OH228139   2.472   4.948   5.139
 9392TIP3    H128140   2.505   4.857   5.139
 9392TIP3    H228141   2.537   4.996   5.191
 9393TIP3   OH228142   0.633   6.556   1.597
 9393TIP3    H128143   0.595   6.639   1.625
 9393TIP3    H228144   0.559   6.495   1.596
 9394TIP3   OH228145   6.855   5.063   3.557
 9394TIP3    H128146   6.782   5.125   3.556
 9394TIP3    H228147   6.918   5.101   3.618
 9395TIP3   OH228148   3.563   1.041   4.448
 9395TIP3    H128149   3.477   1.074   4.422
 9395TIP3    H228150   3.559   0.947   4.427
 9396TIP3   OH228151   1.221   3.000   4.830
 9396TIP3    H128152   1.226   2.905   4.842
 9396TIP3    H228153   1.306   3.024   4.795
 9397TIP3   OH228154   3.059   4.636   2.356
 9397TIP3    H128155   3.144   4.612   2.318
 9397TIP3    H228156   3.017   4.689   2.289
 9398TIP3   OH228157   5.017   2.983   3.810
 9398TIP3    H128158   4.952   2.941   3.754
 9398TIP3    H228159   5.079   2.913   3.831
 9399TIP3   OH228160   4.688   5.908   3.555
 9399TIP3    H128161   4.765   5.930   3.502
 9399TIP3    H228162   4.725   5.871   3.635
 9400TIP3   OH228163   3.483   3.965   2.044
 9400TIP3    H128164   3.495   4.058   2.066
 9400TIP3    H228165   3.431   3.967   1.964
 9401TIP3   OH228166   6.106   0.346   1.436
 9401TIP3    H128167   6.168   0.281   1.402
 9401TIP3    H228168   6.020   0.304   1.428
 9402TIP3   OH228169   1.516   0.143   5.655
 9402TIP3    H128170   1.563   0.199   5.717
 9402TIP3    H228171   1.426   0.175   5.658
 9403TIP3   OH228172   0.213   6.743   0.173
 9403TIP3    H128173   0.132   6.781   0.208
 9403TIP3    H228174   0.255   6.815   0.126
 9404TIP3   OH228175   6.717   3.233   5.576
 9404TIP3    H128176   6.735   3.221   5.669
 9404TIP3    H228177   6.776   3.303   5.548
 9405TIP3   OH228178   4.462   0.145   1.028
 9405TIP3    H128179   4.415   0.110   1.104
 9405TIP3    H228180   4.471   0.071   0.969
 9406TIP3   OH228181   5.998   0.549   3.293
 9406TIP3    H128182   5.921   0.599   3.318
 9406TIP3    H228183   6.056   0.612   3.250
 9407TIP3   OH228184   2.204   0.739   4.924
 9407TIP3    H128185   2.219   0.833   4.912
 9407TIP3    H228186   2.277   0.710   4.978
 9408TIP3   OH228187   3.337   1.895   5.484
 9408TIP3    H128188   3.290   1.850   5.414
 9408TIP3    H228189   3.430   1.884   5.461
 9409TIP3   OH228190   3.046   3.935   1.664
 9409TIP3    H128191   3.115   3.874   1.690
 9409TIP3    H228192   3.086   3.990   1.598
 9410TIP3   OH228193   1.181   6.011   5.162
 9410TIP3    H128194   1.103   5.997   5.107
 9410TIP3    H228195   1.253   5.972   5.112
 9411TIP3   OH228196   4.415   6.654   3.713
 9411TIP3    H128197   4.435   6.734   3.664
 9411TIP3    H228198   4.433   6.676   3.804
 9412TIP3   OH228199   1.514   3.531   4.027
 9412TIP3    H128200   1.537   3.471   3.955
 9412TIP3    H228201   1.598   3.549   4.070
 9413TIP3   OH228202   4.319   0.549   4.038
 9413TIP3    H128203   4.358   0.529   4.123
 9413TIP3    H228204   4.246   0.487   4.030
 9414TIP3   OH228205   4.677   4.806   2.943
 9414TIP3    H128206   4.719   4.803   3.029
 9414TIP3    H228207   4.585   4.783   2.960
 9415TIP3   OH228208   5.356   0.664   1.252
 9415TIP3    H128209   5.443   0.637   1.223
 9415TIP3    H228210   5.366   0.682   1.346
 9416TIP3   OH228211   3.449   0.391   2.987
 9416TIP3    H128212   3.534   0.346   2.982
 9416TIP3    H228213   3.464   0.475   2.945
 9417TIP3   OH228214   2.343   0.078   3.046
 9417TIP3    H128215   2.396   0.142   2.998
 9417TIP3    H228216   2.403   0.040   3.109
 9418TIP3   OH228217   1.639   0.966   5.415
 9418TIP3    H128218   1.643   0.917   5.333
 9418TIP3    H228219   1.620   1.056   5.388
 9419TIP3   OH228220   6.898   5.351   3.455
 9419TIP3    H128221   6.926   5.415   3.521
 9419TIP3    H228222   6.971   5.348   3.393
 9420TIP3   OH228223   1.462   1.917   1.799
 9420TIP3    H128224   1.524   1.977   1.840
 9420TIP3    H228225   1.506   1.833   1.800
 9421TIP3   OH228226   2.863   5.139   5.143
 9421TIP3    H128227   2.816   5.194   5.081
 9421TIP3    H228228   2.811   5.143   5.223
 9422TIP3   OH228229   2.815   1.103   2.189
 9422TIP3    H128230   2.759   1.086   2.113
 9422TIP3    H228231   2.900   1.067   2.165
 9423TIP3   OH228232   4.313   5.182   2.191
 9423TIP3    H128233   4.397   5.137   2.182
 9423TIP3    H228234   4.306   5.201   2.285
 9424TIP3   OH228235   6.484   5.549   0.743
 9424TIP3    H128236   6.414   5.497   0.782
 9424TIP3    H228237   6.531   5.487   0.687
 9425TIP3   OH228238   0.563   0.083   1.279
 9425TIP3    H128239   0.643   0.044   1.314
 9425TIP3    H228240   0.535   0.144   1.347
 9426TIP3   OH228241   3.344   5.918   4.533
 9426TIP3    H128242   3.295   5.897   4.613
 9426TIP3    H228243   3.320   6.009   4.515
 9427TIP3   OH228244   3.089   0.230   4.233
 9427TIP3    H128245   3.059   0.140   4.247
 9427TIP3    H228246   3.057   0.278   4.309
 9428TIP3   OH228247   2.265   1.962   5.642
 9428TIP3    H128248   2.346   1.967   5.692
 9428TIP3    H228249   2.218   1.888   5.679
 9429TIP3   OH228250   0.256   3.800   0.165
 9429TIP3    H128251   0.246   3.882   0.215
 9429TIP3    H228252   0.277   3.734   0.231
 9430TIP3   OH228253   6.324   0.456   2.703
 9430TIP3    H128254   6.327   0.475   2.796
 9430TIP3    H228255   6.387   0.517   2.663
 9431TIP3   OH228256   1.271   1.305   3.055
 9431TIP3    H128257   1.361   1.318   3.026
 9431TIP3    H228258   1.263   1.361   3.132
 9432TIP3   OH228259   1.549   5.128   2.061
 9432TIP3    H128260   1.611   5.161   2.126
 9432TIP3    H228261   1.593   5.052   2.022
 9433TIP3   OH228262   2.090   5.732   5.147
 9433TIP3    H128263   2.054   5.647   5.171
 9433TIP3    H228264   2.112   5.724   5.054
 9434TIP3   OH228265   6.885   4.144   2.930
 9434TIP3    H128266   6.834   4.063   2.939
 9434TIP3    H228267   6.894   4.157   2.836
 9435TIP3   OH228268   5.397   5.651   5.613
 9435TIP3    H128269   5.445   5.704   5.677
 9435TIP3    H228270   5.441   5.566   5.615
 9436TIP3   OH228271   3.611   1.858   5.459
 9436TIP3    H128272   3.594   1.792   5.392
 9436TIP3    H228273   3.683   1.821   5.511
 9437TIP3   OH228274   4.200   4.807   4.346
 9437TIP3    H128275   4.200   4.717   4.312
 9437TIP3    H228276   4.109   4.836   4.335
 9438TIP3   OH228277   4.292   1.809   1.705
 9438TIP3    H128278   4.338   1.727   1.723
 9438TIP3    H228279   4.209   1.782   1.665
 9439TIP3   OH228280   5.641   3.501   1.888
 9439TIP3    H128281   5.660   3.595   1.881
 9439TIP3    H228282   5.721   3.458   1.858
 9440TIP3   OH228283   6.194   6.246   0.436
 9440TIP3    H128284   6.100   6.234   0.420
 9440TIP3    H228285   6.218   6.172   0.491
 9441TIP3   OH228286   0.564   4.168   3.946
 9441TIP3    H128287   0.584   4.232   4.014
 9441TIP3    H228288   0.626   4.096   3.961
 9442TIP3   OH228289   4.484   0.765   5.295
 9442TIP3    H128290   4.442   0.823   5.231
 9442TIP3    H228291   4.574   0.796   5.299
 9443TIP3   OH228292   0.508   4.180   2.839
 9443TIP3    H128293   0.526   4.273   2.851
 9443TIP3    H228294   0.418   4.176   2.808
 9444TIP3   OH228295   4.868   0.960   3.678
 9444TIP3    H128296   4.885   0.877   3.722
 9444TIP3    H228297   4.811   1.008   3.737
 9445TIP3   OH228298   2.613   6.263   1.025
 9445TIP3    H128299   2.550   6.202   1.063
 9445TIP3    H228300   2.598   6.258   0.931
 9446TIP3   OH228301   2.158   4.481   5.060
 9446TIP3    H128302   2.074   4.513   5.092
 9446TIP3    H228303   2.220   4.552   5.077
 9447TIP3   OH228304   5.118   4.752   3.984
 9447TIP3    H128305   5.140   4.839   3.950
 9447TIP3    H228306   5.023   4.750   3.984
 9448TIP3   OH228307   0.367   2.695   1.728
 9448TIP3    H128308   0.367   2.744   1.646
 9448TIP3    H228309   0.447   2.723   1.773
 9449TIP3   OH228310   5.805   2.976   0.977
 9449TIP3    H128311   5.788   2.910   1.044
 9449TIP3    H228312   5.739   2.959   0.910
 9450TIP3   OH228313   5.871   1.633   1.121
 9450TIP3    H128314   5.853   1.549   1.162
 9450TIP3    H228315   5.966   1.641   1.123
 9451TIP3   OH228316   4.350   4.996   4.461
 9451TIP3    H128317   4.308   4.919   4.424
 9451TIP3    H228318   4.354   4.978   4.555
 9452TIP3   OH228319   5.810   4.912   2.553
 9452TIP3    H128320   5.780   4.889   2.641
 9452TIP3    H228321   5.895   4.953   2.566
 9453TIP3   OH228322   1.305   2.437   5.837
 9453TIP3    H128323   1.216   2.465   5.856
 9453TIP3    H228324   1.343   2.414   5.922
 9454TIP3   OH228325   5.281   2.241   2.954
 9454TIP3    H128326   5.323   2.213   2.873
 9454TIP3    H228327   5.189   2.251   2.931
 9455TIP3   OH228328   1.395   5.574   2.460
 9455TIP3    H128329   1.346   5.492   2.457
 9455TIP3    H228330   1.386   5.611   2.372
 9456TIP3   OH228331   6.693   1.104   4.003
 9456TIP3    H128332   6.641   1.180   4.028
 9456TIP3    H228333   6.775   1.141   3.969
 9457TIP3   OH228334   2.587   4.173   3.512
 9457TIP3    H128335   2.651   4.218   3.457
 9457TIP3    H228336   2.622   4.085   3.524
 9458TIP3   OH228337   6.040   0.196   4.467
 9458TIP3    H128338   5.945   0.188   4.463
 9458TIP3    H228339   6.055   0.290   4.478
 9459TIP3   OH228340   4.274   5.804   3.608
 9459TIP3    H128341   4.311   5.791   3.520
 9459TIP3    H228342   4.294   5.895   3.629
 9460TIP3   OH228343   5.402   1.022   5.157
 9460TIP3    H128344   5.430   1.102   5.201
 9460TIP3    H228345   5.313   1.007   5.190
 9461TIP3   OH228346   5.809   0.836   4.524
 9461TIP3    H128347   5.714   0.828   4.521
 9461TIP3    H228348   5.836   0.833   4.432
 9462TIP3   OH228349   1.183   2.640   1.544
 9462TIP3    H128350   1.197   2.570   1.608
 9462TIP3    H228351   1.097   2.623   1.507
 9463TIP3   OH228352   4.628   1.923   3.859
 9463TIP3    H128353   4.537   1.951   3.868
 9463TIP3    H228354   4.652   1.946   3.769
 9464TIP3   OH228355   2.753   1.389   4.748
 9464TIP3    H128356   2.828   1.336   4.775
 9464TIP3    H228357   2.729   1.439   4.827
 9465TIP3   OH228358   5.438   2.477   3.057
 9465TIP3    H128359   5.498   2.483   2.983
 9465TIP3    H228360   5.385   2.399   3.038
 9466TIP3   OH228361   4.221   2.135   3.072
 9466TIP3    H128362   4.154   2.204   3.082
 9466TIP3    H228363   4.170   2.054   3.064
 9467TIP3   OH228364   1.425   3.064   2.661
 9467TIP3    H128365   1.371   2.985   2.665
 9467TIP3    H228366   1.502   3.038   2.609
 9468TIP3   OH228367   2.199   2.720   3.083
 9468TIP3    H128368   2.131   2.779   3.114
 9468TIP3    H228369   2.281   2.758   3.117
 9469TIP3   OH228370   1.316   2.835   2.706
 9469TIP3    H128371   1.230   2.813   2.743
 9469TIP3    H228372   1.379   2.802   2.770
 9470TIP3   OH228373   1.926   5.055   4.655
 9470TIP3    H128374   1.878   5.137   4.660
 9470TIP3    H228375   2.016   5.080   4.636
 9471TIP3   OH228376   6.287   4.014   5.422
 9471TIP3    H128377   6.339   3.945   5.382
 9471TIP3    H228378   6.236   4.051   5.351
 9472TIP3   OH228379   1.223   1.026   3.673
 9472TIP3    H128380   1.240   0.950   3.618
 9472TIP3    H228381   1.309   1.049   3.708
 9473TIP3   OH228382   3.296   6.550   5.424
 9473TIP3    H128383   3.263   6.558   5.513
 9473TIP3    H228384   3.224   6.580   5.368
 9474TIP3   OH228385   1.482   2.603   4.451
 9474TIP3    H128386   1.496   2.671   4.517
 9474TIP3    H228387   1.567   2.559   4.444
 9475TIP3   OH228388   1.687   0.785   1.542
 9475TIP3    H128389   1.716   0.775   1.451
 9475TIP3    H228390   1.767   0.810   1.589
 9476TIP3   OH228391   4.243   5.364   0.916
 9476TIP3    H128392   4.302   5.438   0.901
 9476TIP3    H228393   4.158   5.395   0.886
 9477TIP3   OH228394   4.975   4.676   3.620
 9477TIP3    H128395   5.003   4.732   3.692
 9477TIP3    H228396   4.933   4.601   3.663
 9478TIP3   OH228397   2.664   4.519   5.134
 9478TIP3    H128398   2.602   4.451   5.106
 9478TIP3    H228399   2.662   4.514   5.229
 9479TIP3   OH228400   0.466   6.788   1.146
 9479TIP3    H128401   0.396   6.826   1.199
 9479TIP3    H228402   0.491   6.707   1.191
 9480TIP3   OH228403   4.206   4.934   2.307
 9480TIP3    H128404   4.205   4.999   2.237
 9480TIP3    H228405   4.155   4.861   2.272
 9481TIP3   OH228406   0.550   4.468   2.364
 9481TIP3    H128407   0.520   4.481   2.454
 9481TIP3    H228408   0.520   4.380   2.341
 9482TIP3   OH228409   6.479   2.005   1.096
 9482TIP3    H128410   6.480   1.999   1.000
 9482TIP3    H228411   6.532   2.083   1.115
 9483TIP3   OH228412   1.205   5.859   2.985
 9483TIP3    H128413   1.283   5.809   2.959
 9483TIP3    H228414   1.213   5.942   2.938
 9484TIP3   OH228415   5.400   3.802   1.046
 9484TIP3    H128416   5.432   3.722   1.005
 9484TIP3    H228417   5.307   3.784   1.064
 9485TIP3   OH228418   2.470   0.760   2.656
 9485TIP3    H128419   2.377   0.780   2.644
 9485TIP3    H228420   2.478   0.746   2.751
 9486TIP3   OH228421   5.210   0.777   2.235
 9486TIP3    H128422   5.256   0.695   2.217
 9486TIP3    H228423   5.241   0.837   2.168
 9487TIP3   OH228424   4.572   1.469   4.222
 9487TIP3    H128425   4.578   1.538   4.156
 9487TIP3    H228426   4.661   1.461   4.257
 9488TIP3   OH228427   4.388   2.681   0.543
 9488TIP3    H128428   4.470   2.644   0.508
 9488TIP3    H228429   4.367   2.753   0.484
 9489TIP3   OH228430   6.241   1.866   5.257
 9489TIP3    H128431   6.260   1.947   5.304
 9489TIP3    H228432   6.328   1.828   5.239
 9490TIP3   OH228433   4.684   1.959   1.503
 9490TIP3    H128434   4.740   2.034   1.525
 9490TIP3    H228435   4.677   1.910   1.585
 9491TIP3   OH228436   2.779   2.920   2.560
 9491TIP3    H128437   2.708   2.864   2.593
 9491TIP3    H228438   2.760   2.931   2.467
 9492TIP3   OH228439   6.875   0.032   2.894
 9492TIP3    H128440   6.847  -0.051   2.856
 9492TIP3    H228441   6.887   0.014   2.987
 9493TIP3   OH228442   1.832   3.761   5.710
 9493TIP3    H128443   1.753   3.817   5.708
 9493TIP3    H228444   1.882   3.795   5.784
 9494TIP3   OH228445   2.488   0.881   3.759
 9494TIP3    H128446   2.434   0.827   3.701
 9494TIP3    H228447   2.520   0.952   3.703
 9495TIP3   OH228448   5.278   0.632   2.770
 9495TIP3    H128449   5.244   0.672   2.849
 9495TIP3    H228450   5.354   0.582   2.799
 9496TIP3   OH228451   6.826   5.458   0.404
 9496TIP3    H128452   6.915   5.495   0.413
 9496TIP3    H228453   6.833   5.398   0.330
 9497TIP3   OH228454   4.307   6.771   5.845
 9497TIP3    H128455   4.259   6.854   5.851
 9497TIP3    H228456   4.278   6.722   5.922
 9498TIP3   OH228457   3.226   1.773   3.600
 9498TIP3    H128458   3.298   1.722   3.564
 9498TIP3    H228459   3.229   1.757   3.694
 9499TIP3   OH228460   1.154   0.438   1.083
 9499TIP3    H128461   1.090   0.378   1.045
 9499TIP3    H228462   1.175   0.499   1.011
 9500TIP3   OH228463   2.925   2.241   5.501
 9500TIP3    H128464   2.902   2.170   5.560
 9500TIP3    H228465   2.898   2.210   5.414
 9501TIP3   OH228466   5.737  -0.004   4.385
 9501TIP3    H128467   5.719   0.001   4.291
 9501TIP3    H228468   5.661   0.036   4.426
 9502TIP3   OH228469   4.255   1.865   0.167
 9502TIP3    H128470   4.283   1.884   0.077
 9502TIP3    H228471   4.285   1.775   0.182
 9503TIP3   OH228472   6.688   0.595   4.987
 9503TIP3    H128473   6.662   0.517   4.938
 9503TIP3    H228474   6.757   0.635   4.934
 9504TIP3   OH228475   5.084   1.391   4.715
 9504TIP3    H128476   5.078   1.435   4.630
 9504TIP3    H228477   5.027   1.314   4.706
 9505TIP3   OH228478   1.016   3.171   3.242
 9505TIP3    H128479   0.949   3.134   3.298
 9505TIP3    H228480   1.008   3.266   3.254
 9506TIP3   OH228481   0.996   6.338   2.849
 9506TIP3    H128482   0.909   6.376   2.840
 9506TIP3    H228483   1.055   6.413   2.854
 9507TIP3   OH228484   4.875   5.463  -0.001
 9507TIP3    H128485   4.917   5.548   0.008
 9507TIP3    H228486   4.935   5.402   0.041
 9508TIP3   OH228487   3.445   1.710   5.052
 9508TIP3    H128488   3.442   1.639   5.115
 9508TIP3    H228489   3.466   1.788   5.104
 9509TIP3   OH228490   4.515   6.335   5.246
 9509TIP3    H128491   4.477   6.320   5.160
 9509TIP3    H228492   4.573   6.260   5.260
 9510TIP3   OH228493   5.517   4.411   1.757
 9510TIP3    H128494   5.544   4.501   1.774
 9510TIP3    H228495   5.555   4.390   1.671
 9511TIP3   OH228496   6.983   5.854   3.946
 9511TIP3    H128497   6.921   5.802   3.996
 9511TIP3    H228498   6.970   5.944   3.978
 9512TIP3   OH228499   3.765   6.767   3.264
 9512TIP3    H128500   3.674   6.796   3.255
 9512TIP3    H228501   3.790   6.795   3.352
 9513TIP3   OH228502   2.199   1.172   2.071
 9513TIP3    H128503   2.263   1.105   2.047
 9513TIP3    H228504   2.239   1.254   2.042
 9514TIP3   OH228505   1.433   3.752   3.888
 9514TIP3    H128506   1.409   3.676   3.941
 9514TIP3    H228507   1.521   3.732   3.856
 9515TIP3   OH228508   3.371   3.489   0.956
 9515TIP3    H128509   3.343   3.580   0.959
 9515TIP3    H228510   3.322   3.446   1.026
 9516TIP3   OH228511   5.001   1.755   2.017
 9516TIP3    H128512   5.089   1.753   1.978
 9516TIP3    H228513   4.988   1.846   2.043
 9517TIP3   OH228514   4.384   2.072   5.234
 9517TIP3    H128515   4.321   2.025   5.179
 9517TIP3    H228516   4.355   2.163   5.232
 9518TIP3   OH228517   4.898   6.297   2.133
 9518TIP3    H128518   4.839   6.333   2.066
 9518TIP3    H228519   4.985   6.327   2.107
 9519TIP3   OH228520   6.740   6.239   2.196
 9519TIP3    H128521   6.752   6.219   2.104
 9519TIP3    H228522   6.646   6.253   2.206
 9520TIP3   OH228523   4.361   6.032   5.367
 9520TIP3    H128524   4.434   6.093   5.374
 9520TIP3    H228525   4.379   5.965   5.433
 9521TIP3   OH228526   6.566   4.526   3.835
 9521TIP3    H128527   6.626   4.499   3.905
 9521TIP3    H228528   6.588   4.469   3.761
 9522TIP3   OH228529   2.520   1.341   2.223
 9522TIP3    H128530   2.531   1.431   2.256
 9522TIP3    H228531   2.479   1.294   2.295
 9523TIP3   OH228532   2.829   2.483   2.961
 9523TIP3    H128533   2.866   2.462   3.047
 9523TIP3    H228534   2.847   2.406   2.908
 9524TIP3   OH228535   4.778   3.999   3.137
 9524TIP3    H128536   4.705   4.061   3.132
 9524TIP3    H228537   4.856   4.053   3.142
 9525TIP3   OH228538   3.141   0.536   2.000
 9525TIP3    H128539   3.138   0.497   1.912
 9525TIP3    H228540   3.190   0.472   2.052
 9526TIP3   OH228541   5.450   3.698   2.012
 9526TIP3    H128542   5.487   3.615   2.045
 9526TIP3    H228543   5.356   3.688   2.025
 9527TIP3   OH228544   4.299   6.041   2.200
 9527TIP3    H128545   4.395   6.039   2.197
 9527TIP3    H228546   4.273   5.951   2.179
 9528TIP3   OH228547   2.292   1.740   4.328
 9528TIP3    H128548   2.285   1.800   4.402
 9528TIP3    H228549   2.374   1.694   4.342
 9529TIP3   OH228550   7.075   0.259   0.458
 9529TIP3    H128551   7.133   0.335   0.464
 9529TIP3    H228552   6.992   0.289   0.496
 9530TIP3   OH228553   2.649   5.416   4.250
 9530TIP3    H128554   2.581   5.373   4.302
 9530TIP3    H228555   2.722   5.428   4.311
 9531TIP3   OH228556   1.315   0.647   0.095
 9531TIP3    H128557   1.313   0.600   0.012
 9531TIP3    H228558   1.338   0.581   0.160
 9532TIP3   OH228559   4.858   4.484   1.166
 9532TIP3    H128560   4.838   4.546   1.096
 9532TIP3    H228561   4.954   4.486   1.173
 9533TIP3   OH228562   1.978   5.919   5.694
 9533TIP3    H128563   2.028   5.999   5.712
 9533TIP3    H228564   2.039   5.848   5.713
 9534TIP3   OH228565   4.735   5.204   0.260
 9534TIP3    H128566   4.778   5.270   0.314
 9534TIP3    H228567   4.697   5.253   0.188
 9535TIP3   OH228568   2.081   5.151   5.554
 9535TIP3    H128569   2.059   5.219   5.618
 9535TIP3    H228570   2.101   5.199   5.473
 9536TIP3   OH228571   1.175   3.347   5.734
 9536TIP3    H128572   1.245   3.397   5.692
 9536TIP3    H228573   1.132   3.302   5.662
 9537TIP3   OH228574   5.297   1.737   2.413
 9537TIP3    H128575   5.361   1.708   2.348
 9537TIP3    H228576   5.214   1.702   2.383
 9538TIP3   OH228577   1.056   0.327   3.065
 9538TIP3    H128578   1.058   0.242   3.019
 9538TIP3    H228579   0.968   0.361   3.047
 9539TIP3   OH228580   1.284   3.760   5.208
 9539TIP3    H128581   1.222   3.697   5.245
 9539TIP3    H228582   1.242   3.791   5.128
 9540TIP3   OH228583   3.067   3.601   4.382
 9540TIP3    H128584   3.066   3.553   4.464
 9540TIP3    H228585   3.070   3.533   4.314
 9541TIP3   OH228586   6.601   3.255   5.279
 9541TIP3    H128587   6.591   3.231   5.371
 9541TIP3    H228588   6.657   3.187   5.243
 9542TIP3   OH228589   3.694   5.010   4.085
 9542TIP3    H128590   3.730   5.084   4.036
 9542TIP3    H228591   3.672   5.047   4.170
 9543TIP3   OH228592   2.274   2.667   3.425
 9543TIP3    H128593   2.262   2.573   3.411
 9543TIP3    H228594   2.365   2.683   3.402
 9544TIP3   OH228595   4.474   3.907   4.576
 9544TIP3    H128596   4.443   3.849   4.507
 9544TIP3    H228597   4.503   3.848   4.646
 9545TIP3   OH228598   1.873   2.437   5.796
 9545TIP3    H128599   1.809   2.473   5.735
 9545TIP3    H228600   1.927   2.379   5.743
 9546TIP3   OH228601   6.003   0.722   1.446
 9546TIP3    H128602   5.926   0.775   1.427
 9546TIP3    H228603   5.991   0.694   1.536
 9547TIP3   OH228604   5.987   3.114   2.250
 9547TIP3    H128605   6.004   3.174   2.323
 9547TIP3    H228606   6.070   3.111   2.202
 9548TIP3   OH228607   3.447   0.846   0.085
 9548TIP3    H128608   3.418   0.920   0.033
 9548TIP3    H228609   3.441   0.876   0.176
 9549TIP3   OH228610   3.904   6.652   1.748
 9549TIP3    H128611   3.929   6.562   1.770
 9549TIP3    H228612   3.907   6.699   1.831
 9550TIP3   OH228613   0.306   5.371   2.768
 9550TIP3    H128614   0.362   5.409   2.701
 9550TIP3    H228615   0.356   5.377   2.849
 9551TIP3   OH228616   5.806   1.550   2.958
 9551TIP3    H128617   5.790   1.626   3.014
 9551TIP3    H228618   5.860   1.585   2.886
 9552TIP3   OH228619   5.406   1.987   4.890
 9552TIP3    H128620   5.359   1.914   4.931
 9552TIP3    H228621   5.403   1.969   4.796
 9553TIP3   OH228622   0.822   1.757   3.137
 9553TIP3    H128623   0.835   1.824   3.204
 9553TIP3    H228624   0.757   1.698   3.175
 9554TIP3   OH228625   5.007   0.168   1.370
 9554TIP3    H128626   4.960   0.119   1.437
 9554TIP3    H228627   5.084   0.202   1.415
 9555TIP3   OH228628   2.200   4.214   2.852
 9555TIP3    H128629   2.153   4.271   2.792
 9555TIP3    H228630   2.131   4.163   2.896
 9556TIP3   OH228631   5.409   6.607   1.028
 9556TIP3    H128632   5.338   6.669   1.045
 9556TIP3    H228633   5.476   6.659   0.983
 9557TIP3   OH228634   0.745   5.408   5.144
 9557TIP3    H128635   0.747   5.411   5.048
 9557TIP3    H228636   0.825   5.360   5.167
 9558TIP3   OH228637   0.501   3.599   3.799
 9558TIP3    H128638   0.455   3.679   3.825
 9558TIP3    H228639   0.592   3.616   3.822
 9559TIP3   OH228640   2.640   5.605   2.841
 9559TIP3    H128641   2.661   5.692   2.807
 9559TIP3    H228642   2.715   5.551   2.818
 9560TIP3   OH228643   4.427   6.592   2.796
 9560TIP3    H128644   4.360   6.526   2.775
 9560TIP3    H228645   4.458   6.623   2.711
 9561TIP3   OH228646   0.737   5.626   1.937
 9561TIP3    H128647   0.795   5.599   1.866
 9561TIP3    H228648   0.756   5.565   2.008
 9562TIP3   OH228649   2.599   3.665   3.699
 9562TIP3    H128650   2.508   3.690   3.714
 9562TIP3    H228651   2.601   3.635   3.608
 9563TIP3   OH228652   3.714   4.000   2.314
 9563TIP3    H128653   3.759   3.947   2.248
 9563TIP3    H228654   3.661   3.937   2.363
 9564TIP3   OH228655   1.933   0.526   0.562
 9564TIP3    H128656   1.899   0.583   0.493
 9564TIP3    H228657   1.872   0.538   0.635
 9565TIP3   OH228658   5.153   1.393   4.395
 9565TIP3    H128659   5.235   1.425   4.432
 9565TIP3    H228660   5.168   1.393   4.300
 9566TIP3   OH228661   3.231   2.939   5.682
 9566TIP3    H128662   3.262   2.988   5.758
 9566TIP3    H228663   3.212   3.006   5.617
 9567TIP3   OH228664   6.153   0.249   5.814
 9567TIP3    H128665   6.230   0.254   5.871
 9567TIP3    H228666   6.123   0.340   5.808
 9568TIP3   OH228667   0.693   1.387   4.277
 9568TIP3    H128668   0.608   1.345   4.290
 9568TIP3    H228669   0.680   1.478   4.301
 9569TIP3   OH228670   6.047   1.330   2.450
 9569TIP3    H128671   5.965   1.298   2.487
 9569TIP3    H228672   6.055   1.283   2.367
 9570TIP3   OH228673   0.448   3.611   2.782
 9570TIP3    H128674   0.492   3.691   2.753
 9570TIP3    H228675   0.410   3.574   2.703
 9571TIP3   OH228676   6.908   0.762   2.507
 9571TIP3    H128677   6.840   0.735   2.569
 9571TIP3    H228678   6.943   0.844   2.545
 9572TIP3   OH228679   3.219   5.358   1.812
 9572TIP3    H128680   3.299   5.410   1.803
 9572TIP3    H228681   3.169   5.378   1.733
 9573TIP3   OH228682   6.916   4.672   0.442
 9573TIP3    H128683   7.007   4.694   0.461
 9573TIP3    H228684   6.879   4.753   0.406
 9574TIP3   OH228685   5.253   3.921   5.524
 9574TIP3    H128686   5.306   3.946   5.599
 9574TIP3    H228687   5.316   3.886   5.460
 9575TIP3   OH228688   5.563   5.081   3.436
 9575TIP3    H128689   5.563   5.150   3.370
 9575TIP3    H228690   5.654   5.078   3.468
 9576TIP3   OH228691   2.560   2.791   0.907
 9576TIP3    H128692   2.512   2.751   0.979
 9576TIP3    H228693   2.543   2.734   0.832
 9577TIP3   OH228694   1.955   5.033   1.815
 9577TIP3    H128695   1.945   4.981   1.895
 9577TIP3    H228696   2.029   5.091   1.833
 9578TIP3   OH228697   5.781   0.343   2.380
 9578TIP3    H128698   5.824   0.258   2.386
 9578TIP3    H228699   5.847   0.406   2.407
 9579TIP3   OH228700   1.354   2.764   5.249
 9579TIP3    H128701   1.419   2.774   5.319
 9579TIP3    H228702   1.403   2.722   5.178
 9580TIP3   OH228703   4.553   3.205   1.386
 9580TIP3    H128704   4.465   3.183   1.353
 9580TIP3    H228705   4.537   3.244   1.472
 9581TIP3   OH228706   0.364   0.925   3.809
 9581TIP3    H128707   0.297   0.888   3.867
 9581TIP3    H228708   0.421   0.851   3.788
 9582TIP3   OH228709   1.610   6.774   4.873
 9582TIP3    H128710   1.636   6.688   4.840
 9582TIP3    H228711   1.652   6.837   4.814
 9583TIP3   OH228712   2.418   5.869   3.983
 9583TIP3    H128713   2.434   5.915   4.065
 9583TIP3    H228714   2.480   5.796   3.984
 9584TIP3   OH228715   6.391   3.793   5.285
 9584TIP3    H128716   6.481   3.824   5.278
 9584TIP3    H228717   6.367   3.767   5.196
 9585TIP3   OH228718   1.720   5.937   2.675
 9585TIP3    H128719   1.677   5.858   2.708
 9585TIP3    H228720   1.651   5.984   2.627
 9586TIP3   OH228721   6.188   2.009   3.448
 9586TIP3    H128722   6.210   1.966   3.365
 9586TIP3    H228723   6.099   1.980   3.467
 9587TIP3   OH228724   0.959   6.239   5.477
 9587TIP3    H128725   0.958   6.274   5.566
 9587TIP3    H228726   1.050   6.213   5.463
 9588TIP3   OH228727   1.465   2.231   0.390
 9588TIP3    H128728   1.415   2.311   0.373
 9588TIP3    H228729   1.425   2.194   0.468
 9589TIP3   OH228730   1.613   2.660   2.318
 9589TIP3    H128731   1.561   2.580   2.316
 9589TIP3    H228732   1.589   2.703   2.401
 9590TIP3   OH228733   3.062   3.549   5.434
 9590TIP3    H128734   2.974   3.557   5.397
 9590TIP3    H228735   3.047   3.531   5.527
 9591TIP3   OH228736   3.037   4.816   1.424
 9591TIP3    H128737   3.064   4.742   1.370
 9591TIP3    H228738   3.003   4.881   1.363
 9592TIP3   OH228739   3.963   2.662   2.733
 9592TIP3    H128740   3.903   2.623   2.670
 9592TIP3    H228741   3.922   2.646   2.818
 9593TIP3   OH228742   4.940   0.525   2.312
 9593TIP3    H128743   5.024   0.536   2.266
 9593TIP3    H228744   4.963   0.529   2.405
 9594TIP3   OH228745   1.743   3.243   5.076
 9594TIP3    H128746   1.733   3.309   5.145
 9594TIP3    H228747   1.838   3.237   5.062
 9595TIP3   OH228748   4.950   4.950   2.209
 9595TIP3    H128749   4.873   4.948   2.267
 9595TIP3    H228750   5.018   4.905   2.259
 9596TIP3   OH228751   7.144   6.757   1.834
 9596TIP3    H128752   7.160   6.698   1.908
 9596TIP3    H228753   7.206   6.728   1.767
 9597TIP3   OH228754   7.232   1.493   3.093
 9597TIP3    H128755   7.262   1.575   3.054
 9597TIP3    H228756   7.278   1.425   3.044
 9598TIP3   OH228757   5.941   0.727   3.573
 9598TIP3    H128758   5.877   0.762   3.511
 9598TIP3    H228759   6.025   0.760   3.542
 9599TIP3   OH228760   6.109   3.006   5.770
 9599TIP3    H128761   6.200   2.983   5.752
 9599TIP3    H228762   6.109   3.102   5.770
 9600TIP3   OH228763   3.439   0.143   1.759
 9600TIP3    H128764   3.389   0.108   1.685
 9600TIP3    H228765   3.489   0.216   1.721
 9601TIP3   OH228766   4.107   4.280   1.441
 9601TIP3    H128767   4.095   4.368   1.404
 9601TIP3    H228768   4.097   4.221   1.367
 9602TIP3   OH228769   6.842   5.284   1.028
 9602TIP3    H128770   6.803   5.341   0.962
 9602TIP3    H228771   6.936   5.291   1.014
 9603TIP3   OH228772   0.526   6.383   4.814
 9603TIP3    H128773   0.590   6.442   4.854
 9603TIP3    H228774   0.445   6.434   4.811
 9604TIP3   OH228775   0.077   0.541   4.977
 9604TIP3    H128776   0.082   0.526   4.882
 9604TIP3    H228777  -0.014   0.567   4.992
 9605TIP3   OH228778   3.989   0.412   2.086
 9605TIP3    H128779   4.022   0.498   2.061
 9605TIP3    H228780   3.923   0.391   2.020
 9606TIP3   OH228781   6.277   0.312   5.417
 9606TIP3    H128782   6.194   0.285   5.456
 9606TIP3    H228783   6.259   0.317   5.323
 9607TIP3   OH228784   6.546   1.471   2.066
 9607TIP3    H128785   6.559   1.543   2.004
 9607TIP3    H228786   6.591   1.397   2.026
 9608TIP3   OH228787   1.710   4.188   2.591
 9608TIP3    H128788   1.632   4.155   2.637
 9608TIP3    H228789   1.694   4.166   2.499
 9609TIP3   OH228790   3.745   5.408   0.897
 9609TIP3    H128791   3.685   5.472   0.935
 9609TIP3    H228792   3.701   5.378   0.817
 9610TIP3   OH228793   2.378   4.148   0.179
 9610TIP3    H128794   2.405   4.155   0.088
 9610TIP3    H228795   2.455   4.174   0.229
 9611TIP3   OH228796   6.758   6.005   5.898
 9611TIP3    H128797   6.825   5.970   5.839
 9611TIP3    H228798   6.691   5.936   5.901
 9612TIP3   OH228799   6.514   0.945   2.532
 9612TIP3    H128800   6.465   0.947   2.614
 9612TIP3    H228801   6.463   1.000   2.472
 9613TIP3   OH228802   2.111   0.737   3.226
 9613TIP3    H128803   2.105   0.660   3.283
 9613TIP3    H228804   2.202   0.737   3.197
 9614TIP3   OH228805   4.325   4.743   1.394
 9614TIP3    H128806   4.231   4.763   1.394
 9614TIP3    H228807   4.367   4.827   1.410
 9615TIP3   OH228808   6.177   5.959   0.300
 9615TIP3    H128809   6.151   5.938   0.390
 9615TIP3    H228810   6.273   5.954   0.301
 9616TIP3   OH228811   4.781   2.429   3.253
 9616TIP3    H128812   4.814   2.347   3.290
 9616TIP3    H228813   4.711   2.402   3.193
 9617TIP3   OH228814   7.164   4.996   3.165
 9617TIP3    H128815   7.135   5.083   3.191
 9617TIP3    H228816   7.087   4.956   3.125
 9618TIP3   OH228817   5.295   5.517   5.218
 9618TIP3    H128818   5.376   5.561   5.245
 9618TIP3    H228819   5.304   5.506   5.123
 9619TIP3   OH228820   5.979   3.986   3.866
 9619TIP3    H128821   5.957   3.957   3.778
 9619TIP3    H228822   6.001   3.905   3.913
 9620TIP3   OH228823   1.382   1.998   5.161
 9620TIP3    H128824   1.457   2.002   5.102
 9620TIP3    H228825   1.309   1.971   5.104
 9621TIP3   OH228826   4.272   5.747   4.290
 9621TIP3    H128827   4.277   5.746   4.386
 9621TIP3    H228828   4.289   5.838   4.266
 9622TIP3   OH228829   7.088   1.784   3.836
 9622TIP3    H128830   7.030   1.815   3.766
 9622TIP3    H228831   7.055   1.698   3.859
 9623TIP3   OH228832   5.419   1.613   1.897
 9623TIP3    H128833   5.483   1.561   1.945
 9623TIP3    H228834   5.472   1.674   1.845
 9624TIP3   OH228835   2.513   0.964   1.663
 9624TIP3    H128836   2.495   0.922   1.578
 9624TIP3    H228837   2.433   0.949   1.714
 9625TIP3   OH228838   4.976   4.144   1.638
 9625TIP3    H128839   5.037   4.215   1.658
 9625TIP3    H228840   5.030   4.066   1.630
 9626TIP3   OH228841   4.564   3.293   3.425
 9626TIP3    H128842   4.595   3.349   3.497
 9626TIP3    H228843   4.478   3.328   3.402
 9627TIP3   OH228844   1.936   0.029   3.952
 9627TIP3    H128845   1.850   0.015   3.913
 9627TIP3    H228846   1.922   0.015   4.046
 9628TIP3   OH228847   3.762   0.571   0.980
 9628TIP3    H128848   3.810   0.644   1.020
 9628TIP3    H228849   3.721   0.609   0.903
 9629TIP3   OH228850   2.037   1.646   2.824
 9629TIP3    H128851   1.960   1.696   2.801
 9629TIP3    H228852   2.092   1.649   2.746
 9630TIP3   OH228853   2.174   4.684   2.620
 9630TIP3    H128854   2.256   4.687   2.669
 9630TIP3    H228855   2.149   4.592   2.621
 9631TIP3   OH228856   1.623   2.287   5.552
 9631TIP3    H128857   1.705   2.276   5.503
 9631TIP3    H228858   1.557   2.244   5.498
 9632TIP3   OH228859   3.832   3.707   0.357
 9632TIP3    H128860   3.829   3.795   0.394
 9632TIP3    H228861   3.918   3.702   0.316
 9633TIP3   OH228862   2.797   2.631   2.335
 9633TIP3    H128863   2.723   2.626   2.397
 9633TIP3    H228864   2.798   2.545   2.293
 9634TIP3   OH228865   6.063   5.056   1.068
 9634TIP3    H128866   6.095   5.091   0.985
 9634TIP3    H228867   6.142   5.039   1.119
 9635TIP3   OH228868   6.465   2.406   3.542
 9635TIP3    H128869   6.508   2.346   3.602
 9635TIP3    H228870   6.421   2.350   3.478
 9636TIP3   OH228871   7.049   3.253   5.240
 9636TIP3    H128872   7.082   3.296   5.161
 9636TIP3    H228873   7.040   3.324   5.304
 9637TIP3   OH228874   1.560   0.779   0.120
 9637TIP3    H128875   1.486   0.728   0.089
 9637TIP3    H228876   1.635   0.720   0.110
 9638TIP3   OH228877   6.788   6.233   1.902
 9638TIP3    H128878   6.817   6.209   1.814
 9638TIP3    H228879   6.713   6.292   1.886
 9639TIP3   OH228880   6.052   3.053   2.892
 9639TIP3    H128881   6.121   3.119   2.904
 9639TIP3    H228882   5.972   3.096   2.921
 9640TIP3   OH228883   1.139   4.743   0.648
 9640TIP3    H128884   1.147   4.670   0.710
 9640TIP3    H228885   1.048   4.771   0.657
 9641TIP3   OH228886   0.586   1.147   2.869
 9641TIP3    H128887   0.558   1.191   2.949
 9641TIP3    H228888   0.564   1.055   2.883
 9642TIP3   OH228889   5.957   3.385   4.561
 9642TIP3    H128890   5.973   3.376   4.467
 9642TIP3    H228891   6.037   3.426   4.595
 9643TIP3   OH228892   1.166   4.132   4.736
 9643TIP3    H128893   1.249   4.178   4.728
 9643TIP3    H228894   1.186   4.042   4.708
 9644TIP3   OH228895   7.057   6.769   1.008
 9644TIP3    H128896   7.061   6.691   1.062
 9644TIP3    H228897   6.987   6.822   1.046
 9645TIP3   OH228898   1.260   1.747   1.254
 9645TIP3    H128899   1.267   1.839   1.229
 9645TIP3    H228900   1.271   1.747   1.349
 9646TIP3   OH228901   4.057   6.669   2.289
 9646TIP3    H128902   3.962   6.656   2.292
 9646TIP3    H228903   4.071   6.721   2.211
 9647TIP3   OH228904   2.808   3.468   2.647
 9647TIP3    H128905   2.863   3.430   2.578
 9647TIP3    H228906   2.787   3.394   2.704
 9648TIP3   OH228907   6.331   4.440   2.120
 9648TIP3    H128908   6.390   4.465   2.048
 9648TIP3    H228909   6.311   4.523   2.164
 9649TIP3   OH228910   3.869   1.236   4.515
 9649TIP3    H128911   3.795   1.223   4.574
 9649TIP3    H228912   3.850   1.178   4.441
 9650TIP3   OH228913   7.219   4.262   0.997
 9650TIP3    H128914   7.220   4.356   0.978
 9650TIP3    H228915   7.131   4.234   0.972
 9651TIP3   OH228916   6.091   5.897   1.909
 9651TIP3    H128917   6.111   5.951   1.833
 9651TIP3    H228918   6.135   5.814   1.891
 9652TIP3   OH228919   0.708   6.224   5.616
 9652TIP3    H128920   0.652   6.147   5.622
 9652TIP3    H228921   0.788   6.193   5.573
 9653TIP3   OH228922   5.578   2.516   4.765
 9653TIP3    H128923   5.662   2.541   4.804
 9653TIP3    H228924   5.529   2.476   4.836
 9654TIP3   OH228925   2.426   1.133   0.079
 9654TIP3    H128926   2.380   1.215   0.062
 9654TIP3    H228927   2.471   1.147   0.163
 9655TIP3   OH228928   2.977   1.656   3.749
 9655TIP3    H128929   2.962   1.604   3.669
 9655TIP3    H228930   2.911   1.625   3.810
 9656TIP3   OH228931   0.941   0.843   2.095
 9656TIP3    H128932   1.035   0.834   2.081
 9656TIP3    H228933   0.901   0.813   2.014
 9657TIP3   OH228934   2.193   4.580   0.512
 9657TIP3    H128935   2.170   4.603   0.422
 9657TIP3    H228936   2.194   4.663   0.559
 9658TIP3   OH228937   1.299   0.841   2.807
 9658TIP3    H128938   1.261   0.913   2.857
 9658TIP3    H228939   1.366   0.882   2.753
 9659TIP3   OH228940   6.727   5.867   2.405
 9659TIP3    H128941   6.710   5.798   2.469
 9659TIP3    H228942   6.641   5.903   2.386
 9660TIP3   OH228943   0.539   6.223   5.361
 9660TIP3    H128944   0.508   6.219   5.451
 9660TIP3    H228945   0.494   6.151   5.317
 9661TIP3   OH228946   7.064   0.434   3.867
 9661TIP3    H128947   6.993   0.406   3.926
 9661TIP3    H228948   7.040   0.523   3.841
 9662TIP3   OH228949   5.907   4.124   4.095
 9662TIP3    H128950   5.931   4.084   4.011
 9662TIP3    H228951   5.864   4.054   4.144
 9663TIP3   OH228952   2.737   3.901   5.130
 9663TIP3    H128953   2.722   3.956   5.206
 9663TIP3    H228954   2.812   3.940   5.086
 9664TIP3   OH228955   0.714   5.274   4.774
 9664TIP3    H128956   0.696   5.194   4.823
 9664TIP3    H228957   0.781   5.319   4.825
 9665TIP3   OH228958   3.046   2.687   1.247
 9665TIP3    H128959   3.026   2.599   1.214
 9665TIP3    H228960   3.126   2.712   1.199
 9666TIP3   OH228961   6.665   6.003   3.412
 9666TIP3    H128962   6.623   6.026   3.329
 9666TIP3    H228963   6.652   6.080   3.468
 9667TIP3   OH228964   4.993   4.255   4.982
 9667TIP3    H128965   4.933   4.268   4.908
 9667TIP3    H228966   5.074   4.297   4.954
 9668TIP3   OH228967   0.138   5.189   1.462
 9668TIP3    H128968   0.089   5.269   1.485
 9668TIP3    H228969   0.127   5.182   1.367
 9669TIP3   OH228970   1.904   3.789   5.435
 9669TIP3    H128971   1.880   3.809   5.525
 9669TIP3    H228972   1.865   3.702   5.418
 9670TIP3   OH228973   3.919   1.692   5.105
 9670TIP3    H128974   3.874   1.682   5.020
 9670TIP3    H228975   3.999   1.641   5.095
 9671TIP3   OH228976   5.006   0.876   0.151
 9671TIP3    H128977   5.099   0.893   0.140
 9671TIP3    H228978   5.001   0.788   0.189
 9672TIP3   OH228979   3.970   2.758   5.033
 9672TIP3    H128980   3.911   2.699   5.081
 9672TIP3    H228981   4.056   2.741   5.070
 9673TIP3   OH228982   1.613   2.447   1.911
 9673TIP3    H128983   1.540   2.439   1.973
 9673TIP3    H228984   1.576   2.418   1.827
 9674TIP3   OH228985   6.053   4.528   3.952
 9674TIP3    H128986   6.021   4.594   4.013
 9674TIP3    H228987   6.140   4.559   3.926
 9675TIP3   OH228988   3.040   6.422   3.127
 9675TIP3    H128989   3.013   6.489   3.190
 9675TIP3    H228990   3.111   6.375   3.171
 9676TIP3   OH228991   0.379   0.882   5.829
 9676TIP3    H128992   0.451   0.910   5.773
 9676TIP3    H228993   0.409   0.900   5.918
 9677TIP3   OH228994   4.146   5.579   0.092
 9677TIP3    H128995   4.184   5.660   0.127
 9677TIP3    H228996   4.062   5.606   0.055
 9678TIP3   OH228997   4.999   4.821   0.459
 9678TIP3    H128998   5.095   4.817   0.449
 9678TIP3    H228999   4.968   4.854   0.375
 9679TIP3   OH229000   3.610   1.371   1.184
 9679TIP3    H129001   3.690   1.388   1.235
 9679TIP3    H229002   3.561   1.453   1.190
 9680TIP3   OH229003   0.055   2.329   3.696
 9680TIP3    H129004   0.048   2.248   3.645
 9680TIP3    H229005   0.146   2.356   3.687
 9681TIP3   OH229006   2.592   3.285   2.462
 9681TIP3    H129007   2.680   3.249   2.456
 9681TIP3    H229008   2.539   3.230   2.405
 9682TIP3   OH229009   4.618   5.501   5.240
 9682TIP3    H129010   4.688   5.564   5.221
 9682TIP3    H229011   4.664   5.425   5.277
 9683TIP3   OH229012   5.495   2.496   5.021
 9683TIP3    H129013   5.448   2.415   5.005
 9683TIP3    H229014   5.430   2.555   5.059
 9684TIP3   OH229015   7.054   1.837   4.221
 9684TIP3    H129016   7.145   1.854   4.247
 9684TIP3    H229017   7.037   1.899   4.151
 9685TIP3   OH229018   6.015   3.670   3.403
 9685TIP3    H129019   6.057   3.592   3.438
 9685TIP3    H229020   5.985   3.644   3.316
 9686TIP3   OH229021   6.491   6.181   3.900
 9686TIP3    H129022   6.442   6.143   3.827
 9686TIP3    H229023   6.574   6.133   3.902
 9687TIP3   OH229024   2.271   4.081   5.056
 9687TIP3    H129025   2.197   4.141   5.055
 9687TIP3    H229026   2.231   3.995   5.070
 9688TIP3   OH229027   2.268   6.783   4.293
 9688TIP3    H129028   2.256   6.689   4.299
 9688TIP3    H229029   2.296   6.798   4.203
 9689TIP3   OH229030   2.841   6.637   4.588
 9689TIP3    H129031   2.933   6.652   4.608
 9689TIP3    H229032   2.837   6.546   4.560
 9690TIP3   OH229033   6.884   2.031   3.392
 9690TIP3    H129034   6.911   1.993   3.308
 9690TIP3    H229035   6.816   2.094   3.369
 9691TIP3   OH229036   1.449   1.968   5.635
 9691TIP3    H129037   1.409   2.033   5.693
 9691TIP3    H229038   1.387   1.958   5.563
 9692TIP3   OH229039   1.343   6.388   5.193
 9692TIP3    H129040   1.371   6.439   5.269
 9692TIP3    H229041   1.365   6.443   5.118
 9693TIP3   OH229042   5.535   2.786   4.617
 9693TIP3    H129043   5.486   2.857   4.658
 9693TIP3    H229044   5.517   2.709   4.672
 9694TIP3   OH229045   1.816   4.027   4.391
 9694TIP3    H129046   1.767   3.952   4.357
 9694TIP3    H229047   1.899   3.989   4.420
 9695TIP3   OH229048   3.929   0.386   5.052
 9695TIP3    H129049   3.879   0.333   4.989
 9695TIP3    H229050   3.945   0.468   5.005
 9696TIP3   OH229051   5.409   4.320   4.632
 9696TIP3    H129052   5.335   4.352   4.579
 9696TIP3    H229053   5.403   4.225   4.625
 9697TIP3   OH229054   4.740   0.960   1.890
 9697TIP3    H129055   4.734   0.904   1.967
 9697TIP3    H229056   4.664   1.019   1.896
 9698TIP3   OH229057   7.210   6.751   5.834
 9698TIP3    H129058   7.157   6.829   5.817
 9698TIP3    H229059   7.205   6.700   5.753
 9699TIP3   OH229060   4.481   3.948   3.371
 9699TIP3    H129061   4.515   3.858   3.369
 9699TIP3    H229062   4.554   4.002   3.399
 9700TIP3   OH229063   6.861   2.981   3.662
 9700TIP3    H129064   6.804   3.048   3.623
 9700TIP3    H229065   6.907   2.942   3.587
 9701TIP3   OH229066   4.575   5.941   5.064
 9701TIP3    H129067   4.518   5.873   5.028
 9701TIP3    H229068   4.576   5.924   5.158
 9702TIP3   OH229069   4.842   0.468   3.369
 9702TIP3    H129070   4.880   0.407   3.306
 9702TIP3    H229071   4.845   0.553   3.327
 9703TIP3   OH229072   0.137   0.774   5.172
 9703TIP3    H129073   0.108   0.716   5.101
 9703TIP3    H229074   0.140   0.718   5.249
 9704TIP3   OH229075   3.830   5.601   3.175
 9704TIP3    H129076   3.806   5.512   3.202
 9704TIP3    H229077   3.919   5.593   3.141
 9705TIP3   OH229078   0.232   4.142   0.922
 9705TIP3    H129079   0.143   4.165   0.948
 9705TIP3    H229080   0.255   4.205   0.854
 9706TIP3   OH229081   1.679   5.904   1.293
 9706TIP3    H129082   1.675   5.810   1.306
 9706TIP3    H229083   1.672   5.915   1.198
 9707TIP3   OH229084   0.801   5.619   1.580
 9707TIP3    H129085   0.841   5.549   1.632
 9707TIP3    H229086   0.707   5.609   1.595
 9708TIP3   OH229087   1.671   5.712   3.931
 9708TIP3    H129088   1.750   5.701   3.879
 9708TIP3    H229089   1.702   5.731   4.019
 9709TIP3   OH229090   1.353   6.099   4.925
 9709TIP3    H129091   1.401   6.019   4.948
 9709TIP3    H229092   1.418   6.155   4.883
 9710TIP3   OH229093   3.903   0.787   1.583
 9710TIP3    H129094   3.859   0.724   1.640
 9710TIP3    H229095   3.996   0.777   1.604
 9711TIP3   OH229096   3.528   5.406   5.373
 9711TIP3    H129097   3.509   5.435   5.462
 9711TIP3    H229098   3.620   5.425   5.359
 9712TIP3   OH229099   0.423   0.881   5.215
 9712TIP3    H129100   0.331   0.862   5.195
 9712TIP3    H229101   0.464   0.895   5.130
 9713TIP3   OH229102   2.556   1.050   2.606
 9713TIP3    H129103   2.468   1.038   2.641
 9713TIP3    H229104   2.614   1.031   2.680
 9714TIP3   OH229105   3.851   6.036   4.432
 9714TIP3    H129106   3.914   5.973   4.397
 9714TIP3    H229107   3.773   5.983   4.449
 9715TIP3   OH229108   5.090   1.101   5.928
 9715TIP3    H129109   5.147   1.042   5.978
 9715TIP3    H229110   5.111   1.083   5.836
 9716TIP3   OH229111   2.470   3.208   4.118
 9716TIP3    H129112   2.527   3.216   4.195
 9716TIP3    H229113   2.393   3.161   4.150
 9717TIP3   OH229114   0.499   0.061   3.022
 9717TIP3    H129115   0.545  -0.021   3.010
 9717TIP3    H229116   0.456   0.052   3.107
 9718TIP3   OH229117   4.462   4.737   3.780
 9718TIP3    H129118   4.484   4.734   3.687
 9718TIP3    H229119   4.520   4.804   3.816
 9719TIP3   OH229120   1.135   0.711   5.119
 9719TIP3    H129121   1.119   0.690   5.027
 9719TIP3    H229122   1.217   0.666   5.140
 9720TIP3   OH229123   6.623   0.599   5.516
 9720TIP3    H129124   6.609   0.690   5.543
 9720TIP3    H229125   6.633   0.603   5.421
 9721TIP3   OH229126   4.124   5.524   1.851
 9721TIP3    H129127   4.217   5.538   1.834
 9721TIP3    H229128   4.122   5.453   1.915
 9722TIP3   OH229129   3.370   1.940   0.903
 9722TIP3    H129130   3.281   1.927   0.937
 9722TIP3    H229131   3.393   2.029   0.929
 9723TIP3   OH229132   1.795   1.363   3.697
 9723TIP3    H129133   1.794   1.397   3.608
 9723TIP3    H229134   1.864   1.413   3.741
 9724TIP3   OH229135   0.297   3.399   3.784
 9724TIP3    H129136   0.346   3.318   3.798
 9724TIP3    H229137   0.361   3.460   3.749
 9725TIP3   OH229138   0.001   0.653   3.311
 9725TIP3    H129139  -0.066   0.721   3.313
 9725TIP3    H229140   0.082   0.701   3.293
 9726TIP3   OH229141   5.083   1.009   1.641
 9726TIP3    H129142   5.005   0.965   1.674
 9726TIP3    H229143   5.107   0.960   1.563
 9727TIP3   OH229144   1.966   3.357   1.644
 9727TIP3    H129145   1.954   3.326   1.554
 9727TIP3    H229146   1.905   3.430   1.652
 9728TIP3   OH229147   4.112   2.180   5.402
 9728TIP3    H129148   4.067   2.263   5.388
 9728TIP3    H229149   4.050   2.114   5.372
 9729TIP3   OH229150   4.561   5.332   5.807
 9729TIP3    H129151   4.495   5.269   5.833
 9729TIP3    H229152   4.561   5.330   5.712
 9730TIP3   OH229153   2.723   4.714   3.306
 9730TIP3    H129154   2.802   4.751   3.345
 9730TIP3    H229155   2.742   4.709   3.213
 9731TIP3   OH229156   1.030   0.218   2.300
 9731TIP3    H129157   0.974   0.155   2.254
 9731TIP3    H229158   1.106   0.166   2.328
 9732TIP3   OH229159   3.482   0.650   2.878
 9732TIP3    H129160   3.473   0.685   2.789
 9732TIP3    H229161   3.452   0.721   2.935
 9733TIP3   OH229162   5.534   0.621   3.665
 9733TIP3    H129163   5.627   0.641   3.674
 9733TIP3    H229164   5.521   0.610   3.571
 9734TIP3   OH229165   1.035   1.439   5.765
 9734TIP3    H129166   1.072   1.503   5.704
 9734TIP3    H229167   1.107   1.378   5.782
 9735TIP3   OH229168   6.349   5.693   1.206
 9735TIP3    H129169   6.306   5.630   1.148
 9735TIP3    H229170   6.277   5.742   1.245
 9736TIP3   OH229171   3.870   2.313   4.541
 9736TIP3    H129172   3.929   2.365   4.597
 9736TIP3    H229173   3.838   2.376   4.476
 9737TIP3   OH229174   4.223   4.381   2.052
 9737TIP3    H129175   4.201   4.304   2.000
 9737TIP3    H229176   4.277   4.435   1.994
 9738TIP3   OH229177   5.549   0.012   1.813
 9738TIP3    H129178   5.533   0.104   1.790
 9738TIP3    H229179   5.589  -0.026   1.735
 9739TIP3   OH229180   0.570   2.863   0.145
 9739TIP3    H129181   0.599   2.798   0.081
 9739TIP3    H229182   0.644   2.872   0.205
 9740TIP3   OH229183   3.766   5.060   5.570
 9740TIP3    H129184   3.786   5.111   5.648
 9740TIP3    H229185   3.671   5.068   5.560
 9741TIP3   OH229186   6.805   1.635   3.091
 9741TIP3    H129187   6.770   1.548   3.073
 9741TIP3    H229188   6.784   1.686   3.012
 9742TIP3   OH229189   2.322   3.891   2.462
 9742TIP3    H129190   2.383   3.921   2.395
 9742TIP3    H229191   2.249   3.853   2.414
 9743TIP3   OH229192   3.903   1.772   0.674
 9743TIP3    H129193   3.888   1.682   0.643
 9743TIP3    H229194   3.946   1.761   0.759
 9744TIP3   OH229195   0.955   1.991   1.114
 9744TIP3    H129196   0.938   2.046   1.191
 9744TIP3    H229197   0.875   1.939   1.104
 9745TIP3   OH229198   0.191   3.269   1.287
 9745TIP3    H129199   0.186   3.217   1.207
 9745TIP3    H229200   0.100   3.283   1.312
 9746TIP3   OH229201   7.144   3.799   1.085
 9746TIP3    H129202   7.093   3.752   1.019
 9746TIP3    H229203   7.085   3.808   1.160
 9747TIP3   OH229204   5.899   2.142   2.749
 9747TIP3    H129205   5.843   2.146   2.827
 9747TIP3    H229206   5.838   2.131   2.676
 9748TIP3   OH229207   3.194   4.922   5.421
 9748TIP3    H129208   3.249   4.933   5.343
 9748TIP3    H229209   3.233   4.979   5.486
 9749TIP3   OH229210   6.279   4.811   4.789
 9749TIP3    H129211   6.368   4.797   4.759
 9749TIP3    H229212   6.234   4.852   4.716
   7.21870   6.80586   5.89404   0.00000   0.00000  -2.40624   0.00000  -2.40624  -3.40293
