Title
29212
    1ASP      N    1   4.583   2.886   3.241 -0.0525  0.1130 -0.3723
    1ASP    HT1    2   4.571   2.783   3.248 -0.8430  0.1615 -0.9971
    1ASP    HT2    3   4.647   2.917   3.318 -0.9666  0.7657  0.1491
    1ASP    HT3    4   4.631   2.900   3.150  0.3149  1.0852 -0.0361
    1ASP     CA    5   4.459   2.972   3.238  0.1428  0.0500 -0.4348
    1ASP     HA    6   4.399   2.936   3.321 -1.3309  0.7995 -1.1397
    1ASP     CB    7   4.489   3.124   3.260 -0.2534 -0.2215  0.2593
    1ASP    HB1    8   4.393   3.175   3.236  0.2317  0.0516 -1.2023
    1ASP    HB2    9   4.567   3.162   3.191  0.4477 -0.5933  0.8300
    1ASP     CG   10   4.525   3.154   3.405 -0.2387 -0.0841  0.4138
    1ASP    OD1   11   4.599   3.247   3.444  0.0052 -0.1391  0.5573
    1ASP    OD2   12   4.462   3.088   3.490  0.1412  0.0051 -0.1631
    1ASP      C   13   4.371   2.941   3.119  0.1754  0.3060 -0.2428
    1ASP      O   14   4.276   2.864   3.137  0.4433 -0.1634  0.1723
    2GLY      N   15   4.404   2.996   3.002  0.3066 -0.5779 -0.8209
    2GLY     HN   16   4.490   3.046   2.992  0.6391 -0.6992  1.1487
    2GLY     CA   17   4.319   3.002   2.878  0.1385  0.2137 -0.9118
    2GLY    HA1   18   4.384   3.013   2.792  0.7991  1.7089 -0.2723
    2GLY    HA2   19   4.250   3.084   2.895  1.0107  0.6693  0.6603
    2GLY      C   20   4.243   2.871   2.836 -0.1835 -0.0510 -0.2966
    2GLY      O   21   4.286   2.765   2.869 -0.6204 -0.0426 -0.0050
    3ASP      N   22   4.122   2.892   2.774  0.1099 -0.5743 -0.0836
    3ASP     HN   23   4.093   2.986   2.758 -2.2147 -1.6518 -3.1169
    3ASP     CA   24   4.024   2.795   2.725  0.6186  0.4118 -0.3383
    3ASP     HA   25   3.945   2.848   2.672 -1.3939 -0.2665  1.8113
    3ASP     CB   26   4.082   2.702   2.611 -0.3533  0.2729 -0.7733
    3ASP    HB1   27   4.009   2.622   2.590  0.4468 -0.8717  0.6173
    3ASP    HB2   28   4.170   2.643   2.644 -1.3873 -1.1184 -0.4161
    3ASP     CG   29   4.108   2.770   2.475  0.5131 -0.1692 -0.3960
    3ASP    OD1   30   4.148   2.695   2.382  0.0091  0.2549  0.1996
    3ASP    OD2   31   4.068   2.890   2.457  0.1722  0.5277  0.4092
    3ASP      C   32   3.954   2.722   2.844  0.5240  0.8048  0.4709
    3ASP      O   33   3.915   2.607   2.829  0.2757  0.2635  0.3971
    4GLY      N   34   3.950   2.782   2.961 -0.0866  0.4999 -0.5458
    4GLY     HN   35   3.980   2.875   2.978 -1.6709  1.0041 -0.3297
    4GLY     CA   36   3.888   2.738   3.082 -0.2166  0.6160  0.2929
    4GLY    HA1   37   3.907   2.816   3.155  2.1399 -2.0179  2.7645
    4GLY    HA2   38   3.938   2.649   3.117 -1.3803 -1.3190 -2.6012
    4GLY      C   39   3.743   2.687   3.078  0.3301  0.4196 -0.1958
    4GLY      O   40   3.694   2.651   2.971 -0.4085  0.0631 -0.2721
    5PRO      N   41   3.664   2.677   3.186 -0.2060  0.9030 -0.1923
    5PRO     CD   42   3.703   2.709   3.323  0.3223  0.9131  0.0179
    5PRO    HD1   43   3.725   2.818   3.334 -0.7023  0.9943  1.5639
    5PRO    HD2   44   3.794   2.649   3.347 -1.7499 -2.5857 -0.1808
    5PRO     CA   45   3.519   2.658   3.182 -0.1658 -0.6587 -0.3281
    5PRO     HA   46   3.505   2.551   3.169 -0.5096 -0.4006 -2.4847
    5PRO     CB   47   3.471   2.699   3.325  0.5698  0.2181 -0.3730
    5PRO    HB1   48   3.379   2.651   3.365  0.4466  1.2662  0.6610
    5PRO    HB2   49   3.457   2.809   3.337  4.1661  0.7590 -0.2433
    5PRO     CG   50   3.591   2.663   3.408 -0.0894  0.0271 -0.3202
    5PRO    HG1   51   3.610   2.720   3.501 -2.0163  2.0236 -1.0667
    5PRO    HG2   52   3.591   2.554   3.426  0.8619  0.4292  2.5251
    5PRO      C   53   3.435   2.726   3.081  0.0334 -0.5470  0.2126
    5PRO      O   54   3.463   2.839   3.043  0.5781  0.1987  0.4019
    6GLY      N   55   3.328   2.664   3.023 -0.1861  0.2946  0.1904
    6GLY     HN   56   3.318   2.567   3.044  4.1998 -0.6799 -1.1061
    6GLY     CA   57   3.234   2.729   2.927 -0.0779 -0.2992 -0.1979
    6GLY    HA1   58   3.183   2.657   2.864 -1.5290  0.3917  0.1519
    6GLY    HA2   59   3.297   2.796   2.870 -0.5804  0.5487  0.2356
    6GLY      C   60   3.144   2.823   3.000  0.7234  0.3722  0.5271
    6GLY      O   61   3.145   2.835   3.121 -0.0195 -0.3919 -0.2224
    7ASP      N   62   3.061   2.888   2.914  0.3584  0.0102 -0.2302
    7ASP     HN   63   3.072   2.865   2.817 -2.9420  1.0543 -0.9697
    7ASP     CA   64   2.965   2.993   2.942 -0.3694  0.4249 -0.1951
    7ASP     HA   65   3.020   3.075   2.986  0.6073 -1.9828  3.5397
    7ASP     CB   66   2.901   3.043   2.809 -0.1960 -0.0951 -0.0860
    7ASP    HB1   67   2.821   3.113   2.841 -0.5237 -0.4633 -0.0958
    7ASP    HB2   68   2.860   2.956   2.754 -1.2557 -0.9837  2.0040
    7ASP     CG   69   2.995   3.111   2.715 -0.3626  0.1872  0.0688
    7ASP    OD1   70   3.113   3.145   2.749  0.7809 -0.0787 -0.1892
    7ASP    OD2   71   2.954   3.128   2.598  0.5382  0.2520 -0.8410
    7ASP      C   72   2.857   2.940   3.042  0.0402  0.4621  0.5175
    7ASP      O   73   2.789   2.836   3.015 -0.2107 -0.0065 -0.2450
    8PRO      N   74   2.829   3.024   3.144 -0.3273 -0.3703 -0.3436
    8PRO     CD   75   2.912   3.142   3.194  0.0046 -0.0266  0.2356
    8PRO    HD1   76   2.921   3.221   3.117  0.2356  1.9397  2.1655
    8PRO    HD2   77   3.010   3.097   3.220 -0.5030 -0.5134  1.3998
    8PRO     CA   78   2.700   3.011   3.222 -0.1061 -0.4175  0.7907
    8PRO     HA   79   2.711   2.918   3.275 -1.1666 -0.6688  0.5828
    8PRO     CB   80   2.693   3.141   3.311  0.7022  0.2708  0.2097
    8PRO    HB1   81   2.658   3.120   3.415 -0.1060  0.4015 -0.0286
    8PRO    HB2   82   2.628   3.216   3.260  1.2526  0.5326 -0.1129
    8PRO     CG   83   2.834   3.197   3.314 -0.1647 -0.0106  0.8277
    8PRO    HG1   84   2.829   3.308   3.316 -1.8142 -0.0611  2.0821
    8PRO    HG2   85   2.901   3.176   3.401  1.2717  2.8263  0.5539
    8PRO      C   86   2.577   2.988   3.139 -0.1346 -0.1742  0.4143
    8PRO      O   87   2.554   3.050   3.038  0.4484  0.0042 -0.0051
    9GLY      N   88   2.500   2.887   3.177 -0.0177  0.3833 -0.6772
    9GLY     HN   89   2.525   2.835   3.258  0.2393  1.5500  0.0199
    9GLY     CA   90   2.364   2.858   3.118  0.0782  0.4257  0.4811
    9GLY    HA1   91   2.306   2.792   3.181  1.3411 -1.7687 -0.5645
    9GLY    HA2   92   2.380   2.810   3.023 -1.0922 -1.6559  1.2830
    9GLY      C   93   2.271   2.978   3.107  0.0493  0.3773 -0.1530
    9GLY      O   94   2.286   3.076   3.179  0.4188  0.8801 -0.0677
   10ASP      N   95   2.174   2.974   3.023  0.2540 -0.0514 -0.9224
   10ASP     HN   96   2.167   2.896   2.961 -1.7941  0.1941 -1.0513
   10ASP     CA   97   2.076   3.088   2.993  0.0188 -0.2472 -0.1483
   10ASP     HA   98   2.124   3.185   2.994 -1.3900  0.5153 -1.6524
   10ASP     CB   99   2.003   3.077   2.854 -0.1593 -0.0672 -0.2439
   10ASP    HB1  100   1.937   3.164   2.835  0.9279  1.3769  2.1589
   10ASP    HB2  101   1.944   2.984   2.840 -2.5552  1.4495 -0.8259
   10ASP     CG  102   2.102   3.086   2.740  0.3610 -0.9958 -0.4564
   10ASP    OD1  103   2.222   3.120   2.768 -0.2597  0.2816  0.0300
   10ASP    OD2  104   2.061   3.064   2.626  0.0134 -0.3301 -0.3940
   10ASP      C  105   1.971   3.092   3.105 -0.6115  0.7599 -0.1651
   10ASP      O  106   1.884   3.003   3.112  0.6438  0.0662 -0.4787
   11GLY      N  107   1.976   3.196   3.185  0.3022 -0.0951  0.7846
   11GLY     HN  108   2.047   3.265   3.171 -2.8539  3.7957  1.9505
   11GLY     CA  109   1.887   3.221   3.299 -0.4359 -0.3959  0.0052
   11GLY    HA1  110   1.919   3.309   3.354 -0.8350  0.1731 -0.6560
   11GLY    HA2  111   1.894   3.136   3.365  0.5560 -1.4061 -1.3414
   11GLY      C  112   1.740   3.248   3.263 -0.5119  0.5981  0.0397
   11GLY    OT1  113   1.657   3.181   3.330  0.1626 -0.3790 -0.0992
   11GLY    OT2  114   1.716   3.332   3.173  0.3099  0.2910  0.2174
   12SOD    SOD  115   2.568   0.214   2.129 -0.1587  0.3599 -0.1878
   13SOD    SOD  116   2.290   4.117   1.779  0.1627 -0.3977  0.0056
   14SOD    SOD  117   6.865   0.756   3.259 -0.2082  0.0875  0.4344
   15SOD    SOD  118   4.780   1.542   0.075 -0.0630  0.0718  0.3231
   16SOD    SOD  119   2.318   3.797   4.504 -0.1268 -0.3819  0.4482
   17SOD    SOD  120   4.293   4.297   4.539  0.1465 -0.3944 -0.1585
   18SOD    SOD  121   2.559   3.064   2.439 -0.1308  0.2097 -0.6745
   19SOD    SOD  122   4.302   6.042   4.626 -0.1215  0.0269  0.0093
   20SOD    SOD  123   5.630   0.216   2.392  0.0379  0.4480 -0.2180
   21SOD    SOD  124   5.479   1.254   3.556  0.1474 -0.1025 -0.4618
   22SOD    SOD  125   1.873   3.614   2.816 -0.5429 -0.3190 -0.2739
   23SOD    SOD  126   1.350   2.911   3.321 -0.0346  0.3272  0.3440
   24SOD    SOD  127   0.960   1.401   0.233 -0.0563  0.2481  0.6852
   25SOD    SOD  128   0.540   2.540   0.569  0.1102 -0.2295  0.0311
   26SOD    SOD  129   4.626   4.856   0.412  0.2677  0.1548 -0.2631
   27SOD    SOD  130   2.026   1.958   0.549  0.3559 -0.1459 -0.4246
   28SOD    SOD  131   6.326   3.348   3.548 -0.0673 -0.1193 -0.2372
   29SOD    SOD  132   4.282   3.599   2.253  0.4773  0.3769  0.0789
   30SOD    SOD  133   1.143   1.771   2.358  0.1944 -0.0462  0.0944
   31SOD    SOD  134   1.920   1.402   3.459  0.3599 -0.2692  0.5465
   32SOD    SOD  135   4.195   2.184   0.273  0.2164  0.2808  0.0502
   33SOD    SOD  136   0.027   4.294   1.743 -0.1006 -0.8856  0.0223
   34SOD    SOD  137   3.389   1.660   0.374  0.0336 -0.2051  0.2019
   35SOD    SOD  138   4.533   5.576   2.594 -0.2319  0.1665 -0.5500
   36SOD    SOD  139   5.821   4.432   3.833  0.4288 -0.3148 -0.1999
   37SOD    SOD  140   4.319   0.408   1.212 -0.1800 -0.3127 -0.2450
   38SOD    SOD  141   3.443   2.377   2.681 -0.0498  0.0227 -0.3377
   39SOD    SOD  142   1.483   4.037   5.822  0.0947 -0.3839 -0.0906
   40SOD    SOD  143   2.968   3.783   0.388 -0.0509 -0.0944  0.2040
   41SOD    SOD  144   3.955   3.328   4.986 -0.1473  0.1994 -0.1431
   42SOD    SOD  145   3.055   0.257   3.175  0.0158  0.3991  0.1767
   43CLA    CLA  146   7.065   2.170   0.648  0.3163  0.7097  0.1095
   44CLA    CLA  147   5.908   0.794   2.693 -0.4191 -0.0910 -0.4813
   45CLA    CLA  148   3.308   3.621   3.400 -0.3722  0.0874  0.4469
   46CLA    CLA  149   5.497   2.145   4.763 -0.1488  0.3060  0.1584
   47CLA    CLA  150   1.623   1.920   4.635 -0.0391 -0.2360 -0.0732
   48CLA    CLA  151   2.013   5.718   2.629 -0.3352  0.0579  0.2191
   49CLA    CLA  152   6.412   3.185   0.682 -0.3033 -0.0344 -0.3840
   50CLA    CLA  153   5.274   6.566   1.658 -0.0540  0.2583 -0.3377
   51CLA    CLA  154   3.163   1.912   3.079  0.2519 -0.3811 -0.2716
   52CLA    CLA  155   1.311   0.627   0.861 -0.3796  0.3421  0.1598
   53CLA    CLA  156   5.019   4.381   4.558  0.3013  0.0290  0.2417
   54CLA    CLA  157   3.165   2.109   0.402 -0.2771 -0.3670 -0.1903
   55CLA    CLA  158   2.012   5.844   3.099 -0.0855  0.0537 -0.1290
   56CLA    CLA  159   1.472   3.047   0.255  0.5790 -0.1334 -0.1575
   57CLA    CLA  160   0.702   5.507   2.674 -0.3006 -0.0363 -0.4262
   58CLA    CLA  161   6.425   4.876   5.401  0.0825 -0.1298  0.1740
   59CLA    CLA  162   4.710   1.317   2.349 -0.0971  0.3502 -0.0451
   60CLA    CLA  163   5.129   4.741   0.107  0.1862  0.1637  0.1999
   61CLA    CLA  164   4.084   4.796   0.610 -0.4420 -0.0479  0.2843
   62CLA    CLA  165   3.373   6.711   4.870  0.0214 -0.0212 -0.0915
   63CLA    CLA  166   3.619   4.583   4.717 -0.2410 -0.0232  0.0947
   64CLA    CLA  167   0.428   1.549   1.520 -0.0920  0.0764 -0.3497
   65CLA    CLA  168   0.173   1.794   4.111 -0.0419 -0.7295  0.0751
   66CLA    CLA  169   2.080   4.162   0.241 -0.0519 -0.0146  0.1764
   67CLA    CLA  170   3.921   4.900   5.578 -0.2886 -0.0343  0.0898
   68CLA    CLA  171   6.939   3.302   4.815 -0.0749  0.0233 -0.2488
   69CLA    CLA  172   2.875   2.697   3.503 -0.4920 -0.1024 -0.0203
   70TIP3   OH2  173   4.347   4.405   4.333 -0.2478  0.1889 -0.2143
   70TIP3    H1  174   4.436   4.409   4.297 -0.0458 -1.2851  0.0599
   70TIP3    H2  175   4.310   4.491   4.314  1.3933  1.0050  0.0618
   71TIP3   OH2  176   0.271   0.579   2.793  0.6139  0.0768  0.5266
   71TIP3    H1  177   0.354   0.591   2.746  1.1383 -0.4741  1.2839
   71TIP3    H2  178   0.284   0.499   2.844  0.2447  0.9120  1.9834
   72TIP3   OH2  179   2.759   5.264   4.330  0.3309  0.2400  0.4892
   72TIP3    H1  180   2.799   5.235   4.248  0.9616 -1.0003  1.2056
   72TIP3    H2  181   2.765   5.360   4.327 -0.9678  0.3150 -1.5235
   73TIP3   OH2  182   4.119   0.237   1.157  0.3971 -0.1524 -0.2722
   73TIP3    H1  183   4.051   0.270   1.098  0.4812  2.1891  0.8249
   73TIP3    H2  184   4.087   0.256   1.245  1.0048 -2.0799  0.4105
   74TIP3   OH2  185   6.736   1.347   0.380 -0.1321 -0.1014  0.1250
   74TIP3    H1  186   6.758   1.440   0.381 -0.6537  0.0137  0.8249
   74TIP3    H2  187   6.756   1.316   0.468 -0.2485 -0.5886 -0.0155
   75TIP3   OH2  188   0.651   5.452   0.853 -0.5164  0.6736  0.1655
   75TIP3    H1  189   0.563   5.484   0.836 -0.4867  0.6978  0.0533
   75TIP3    H2  190   0.709   5.524   0.827 -0.4747  0.7509  0.4776
   76TIP3   OH2  191   2.600   0.982   1.756  0.6314 -0.1322  0.4825
   76TIP3    H1  192   2.592   0.895   1.795 -0.1104 -1.0713 -1.6534
   76TIP3    H2  193   2.556   1.040   1.818  0.0604 -1.4496  1.3475
   77TIP3   OH2  194   1.131   2.805   1.082 -0.1997  0.4904 -0.9610
   77TIP3    H1  195   1.078   2.836   1.156  3.4719  1.9204  1.3113
   77TIP3    H2  196   1.149   2.883   1.031  0.4172  0.1720 -1.2342
   78TIP3   OH2  197   6.823   0.628   3.061 -0.3662 -0.2040  0.2811
   78TIP3    H1  198   6.744   0.582   3.090 -1.7826  0.8061 -1.7611
   78TIP3    H2  199   6.872   0.562   3.012 -1.2114 -0.2267 -0.5747
   79TIP3   OH2  200   2.851   1.972   1.331  0.4386  0.5631 -0.5847
   79TIP3    H1  201   2.845   2.018   1.414 -0.0281  0.6906 -0.6901
   79TIP3    H2  202   2.934   1.924   1.336  1.1161  1.7085 -0.6286
   80TIP3   OH2  203   2.207   1.996   3.279  0.0835  0.1374  0.3931
   80TIP3    H1  204   2.297   2.007   3.249 -0.0090  1.7060  0.5965
   80TIP3    H2  205   2.209   1.917   3.333  0.9738 -0.7674 -0.8964
   81TIP3   OH2  206   6.543   3.674   3.822  0.5201 -0.3009  0.0726
   81TIP3    H1  207   6.561   3.674   3.916 -0.3753 -0.8222  0.2549
   81TIP3    H2  208   6.555   3.765   3.795  1.4436 -0.2718  0.5486
   82TIP3   OH2  209   2.169   4.068   2.259  0.5911 -0.1218 -0.1288
   82TIP3    H1  210   2.223   4.031   2.329  0.7324 -0.4127 -0.3946
   82TIP3    H2  211   2.082   4.033   2.275  0.2230  1.1809  0.9353
   83TIP3   OH2  212   2.187   2.215   2.163  0.3272 -0.5681 -0.2418
   83TIP3    H1  213   2.212   2.293   2.113 -1.2264  0.2427  0.1740
   83TIP3    H2  214   2.209   2.142   2.106 -1.6094  0.3260 -2.3171
   84TIP3   OH2  215   6.594   0.526   4.329 -0.0302 -0.1515  0.4432
   84TIP3    H1  216   6.594   0.609   4.280  2.4869 -0.7726 -0.7847
   84TIP3    H2  217   6.656   0.542   4.400  0.5472 -0.9825  0.1382
   85TIP3   OH2  218   0.641   4.504   4.971 -0.0608  0.2192 -0.4178
   85TIP3    H1  219   0.599   4.568   4.915  1.1470  1.8641  0.4632
   85TIP3    H2  220   0.735   4.521   4.961  0.2290 -0.3231  1.0741
   86TIP3   OH2  221   0.371   4.204   2.972 -0.2668 -0.3539  0.3668
   86TIP3    H1  222   0.436   4.213   2.903  0.5285 -1.0208  1.0018
   86TIP3    H2  223   0.324   4.124   2.951 -1.1103  0.2962 -0.2643
   87TIP3   OH2  224   4.188   2.311   5.768  0.2027  0.5328 -0.0985
   87TIP3    H1  225   4.151   2.231   5.806 -1.0900  0.4605 -1.4320
   87TIP3    H2  226   4.252   2.341   5.833 -0.1406 -0.9274  0.9634
   88TIP3   OH2  227   0.734   4.979   0.639  0.2190 -0.1998 -0.1655
   88TIP3    H1  228   0.719   4.925   0.716  0.9376  0.7381  0.6555
   88TIP3    H2  229   0.747   4.916   0.568  0.5896 -1.0900  0.6691
   89TIP3   OH2  230   7.193   6.645   5.759  0.0828 -0.7171 -0.7404
   89TIP3    H1  231   7.129   6.702   5.802  0.4966 -0.3593 -0.5905
   89TIP3    H2  232   7.141   6.592   5.699 -0.6310 -1.7810  0.7413
   90TIP3   OH2  233   5.484   0.549   4.178  0.1447 -0.0556 -0.7289
   90TIP3    H1  234   5.505   0.577   4.267  1.2432 -2.1219 -0.2565
   90TIP3    H2  235   5.493   0.628   4.124  2.2041  0.6809  0.5924
   91TIP3   OH2  236   2.559   0.816   5.609  0.4127 -0.1778  0.9885
   91TIP3    H1  237   2.577   0.818   5.703  1.9870  0.6804  0.7099
   91TIP3    H2  238   2.598   0.734   5.579  2.1721  0.6881  0.7351
   92TIP3   OH2  239   0.032   6.400   4.952 -0.4773  0.0429 -0.0452
   92TIP3    H1  240   0.082   6.413   5.032  0.2562 -0.4895 -0.4104
   92TIP3    H2  241  -0.022   6.479   4.945 -0.7497 -0.0228  1.1038
   93TIP3   OH2  242   5.918   1.783   1.622 -0.8916 -0.1293  0.0782
   93TIP3    H1  243   5.993   1.828   1.661 -1.3493 -0.1896  1.0808
   93TIP3    H2  244   5.894   1.837   1.547  1.3557 -1.1691 -1.4778
   94TIP3   OH2  245   3.061   4.264   4.245 -0.2133 -0.3625 -0.4735
   94TIP3    H1  246   3.084   4.281   4.154  0.5622 -0.1373 -0.2469
   94TIP3    H2  247   3.073   4.169   4.255 -0.3724 -0.3986 -0.6256
   95TIP3   OH2  248   3.846   0.503   2.582 -0.0777  0.8176 -0.0560
   95TIP3    H1  249   3.831   0.427   2.640 -1.7557 -0.0054 -1.4777
   95TIP3    H2  250   3.894   0.565   2.637 -0.4667 -0.4372  1.8229
   96TIP3   OH2  251   0.753   2.298   5.806  0.1155 -0.4020  0.1032
   96TIP3    H1  252   0.779   2.293   5.898 -0.0821 -1.5373  0.1017
   96TIP3    H2  253   0.825   2.258   5.758 -1.4671 -3.5713  0.1003
   97TIP3   OH2  254   3.655   0.894   5.155  0.3064  0.0652 -0.8823
   97TIP3    H1  255   3.717   0.967   5.160  1.0836 -0.1935 -4.3825
   97TIP3    H2  256   3.706   0.818   5.183  0.3877  0.4008 -0.0941
   98TIP3   OH2  257   6.012   4.871   4.186 -0.0439 -0.1876  0.0659
   98TIP3    H1  258   5.936   4.814   4.173  0.5955 -0.6436 -2.1997
   98TIP3    H2  259   6.012   4.891   4.279 -1.0958 -2.7812  0.7071
   99TIP3   OH2  260   4.791   2.253   3.776 -0.1654 -0.1264  0.0978
   99TIP3    H1  261   4.881   2.265   3.746  0.3230 -0.6989  1.2564
   99TIP3    H2  262   4.737   2.282   3.703  0.9564  0.9822 -0.3230
  100TIP3   OH2  263   3.947   3.171   0.915  0.0244 -0.8438  0.1504
  100TIP3    H1  264   4.010   3.119   0.964  0.1727 -1.7421 -0.9518
  100TIP3    H2  265   3.870   3.115   0.908  0.3168 -1.0785 -1.3701
  101TIP3   OH2  266   1.363   3.536   5.337  0.8812  0.2183 -0.4503
  101TIP3    H1  267   1.393   3.599   5.403  0.5059  0.0812 -0.1453
  101TIP3    H2  268   1.439   3.522   5.282  1.0797  0.6585 -0.2990
  102TIP3   OH2  269   3.389   1.918   1.344 -0.3155  0.2055  0.2561
  102TIP3    H1  270   3.376   1.923   1.249 -1.0497 -2.1757  0.1718
  102TIP3    H2  271   3.329   1.984   1.379 -0.6779  0.5219 -0.8953
  103TIP3   OH2  272   0.364   6.517   4.670  0.5356  0.8271 -0.0823
  103TIP3    H1  273   0.326   6.585   4.725  0.2696  0.1156  0.6452
  103TIP3    H2  274   0.451   6.548   4.649  0.4742  1.3147  0.3812
  104TIP3   OH2  275   3.570   6.265   3.893  0.4988 -0.2421  0.4630
  104TIP3    H1  276   3.608   6.243   3.978  0.0528  0.0613  0.7438
  104TIP3    H2  277   3.492   6.317   3.914  0.3462 -0.2259 -0.1277
  105TIP3   OH2  278   6.073   2.189   2.017 -0.3401 -0.1336 -0.9358
  105TIP3    H1  279   6.147   2.249   2.014  0.7110 -1.2141  1.2655
  105TIP3    H2  280   6.065   2.165   2.109 -3.6007  0.1040 -1.0222
  106TIP3   OH2  281   5.049   6.161   5.595  0.0832  0.5420 -0.2518
  106TIP3    H1  282   4.992   6.237   5.609 -1.1372 -0.8481  3.4779
  106TIP3    H2  283   4.992   6.095   5.555 -0.4658 -0.1545  1.5791
  107TIP3   OH2  284   2.899   6.659   1.122 -0.1263 -0.0854  0.0765
  107TIP3    H1  285   2.860   6.572   1.137 -0.9028  0.2958  0.3210
  107TIP3    H2  286   2.863   6.686   1.037 -1.1057  0.6314  0.6910
  108TIP3   OH2  287   0.156   1.189   0.845 -0.1304 -0.0867 -0.0387
  108TIP3    H1  288   0.091   1.131   0.804 -2.0440  0.4864  2.0090
  108TIP3    H2  289   0.203   1.134   0.907 -1.0316  0.1916  0.9286
  109TIP3   OH2  290   2.413   4.398   1.003 -0.2409  0.3929  0.2659
  109TIP3    H1  291   2.436   4.487   0.973 -1.7634  0.4326 -0.9004
  109TIP3    H2  292   2.318   4.399   1.009 -0.2869 -1.2122  0.1177
  110TIP3   OH2  293   6.121   0.917   1.830 -0.6552  0.4630 -0.3828
  110TIP3    H1  294   6.117   0.882   1.919 -0.4752 -0.0722 -0.5811
  110TIP3    H2  295   6.212   0.903   1.803 -0.7852  0.3410 -0.7637
  111TIP3   OH2  296   0.576   2.818   0.837 -0.5013 -0.5824  0.1865
  111TIP3    H1  297   0.574   2.895   0.780 -0.0708 -0.3549  0.4651
  111TIP3    H2  298   0.591   2.744   0.779  1.3119 -0.2053  0.1154
  112TIP3   OH2  299   1.381   3.626   5.691  0.3695 -0.4022  0.0595
  112TIP3    H1  300   1.438   3.590   5.760  0.3867  0.2216  0.3776
  112TIP3    H2  301   1.310   3.562   5.683  1.7673 -1.8763 -1.2713
  113TIP3   OH2  302   3.490   5.487   3.916  0.3562  0.5673  0.5271
  113TIP3    H1  303   3.396   5.483   3.896  0.7189  1.2381 -1.5029
  113TIP3    H2  304   3.493   5.492   4.012 -1.6900  0.7733  0.6337
  114TIP3   OH2  305   0.620   3.131   3.529 -0.4114  0.1401  0.1789
  114TIP3    H1  306   0.708   3.126   3.566 -0.6268  0.8592  0.8125
  114TIP3    H2  307   0.632   3.172   3.443 -0.1894  0.8100  0.5239
  115TIP3   OH2  308   3.545   3.290   0.777  0.1769  0.3070  0.0981
  115TIP3    H1  309   3.520   3.198   0.771 -0.6466  0.5461 -0.3287
  115TIP3    H2  310   3.539   3.322   0.687  1.0062  0.6485  0.1547
  116TIP3   OH2  311   5.444   2.614   5.031  0.6381  0.0342 -0.1124
  116TIP3    H1  312   5.351   2.600   5.012  0.2929  0.5812  1.0555
  116TIP3    H2  313   5.454   2.585   5.122  1.2601  1.3405  0.2629
  117TIP3   OH2  314   7.198   0.311   2.669 -0.2945 -0.4634 -0.3906
  117TIP3    H1  315   7.166   0.334   2.582  1.4843 -1.4195 -1.3425
  117TIP3    H2  316   7.189   0.392   2.720 -0.3839  0.4174 -1.7601
  118TIP3   OH2  317   3.307   0.584   1.694  0.1548  0.6904  0.4997
  118TIP3    H1  318   3.343   0.644   1.628  0.0863  2.3416  1.9066
  118TIP3    H2  319   3.286   0.505   1.644  1.5574  1.2929 -1.1751
  119TIP3   OH2  320   2.752   0.671   5.282  0.1391 -0.2088  0.2442
  119TIP3    H1  321   2.662   0.645   5.304  0.0869 -0.2944 -0.0671
  119TIP3    H2  322   2.799   0.668   5.365 -0.2561  0.2754  0.4916
  120TIP3   OH2  323   7.173   2.606   0.591  0.7326  0.3236 -0.4106
  120TIP3    H1  324   7.209   2.631   0.506  0.7238 -0.0367 -0.5218
  120TIP3    H2  325   7.103   2.544   0.570 -0.6838  1.8026 -0.2698
  121TIP3   OH2  326   1.437   2.574   4.754 -0.1149  0.4001  0.2490
  121TIP3    H1  327   1.496   2.599   4.825 -2.9074  1.8373  2.2352
  121TIP3    H2  328   1.429   2.652   4.699 -0.6229  0.4077  0.3288
  122TIP3   OH2  329   3.127   5.878   1.163  0.3927  0.2544  0.4495
  122TIP3    H1  330   3.174   5.958   1.187  0.8913 -0.3428  1.4724
  122TIP3    H2  331   3.086   5.900   1.079  0.0046  1.8020  0.9973
  123TIP3   OH2  332   2.745   5.943   4.571  0.8977 -0.3790 -0.1211
  123TIP3    H1  333   2.722   5.975   4.484  1.5305  0.3386 -0.0354
  123TIP3    H2  334   2.809   6.006   4.604 -0.5425  0.3256  1.5298
  124TIP3   OH2  335   5.330   2.666   1.723  0.2208  0.1492 -0.4781
  124TIP3    H1  336   5.271   2.686   1.795  0.2915  1.8659 -0.8492
  124TIP3    H2  337   5.280   2.608   1.666 -0.2324 -0.3150  0.3727
  125TIP3   OH2  338   1.020   3.067   0.184  0.1593 -0.1897  0.0897
  125TIP3    H1  339   1.108   3.068   0.146 -0.4092  0.5852 -1.3216
  125TIP3    H2  340   0.964   3.034   0.113 -0.8225  0.3266  0.6046
  126TIP3   OH2  341   5.225   0.075   5.283  0.5420 -0.3460  0.2390
  126TIP3    H1  342   5.253  -0.002   5.332 -0.1522 -2.0093 -1.8208
  126TIP3    H2  343   5.131   0.082   5.302  0.4212 -0.5592 -0.2726
  127TIP3   OH2  344   4.515   4.694   4.887 -0.6624  0.2733  0.2279
  127TIP3    H1  345   4.574   4.768   4.904 -0.6377  0.2138  0.4072
  127TIP3    H2  346   4.428   4.734   4.879 -0.4454  0.5137 -1.2809
  128TIP3   OH2  347   0.640   3.935   3.213 -0.3377 -0.1226 -0.0147
  128TIP3    H1  348   0.723   3.978   3.191 -0.5820 -0.9953 -3.1125
  128TIP3    H2  349   0.641   3.930   3.308  1.9950  2.1350  0.2091
  129TIP3   OH2  350   1.927   3.518   4.466  0.7003  0.3154 -0.0476
  129TIP3    H1  351   1.839   3.531   4.431  1.3081  0.7495 -1.4917
  129TIP3    H2  352   1.916   3.450   4.533 -0.6862  0.1854 -0.3702
  130TIP3   OH2  353   6.941   5.297   4.891  0.1158  0.4369  0.2066
  130TIP3    H1  354   6.895   5.361   4.946  1.5997 -0.1440  2.2010
  130TIP3    H2  355   7.030   5.294   4.926  0.4449 -1.7766 -0.6536
  131TIP3   OH2  356   0.603   3.423   2.940 -0.1104  0.6338  0.0175
  131TIP3    H1  357   0.564   3.432   3.027 -0.8635  2.3696 -0.4448
  131TIP3    H2  358   0.529   3.420   2.880  0.4058 -0.3659 -0.5973
  132TIP3   OH2  359   0.606   3.483   3.782  0.1211  0.2214 -0.3529
  132TIP3    H1  360   0.698   3.470   3.758  0.1972  1.3051 -0.6735
  132TIP3    H2  361   0.562   3.503   3.700 -0.4136 -0.2787 -0.1982
  133TIP3   OH2  362   4.047   1.015   0.606  0.5774  0.1099  0.1169
  133TIP3    H1  363   4.002   1.028   0.689  0.2166  0.8992 -0.1905
  133TIP3    H2  364   3.978   1.024   0.540  0.6691 -1.4658 -0.2413
  134TIP3   OH2  365   1.195   5.717   1.618  0.3021  0.0394  0.0319
  134TIP3    H1  366   1.103   5.723   1.592  0.7276 -0.0428 -1.6173
  134TIP3    H2  367   1.211   5.795   1.671 -0.3032  0.9678 -1.0996
  135TIP3   OH2  368   6.098   2.372   2.668  0.2159  0.5118  0.1013
  135TIP3    H1  369   6.183   2.362   2.625 -0.4001  1.2109 -1.3287
  135TIP3    H2  370   6.053   2.290   2.652 -0.1923  0.9445 -1.0325
  136TIP3   OH2  371   4.068   3.865   0.156  0.6468  0.3501  0.7384
  136TIP3    H1  372   4.028   3.864   0.070 -0.1670 -1.1929  1.1070
  136TIP3    H2  373   4.020   3.932   0.204 -1.0802 -0.9610  0.9476
  137TIP3   OH2  374   5.133   5.999   3.227  0.2445 -0.0608  0.2570
  137TIP3    H1  375   5.219   6.003   3.185 -0.2662 -1.9930 -1.1111
  137TIP3    H2  376   5.090   6.080   3.200  0.7583 -0.2126 -1.1052
  138TIP3   OH2  377   1.761   1.597   2.313  0.5188  0.2233 -0.6239
  138TIP3    H1  378   1.842   1.606   2.363  0.7717  0.2234 -1.0251
  138TIP3    H2  379   1.761   1.507   2.282 -0.5485 -0.3373  0.9040
  139TIP3   OH2  380  -0.027   2.466   1.722  0.2756  0.2175  0.3003
  139TIP3    H1  381   0.046   2.518   1.687  0.3830 -0.6312 -0.7825
  139TIP3    H2  382  -0.008   2.459   1.816  1.6903 -0.1135  0.0152
  140TIP3   OH2  383   4.592   2.214   4.342  0.4551 -0.1017  0.4945
  140TIP3    H1  384   4.633   2.196   4.257 -2.2200  2.3368 -1.5633
  140TIP3    H2  385   4.512   2.162   4.341 -0.1513  0.7914  0.9689
  141TIP3   OH2  386   0.545   2.434   0.802  0.2669  0.0747 -1.2047
  141TIP3    H1  387   0.456   2.417   0.832  0.2583  0.2554 -1.1299
  141TIP3    H2  388   0.593   2.459   0.881 -0.2540  2.6746 -1.6416
  142TIP3   OH2  389   6.012   3.615   3.709  0.4768 -0.1397 -0.7563
  142TIP3    H1  390   6.019   3.687   3.647 -2.5855  0.8874 -0.0747
  142TIP3    H2  391   6.021   3.656   3.795  1.0900 -1.0027 -0.3779
  143TIP3   OH2  392   1.111   4.055   5.518  0.1697 -0.2431 -0.3133
  143TIP3    H1  393   1.128   3.988   5.584  2.6552 -0.5276 -1.1388
  143TIP3    H2  394   1.033   4.024   5.473 -1.3169 -0.2734  2.1205
  144TIP3   OH2  395   3.846   3.038   3.606  0.3620  0.4104 -0.8969
  144TIP3    H1  396   3.811   3.049   3.695  1.5841  1.0950 -0.4731
  144TIP3    H2  397   3.778   3.075   3.549 -0.8757 -0.9274 -0.3486
  145TIP3   OH2  398   0.371   1.104   3.619 -0.0167  0.0605  0.0193
  145TIP3    H1  399   0.366   1.069   3.530 -1.1930  1.4271 -0.4925
  145TIP3    H2  400   0.456   1.074   3.652  1.0647  0.6553 -2.0543
  146TIP3   OH2  401   1.292   5.049   2.524 -0.5085  0.0075  1.2263
  146TIP3    H1  402   1.309   4.996   2.602 -0.6380  1.5379  2.3484
  146TIP3    H2  403   1.354   5.123   2.532  0.2806 -0.3781 -0.7294
  147TIP3   OH2  404   0.433   4.362   4.842 -0.7449 -0.3114 -0.4895
  147TIP3    H1  405   0.506   4.376   4.902 -0.2184 -1.2920 -0.8908
  147TIP3    H2  406   0.358   4.345   4.899 -0.3441 -0.8000 -0.1070
  148TIP3   OH2  407   2.852   5.539   4.523  0.0278  0.0261  0.0430
  148TIP3    H1  408   2.925   5.567   4.468 -0.4704  1.1124 -0.0965
  148TIP3    H2  409   2.782   5.602   4.504 -0.6153 -0.4043  0.9011
  149TIP3   OH2  410   6.787   1.088   5.584 -0.0737  0.3605  0.2196
  149TIP3    H1  411   6.813   1.164   5.636  0.0963  0.6858 -0.3378
  149TIP3    H2  412   6.749   1.125   5.504 -1.1553 -0.1214  0.4934
  150TIP3   OH2  413   2.368   1.219   0.990  0.1986  0.3386 -0.1324
  150TIP3    H1  414   2.371   1.177   0.904  1.6320  1.8275 -0.8557
  150TIP3    H2  415   2.421   1.162   1.046  1.5004  0.7431 -0.9183
  151TIP3   OH2  416   6.175   5.706   5.861  0.3110  0.0680  0.1054
  151TIP3    H1  417   6.180   5.801   5.850 -0.1906 -0.0550 -1.3852
  151TIP3    H2  418   6.239   5.671   5.798  0.4346 -0.5917  0.5834
  152TIP3   OH2  419   6.563   3.241   2.562  0.0171  0.1151 -0.5663
  152TIP3    H1  420   6.536   3.251   2.653  0.7916  0.8617 -0.4027
  152TIP3    H2  421   6.490   3.278   2.512 -0.1718  0.2081 -0.2301
  153TIP3   OH2  422   0.440   2.898   3.436 -0.1668  0.3139 -0.1867
  153TIP3    H1  423   0.415   2.850   3.515  0.3090  2.2538  1.2284
  153TIP3    H2  424   0.486   2.976   3.469  2.6275 -0.2181 -2.4649
  154TIP3   OH2  425   5.788   2.065   3.790 -0.7430  0.0733  0.8480
  154TIP3    H1  426   5.746   2.133   3.738  0.4803  0.1797 -0.0425
  154TIP3    H2  427   5.739   2.064   3.872 -1.6770  1.0346  0.3263
  155TIP3   OH2  428   4.151   5.969   0.780 -0.1147 -0.2042 -0.1635
  155TIP3    H1  429   4.235   5.984   0.736 -0.8883  1.3152 -1.1909
  155TIP3    H2  430   4.106   5.905   0.725 -0.0488 -0.2418 -0.1737
  156TIP3   OH2  431   1.339   0.684   3.251  0.0765  0.3916  0.3114
  156TIP3    H1  432   1.349   0.772   3.286 -1.2054  1.4252 -1.6942
  156TIP3    H2  433   1.412   0.675   3.189  0.2291  0.0341  0.5454
  157TIP3   OH2  434   3.324   3.220   1.799 -0.6564 -1.1694 -0.0137
  157TIP3    H1  435   3.404   3.220   1.851 -1.5746  0.3744  1.4912
  157TIP3    H2  436   3.255   3.196   1.860 -1.8198  1.0229 -0.3715
  158TIP3   OH2  437   1.795   4.277   1.051 -0.0924  0.1706  0.3078
  158TIP3    H1  438   1.788   4.189   1.090  0.5986 -0.2033 -0.3896
  158TIP3    H2  439   1.759   4.266   0.963  0.7918  0.3800 -0.0824
  159TIP3   OH2  440   4.908   6.587   5.186 -0.2523 -0.0593  0.0366
  159TIP3    H1  441   4.993   6.545   5.196 -0.0327 -0.1008 -1.7146
  159TIP3    H2  442   4.862   6.534   5.121 -1.0085  0.8598 -0.2093
  160TIP3   OH2  443   2.481   2.125   5.217 -0.6643  0.0817  0.4195
  160TIP3    H1  444   2.398   2.083   5.194 -0.2681 -1.6000  1.8913
  160TIP3    H2  445   2.455   2.204   5.264 -1.4181  0.3370 -0.3937
  161TIP3   OH2  446   2.892   2.087   1.568  0.3744 -0.0401 -0.3905
  161TIP3    H1  447   2.897   2.170   1.614  0.2048  0.8306 -1.8850
  161TIP3    H2  448   2.942   2.026   1.622 -0.3664  0.7662  1.2582
  162TIP3   OH2  449   4.030   5.356   4.229  0.8723  0.0506 -0.0886
  162TIP3    H1  450   4.083   5.313   4.296 -0.8553  0.0300  1.3188
  162TIP3    H2  451   3.978   5.420   4.277 -0.9585 -0.4846 -1.2684
  163TIP3   OH2  452   5.767  -0.032   0.668 -1.0060  0.4724 -0.2292
  163TIP3    H1  453   5.716   0.048   0.654 -1.3131  0.1799 -0.8274
  163TIP3    H2  454   5.848  -0.003   0.711 -0.4162  1.3009 -1.8510
  164TIP3   OH2  455   5.196   0.064   3.216  0.1632 -0.4779 -0.0349
  164TIP3    H1  456   5.124   0.017   3.173 -0.1109 -0.8692  0.8437
  164TIP3    H2  457   5.152   0.129   3.271  0.5046 -0.3113  0.0422
  165TIP3   OH2  458   3.278   4.081   4.431 -0.9421 -0.5791 -0.6209
  165TIP3    H1  459   3.210   4.044   4.374 -1.3721 -1.7283  0.5886
  165TIP3    H2  460   3.351   4.101   4.372 -1.8106 -0.6136 -1.7385
  166TIP3   OH2  461   3.040   4.270   2.025  0.0450  0.2263  1.0711
  166TIP3    H1  462   3.043   4.201   2.092 -1.1047 -0.7440  0.1533
  166TIP3    H2  463   3.023   4.223   1.943  1.0849  1.4336  0.1306
  167TIP3   OH2  464   2.260   5.884   3.316  0.1083  0.0863 -0.0513
  167TIP3    H1  465   2.286   5.810   3.261  2.2871  0.9510 -0.3017
  167TIP3    H2  466   2.165   5.886   3.310  0.0299 -2.1975 -0.6648
  168TIP3   OH2  467   1.197   5.663   2.134  0.5163 -0.3757  0.1887
  168TIP3    H1  468   1.246   5.613   2.199  0.6557  0.5631  0.8167
  168TIP3    H2  469   1.146   5.726   2.185  3.1660  2.7244 -0.6625
  169TIP3   OH2  470   5.171   2.488   4.948 -0.6825 -0.3692  0.4960
  169TIP3    H1  471   5.160   2.475   4.854  0.9311  0.0505  0.2137
  169TIP3    H2  472   5.135   2.409   4.988 -1.0138 -0.7327 -0.5001
  170TIP3   OH2  473   0.812   1.349   0.766 -0.8613  0.1053 -0.8997
  170TIP3    H1  474   0.727   1.381   0.798 -1.4697 -1.6712 -0.6418
  170TIP3    H2  475   0.876   1.396   0.819 -1.7174  0.6424 -0.3060
  171TIP3   OH2  476   6.657   6.089   5.236  0.7286 -0.2360  0.2801
  171TIP3    H1  477   6.702   6.009   5.209 -0.7784 -1.2165  0.5407
  171TIP3    H2  478   6.633   6.132   5.154  2.2526  0.3919  0.1417
  172TIP3   OH2  479   5.693   6.461   3.757  0.3441  0.8346  0.2861
  172TIP3    H1  480   5.735   6.380   3.728 -1.5802  0.5620 -2.0853
  172TIP3    H2  481   5.699   6.520   3.682 -1.0434  1.7652  0.8545
  173TIP3   OH2  482   2.907   5.768   4.410  0.5863 -0.2598  0.2134
  173TIP3    H1  483   2.857   5.764   4.328  0.0223  0.5133  0.5022
  173TIP3    H2  484   2.847   5.809   4.472  0.8042 -1.3540  1.1761
  174TIP3   OH2  485   1.289   0.743   0.054  0.5615 -0.5113 -0.2360
  174TIP3    H1  486   1.294   0.814  -0.010 -0.1022 -1.4173 -1.3355
  174TIP3    H2  487   1.380   0.724   0.077  0.7401  0.8372  0.2653
  175TIP3   OH2  488   5.994   4.111   1.712 -0.1575 -0.2878  0.2542
  175TIP3    H1  489   6.028   4.150   1.631  0.2498  0.3989  0.7441
  175TIP3    H2  490   6.061   4.050   1.740  0.7349  1.0690  1.2223
  176TIP3   OH2  491   1.525   5.982   0.707  0.3443  0.4231 -0.0981
  176TIP3    H1  492   1.503   6.035   0.630 -0.6822 -0.5942 -0.5446
  176TIP3    H2  493   1.553   5.898   0.671 -2.3903 -0.9025  0.6041
  177TIP3   OH2  494   3.440   2.435   1.848 -0.1619  0.5536 -0.3621
  177TIP3    H1  495   3.509   2.498   1.824 -0.8565  2.1186  1.5028
  177TIP3    H2  496   3.379   2.438   1.774  1.5681 -0.6920 -1.9470
  178TIP3   OH2  497   3.231   2.647   0.659  0.0757  0.3816 -0.1218
  178TIP3    H1  498   3.325   2.635   0.665  0.3555  1.5591 -1.4858
  178TIP3    H2  499   3.206   2.608   0.575 -0.8687 -0.9409  0.7317
  179TIP3   OH2  500   5.545   2.503   1.652  0.0668  0.0594  0.2355
  179TIP3    H1  501   5.463   2.552   1.658  0.3275  0.6848 -1.0069
  179TIP3    H2  502   5.595   2.531   1.729 -1.0866 -0.7862  1.3522
  180TIP3   OH2  503   0.659   5.487   5.360  0.8188 -0.5278 -0.6102
  180TIP3    H1  504   0.686   5.470   5.270 -0.7579 -0.1471 -1.1881
  180TIP3    H2  505   0.682   5.407   5.408  1.4224 -0.8322 -1.3969
  181TIP3   OH2  506   5.304   4.156   5.629 -0.7567 -0.5707 -0.6967
  181TIP3    H1  507   5.230   4.146   5.569 -1.2704  1.5046 -0.4745
  181TIP3    H2  508   5.264   4.184   5.711  0.2930  1.4401 -0.8157
  182TIP3   OH2  509   2.948   2.417   2.114  0.0548 -0.5650 -0.2161
  182TIP3    H1  510   2.959   2.508   2.088  2.3896  0.4625  3.6310
  182TIP3    H2  511   2.919   2.421   2.205  0.5804 -3.6718  0.2115
  183TIP3   OH2  512   3.499   1.444   1.384 -0.2290  0.2271  1.0911
  183TIP3    H1  513   3.570   1.444   1.321 -1.5828 -1.6004 -0.5802
  183TIP3    H2  514   3.419   1.446   1.331 -1.4348 -0.9134  2.7353
  184TIP3   OH2  515   4.509   2.515   0.246  0.0529 -0.3122 -0.1781
  184TIP3    H1  516   4.572   2.451   0.212  1.9632  1.8501 -1.0087
  184TIP3    H2  517   4.514   2.506   0.341 -3.2130 -4.4565 -0.1086
  185TIP3   OH2  518   7.136   5.595   3.581  0.0002  0.0359 -0.3253
  185TIP3    H1  519   7.121   5.593   3.487 -1.2030  0.2241 -0.1525
  185TIP3    H2  520   7.181   5.513   3.600  0.4658  0.1086 -1.0918
  186TIP3   OH2  521   3.863   3.732   4.189 -0.0729  0.4832 -0.5316
  186TIP3    H1  522   3.902   3.780   4.115  2.1046 -2.1563 -1.2488
  186TIP3    H2  523   3.938   3.707   4.243 -1.3569 -0.1978  1.0079
  187TIP3   OH2  524   4.713   6.736   4.103 -0.1736 -0.1069 -0.2646
  187TIP3    H1  525   4.725   6.677   4.177  1.4367  0.0504 -0.3542
  187TIP3    H2  526   4.649   6.693   4.047  0.7849 -1.6594 -0.2106
  188TIP3   OH2  527   6.259   5.799   0.279  0.2469 -0.0310  0.2415
  188TIP3    H1  528   6.177   5.764   0.315 -0.8020  2.0567  0.0215
  188TIP3    H2  529   6.325   5.735   0.306 -1.5175 -2.2332 -0.2477
  189TIP3   OH2  530   0.709   1.909   4.072  0.2073  0.1214  0.2753
  189TIP3    H1  531   0.617   1.886   4.072  0.1078  0.4763  0.8615
  189TIP3    H2  532   0.737   1.894   4.163  1.1377 -1.5494 -0.2480
  190TIP3   OH2  533   5.897   2.128   5.086  0.0876  0.0173 -0.1033
  190TIP3    H1  534   5.970   2.166   5.134  0.2784  1.2321 -1.2751
  190TIP3    H2  535   5.930   2.045   5.052  1.0516  0.6933 -0.8734
  191TIP3   OH2  536   0.762   6.083   2.985 -0.6348  0.1013 -0.0536
  191TIP3    H1  537   0.728   6.119   3.067 -0.6202 -0.8887  0.3938
  191TIP3    H2  538   0.790   5.994   3.007  1.0712  0.4371 -0.6942
  192TIP3   OH2  539   1.600   6.651   2.297  0.0905  0.0547  0.0325
  192TIP3    H1  540   1.690   6.620   2.288  0.2219  0.3555  0.2995
  192TIP3    H2  541   1.547   6.578   2.266  0.3840 -0.5468  0.9046
  193TIP3   OH2  542   3.682   6.799   1.959  0.1138  0.7606 -0.5131
  193TIP3    H1  543   3.724   6.806   2.044  2.2756  3.6855 -1.6250
  193TIP3    H2  544   3.677   6.705   1.941 -3.4056 -0.2747  4.0180
  194TIP3   OH2  545   6.292   1.821   5.393 -0.0037  0.2059 -0.2398
  194TIP3    H1  546   6.282   1.892   5.457  0.2386  0.3816 -0.3936
  194TIP3    H2  547   6.206   1.813   5.353 -0.2877 -0.2304  0.4449
  195TIP3   OH2  548   6.933   2.008   3.515 -0.2893 -0.2753 -0.0534
  195TIP3    H1  549   6.981   1.989   3.434  0.2452  1.6036 -0.2139
  195TIP3    H2  550   6.973   2.087   3.550 -2.0427  0.2950  0.8158
  196TIP3   OH2  551   5.908   0.354   5.540 -0.2175 -0.1189  0.0224
  196TIP3    H1  552   5.985   0.330   5.490 -0.9213 -0.3675 -0.9794
  196TIP3    H2  553   5.941   0.377   5.627  0.8905 -0.9368 -0.1683
  197TIP3   OH2  554   0.814   4.947   0.944  0.0652  0.3503  0.1972
  197TIP3    H1  555   0.776   4.860   0.956 -1.3566  0.8786 -0.3074
  197TIP3    H2  556   0.755   5.006   0.992 -0.4382  1.3250 -1.5262
  198TIP3   OH2  557   2.403   1.136   0.384 -0.5178  0.2034 -0.1843
  198TIP3    H1  558   2.359   1.186   0.452 -0.0190  0.2089  0.1359
  198TIP3    H2  559   2.412   1.048   0.420 -0.0535  0.2619 -0.1467
  199TIP3   OH2  560   2.531   2.820   1.553 -0.7831 -0.4046 -0.5059
  199TIP3    H1  561   2.507   2.748   1.494  2.3752  0.3115 -2.9445
  199TIP3    H2  562   2.481   2.895   1.521 -0.1219 -0.3487 -1.4587
  200TIP3   OH2  563   0.458   0.289   4.918 -0.4657  0.6676  0.1862
  200TIP3    H1  564   0.525   0.356   4.932 -1.3792  1.5735  0.3028
  200TIP3    H2  565   0.421   0.273   5.005 -0.0538 -0.2228  0.2111
  201TIP3   OH2  566   0.857   0.106   4.885 -0.0556  0.0023  0.0949
  201TIP3    H1  567   0.798   0.030   4.880  0.7805 -0.6827  0.3646
  201TIP3    H2  568   0.820   0.160   4.954 -1.2219  0.3430 -0.7735
  202TIP3   OH2  569   1.384   0.338   3.800  0.3433  0.2774 -0.2310
  202TIP3    H1  570   1.472   0.322   3.836 -0.0720 -0.1432  0.6331
  202TIP3    H2  571   1.392   0.420   3.752  0.6696  1.5003  1.7834
  203TIP3   OH2  572   6.548   6.798   1.516  0.0572  0.2738 -0.7451
  203TIP3    H1  573   6.594   6.752   1.446  0.6792 -0.9956  0.4540
  203TIP3    H2  574   6.458   6.764   1.512  0.5239 -1.1211  0.1610
  204TIP3   OH2  575   2.869   2.525   5.259 -0.2408 -0.4296 -0.2289
  204TIP3    H1  576   2.875   2.577   5.179 -0.1277 -1.1276 -0.6860
  204TIP3    H2  577   2.787   2.553   5.300 -0.2906 -0.0556 -0.5762
  205TIP3   OH2  578   6.807   4.577   0.658  0.0947 -0.3719  0.5813
  205TIP3    H1  579   6.731   4.523   0.638 -0.4573  0.3958  0.5589
  205TIP3    H2  580   6.842   4.603   0.573 -1.2596  1.5116  0.5280
  206TIP3   OH2  581   5.382   1.934   3.703  0.1488  0.0686 -0.1280
  206TIP3    H1  582   5.473   1.911   3.720 -0.3417 -0.4570  2.1612
  206TIP3    H2  583   5.383   2.029   3.691  1.0549 -0.0000 -0.6295
  207TIP3   OH2  584   0.489   1.531   5.434 -1.0283 -0.2923  0.2438
  207TIP3    H1  585   0.546   1.591   5.483 -1.4799 -0.2918  0.7796
  207TIP3    H2  586   0.451   1.474   5.501 -1.8441 -0.1354 -0.0740
  208TIP3   OH2  587   6.105   2.819   2.720 -0.2642  0.2245  0.3245
  208TIP3    H1  588   6.108   2.737   2.769 -1.3801 -0.8733 -1.3097
  208TIP3    H2  589   6.047   2.800   2.646  0.9374  1.9215 -1.1402
  209TIP3   OH2  590   6.871   4.349   2.300 -0.0975  0.0955 -0.2272
  209TIP3    H1  591   6.881   4.254   2.304  1.4983  0.2944  1.6086
  209TIP3    H2  592   6.906   4.381   2.383  0.2231  2.3592 -1.1608
  210TIP3   OH2  593   0.783   2.700   3.992 -0.4566  0.3703  0.1503
  210TIP3    H1  594   0.828   2.646   4.057 -3.2701 -1.3332  0.8509
  210TIP3    H2  595   0.736   2.766   4.044 -2.1526 -0.5647 -0.1151
  211TIP3   OH2  596   0.641   1.241   3.678  0.4866 -0.4287  0.0046
  211TIP3    H1  597   0.594   1.276   3.603  1.5461  0.8136 -0.1310
  211TIP3    H2  598   0.594   1.275   3.754 -0.1207 -1.0287 -0.0991
  212TIP3   OH2  599   5.537   1.965   1.609 -0.1221 -0.0308 -0.1055
  212TIP3    H1  600   5.592   2.041   1.593 -1.7094  1.5513  1.4565
  212TIP3    H2  601   5.533   1.957   1.704 -0.1370 -2.0091 -0.2202
  213TIP3   OH2  602   2.741   1.031   1.544 -0.3367  0.0105  0.2932
  213TIP3    H1  603   2.680   1.022   1.617  0.5234 -1.0267  0.9104
  213TIP3    H2  604   2.753   1.125   1.533 -2.6840  0.2963 -0.4101
  214TIP3   OH2  605   1.170   1.626   3.544 -0.1872  0.0647  0.0476
  214TIP3    H1  606   1.219   1.703   3.570 -0.1854 -0.5426  2.0350
  214TIP3    H2  607   1.078   1.649   3.560 -0.1729 -0.3938  0.8221
  215TIP3   OH2  608   6.473   2.227   1.537  0.1864 -0.0096 -0.1091
  215TIP3    H1  609   6.473   2.132   1.530 -0.9400 -0.0524  0.3400
  215TIP3    H2  610   6.559   2.254   1.503 -0.3432 -1.0067 -2.3700
  216TIP3   OH2  611   6.672   5.283   4.851  0.1489 -0.3915  0.0339
  216TIP3    H1  612   6.767   5.279   4.849  0.1828 -0.0774  0.8149
  216TIP3    H2  613   6.644   5.195   4.873  0.2647 -0.4174  0.0736
  217TIP3   OH2  614   2.015   1.410   4.810  0.2377 -0.0932  0.0301
  217TIP3    H1  615   2.087   1.471   4.826 -1.0506  0.9381  2.6513
  217TIP3    H2  616   2.019   1.348   4.883 -2.1719  0.7418  0.9780
  218TIP3   OH2  617   3.481   4.768   0.536  0.0978  1.1938 -0.7770
  218TIP3    H1  618   3.528   4.850   0.519 -0.2869  1.5526 -0.1302
  218TIP3    H2  619   3.516   4.737   0.620  0.6002  0.4331 -1.2588
  219TIP3   OH2  620   2.328   6.641   3.764 -0.0557  0.1635 -0.1428
  219TIP3    H1  621   2.234   6.644   3.780 -0.3840  0.6481 -1.9322
  219TIP3    H2  622   2.356   6.558   3.802 -1.0040  0.4364  1.2578
  220TIP3   OH2  623   6.211   0.811   2.833  0.2345  0.1526 -0.1722
  220TIP3    H1  624   6.271   0.883   2.810  0.7153 -0.3425 -0.4924
  220TIP3    H2  625   6.137   0.821   2.773  0.2438  0.4464 -0.1370
  221TIP3   OH2  626   0.883   2.189   0.175  0.8225 -0.4193  0.2176
  221TIP3    H1  627   0.847   2.152   0.256 -0.4969 -1.6201 -0.8510
  221TIP3    H2  628   0.844   2.136   0.105  0.7565  1.5084 -1.2975
  222TIP3   OH2  629   7.033   4.412   2.526  0.1206 -0.4220 -0.6659
  222TIP3    H1  630   7.106   4.469   2.502 -0.7087  0.6485 -0.7677
  222TIP3    H2  631   7.065   4.363   2.602  1.1992 -0.5391 -1.1811
  223TIP3   OH2  632   5.046   0.582   3.636 -0.1929  0.1242 -0.4829
  223TIP3    H1  633   4.965   0.606   3.681  0.5236 -0.1933  1.0406
  223TIP3    H2  634   5.115   0.630   3.683  0.6107 -0.4059 -1.0977
  224TIP3   OH2  635   5.529   5.543   4.272  0.3962 -0.7031 -0.2924
  224TIP3    H1  636   5.539   5.505   4.360 -0.8456 -1.4418 -0.4359
  224TIP3    H2  637   5.531   5.467   4.213  0.7401 -0.2561 -0.8584
  225TIP3   OH2  638   4.839   0.370   3.942 -0.0399 -0.1582 -0.1885
  225TIP3    H1  639   4.771   0.337   4.001  0.4939  1.4373  1.4147
  225TIP3    H2  640   4.862   0.295   3.887 -0.7760 -1.6559  1.4496
  226TIP3   OH2  641   2.291   4.705   5.322 -0.1676 -0.3626 -0.5110
  226TIP3    H1  642   2.221   4.640   5.322 -1.4979  0.9987 -0.7226
  226TIP3    H2  643   2.327   4.702   5.233  1.1131 -2.0980  0.0069
  227TIP3   OH2  644   6.783   2.473   1.035 -0.6525 -0.2515  0.3817
  227TIP3    H1  645   6.776   2.425   0.953  2.1735  0.5804 -0.4664
  227TIP3    H2  646   6.714   2.540   1.029 -2.4750 -2.0695  0.1224
  228TIP3   OH2  647   4.986   5.736   4.346 -0.0256  0.3760 -0.8137
  228TIP3    H1  648   5.001   5.812   4.403  1.2065 -0.4344 -0.0152
  228TIP3    H2  649   5.038   5.666   4.385 -0.5582 -0.6911 -1.9559
  229TIP3   OH2  650   2.484   3.634   1.596 -0.1489  0.0542 -0.2343
  229TIP3    H1  651   2.394   3.643   1.627  0.4278  0.9777  1.3435
  229TIP3    H2  652   2.482   3.663   1.505 -1.8092 -2.0460 -0.9551
  230TIP3   OH2  653   3.973   3.564   0.297 -0.4559  0.1105 -0.5864
  230TIP3    H1  654   4.024   3.485   0.283 -1.8855 -0.8692 -0.5001
  230TIP3    H2  655   3.930   3.580   0.214  0.5959  1.4086 -0.9147
  231TIP3   OH2  656   3.874   4.958   0.399  0.0911 -0.0890  0.8298
  231TIP3    H1  657   3.949   4.930   0.451 -0.4567  0.3099  1.8830
  231TIP3    H2  658   3.904   4.954   0.308  0.5469 -2.5362  1.0063
  232TIP3   OH2  659   6.702   3.744   4.684  0.8055 -0.0060 -0.6706
  232TIP3    H1  660   6.691   3.771   4.775  1.4043  0.5238 -0.7497
  232TIP3    H2  661   6.644   3.668   4.674  1.2241 -0.4733  0.3349
  233TIP3   OH2  662   2.218   5.516   0.511 -0.3396  0.2224  0.1306
  233TIP3    H1  663   2.287   5.561   0.560  0.1643 -0.9946  0.5843
  233TIP3    H2  664   2.265   5.465   0.445 -0.7340 -1.0371  0.7902
  234TIP3   OH2  665   5.391   4.151   1.841  0.4541 -0.0331 -0.2515
  234TIP3    H1  666   5.361   4.076   1.790 -0.4104  1.1456 -1.5493
  234TIP3    H2  667   5.475   4.175   1.801  0.4266  0.0868 -0.2355
  235TIP3   OH2  668   6.844   4.255   5.694 -0.4039  0.0176 -0.2625
  235TIP3    H1  669   6.921   4.311   5.702 -0.2818 -0.1034 -0.5561
  235TIP3    H2  670   6.808   4.249   5.783 -0.3188  0.4193 -0.2014
  236TIP3   OH2  671   6.088   3.716   1.461  0.4485 -0.4072  0.6604
  236TIP3    H1  672   6.040   3.641   1.494  0.3317 -1.0135 -0.7893
  236TIP3    H2  673   6.166   3.721   1.516 -1.2350  0.6548  3.1237
  237TIP3   OH2  674   5.181   4.174   0.191  0.0088  0.0466  0.3283
  237TIP3    H1  675   5.186   4.209   0.102 -2.0993  1.5441  0.7205
  237TIP3    H2  676   5.187   4.251   0.248  1.0705 -0.8539  1.5138
  238TIP3   OH2  677   6.854   0.267   1.123  0.5733 -0.1482  0.9255
  238TIP3    H1  678   6.765   0.294   1.101  0.2093  0.1903  2.6828
  238TIP3    H2  679   6.842   0.191   1.180  1.4418 -0.5713  0.5556
  239TIP3   OH2  680   1.614   0.318   2.468  0.2456 -0.1139 -0.1485
  239TIP3    H1  681   1.680   0.388   2.462 -0.2921  0.5572  1.1825
  239TIP3    H2  682   1.665   0.237   2.473  0.8704  0.1066 -2.1939
  240TIP3   OH2  683   5.626   3.569   1.741 -0.1136 -0.4836  0.2051
  240TIP3    H1  684   5.585   3.633   1.800  0.9899  0.9870 -0.5722
  240TIP3    H2  685   5.627   3.488   1.792  0.6102  0.6776  2.1675
  241TIP3   OH2  686   2.017   0.647   2.302 -0.0363  0.3396  0.0547
  241TIP3    H1  687   2.003   0.730   2.347  0.9765  1.0244 -0.8382
  241TIP3    H2  688   2.088   0.604   2.351  0.2822  0.5678 -0.2008
  242TIP3   OH2  689   2.921   4.006   5.060  0.0202 -0.2242  0.5742
  242TIP3    H1  690   2.987   4.005   5.129 -1.0571 -0.5071  1.6412
  242TIP3    H2  691   2.970   4.022   4.979  1.1407  1.8901  1.5918
  243TIP3   OH2  692   3.767   6.784   2.694  0.3039  0.8903 -0.2680
  243TIP3    H1  693   3.778   6.759   2.785 -1.7807 -0.6640 -0.3589
  243TIP3    H2  694   3.833   6.733   2.647  1.0024  1.2671  0.2748
  244TIP3   OH2  695   6.974   0.310   3.594  0.2104  0.0363 -0.0019
  244TIP3    H1  696   7.018   0.368   3.656  1.5173  0.4207 -1.2341
  244TIP3    H2  697   7.016   0.329   3.510 -1.9512 -0.0196 -1.1432
  245TIP3   OH2  698   2.630   3.283   4.464  0.6893  0.0322  0.2814
  245TIP3    H1  699   2.605   3.250   4.378  1.7995  0.2197 -0.1250
  245TIP3    H2  700   2.550   3.319   4.500  0.1992 -0.0987 -0.6478
  246TIP3   OH2  701   3.856   5.607   4.135  0.7419  0.0924  0.2418
  246TIP3    H1  702   3.865   5.591   4.041  2.8420 -1.4687  0.6385
  246TIP3    H2  703   3.842   5.701   4.142 -2.0861 -0.0367 -1.7193
  247TIP3   OH2  704   6.677   0.919   1.732  0.5494  0.1311  0.2393
  247TIP3    H1  705   6.717   0.991   1.684  1.9821  0.0503  1.2406
  247TIP3    H2  706   6.693   0.842   1.678  1.9644  0.0749  0.7013
  248TIP3   OH2  707   2.581   4.013   1.320  0.5805 -0.7296 -0.3056
  248TIP3    H1  708   2.612   4.005   1.230 -1.2339  0.9684 -1.1694
  248TIP3    H2  709   2.537   4.097   1.322 -0.5147 -1.2924  1.8461
  249TIP3   OH2  710   7.011   0.882   0.422  0.4562  0.0730  0.5640
  249TIP3    H1  711   6.939   0.903   0.482 -0.9568 -1.0598 -0.6554
  249TIP3    H2  712   7.027   0.788   0.436  0.2639 -0.1499 -0.6319
  250TIP3   OH2  713   6.207   1.228   3.854 -0.3180  0.6256  0.0747
  250TIP3    H1  714   6.203   1.158   3.789  1.5451  1.7757 -1.3974
  250TIP3    H2  715   6.290   1.215   3.899 -1.5616 -0.1249  2.3008
  251TIP3   OH2  716   2.461   6.723   4.473 -0.0112  0.2588 -0.2130
  251TIP3    H1  717   2.535   6.702   4.416  1.9384 -1.7517  2.7381
  251TIP3    H2  718   2.493   6.797   4.526 -0.1794 -0.4078  0.8580
  252TIP3   OH2  719   6.679   4.926   4.084  0.0643  0.3727 -0.0828
  252TIP3    H1  720   6.730   4.954   4.160 -0.6773 -2.1253  1.4674
  252TIP3    H2  721   6.730   4.856   4.045 -1.3466 -1.0734  0.5472
  253TIP3   OH2  722   4.608   3.021   0.184 -0.3618  0.1381  0.4978
  253TIP3    H1  723   4.611   2.925   0.181  1.2488  0.1597  0.0627
  253TIP3    H2  724   4.530   3.045   0.135  1.1218 -0.8958 -2.6241
  254TIP3   OH2  725   4.235   4.833   3.700  0.3762 -0.2507 -0.3240
  254TIP3    H1  726   4.287   4.913   3.715 -2.3474  1.4500  0.7660
  254TIP3    H2  727   4.192   4.848   3.616 -1.5306  0.3305  0.6998
  255TIP3   OH2  728   3.435   0.609   2.381  0.3342  0.7555  0.0762
  255TIP3    H1  729   3.416   0.692   2.338  0.0023  0.9215  0.5412
  255TIP3    H2  730   3.378   0.608   2.458  0.0958 -0.0524 -0.1038
  256TIP3   OH2  731   1.136   5.762   4.321  0.0883 -0.0065  0.0495
  256TIP3    H1  732   1.055   5.799   4.356  0.1392  1.0134 -0.8263
  256TIP3    H2  733   1.109   5.682   4.277 -0.9703  1.6781 -2.6232
  257TIP3   OH2  734   2.184   3.171   2.132  0.4316  0.4723  0.3208
  257TIP3    H1  735   2.269   3.157   2.092  0.1810 -1.8930  0.4900
  257TIP3    H2  736   2.193   3.138   2.221 -1.0392 -1.2745 -0.1155
  258TIP3   OH2  737   3.022   3.859   5.417  0.3905  0.2399 -0.4098
  258TIP3    H1  738   2.935   3.836   5.449  1.0228 -0.1003  1.1460
  258TIP3    H2  739   3.060   3.777   5.386  1.1755 -0.2117  1.5430
  259TIP3   OH2  740   6.174   3.888   3.688 -0.3187  0.4502 -0.1956
  259TIP3    H1  741   6.172   3.800   3.726 -0.6372  1.3458  2.0542
  259TIP3    H2  742   6.268   3.908   3.682 -0.2114  1.0392  2.2167
  260TIP3   OH2  743   3.001   6.380   2.194 -0.3473 -0.0441 -0.4523
  260TIP3    H1  744   3.017   6.288   2.172 -0.4713 -0.7701  2.0958
  260TIP3    H2  745   2.906   6.390   2.186 -0.7327 -1.0399  1.9876
  261TIP3   OH2  746   2.960   0.801   3.960  0.0168  0.2458  0.4272
  261TIP3    H1  747   2.900   0.851   4.016  0.2653 -0.2573  1.1552
  261TIP3    H2  748   2.960   0.713   3.997  0.6397  0.0543 -0.0118
  262TIP3   OH2  749   1.455   5.486   3.276  0.1789 -0.6491  0.1763
  262TIP3    H1  750   1.441   5.490   3.182  1.7823 -0.5558 -0.0927
  262TIP3    H2  751   1.395   5.418   3.307  0.8751 -1.9276 -1.1904
  263TIP3   OH2  752   4.012   4.106   5.174 -0.0833  0.0171  0.2996
  263TIP3    H1  753   4.021   4.136   5.264 -0.5366 -0.1443  0.4009
  263TIP3    H2  754   4.076   4.157   5.125  0.5275 -0.2585  0.7941
  264TIP3   OH2  755   2.853   0.023   0.728  0.0267 -0.5688 -0.1577
  264TIP3    H1  756   2.787   0.092   0.719 -1.2926 -1.8009 -0.1922
  264TIP3    H2  757   2.882   0.006   0.638 -1.7000 -1.9547 -0.5144
  265TIP3   OH2  758   1.228   0.673   1.172 -0.3124 -0.1650 -0.4008
  265TIP3    H1  759   1.261   0.667   1.082 -1.0052  1.2672 -0.7742
  265TIP3    H2  760   1.284   0.613   1.222 -1.1330 -2.5068 -2.0988
  266TIP3   OH2  761   5.922   2.735   2.531  0.4008  0.1751  0.2283
  266TIP3    H1  762   5.962   2.684   2.461 -1.5748  0.2941 -1.0552
  266TIP3    H2  763   5.872   2.670   2.582  0.0962  0.4188  0.2405
  267TIP3   OH2  764   4.693   2.283   1.773  0.1354 -0.1072  0.4591
  267TIP3    H1  765   4.647   2.360   1.805 -0.2852 -0.6403  1.1710
  267TIP3    H2  766   4.743   2.314   1.697 -0.4356  0.7402  0.4218
  268TIP3   OH2  767   1.110   5.912   2.279  0.0646  0.1197 -0.3132
  268TIP3    H1  768   1.086   5.913   2.371  0.9141  0.4895 -0.0841
  268TIP3    H2  769   1.195   5.955   2.276  0.7410 -1.1928 -1.0634
  269TIP3   OH2  770   3.190   3.278   3.612  0.1898  0.2954 -0.1201
  269TIP3    H1  771   3.227   3.278   3.524  0.4619 -0.9540 -0.0242
  269TIP3    H2  772   3.266   3.286   3.670  0.0491  0.6482  0.0231
  270TIP3   OH2  773   5.494   3.292   2.139  0.3474  0.0247  0.2633
  270TIP3    H1  774   5.562   3.229   2.162 -0.3041 -1.4334 -1.5327
  270TIP3    H2  775   5.414   3.255   2.177  0.1562  0.4412  0.2662
  271TIP3   OH2  776   5.515   4.035   3.709  0.2938  0.4307  0.1621
  271TIP3    H1  777   5.499   4.099   3.640  0.8106 -0.0072 -0.3757
  271TIP3    H2  778   5.433   4.029   3.757 -0.2024  0.4322 -0.6763
  272TIP3   OH2  779   0.304   6.032   4.862 -0.1076  0.5252 -0.2688
  272TIP3    H1  780   0.306   6.127   4.848 -0.0002  0.6237  0.3797
  272TIP3    H2  781   0.296   6.022   4.957  2.1536 -0.1365 -0.1010
  273TIP3   OH2  782   0.124   4.367   1.066 -0.3080  0.1357 -0.1883
  273TIP3    H1  783   0.120   4.282   1.111 -1.8695  0.6037  0.6332
  273TIP3    H2  784   0.102   4.430   1.134  0.2793  1.1577 -0.9297
  274TIP3   OH2  785   3.556   1.573   5.646 -0.0872  0.4231  0.0409
  274TIP3    H1  786   3.554   1.515   5.722 -0.3036 -2.2233 -1.8378
  274TIP3    H2  787   3.630   1.542   5.593 -1.9775 -0.1930 -2.4470
  275TIP3   OH2  788   5.952   5.391   5.225  0.2138 -0.0051 -0.0511
  275TIP3    H1  789   5.939   5.483   5.201 -0.1650 -0.4287 -1.5603
  275TIP3    H2  790   6.030   5.365   5.175  0.9628 -0.2314  1.1937
  276TIP3   OH2  791   0.153   1.494   4.865  0.2792 -0.3078  0.5142
  276TIP3    H1  792   0.219   1.552   4.826 -0.9795 -0.3179 -1.7835
  276TIP3    H2  793   0.186   1.406   4.850  0.4931 -0.2715  0.7761
  277TIP3   OH2  794   1.835   6.735   0.155  0.2855  0.7207  0.3834
  277TIP3    H1  795   1.904   6.799   0.175  1.8444 -0.9544  0.6602
  277TIP3    H2  796   1.808   6.701   0.240  0.1349  0.3602  0.1940
  278TIP3   OH2  797   3.853   1.485   1.843  0.3150 -0.3111 -0.0162
  278TIP3    H1  798   3.776   1.472   1.899 -1.8549  0.6017 -2.5388
  278TIP3    H2  799   3.838   1.427   1.768  1.5427  0.6527 -1.0634
  279TIP3   OH2  800   0.710   0.660   4.830 -0.2277  0.1661  0.0850
  279TIP3    H1  801   0.740   0.610   4.754 -0.0157 -1.1282  0.9899
  279TIP3    H2  802   0.777   0.726   4.843 -0.0278  0.1062 -0.5690
  280TIP3   OH2  803   2.775   5.206   4.583  0.5954 -0.0717 -0.2636
  280TIP3    H1  804   2.782   5.255   4.501 -1.6769  2.2794  0.8069
  280TIP3    H2  805   2.681   5.185   4.590  0.6047  0.4201  2.0201
  281TIP3   OH2  806   1.044   3.622   4.649  0.8196 -1.2824 -0.3478
  281TIP3    H1  807   1.120   3.628   4.592  1.2497 -1.7967  0.1608
  281TIP3    H2  808   1.043   3.706   4.696  0.5041 -0.8876 -1.0531
  282TIP3   OH2  809   1.943   2.968   3.587  0.0187 -0.4514  0.1010
  282TIP3    H1  810   2.018   3.028   3.586  0.6973 -1.2375  1.2152
  282TIP3    H2  811   1.957   2.912   3.510  0.8167 -0.8448  0.5115
  283TIP3   OH2  812   1.976   5.222   0.830  0.3993 -0.0440  0.3455
  283TIP3    H1  813   1.938   5.204   0.744 -1.1059  0.4422  0.8685
  283TIP3    H2  814   2.045   5.286   0.812  1.0712 -1.0099 -0.6486
  284TIP3   OH2  815   3.118   6.751   5.551  0.1174  0.0584  0.3778
  284TIP3    H1  816   3.202   6.764   5.506 -0.0321  0.1953  0.1346
  284TIP3    H2  817   3.062   6.709   5.486 -0.2341  0.6465  0.2958
  285TIP3   OH2  818   1.440   0.593   1.854  0.3221  0.1784 -0.5351
  285TIP3    H1  819   1.522   0.583   1.902  0.3870  0.5822 -0.5564
  285TIP3    H2  820   1.467   0.613   1.765  0.1993  0.2619 -0.5528
  286TIP3   OH2  821   0.872   4.308   5.362  0.0078 -0.0990  0.2203
  286TIP3    H1  822   0.880   4.320   5.457 -0.6054 -0.9971  0.4083
  286TIP3    H2  823   0.875   4.396   5.326 -0.6857  0.3353  1.1645
  287TIP3   OH2  824   2.762   3.083   4.148 -0.2733 -0.3430 -0.0936
  287TIP3    H1  825   2.730   3.173   4.151 -2.0727 -0.9485  0.0701
  287TIP3    H2  826   2.775   3.066   4.054  0.5699  0.2489 -0.0845
  288TIP3   OH2  827   4.305   5.388   4.812 -0.8074 -0.3868  0.1370
  288TIP3    H1  828   4.298   5.390   4.907  0.5153  0.6472  0.2325
  288TIP3    H2  829   4.222   5.427   4.782 -1.1846 -0.6051  0.8585
  289TIP3   OH2  830   1.866   6.549   4.550 -0.4674 -0.3310 -0.2610
  289TIP3    H1  831   1.772   6.561   4.562 -0.2019  2.2176 -0.1950
  289TIP3    H2  832   1.898   6.636   4.524  2.3174 -0.2954  2.6744
  290TIP3   OH2  833   5.444   0.645   5.339 -0.0178 -0.2465  0.1785
  290TIP3    H1  834   5.464   0.680   5.426 -0.3261  0.0609  0.1305
  290TIP3    H2  835   5.354   0.614   5.346 -0.3260  0.5101 -0.2442
  291TIP3   OH2  836   6.117   3.994   2.038  0.1585  0.0764  0.3391
  291TIP3    H1  837   6.194   4.051   2.040  1.9896 -2.2332  0.3905
  291TIP3    H2  838   6.057   4.032   2.102 -0.5856  4.1795 -2.3943
  292TIP3   OH2  839   0.268   5.270   2.913 -0.4092 -0.2382 -0.3570
  292TIP3    H1  840   0.216   5.327   2.857 -1.6809  0.1409  1.1433
  292TIP3    H2  841   0.357   5.306   2.909 -0.5077 -0.1061 -1.9242
  293TIP3   OH2  842   2.173   5.267   2.165  0.3912 -0.3242 -0.1574
  293TIP3    H1  843   2.267   5.284   2.173  0.1727  0.5566  0.6173
  293TIP3    H2  844   2.133   5.323   2.232 -0.5499 -1.9793  0.7242
  294TIP3   OH2  845   3.102   0.526   1.897  0.0256  0.3212  0.3864
  294TIP3    H1  846   3.155   0.499   1.822  1.3904 -0.1895  1.4939
  294TIP3    H2  847   3.074   0.444   1.938  1.0538  0.5487  1.6128
  295TIP3   OH2  848   1.513   1.199   0.565 -0.0124  0.0828 -0.2463
  295TIP3    H1  849   1.573   1.256   0.516 -1.7013  0.7966 -1.5991
  295TIP3    H2  850   1.437   1.189   0.507 -0.4195 -2.3359  0.6057
  296TIP3   OH2  851   3.861   0.916   4.891 -0.0458  0.1294  0.2839
  296TIP3    H1  852   3.767   0.934   4.896 -0.1967  0.3326 -1.9914
  296TIP3    H2  853   3.902   1.002   4.894 -0.1139  0.2227 -0.8883
  297TIP3   OH2  854   2.170   4.333   2.252 -0.4425  0.1091  0.5632
  297TIP3    H1  855   2.088   4.329   2.300  0.2828 -2.0395  1.8172
  297TIP3    H2  856   2.202   4.242   2.253  0.3449  0.2175 -2.8004
  298TIP3   OH2  857   6.643   4.351   2.601  0.4480  0.5379 -0.1075
  298TIP3    H1  858   6.558   4.330   2.638 -0.1487  1.1549 -1.1033
  298TIP3    H2  859   6.655   4.444   2.617  0.2978  0.7621 -1.1948
  299TIP3   OH2  860   5.180   4.578   1.205  0.2286  0.1540 -0.4940
  299TIP3    H1  861   5.195   4.672   1.198  1.7175  0.0079  0.4412
  299TIP3    H2  862   5.219   4.553   1.289  1.1818 -1.5452 -1.3947
  300TIP3   OH2  863   4.276   0.138   2.322  0.1363 -0.4954  0.7168
  300TIP3    H1  864   4.220   0.188   2.380  1.0625  2.1048 -0.4852
  300TIP3    H2  865   4.365   0.161   2.348  0.6058 -1.4366  0.0279
  301TIP3   OH2  866   2.783   0.295   3.791 -0.1694 -0.5260  0.0965
  301TIP3    H1  867   2.781   0.348   3.711 -0.1571 -0.5201  0.1000
  301TIP3    H2  868   2.863   0.323   3.836  0.0978 -0.9066 -0.1405
  302TIP3   OH2  869   0.513   5.064   2.771 -0.2469  0.2229  0.0314
  302TIP3    H1  870   0.599   5.051   2.813 -1.5884  2.3609  3.9454
  302TIP3    H2  871   0.504   5.159   2.765 -1.2546  0.0244 -3.0465
  303TIP3   OH2  872   5.054   4.608   0.376  0.3351 -0.2402  0.2675
  303TIP3    H1  873   5.053   4.638   0.285  0.7389 -1.9563 -0.3388
  303TIP3    H2  874   5.136   4.559   0.384  1.3150  1.5612  2.1578
  304TIP3   OH2  875   0.346   5.800   2.382  0.4054 -0.2881 -0.3343
  304TIP3    H1  876   0.253   5.822   2.393  0.4482  0.0466 -0.6343
  304TIP3    H2  877   0.358   5.721   2.434 -0.2046 -0.7188 -0.8383
  305TIP3   OH2  878   4.626   3.098   2.494  0.4931  0.2037  0.0983
  305TIP3    H1  879   4.587   3.013   2.512 -0.5297  0.6308 -0.0657
  305TIP3    H2  880   4.700   3.103   2.555  0.0862 -0.4569  0.6656
  306TIP3   OH2  881   6.747   0.083   2.710 -0.4443 -0.2344 -0.6914
  306TIP3    H1  882   6.704  -0.002   2.713  3.3940 -2.4403 -1.1195
  306TIP3    H2  883   6.776   0.098   2.800  1.8592 -1.2717 -1.1629
  307TIP3   OH2  884   3.626   5.664   1.541  0.1115  0.2033 -0.5068
  307TIP3    H1  885   3.650   5.574   1.563 -2.6779 -0.3912  0.4863
  307TIP3    H2  886   3.558   5.654   1.474  1.2253  1.6877 -1.9249
  308TIP3   OH2  887   7.065   1.107   3.508  0.3894  0.4126 -0.2098
  308TIP3    H1  888   7.103   1.187   3.472  2.2416  0.7282  2.1422
  308TIP3    H2  889   7.111   1.094   3.591 -0.7387 -2.4324  0.0942
  309TIP3   OH2  890   2.200   5.492   4.391  0.1008 -0.2378 -0.0311
  309TIP3    H1  891   2.285   5.457   4.361  1.7573  1.5233  2.2448
  309TIP3    H2  892   2.149   5.414   4.411  1.0797 -1.3663 -1.6486
  310TIP3   OH2  893   4.727   5.354   3.516 -0.5806  0.0208 -0.2726
  310TIP3    H1  894   4.731   5.260   3.528  0.0413  0.2398  1.6390
  310TIP3    H2  895   4.774   5.370   3.434  0.0231 -1.2641 -0.1953
  311TIP3   OH2  896   0.641   4.393   4.014 -0.0281 -0.3009 -0.1026
  311TIP3    H1  897   0.622   4.487   4.008 -1.2272 -0.4281  1.2943
  311TIP3    H2  898   0.725   4.388   4.060  0.8245  0.0968 -1.5352
  312TIP3   OH2  899   3.295   4.187   3.871  0.7840 -0.2648  0.7015
  312TIP3    H1  900   3.240   4.228   3.938  0.8688  1.0930 -0.0380
  312TIP3    H2  901   3.271   4.094   3.875 -1.7443  0.3048  0.2614
  313TIP3   OH2  902   4.733   0.834   5.682  0.4202  0.0978 -0.3361
  313TIP3    H1  903   4.693   0.907   5.636  0.5675  0.4591  0.1004
  313TIP3    H2  904   4.827   0.843   5.665  0.5002  0.3776  0.2294
  314TIP3   OH2  905   4.108   1.760   1.232  0.1786 -0.3215  0.4806
  314TIP3    H1  906   4.063   1.844   1.223 -0.3335 -0.6151  0.2168
  314TIP3    H2  907   4.165   1.755   1.155  2.0948  0.8747  1.7437
  315TIP3   OH2  908   1.874   1.019   3.303 -0.1580  0.1129 -0.1879
  315TIP3    H1  909   1.787   1.055   3.290  0.0722  0.8584  0.3094
  315TIP3    H2  910   1.860   0.925   3.317 -1.0179  0.4533  1.4223
  316TIP3   OH2  911   6.385   5.004   4.933  0.1438 -0.2320 -0.7330
  316TIP3    H1  912   6.344   5.067   4.993  1.5601  0.4891 -0.4805
  316TIP3    H2  913   6.324   4.997   4.860  0.1327  1.7770 -0.9613
  317TIP3   OH2  914   3.166   3.981   5.212 -0.1569  0.1070  0.8798
  317TIP3    H1  915   3.174   4.068   5.251  0.4466 -0.0506  1.1079
  317TIP3    H2  916   3.133   3.926   5.283  0.6293 -0.1098  1.0812
  318TIP3   OH2  917   0.420   4.671   5.773  0.1744  0.1027 -1.1448
  318TIP3    H1  918   0.501   4.629   5.802  0.0114  0.9912  0.7360
  318TIP3    H2  919   0.350   4.614   5.805  0.0102  0.7614 -0.2820
  319TIP3   OH2  920   5.749   6.566   4.837  0.7702  0.1124  0.2440
  319TIP3    H1  921   5.710   6.651   4.859 -0.3957 -0.3941  0.2309
  319TIP3    H2  922   5.839   6.573   4.868  0.6037  1.2343  0.5505
  320TIP3   OH2  923   3.272   0.385   2.303  0.1772 -0.2857  0.3595
  320TIP3    H1  924   3.223   0.467   2.300  1.4309  0.4666 -0.3944
  320TIP3    H2  925   3.356   0.409   2.341  1.3808 -0.7584 -1.8381
  321TIP3   OH2  926   0.443   4.610   0.494  0.2740 -0.3446  0.4130
  321TIP3    H1  927   0.536   4.592   0.503  0.5506  0.4241 -0.6629
  321TIP3    H2  928   0.439   4.696   0.452 -0.8655 -1.2712 -1.5121
  322TIP3   OH2  929   5.788   6.116   4.499 -0.5635 -0.1843  0.6450
  322TIP3    H1  930   5.804   6.041   4.442 -1.4950 -0.6290  0.9506
  322TIP3    H2  931   5.853   6.108   4.568 -0.3240 -0.4191  0.3970
  323TIP3   OH2  932   6.474   6.755   0.112 -0.4588  0.0418 -0.3111
  323TIP3    H1  933   6.413   6.816   0.154  1.1979  1.4077  0.1967
  323TIP3    H2  934   6.469   6.776   0.019 -1.2866 -0.3707 -0.3722
  324TIP3   OH2  935   5.887   4.429   4.588 -0.4737  0.1941  0.5126
  324TIP3    H1  936   5.873   4.341   4.623 -0.2385  0.3662  1.0331
  324TIP3    H2  937   5.837   4.430   4.506  1.2213 -1.1416 -0.6137
  325TIP3   OH2  938   2.125   2.988   0.912 -0.0258 -0.3126  0.0825
  325TIP3    H1  939   2.175   2.907   0.907  1.0104  0.2511  1.0384
  325TIP3    H2  940   2.034   2.961   0.894  0.4553 -1.4838 -0.7273
  326TIP3   OH2  941   4.042   2.046   0.628 -0.3546 -0.0567 -0.0914
  326TIP3    H1  942   4.021   2.121   0.684  0.1697  0.6529 -0.8432
  326TIP3    H2  943   3.972   1.983   0.647  0.1857 -0.1274  1.8872
  327TIP3   OH2  944   2.872   3.851   1.393  0.1616 -0.2336 -0.1620
  327TIP3    H1  945   2.794   3.805   1.422 -1.3691  1.9942 -0.5459
  327TIP3    H2  946   2.890   3.915   1.462 -1.2461  2.4947 -2.1575
  328TIP3   OH2  947   1.349   2.268   2.532  0.3160 -0.7740  0.0218
  328TIP3    H1  948   1.325   2.200   2.596 -0.2751 -0.1996  0.4234
  328TIP3    H2  949   1.392   2.336   2.584  0.5674 -0.6700 -0.3217
  329TIP3   OH2  950   0.826   5.712   5.364  0.0300 -0.3018 -0.0106
  329TIP3    H1  951   0.764   5.640   5.357 -1.2792  0.8366 -0.6111
  329TIP3    H2  952   0.836   5.726   5.459  1.5895 -2.2824  0.1766
  330TIP3   OH2  953   4.218   3.315   0.810 -0.6628  0.1965 -0.0590
  330TIP3    H1  954   4.279   3.388   0.818 -1.6268  1.0017  0.1041
  330TIP3    H2  955   4.246   3.253   0.877  1.8056 -0.8619 -1.8777
  331TIP3   OH2  956   6.778   6.383   5.416  0.3860 -0.6126 -0.1400
  331TIP3    H1  957   6.820   6.390   5.330  0.4189  0.5688 -0.0417
  331TIP3    H2  958   6.693   6.425   5.404  0.2141 -0.8267  0.3021
  332TIP3   OH2  959   5.226   4.895   0.487 -0.3997 -0.1919 -0.0004
  332TIP3    H1  960   5.209   4.987   0.466  0.4986 -0.1280 -0.4797
  332TIP3    H2  961   5.191   4.846   0.412 -0.5295 -0.2159  0.0754
  333TIP3   OH2  962   1.802   0.282   1.401 -0.3491 -0.3064  0.3492
  333TIP3    H1  963   1.780   0.363   1.448 -0.8166 -0.2092 -0.0300
  333TIP3    H2  964   1.765   0.213   1.456 -0.3065 -0.2366  0.4665
  334TIP3   OH2  965   2.247   2.752   4.722 -0.2548 -0.0376  0.1673
  334TIP3    H1  966   2.301   2.708   4.788  0.2897 -2.8953 -2.0049
  334TIP3    H2  967   2.301   2.824   4.690  0.3694 -0.0131  1.2418
  335TIP3   OH2  968   3.593   5.276   0.560  0.0886  0.1058 -0.1782
  335TIP3    H1  969   3.575   5.350   0.502  1.7228  1.3865  0.8386
  335TIP3    H2  970   3.666   5.306   0.615  0.3204 -2.0091  0.7722
  336TIP3   OH2  971   6.981   5.045   4.989  0.4206  0.3132 -0.1841
  336TIP3    H1  972   6.986   5.058   4.894 -1.2012  0.1326 -0.3156
  336TIP3    H2  973   6.901   5.091   5.015 -0.1744 -1.2264  0.8073
  337TIP3   OH2  974   0.225   0.462   3.377 -0.3528 -0.3772  0.0583
  337TIP3    H1  975   0.213   0.554   3.356 -1.3461 -0.8386 -1.5777
  337TIP3    H2  976   0.240   0.461   3.471  1.7370  1.6058 -0.1654
  338TIP3   OH2  977   6.473   2.709   4.938 -0.1714 -0.9784 -0.7804
  338TIP3    H1  978   6.553   2.660   4.954  0.1070 -0.1719  0.5095
  338TIP3    H2  979   6.493   2.763   4.861  0.4420 -0.9644 -0.6181
  339TIP3   OH2  980   0.124   2.261   0.062  0.0296  0.4973 -0.4883
  339TIP3    H1  981   0.140   2.225  -0.026 -1.9431 -1.6434 -0.0842
  339TIP3    H2  982   0.184   2.212   0.119  1.7664  2.3279 -0.6287
  340TIP3   OH2  983   3.153   2.794   2.632  0.6188 -0.2232 -0.3150
  340TIP3    H1  984   3.079   2.785   2.573  0.0796  1.1671  0.1050
  340TIP3    H2  985   3.206   2.864   2.594  0.4205  0.4786  0.6657
  341TIP3   OH2  986   0.919   1.270   2.732  0.1765 -0.3621  0.0261
  341TIP3    H1  987   0.898   1.266   2.639  0.9263  1.2133 -0.2480
  341TIP3    H2  988   1.005   1.230   2.739  0.7244  0.7341 -0.2017
  342TIP3   OH2  989   2.641   1.462   4.540 -0.0315  0.0194  0.3872
  342TIP3    H1  990   2.622   1.385   4.593  1.8404 -0.0096  1.0723
  342TIP3    H2  991   2.679   1.525   4.601  0.2740  0.7498 -0.5350
  343TIP3   OH2  992   0.191   0.199   5.785 -0.3228  0.3424 -0.6901
  343TIP3    H1  993   0.199   0.110   5.751 -1.0766  0.0744 -0.1848
  343TIP3    H2  994   0.169   0.252   5.708 -2.4279 -0.3269 -0.6015
  344TIP3   OH2  995   2.072   3.001   1.725  0.2082 -0.0469  0.0232
  344TIP3    H1  996   2.053   2.960   1.640  1.0907  0.7435 -0.5769
  344TIP3    H2  997   2.139   2.945   1.764 -0.4230 -0.5855  0.3434
  345TIP3   OH2  998   0.386   3.037   0.592 -0.1796 -0.1357 -0.1338
  345TIP3    H1  999   0.328   3.062   0.520  0.8911 -0.7304 -1.2407
  345TIP3    H2 1000   0.337   2.970   0.640 -1.3700  1.0726  0.4070
  346TIP3   OH2 1001   1.988   1.153   0.719  0.0057  0.4923  0.5457
  346TIP3    H1 1002   2.036   1.235   0.705  2.7094 -1.1795 -0.8779
  346TIP3    H2 1003   1.942   1.139   0.637  0.8214 -0.1281  0.1738
  347TIP3   OH2 1004   1.970   2.161   4.534 -0.1079  0.4373 -0.4286
  347TIP3    H1 1005   1.993   2.192   4.446 -0.2477 -0.5672 -0.8287
  347TIP3    H2 1006   1.892   2.212   4.557 -1.7057 -1.1322 -2.0208
  348TIP3   OH2 1007   0.441   2.015   1.674 -0.0770 -0.8661  0.2904
  348TIP3    H1 1008   0.416   2.108   1.671  2.6480 -0.0424 -1.2774
  348TIP3    H2 1009   0.440   1.992   1.767 -3.0141 -0.0057  0.5572
  349TIP3   OH2 1010   2.140   2.189   5.338  0.1631  0.3462 -0.1678
  349TIP3    H1 1011   2.098   2.106   5.318 -0.5733  0.2746  1.4996
  349TIP3    H2 1012   2.073   2.238   5.387  1.7995  0.4101  2.1857
  350TIP3   OH2 1013   2.323   6.734   0.117  0.5687 -0.1174  0.2798
  350TIP3    H1 1014   2.273   6.654   0.106  0.1713  0.2316 -0.5472
  350TIP3    H2 1015   2.336   6.742   0.212 -0.5904 -0.4273  0.4761
  351TIP3   OH2 1016   4.244   2.245   1.242 -0.1560  0.1250  0.4565
  351TIP3    H1 1017   4.316   2.289   1.197  0.1945 -0.8829  0.0044
  351TIP3    H2 1018   4.177   2.313   1.253 -0.3629  0.3787 -1.8258
  352TIP3   OH2 1019   3.174   5.835   0.720  0.2104 -0.6784  0.0488
  352TIP3    H1 1020   3.208   5.922   0.698  0.6741 -1.0571 -0.7667
  352TIP3    H2 1021   3.249   5.776   0.708 -0.5572 -1.4443 -1.1779
  353TIP3   OH2 1022   6.529   4.669   0.046 -0.2380 -0.0259 -0.3438
  353TIP3    H1 1023   6.614   4.698   0.080  0.6365 -1.8827 -0.8193
  353TIP3    H2 1024   6.465   4.715   0.100  1.0792  0.2711  1.0400
  354TIP3   OH2 1025   1.801   0.212   1.018 -0.5419  0.0086 -0.4094
  354TIP3    H1 1026   1.757   0.131   1.045 -0.5178 -0.1412 -0.8158
  354TIP3    H2 1027   1.808   0.263   1.098 -0.2117 -0.5542 -0.0738
  355TIP3   OH2 1028   2.551   5.486   1.745 -0.2812  0.9559 -0.4381
  355TIP3    H1 1029   2.482   5.552   1.738 -1.9179 -0.7830 -1.6316
  355TIP3    H2 1030   2.509   5.411   1.785  1.4533  0.4804  0.5940
  356TIP3   OH2 1031   3.119   1.212   1.438 -0.0396 -0.1980 -0.0289
  356TIP3    H1 1032   3.158   1.148   1.497  2.3977  1.3185  0.1531
  356TIP3    H2 1033   3.027   1.214   1.463  0.0237 -2.8158  0.6563
  357TIP3   OH2 1034   1.584   0.277   4.033 -0.0614  0.7948 -0.2642
  357TIP3    H1 1035   1.617   0.366   4.047  0.8631  0.0785  2.9885
  357TIP3    H2 1036   1.502   0.273   4.083 -0.0521 -0.1671 -0.2980
  358TIP3   OH2 1037   0.631   3.342   5.303  0.1453 -0.1568 -0.5173
  358TIP3    H1 1038   0.547   3.342   5.258 -0.2317  0.5771  0.1608
  358TIP3    H2 1039   0.683   3.407   5.256  0.2120 -0.3492 -0.7116
  359TIP3   OH2 1040   7.180   6.030   2.589 -0.3696  0.3837 -0.2358
  359TIP3    H1 1041   7.087   6.046   2.578 -0.2882  1.6952  0.7630
  359TIP3    H2 1042   7.188   5.986   2.674 -0.2393 -1.7863 -1.2971
  360TIP3   OH2 1043   6.742   4.895   5.333 -0.0498  0.1835  0.0129
  360TIP3    H1 1044   6.741   4.802   5.311  1.4016  0.5988 -2.0210
  360TIP3    H2 1045   6.650   4.916   5.352 -0.5915 -1.3902 -0.7256
  361TIP3   OH2 1046   4.821   2.121   0.394  0.3909 -0.5788  0.0335
  361TIP3    H1 1047   4.885   2.056   0.365  2.2464  0.9980  0.3731
  361TIP3    H2 1048   4.777   2.079   0.469  1.1641 -1.6347 -0.0763
  362TIP3   OH2 1049   4.915   2.795   1.777 -0.0354 -0.5176 -0.0856
  362TIP3    H1 1050   4.870   2.878   1.765  1.8476  0.4582 -0.6963
  362TIP3    H2 1051   4.848   2.737   1.814 -1.7966  0.8091 -1.0498
  363TIP3   OH2 1052  -0.007   2.638   3.496  0.2492  0.0834 -0.1970
  363TIP3    H1 1053   0.071   2.669   3.449  0.5245 -0.4417 -0.0867
  363TIP3    H2 1054  -0.021   2.549   3.464  0.4736 -0.3065  0.7533
  364TIP3   OH2 1055   0.052   2.712   4.710 -0.0095 -0.2002  0.6363
  364TIP3    H1 1056   0.035   2.639   4.651  0.0034 -0.4723  0.9700
  364TIP3    H2 1057   0.146   2.707   4.727  0.1766  0.4830 -0.1186
  365TIP3   OH2 1058   3.973   3.660   0.963  0.4615  0.3383  0.4505
  365TIP3    H1 1059   3.896   3.637   0.911 -0.3398  0.2797  1.6253
  365TIP3    H2 1060   4.031   3.705   0.901  0.6161 -1.8275 -1.0757
  366TIP3   OH2 1061   3.224   1.004   0.698 -0.2608 -0.0533  0.0862
  366TIP3    H1 1062   3.175   1.049   0.768  0.9143  0.5660  0.5351
  366TIP3    H2 1063   3.315   1.008   0.727  0.1748 -0.3180 -1.2092
  367TIP3   OH2 1064   4.505   5.008   4.919  0.0134  0.5480 -0.0607
  367TIP3    H1 1065   4.414   5.029   4.898  0.5898  1.9810 -1.3550
  367TIP3    H2 1066   4.515   5.036   5.010 -1.0071 -0.2862  0.3301
  368TIP3   OH2 1067   2.693   1.997   0.299 -0.5450  0.3207  0.0861
  368TIP3    H1 1068   2.689   1.909   0.338  2.2218  0.5827  1.1977
  368TIP3    H2 1069   2.639   2.051   0.357 -0.0508 -0.1582  1.0253
  369TIP3   OH2 1070   0.037   6.537   3.895  0.2396  0.0450 -0.5112
  369TIP3    H1 1071   0.003   6.450   3.875  1.2484 -0.5644  0.3216
  369TIP3    H2 1072   0.117   6.521   3.944  1.2267  1.4374 -1.5784
  370TIP3   OH2 1073   5.927   1.813   0.096  0.1199  0.0686  0.5863
  370TIP3    H1 1074   5.947   1.903   0.070 -2.3544  1.5283  3.2219
  370TIP3    H2 1075   6.012   1.769   0.094  1.5249  2.5940 -0.2177
  371TIP3   OH2 1076   3.240   6.482   5.017 -0.2706 -0.2863 -0.0939
  371TIP3    H1 1077   3.279   6.566   4.993 -0.9107  0.0005 -0.1676
  371TIP3    H2 1078   3.314   6.427   5.042  0.3130 -0.2110 -1.5733
  372TIP3   OH2 1079   5.775   4.855   1.014 -0.0359 -0.4250  0.1659
  372TIP3    H1 1080   5.706   4.827   1.075  1.5495 -1.2379  1.6612
  372TIP3    H2 1081   5.733   4.852   0.928 -1.6382 -1.6620  0.9300
  373TIP3   OH2 1082   5.167   5.018   1.282  0.1645 -0.4267  0.1170
  373TIP3    H1 1083   5.099   4.991   1.344  1.3580 -0.2107  1.5791
  373TIP3    H2 1084   5.215   5.087   1.328  2.6273 -1.9563  0.0054
  374TIP3   OH2 1085   6.123   2.563  -0.005 -0.1078  0.2849  0.5523
  374TIP3    H1 1086   6.143   2.588   0.085  0.6129  1.6798  0.0312
  374TIP3    H2 1087   6.033   2.593  -0.019 -0.1540  0.2352  0.7299
  375TIP3   OH2 1088   5.537   2.258   1.885  0.2424  0.1459  0.3267
  375TIP3    H1 1089   5.621   2.232   1.846 -1.4408 -0.9858 -2.8816
  375TIP3    H2 1090   5.542   2.354   1.889  1.2867  0.1724 -0.8574
  376TIP3   OH2 1091   3.220   6.666   4.598  0.1172  0.6781 -0.1807
  376TIP3    H1 1092   3.265   6.674   4.682  0.5371  0.7816 -0.4143
  376TIP3    H2 1093   3.198   6.756   4.574 -0.7458  0.5832  0.2155
  377TIP3   OH2 1094   1.162   0.438   3.100 -0.2991  0.1978  0.2045
  377TIP3    H1 1095   1.067   0.424   3.092 -0.3101  0.8926 -1.1526
  377TIP3    H2 1096   1.172   0.486   3.182 -1.0694 -0.3466  0.6308
  378TIP3   OH2 1097   5.538   5.143   2.304 -0.0403  0.4791 -0.1376
  378TIP3    H1 1098   5.576   5.099   2.380  0.5860 -0.0131 -0.7228
  378TIP3    H2 1099   5.611   5.190   2.264 -0.0789 -0.2941 -1.1544
  379TIP3   OH2 1100   4.996   4.035   3.483 -0.1402  0.0811 -0.3253
  379TIP3    H1 1101   4.980   3.963   3.422  0.4404  1.5255 -2.2869
  379TIP3    H2 1102   5.020   4.109   3.427  0.1775  1.5682  1.6644
  380TIP3   OH2 1103   5.496   5.972   5.706 -1.1693 -0.0613 -0.6384
  380TIP3    H1 1104   5.478   5.954   5.614 -1.0804  0.7310 -0.8160
  380TIP3    H2 1105   5.421   5.936   5.753 -1.6646  0.3655 -1.0981
  381TIP3   OH2 1106   6.877   1.670   0.064 -0.3081 -0.1685  0.0883
  381TIP3    H1 1107   6.918   1.584   0.075  0.7371  0.5344  2.4197
  381TIP3    H2 1108   6.788   1.658   0.097 -0.5682 -0.6490 -0.7828
  382TIP3   OH2 1109   5.568   5.319   1.851  0.5613  0.2732  0.0751
  382TIP3    H1 1110   5.624   5.382   1.895 -0.2051  1.0581 -0.0242
  382TIP3    H2 1111   5.480   5.336   1.886 -0.1903  1.3452 -2.1264
  383TIP3   OH2 1112   5.676   2.457   4.520  0.2562  0.2714 -0.1345
  383TIP3    H1 1113   5.633   2.459   4.605  0.7844 -0.5802  0.1648
  383TIP3    H2 1114   5.669   2.547   4.487 -0.3724  0.4955  0.5847
  384TIP3   OH2 1115   3.549   0.324   4.681 -0.0470  0.2999 -0.2493
  384TIP3    H1 1116   3.479   0.389   4.677 -0.2003  0.3249  1.8011
  384TIP3    H2 1117   3.505   0.242   4.703  0.3940 -0.0397 -0.5981
  385TIP3   OH2 1118   6.242   2.349   1.479 -0.7298 -0.5242 -0.3190
  385TIP3    H1 1119   6.316   2.309   1.525 -2.1226 -0.3027  2.3343
  385TIP3    H2 1120   6.212   2.281   1.418  0.0572 -1.6023  0.4576
  386TIP3   OH2 1121   0.901   0.115   4.312  0.1068  0.3379  0.0220
  386TIP3    H1 1122   0.833   0.180   4.297 -1.5005 -1.1453  0.5625
  386TIP3    H2 1123   0.887   0.086   4.402 -0.8429 -2.4779 -0.9356
  387TIP3   OH2 1124   4.161   2.014   3.773  0.1796 -0.1898 -0.3933
  387TIP3    H1 1125   4.068   2.003   3.753 -0.1366 -0.0501  0.9480
  387TIP3    H2 1126   4.194   2.068   3.701 -1.2277  1.4449  0.1166
  388TIP3   OH2 1127   3.952   3.583   2.865 -0.5575 -0.8391  0.2145
  388TIP3    H1 1128   3.886   3.624   2.809 -0.3072 -1.9372 -0.9254
  388TIP3    H2 1129   3.974   3.650   2.929 -0.3317  0.7500 -1.4440
  389TIP3   OH2 1130   3.024   4.673   1.899 -0.2992  0.1026  0.1323
  389TIP3    H1 1131   3.060   4.724   1.826  0.7568  0.2437  0.7311
  389TIP3    H2 1132   3.072   4.591   1.897  0.8509  0.6932  1.5756
  390TIP3   OH2 1133   4.673   4.159   5.717  0.2062 -0.2854 -0.4992
  390TIP3    H1 1134   4.581   4.152   5.689  0.5566  0.0981 -1.8157
  390TIP3    H2 1135   4.699   4.248   5.693  0.9107 -0.3612 -0.0583
  391TIP3   OH2 1136   2.524   2.621   1.371 -0.0813 -0.2211 -0.1892
  391TIP3    H1 1137   2.486   2.534   1.383  2.7869 -1.6928 -0.8812
  391TIP3    H2 1138   2.499   2.647   1.283  1.5528 -1.8168 -1.1954
  392TIP3   OH2 1139   6.557   4.322   5.326  0.3735 -0.2044  0.5795
  392TIP3    H1 1140   6.576   4.264   5.400 -0.1787 -0.5286  0.4754
  392TIP3    H2 1141   6.469   4.296   5.297 -0.1757  1.1588  0.9643
  393TIP3   OH2 1142   6.713   2.586   2.924  0.4702  0.3237  0.0097
  393TIP3    H1 1143   6.658   2.564   2.848  0.5409  1.7323 -0.4729
  393TIP3    H2 1144   6.769   2.509   2.936 -2.1185 -1.5194  1.0473
  394TIP3   OH2 1145   1.421   4.607   3.525  0.0704  0.9996  0.4711
  394TIP3    H1 1146   1.431   4.702   3.514  0.5608  0.8861 -0.1135
  394TIP3    H2 1147   1.329   4.596   3.548  0.1903  1.6843  1.3825
  395TIP3   OH2 1148   1.311   3.884   5.780 -0.0044  0.1835 -0.6115
  395TIP3    H1 1149   1.317   3.792   5.753  0.4160 -0.0953  0.3980
  395TIP3    H2 1150   1.217   3.900   5.788 -0.0563 -0.6241  0.7041
  396TIP3   OH2 1151   4.740   1.936   3.559 -0.2212 -0.2394 -0.0175
  396TIP3    H1 1152   4.760   1.949   3.652  2.1209  1.1737 -0.6502
  396TIP3    H2 1153   4.812   1.882   3.526 -0.3759  0.2881 -1.2557
  397TIP3   OH2 1154   0.970   3.586   2.312  0.0843  0.4325  0.6790
  397TIP3    H1 1155   1.060   3.605   2.286  1.7558 -2.7841  3.3405
  397TIP3    H2 1156   0.937   3.526   2.244  1.1272 -0.7640  1.1818
  398TIP3   OH2 1157   6.696   6.758   5.103 -0.1027  0.0184  0.3107
  398TIP3    H1 1158   6.694   6.845   5.142 -1.6034  0.0934  0.1267
  398TIP3    H2 1159   6.710   6.775   5.009 -0.3478  0.0624  0.2816
  399TIP3   OH2 1160   5.069   6.766   5.664 -0.8148 -0.6544 -0.3625
  399TIP3    H1 1161   5.109   6.772   5.577  0.7850  0.8564  0.3970
  399TIP3    H2 1162   4.990   6.714   5.651 -0.7664 -0.2418 -2.7585
  400TIP3   OH2 1163   2.379   6.634   1.779 -0.1952  0.4822 -0.1481
  400TIP3    H1 1164   2.346   6.668   1.862 -0.6999 -1.0395  0.3052
  400TIP3    H2 1165   2.465   6.599   1.800  0.1009  0.9860 -0.4977
  401TIP3   OH2 1166   5.117   5.162   0.450  0.2647 -0.3073  0.3606
  401TIP3    H1 1167   5.120   5.122   0.363 -0.6506  0.2709  0.0427
  401TIP3    H2 1168   5.144   5.253   0.435 -0.3574 -0.0773  0.5841
  402TIP3   OH2 1169   6.343   4.256   1.718  0.5564 -1.1003 -0.4600
  402TIP3    H1 1170   6.349   4.174   1.667 -1.2719 -1.5144 -0.0482
  402TIP3    H2 1171   6.358   4.229   1.808  2.6652 -0.5278 -0.5800
  403TIP3   OH2 1172   4.006   5.687   1.499 -0.7057  0.0410 -0.0333
  403TIP3    H1 1173   4.008   5.659   1.590  1.1332  2.3449  0.7248
  403TIP3    H2 1174   4.060   5.623   1.453 -4.0017 -2.8985 -0.2114
  404TIP3   OH2 1175   3.517   5.027   3.498  0.0441 -0.0323 -0.2935
  404TIP3    H1 1176   3.535   5.106   3.549  0.7861  0.0625 -0.6846
  404TIP3    H2 1177   3.428   5.003   3.522  0.9178 -0.9989  2.4177
  405TIP3   OH2 1178   3.072   0.733   1.450  0.1699  0.0743  0.0608
  405TIP3    H1 1179   3.026   0.686   1.380  1.0859 -2.0735  0.8141
  405TIP3    H2 1180   3.150   0.769   1.407 -0.5997  1.0698 -0.5489
  406TIP3   OH2 1181   1.145   5.206   1.439  0.1588 -0.1378  0.5186
  406TIP3    H1 1182   1.183   5.175   1.357  1.1272  1.7359  0.1949
  406TIP3    H2 1183   1.064   5.157   1.449  2.4167 -4.1178  1.0836
  407TIP3   OH2 1184   5.373   3.490   5.118  0.1943 -0.3360  0.2870
  407TIP3    H1 1185   5.334   3.447   5.195 -0.7366  1.3116  0.7834
  407TIP3    H2 1186   5.359   3.583   5.134  2.3029  0.1849 -0.6659
  408TIP3   OH2 1187   1.423   3.611   3.422 -0.5676 -0.5171 -0.1322
  408TIP3    H1 1188   1.332   3.617   3.394 -0.8760 -0.4902  0.8552
  408TIP3    H2 1189   1.427   3.660   3.504  0.6811  0.8272 -0.9546
  409TIP3   OH2 1190   2.481   0.989   2.581  0.7038 -0.3153 -0.5159
  409TIP3    H1 1191   2.487   1.084   2.572 -1.6147  0.0781  1.1882
  409TIP3    H2 1192   2.420   0.962   2.513 -0.6708 -0.1749  0.6168
  410TIP3   OH2 1193   1.939  -0.014   2.172  0.6706 -0.3987 -0.3519
  410TIP3    H1 1194   1.972  -0.037   2.085  1.2578 -0.8244 -0.0255
  410TIP3    H2 1195   1.997   0.057   2.201  0.7153 -0.5167 -0.1533
  411TIP3   OH2 1196   6.444   3.994   0.998 -0.0570  0.7933  0.1365
  411TIP3    H1 1197   6.370   4.030   0.949 -0.1952 -0.5953 -0.7180
  411TIP3    H2 1198   6.514   3.985   0.933  0.3717  0.6901  0.6094
  412TIP3   OH2 1199   0.566   0.486   1.259 -0.3958 -0.3516 -0.3563
  412TIP3    H1 1200   0.563   0.578   1.284  0.5161 -0.5676  0.6053
  412TIP3    H2 1201   0.502   0.443   1.315 -0.2053 -0.4299 -0.1958
  413TIP3   OH2 1202   6.506   2.720   5.562 -0.4698 -0.1537  0.2294
  413TIP3    H1 1203   6.595   2.747   5.584 -0.7076  0.3473  0.5962
  413TIP3    H2 1204   6.450   2.788   5.600 -1.0128 -0.5068  0.0744
  414TIP3   OH2 1205   6.602   5.139   1.457  0.3950 -0.4103 -0.1907
  414TIP3    H1 1206   6.651   5.191   1.521 -2.6603  1.7674  0.5850
  414TIP3    H2 1207   6.608   5.049   1.488  0.8667  0.2921  1.8595
  415TIP3   OH2 1208   0.851   3.739   3.601 -0.4881  0.0390  0.4180
  415TIP3    H1 1209   0.777   3.790   3.569  1.6968  1.8784 -2.1259
  415TIP3    H2 1210   0.842   3.653   3.559  0.4399  1.3065 -2.6640
  416TIP3   OH2 1211   3.855   3.047   2.880  0.0358 -1.1097  0.0831
  416TIP3    H1 1212   3.824   3.137   2.891  0.8126 -0.8912  0.5419
  416TIP3    H2 1213   3.785   3.004   2.830 -1.1628 -0.7283  1.3762
  417TIP3   OH2 1214   1.425   0.058   3.615 -0.5235 -1.1663  0.1886
  417TIP3    H1 1215   1.419   0.148   3.649 -1.2192 -0.6939 -1.0907
  417TIP3    H2 1216   1.337   0.039   3.582  0.1424 -1.4608 -1.5546
  418TIP3   OH2 1217   5.512   2.791   4.803 -0.5703  0.6145  0.7309
  418TIP3    H1 1218   5.513   2.724   4.871  2.9357 -1.5149 -1.1706
  418TIP3    H2 1219   5.424   2.784   4.765 -1.8472  0.3581  3.4739
  419TIP3   OH2 1220   6.875   6.195   5.020 -0.4939 -0.2853  0.4376
  419TIP3    H1 1221   6.871   6.277   4.970  2.8074 -0.6937 -0.7242
  419TIP3    H2 1222   6.914   6.219   5.103 -1.9694 -0.3110  1.1641
  420TIP3   OH2 1223   1.250   6.753   2.213 -0.5197 -0.2579  0.0365
  420TIP3    H1 1224   1.207   6.785   2.134  0.2752 -2.2869 -1.3064
  420TIP3    H2 1225   1.336   6.795   2.212 -0.2061 -0.9017 -0.6424
  421TIP3   OH2 1226   5.252   1.986   4.874 -0.6821 -0.6243 -0.3541
  421TIP3    H1 1227   5.179   1.998   4.814 -1.8984  0.7031  1.3036
  421TIP3    H2 1228   5.322   2.042   4.838 -1.9223  1.4256  0.2393
  422TIP3   OH2 1229   3.323   1.125   5.823  0.9311  0.0226  0.3207
  422TIP3    H1 1230   3.330   1.218   5.802 -1.7149  0.3456  0.4676
  422TIP3    H2 1231   3.355   1.117   5.913 -0.2542  1.1184  0.8650
  423TIP3   OH2 1232   6.205   2.745   0.719  0.3334  0.0337  0.4801
  423TIP3    H1 1233   6.202   2.784   0.632  0.7470  1.4573  1.0711
  423TIP3    H2 1234   6.290   2.701   0.723  1.3728  1.9952  0.9598
  424TIP3   OH2 1235   1.914   0.611   4.595  0.1540  0.9400 -0.1037
  424TIP3    H1 1236   1.937   0.686   4.650  2.1557 -1.0523  2.0369
  424TIP3    H2 1237   1.896   0.540   4.658 -1.2166 -0.4968 -2.0127
  425TIP3   OH2 1238   2.673   2.387   3.024 -0.3959  0.1646  0.1544
  425TIP3    H1 1239   2.690   2.481   3.026 -0.9007  0.2537  0.3529
  425TIP3    H2 1240   2.700   2.359   2.936  3.0252 -0.1411  1.1263
  426TIP3   OH2 1241   3.581   6.665   2.340 -0.0629  0.6194 -0.3507
  426TIP3    H1 1242   3.559   6.651   2.248  1.0197 -0.1896 -0.5104
  426TIP3    H2 1243   3.576   6.578   2.379  2.1261  0.4689 -0.2776
  427TIP3   OH2 1244   3.104   0.690   2.659  0.6823  0.8719 -0.1170
  427TIP3    H1 1245   3.045   0.713   2.731 -0.5242  0.5931 -0.9752
  427TIP3    H2 1246   3.134   0.774   2.625  1.3107  1.0056  0.7268
  428TIP3   OH2 1247   4.657   0.503   4.918 -0.0203 -0.3419  0.3894
  428TIP3    H1 1248   4.736   0.514   4.971  0.1204 -0.8931  0.2947
  428TIP3    H2 1249   4.674   0.425   4.865 -0.8773 -0.8340  0.8183
  429TIP3   OH2 1250   2.655   3.182   1.938 -0.3412  0.0557  0.1170
  429TIP3    H1 1251   2.601   3.198   1.860  0.6234 -0.1778 -0.6240
  429TIP3    H2 1252   2.595   3.193   2.011 -1.5553 -0.8179 -0.6990
  430TIP3   OH2 1253   7.090   6.220   0.458  0.0036  0.2944 -0.3089
  430TIP3    H1 1254   7.074   6.177   0.374 -1.2057 -1.4251  0.7261
  430TIP3    H2 1255   7.079   6.150   0.523  3.2111  0.9862  1.1728
  431TIP3   OH2 1256   3.895   1.616   0.542  0.0548  0.2167 -0.3063
  431TIP3    H1 1257   3.893   1.663   0.459  1.1914  1.4636  0.3493
  431TIP3    H2 1258   3.808   1.631   0.580  0.1236  1.1131 -0.4807
  432TIP3   OH2 1259   2.105   4.986   4.151  0.1791 -0.2505 -0.0764
  432TIP3    H1 1260   2.196   5.011   4.136 -0.0933  0.6637 -0.3102
  432TIP3    H2 1261   2.066   5.063   4.192  0.3711 -1.8802  3.4892
  433TIP3   OH2 1262   6.299   5.777   1.155 -0.2053 -0.0846  1.2081
  433TIP3    H1 1263   6.225   5.782   1.216  0.1914  1.1490  1.6244
  433TIP3    H2 1264   6.313   5.868   1.128 -0.6977 -0.6375 -1.1498
  434TIP3   OH2 1265   0.635   3.437   2.246 -0.1795 -0.4556  0.1581
  434TIP3    H1 1266   0.701   3.387   2.198 -1.8677 -1.6075 -1.0812
  434TIP3    H2 1267   0.608   3.380   2.318  0.0832 -0.0397  0.5896
  435TIP3   OH2 1268   6.374   4.785   5.841  0.0562  0.0666 -0.3938
  435TIP3    H1 1269   6.320   4.846   5.891  1.5980 -1.0920  2.9028
  435TIP3    H2 1270   6.315   4.752   5.773 -2.6878  0.5414  1.5959
  436TIP3   OH2 1271   1.629   3.896   0.249  0.3160 -0.1744  0.1938
  436TIP3    H1 1272   1.670   3.815   0.279 -0.2276 -0.6264 -0.2590
  436TIP3    H2 1273   1.694   3.964   0.268  1.1403 -0.8290 -0.2102
  437TIP3   OH2 1274   4.377   4.138   1.280  0.2360 -0.0065  0.2317
  437TIP3    H1 1275   4.291   4.097   1.268 -0.3452 -0.0453  3.4032
  437TIP3    H2 1276   4.372   4.220   1.232 -2.0897  0.5260  1.2362
  438TIP3   OH2 1277   2.554   5.677   5.332  0.3696  0.0620 -0.3197
  438TIP3    H1 1278   2.551   5.632   5.247 -0.1265  2.1374 -1.4759
  438TIP3    H2 1279   2.498   5.754   5.320 -0.6945 -0.2177  2.3095
  439TIP3   OH2 1280   4.118   3.982   0.471 -0.7248 -0.4042  0.5323
  439TIP3    H1 1281   4.125   3.889   0.449 -0.0557 -0.0356 -0.9046
  439TIP3    H2 1282   4.186   3.996   0.537  0.7087 -0.4903 -0.8761
  440TIP3   OH2 1283   5.386   2.279   3.235 -0.8684  0.7869  0.3431
  440TIP3    H1 1284   5.474   2.279   3.272 -0.8670 -0.5527  0.4147
  440TIP3    H2 1285   5.385   2.202   3.178 -2.2732  0.2385  1.0659
  441TIP3   OH2 1286   6.232   1.135   2.698  0.5833 -0.3880  0.5315
  441TIP3    H1 1287   6.243   1.218   2.651 -0.4432  0.5381  1.8761
  441TIP3    H2 1288   6.262   1.069   2.635 -0.3439  0.8183 -1.2858
  442TIP3   OH2 1289   4.453   1.428   3.509 -0.1460 -0.0794  0.2493
  442TIP3    H1 1290   4.501   1.428   3.592  2.6352 -0.2672 -1.2024
  442TIP3    H2 1291   4.380   1.368   3.522  0.3469 -0.2548  2.4878
  443TIP3   OH2 1292   4.055   4.243   3.197  0.6822 -0.7617 -0.6427
  443TIP3    H1 1293   4.058   4.160   3.245  0.5583 -1.4857 -1.8311
  443TIP3    H2 1294   4.002   4.223   3.119 -0.4408  0.7892 -0.3144
  444TIP3   OH2 1295   3.086   2.706   1.089  0.2109  0.2441 -0.1197
  444TIP3    H1 1296   3.100   2.730   0.998 -0.6301 -0.6813 -0.5108
  444TIP3    H2 1297   3.105   2.786   1.138  0.6872  0.7470 -1.0951
  445TIP3   OH2 1298   6.285   3.949   0.230  0.4002  0.0808 -0.4487
  445TIP3    H1 1299   6.315   3.906   0.310 -0.7307 -0.1594 -0.1351
  445TIP3    H2 1300   6.192   3.924   0.223  0.2911  0.7163 -1.4250
  446TIP3   OH2 1301   5.270   5.089   4.724 -0.3576 -0.2137 -0.3143
  446TIP3    H1 1302   5.211   5.036   4.671 -1.8291  0.3399  0.7096
  446TIP3    H2 1303   5.307   5.153   4.663  0.5347 -1.6078 -1.3187
  447TIP3   OH2 1304   1.786   1.352   2.190 -0.2879 -0.0959 -0.3589
  447TIP3    H1 1305   1.731   1.335   2.113 -0.3787  1.0587 -0.5741
  447TIP3    H2 1306   1.751   1.295   2.258 -0.0701 -1.2939 -1.2325
  448TIP3   OH2 1307   5.704   2.233   5.435  0.1682  0.4283 -0.5689
  448TIP3    H1 1308   5.708   2.169   5.364  1.0021 -1.1283  0.7899
  448TIP3    H2 1309   5.620   2.216   5.478  0.3372  0.2943 -0.2822
  449TIP3   OH2 1310   5.195   3.326   5.289 -0.4238  0.2786 -0.0817
  449TIP3    H1 1311   5.111   3.371   5.298 -0.5342  0.0993 -0.2253
  449TIP3    H2 1312   5.218   3.301   5.378 -0.4100  0.5292 -0.0121
  450TIP3   OH2 1313   1.771   3.509   2.627 -0.1123 -0.3800  0.2105
  450TIP3    H1 1314   1.850   3.467   2.592  0.1570  0.6812 -0.5216
  450TIP3    H2 1315   1.704   3.441   2.624  0.7730 -1.3163  0.8809
  451TIP3   OH2 1316   3.475   2.712   1.062  0.5001  0.6412 -0.0066
  451TIP3    H1 1317   3.567   2.736   1.077  0.8730 -1.1138  0.7165
  451TIP3    H2 1318   3.428   2.795   1.068  1.9912  1.5287 -0.0267
  452TIP3   OH2 1319   0.876   5.876   4.464 -0.2698  0.4057  0.1951
  452TIP3    H1 1320   0.929   5.947   4.428  0.3118 -0.6313 -1.0624
  452TIP3    H2 1321   0.808   5.861   4.397  0.8170 -1.5433 -0.5499
  453TIP3   OH2 1322   1.346   4.516   1.919  0.0903  0.4139 -0.1114
  453TIP3    H1 1323   1.383   4.461   1.989  0.1868  0.3338 -0.2259
  453TIP3    H2 1324   1.279   4.568   1.963 -0.6345 -0.4415 -0.1819
  454TIP3   OH2 1325   1.682   1.161   0.157 -0.3762  0.2426  0.5095
  454TIP3    H1 1326   1.771   1.185   0.182  0.0053 -0.5118 -0.1134
  454TIP3    H2 1327   1.644   1.242   0.124  0.6888  0.1706 -0.9722
  455TIP3   OH2 1328   0.130   5.121   5.644 -0.5427 -0.2197 -0.1073
  455TIP3    H1 1329   0.198   5.146   5.707  0.3596  0.9143 -1.4889
  455TIP3    H2 1330   0.065   5.191   5.651 -0.0489  0.3428 -0.9841
  456TIP3   OH2 1331   0.321   2.460   0.624 -0.0799 -0.1581  0.5633
  456TIP3    H1 1332   0.308   2.418   0.709 -0.5271 -1.6285 -0.2038
  456TIP3    H2 1333   0.252   2.424   0.568  0.3113  0.6494 -0.4795
  457TIP3   OH2 1334   1.003   6.291   3.619 -0.0535 -0.4636  0.1757
  457TIP3    H1 1335   1.037   6.379   3.639  0.2472 -0.6328  0.4161
  457TIP3    H2 1336   0.996   6.248   3.704  1.2551 -1.1971 -0.0610
  458TIP3   OH2 1337   3.282   0.663   0.650 -0.3104  0.2744 -0.5432
  458TIP3    H1 1338   3.304   0.721   0.722 -0.5306 -0.1542 -0.1256
  458TIP3    H2 1339   3.310   0.576   0.679 -1.4271 -0.0822 -0.4906
  459TIP3   OH2 1340   1.935   0.822   3.022 -0.3071  0.0093 -0.1292
  459TIP3    H1 1341   1.950   0.787   3.110 -3.1090 -2.0773 -0.3722
  459TIP3    H2 1342   1.925   0.916   3.036  1.1212 -0.0150  1.4698
  460TIP3   OH2 1343   5.317   0.335   4.064 -0.0665  0.6125 -0.6760
  460TIP3    H1 1344   5.348   0.420   4.093 -1.6739  0.8519  0.4590
  460TIP3    H2 1345   5.234   0.353   4.020  1.6888  0.1385 -4.6602
  461TIP3   OH2 1346   5.220   4.391   4.114  0.3070 -0.2293  0.2822
  461TIP3    H1 1347   5.129   4.421   4.122  0.1979  0.4404 -2.4717
  461TIP3    H2 1348   5.267   4.437   4.183 -1.3646 -0.3898  1.5983
  462TIP3   OH2 1349   5.591   1.769   2.246 -0.0915  0.3084 -0.0683
  462TIP3    H1 1350   5.683   1.758   2.220  0.1440  2.5625 -0.4205
  462TIP3    H2 1351   5.554   1.681   2.240  1.5474 -0.3422 -1.9151
  463TIP3   OH2 1352   2.501   5.060   4.503 -0.1282  0.0419  0.0171
  463TIP3    H1 1353   2.429   5.059   4.566 -0.0775  1.1389  0.1145
  463TIP3    H2 1354   2.493   4.977   4.455 -1.3579  0.0824  0.1311
  464TIP3   OH2 1355   4.889   6.293   1.103 -0.1844 -0.2503 -0.4115
  464TIP3    H1 1356   4.947   6.370   1.109  0.0480 -0.4964  0.6156
  464TIP3    H2 1357   4.811   6.318   1.153 -0.6646 -0.2035 -1.1687
  465TIP3   OH2 1358   6.197   5.990   3.160 -0.0491 -0.0234 -0.2560
  465TIP3    H1 1359   6.256   6.033   3.099 -0.9940 -1.0637 -1.9967
  465TIP3    H2 1360   6.227   5.899   3.163 -1.6166 -0.6220 -1.3378
  466TIP3   OH2 1361   0.020   2.561   5.253  0.1530 -0.0221 -0.5844
  466TIP3    H1 1362  -0.026   2.570   5.337 -0.2642 -0.1605 -0.7943
  466TIP3    H2 1363   0.057   2.648   5.237 -1.3721  0.5573 -1.1652
  467TIP3   OH2 1364   4.754   4.246   2.910  0.2020 -0.7624  0.4897
  467TIP3    H1 1365   4.731   4.153   2.913 -1.1808 -0.5255 -1.1815
  467TIP3    H2 1366   4.705   4.285   2.982 -0.7920 -1.0660  0.0100
  468TIP3   OH2 1367   3.901   3.729   5.507 -0.1724  0.2907  0.0281
  468TIP3    H1 1368   3.868   3.649   5.547 -2.3331  1.9068  1.7070
  468TIP3    H2 1369   3.996   3.725   5.519 -0.4470 -0.9311  2.2289
  469TIP3   OH2 1370   6.437   0.924   1.906  0.1951  0.0243  0.3459
  469TIP3    H1 1371   6.487   0.966   1.836 -0.7467  0.7476  0.0893
  469TIP3    H2 1372   6.441   0.986   1.979  0.5568 -0.3962  0.6869
  470TIP3   OH2 1373   3.405   6.677   3.647 -0.0796 -0.3901  0.3297
  470TIP3    H1 1374   3.348   6.643   3.578 -3.0405 -0.2649  2.4993
  470TIP3    H2 1375   3.476   6.613   3.653 -1.7299 -2.4067 -0.3724
  471TIP3   OH2 1376   5.963   3.023   5.479 -0.0849  0.0804 -0.1740
  471TIP3    H1 1377   5.992   2.972   5.555 -1.3012  1.7427  1.5026
  471TIP3    H2 1378   6.042   3.039   5.428  1.3735  1.4392  2.3364
  472TIP3   OH2 1379   2.118   5.318   1.885  0.1784 -0.5608 -0.0648
  472TIP3    H1 1380   2.037   5.364   1.860  0.7928  0.6038  0.0401
  472TIP3    H2 1381   2.099   5.281   1.971 -0.1816 -0.1381  0.0400
  473TIP3   OH2 1382   1.985   3.819   5.439 -0.4445 -0.0652  0.3880
  473TIP3    H1 1383   2.061   3.768   5.467  0.0552  1.1621  1.3528
  473TIP3    H2 1384   1.913   3.756   5.436 -0.1248 -0.6186  2.7383
  474TIP3   OH2 1385   5.651   0.485   0.906 -0.3050  1.1312 -0.2140
  474TIP3    H1 1386   5.690   0.465   0.821  0.3311  1.0249  0.1026
  474TIP3    H2 1387   5.585   0.417   0.919  0.8361  0.0653  0.1955
  475TIP3   OH2 1388   1.657   4.134   3.899 -0.3318 -0.1989 -0.3818
  475TIP3    H1 1389   1.600   4.120   3.974 -0.6232  1.0983 -0.3360
  475TIP3    H2 1390   1.739   4.166   3.937 -1.1991  2.6668 -0.6508
  476TIP3   OH2 1391   6.380   6.014   1.009  0.1978  0.3430 -0.0285
  476TIP3    H1 1392   6.406   6.073   0.938 -0.1106  0.9197  0.3316
  476TIP3    H2 1393   6.458   5.962   1.026  1.1152  1.9255  0.9163
  477TIP3   OH2 1394   5.568   0.443   4.618  0.9460  0.1396 -0.5904
  477TIP3    H1 1395   5.595   0.391   4.694  0.1998  0.3071 -0.2032
  477TIP3    H2 1396   5.515   0.383   4.566 -0.4530  0.6497  0.1729
  478TIP3   OH2 1397   5.758   3.160   0.588  0.5053  0.4957  0.0003
  478TIP3    H1 1398   5.741   3.067   0.573 -1.1999  0.7902 -0.1083
  478TIP3    H2 1399   5.800   3.190   0.508 -0.7736  0.2211 -0.8069
  479TIP3   OH2 1400   6.557   4.487   4.138  0.0994  0.0909 -0.4502
  479TIP3    H1 1401   6.462   4.499   4.131  0.0465  0.3423  0.5204
  479TIP3    H2 1402   6.583   4.542   4.211  1.0494  0.2424 -0.8819
  480TIP3   OH2 1403   6.084  -0.027   4.371 -0.4140 -0.2429  0.1994
  480TIP3    H1 1404   6.072  -0.015   4.465  1.5562  1.0400  0.3427
  480TIP3    H2 1405   6.130   0.052   4.342 -1.3720 -0.3994 -1.9448
  481TIP3   OH2 1406   6.972   6.661   4.370  0.1015  0.0614  0.0937
  481TIP3    H1 1407   6.878   6.675   4.368  0.2346  0.9975 -0.0465
  481TIP3    H2 1408   6.988   6.594   4.304 -0.4094  0.2388 -0.2098
  482TIP3   OH2 1409   6.218   5.335   2.604 -0.2355 -0.0939  0.3106
  482TIP3    H1 1410   6.288   5.382   2.559  0.1737  0.2344  1.2775
  482TIP3    H2 1411   6.263   5.272   2.660 -0.7749 -1.9426 -1.2234
  483TIP3   OH2 1412   6.932   5.618   2.533 -0.2194  0.0250  0.4697
  483TIP3    H1 1413   6.976   5.658   2.458 -0.6991 -0.5106 -0.1225
  483TIP3    H2 1414   6.846   5.661   2.536 -1.3267 -1.9203 -1.1022
  484TIP3   OH2 1415   3.197   5.424   2.687 -0.4144  0.1835 -0.2050
  484TIP3    H1 1416   3.181   5.510   2.648  1.1433  0.3099 -0.6380
  484TIP3    H2 1417   3.261   5.440   2.756  0.2988 -0.6985 -0.6454
  485TIP3   OH2 1418   4.622   4.341   3.169  0.1158  0.2761  0.1166
  485TIP3    H1 1419   4.661   4.263   3.208 -0.1352  0.6466  1.1180
  485TIP3    H2 1420   4.528   4.325   3.170  0.0851  0.4345 -0.0425
  486TIP3   OH2 1421   6.330   6.298   0.291  0.6195 -0.8570 -0.0406
  486TIP3    H1 1422   6.343   6.358   0.217  3.0048 -0.2974  0.7351
  486TIP3    H2 1423   6.308   6.214   0.251 -4.5345  0.6684 -1.1498
  487TIP3   OH2 1424   1.543   6.144   1.523 -0.5739 -0.1587 -0.0030
  487TIP3    H1 1425   1.619   6.194   1.494  0.1737  0.0312  2.0526
  487TIP3    H2 1426   1.469   6.204   1.512  0.0606  0.8164  0.8132
  488TIP3   OH2 1427   1.676   1.068   4.946  0.3976 -0.1136  0.1052
  488TIP3    H1 1428   1.758   1.024   4.967 -0.5920 -1.7803  0.7215
  488TIP3    H2 1429   1.701   1.156   4.920  2.1072  0.6647  3.7892
  489TIP3   OH2 1430   2.308   2.236   1.025 -0.1149 -0.1451 -0.3437
  489TIP3    H1 1431   2.345   2.317   0.990 -3.3873  1.2008 -1.1176
  489TIP3    H2 1432   2.267   2.193   0.949  0.2044 -1.7465  0.3450
  490TIP3   OH2 1433   3.111   4.412   5.163 -0.5224  0.3003 -0.2235
  490TIP3    H1 1434   3.119   4.507   5.156 -1.7582  0.4963  0.7642
  490TIP3    H2 1435   3.110   4.382   5.072 -0.9621  1.3034 -0.5661
  491TIP3   OH2 1436   5.217   1.242   1.581 -0.3680 -0.7744 -0.0438
  491TIP3    H1 1437   5.147   1.305   1.569 -0.8108 -1.5969 -2.2463
  491TIP3    H2 1438   5.242   1.251   1.673  0.8263  3.8506 -0.5708
  492TIP3   OH2 1439   1.751   0.622   2.980  0.7437  0.3480  0.9875
  492TIP3    H1 1440   1.681   0.624   3.045  0.7815  1.0152  1.0109
  492TIP3    H2 1441   1.789   0.710   2.983  1.7126 -0.0606  1.1195
  493TIP3   OH2 1442   4.746   1.844   1.621  0.1178  0.3431  0.0305
  493TIP3    H1 1443   4.770   1.929   1.658 -0.0566 -0.1805  1.4028
  493TIP3    H2 1444   4.702   1.865   1.539 -0.9439  1.6537  0.8900
  494TIP3   OH2 1445   4.286   0.289   3.404  0.3061 -0.3375 -1.2178
  494TIP3    H1 1446   4.370   0.306   3.448 -0.7580  0.3820  0.6464
  494TIP3    H2 1447   4.308   0.285   3.311  2.4489 -0.4637 -0.7601
  495TIP3   OH2 1448   0.533   5.299   4.035  0.0509 -0.5564  0.7013
  495TIP3    H1 1449   0.538   5.383   4.082 -0.2720 -0.3535  0.3670
  495TIP3    H2 1450   0.441   5.273   4.041 -0.5140  0.6228 -1.8296
  496TIP3   OH2 1451   4.500   5.055   1.956 -0.4905 -0.1269 -0.5099
  496TIP3    H1 1452   4.413   5.091   1.970 -1.0868 -2.1442  1.6270
  496TIP3    H2 1453   4.554   5.094   2.025  0.0070  0.1710 -1.0575
  497TIP3   OH2 1454   1.643   4.236   2.544 -0.1354 -0.1671  0.4398
  497TIP3    H1 1455   1.706   4.273   2.607  0.3678  1.1247 -0.7620
  497TIP3    H2 1456   1.624   4.308   2.484 -0.4640 -1.3958 -0.9959
  498TIP3   OH2 1457   4.183   3.639   5.161  0.1137 -0.5039 -0.0784
  498TIP3    H1 1458   4.269   3.681   5.155  0.3518 -1.1978 -2.1184
  498TIP3    H2 1459   4.122   3.712   5.167  0.6903  0.0919 -1.1583
  499TIP3   OH2 1460   6.728   2.655   5.047  0.1039 -0.0767 -0.5710
  499TIP3    H1 1461   6.757   2.647   5.138  0.0842  0.0624 -0.5515
  499TIP3    H2 1462   6.800   2.620   4.995 -0.9067 -2.6028 -0.4034
  500TIP3   OH2 1463   5.658   2.274   3.636  0.4998  0.4746  0.1343
  500TIP3    H1 1464   5.684   2.329   3.562  1.0053 -0.4381 -0.3852
  500TIP3    H2 1465   5.575   2.236   3.610 -0.4337  1.8477  0.9730
  501TIP3   OH2 1466   5.302   4.428   4.709 -0.6113 -0.1257 -0.2037
  501TIP3    H1 1467   5.299   4.476   4.792  0.0645  0.2349 -0.3791
  501TIP3    H2 1468   5.210   4.407   4.690 -0.8273  0.2936  0.3448
  502TIP3   OH2 1469   6.593   6.308   4.464 -0.7239  0.0318 -0.2036
  502TIP3    H1 1470   6.592   6.320   4.559  1.2314 -1.3031  0.0550
  502TIP3    H2 1471   6.668   6.251   4.448 -1.5580 -0.5421 -2.4828
  503TIP3   OH2 1472   4.856   4.909   4.030 -0.0598 -0.0820 -0.3979
  503TIP3    H1 1473   4.915   4.978   4.000  1.2680 -0.5883  0.9330
  503TIP3    H2 1474   4.900   4.828   4.006 -1.9576 -0.5737 -2.6467
  504TIP3   OH2 1475   1.882   0.374   3.184  0.2264  0.2029 -0.0347
  504TIP3    H1 1476   1.952   0.356   3.247  1.0732 -0.8537 -1.2235
  504TIP3    H2 1477   1.926   0.417   3.111 -0.2564 -0.8953 -1.0014
  505TIP3   OH2 1478   5.002   2.384   3.064 -0.1396  0.2539  1.0331
  505TIP3    H1 1479   4.965   2.310   3.112  0.2173 -0.0072  0.9145
  505TIP3    H2 1480   5.070   2.345   3.009 -0.1343  0.6335  0.7658
  506TIP3   OH2 1481   4.681   5.071   0.494 -0.0187  0.0540 -0.1403
  506TIP3    H1 1482   4.614   5.133   0.465  0.7916  1.2575  0.4735
  506TIP3    H2 1483   4.742   5.124   0.545  1.0913 -1.1279 -0.1906
  507TIP3   OH2 1484   2.942   3.810   1.886  0.3779  0.5801 -0.2480
  507TIP3    H1 1485   2.977   3.795   1.975  0.1417  3.8813  0.5249
  507TIP3    H2 1486   2.858   3.766   1.886 -0.0157  1.2277  1.5332
  508TIP3   OH2 1487   2.865   0.679   2.072 -0.1227  0.3366 -0.7703
  508TIP3    H1 1488   2.814   0.670   2.153  3.1334 -1.3314  1.3492
  508TIP3    H2 1489   2.955   0.663   2.100  1.3629  1.1725 -4.5617
  509TIP3   OH2 1490   3.098   1.249   0.451 -0.1910  0.4034  0.1847
  509TIP3    H1 1491   3.148   1.292   0.521 -2.0621  1.4321  0.9575
  509TIP3    H2 1492   3.093   1.157   0.479 -0.0421  0.5992  0.8917
  510TIP3   OH2 1493   6.830   1.396   0.832  0.1511  0.3508 -0.2082
  510TIP3    H1 1494   6.746   1.357   0.857  0.1012  0.2474 -0.5372
  510TIP3    H2 1495   6.860   1.343   0.758 -0.3931  1.5128 -1.3071
  511TIP3   OH2 1496   6.934   1.858   0.571  1.3981  0.2780  0.2933
  511TIP3    H1 1497   6.944   1.835   0.663 -1.3983  0.8290  0.8252
  511TIP3    H2 1498   6.942   1.954   0.569 -0.0979  0.4165  0.2472
  512TIP3   OH2 1499   6.413   6.582   2.174  0.0723 -0.5086  0.1823
  512TIP3    H1 1500   6.364   6.644   2.229  0.4461  0.1283 -0.1844
  512TIP3    H2 1501   6.489   6.558   2.228 -0.4470 -1.2235  0.6121
  513TIP3   OH2 1502   6.310   0.523   4.006  0.7688  0.3871 -0.0876
  513TIP3    H1 1503   6.275   0.596   3.956  0.0917  1.6804  2.1343
  513TIP3    H2 1504   6.348   0.563   4.084  3.1825 -1.3943 -0.2295
  514TIP3   OH2 1505   4.565   1.193   0.833  0.0882 -0.0096  0.8266
  514TIP3    H1 1506   4.622   1.136   0.782  0.5468  1.5259 -0.4720
  514TIP3    H2 1507   4.511   1.134   0.886  1.9838 -1.5477  1.1423
  515TIP3   OH2 1508   4.352   0.153   5.631  0.2792  0.7198 -0.0566
  515TIP3    H1 1509   4.347   0.146   5.536  1.0414  2.0030 -0.2161
  515TIP3    H2 1510   4.445   0.169   5.649  0.1625  0.3628  0.9213
  516TIP3   OH2 1511   7.142   3.319   0.143 -0.3033 -0.1459  0.3150
  516TIP3    H1 1512   7.077   3.388   0.128 -0.4305 -0.2583  0.3425
  516TIP3    H2 1513   7.130   3.258   0.070  0.2711  0.2091 -0.0843
  517TIP3   OH2 1514   1.276   6.324   5.690  0.2655 -0.3831 -0.2812
  517TIP3    H1 1515   1.337   6.250   5.692  0.4309 -0.2586 -0.6231
  517TIP3    H2 1516   1.322   6.391   5.640  0.2732  0.0944  0.3563
  518TIP3   OH2 1517   2.633   4.399   5.006 -0.0708  0.1214 -1.0207
  518TIP3    H1 1518   2.638   4.380   4.913 -0.4862 -0.1092 -0.9994
  518TIP3    H2 1519   2.707   4.353   5.044  0.5918  0.9104 -1.3454
  519TIP3   OH2 1520   5.178   1.902   1.197 -0.1866  0.0084  0.1028
  519TIP3    H1 1521   5.112   1.966   1.171 -0.1823  0.4229  1.0473
  519TIP3    H2 1522   5.262   1.944   1.176 -0.1822  0.3564  0.7512
  520TIP3   OH2 1523   6.233   4.989   4.713  0.4026  0.0875  0.3363
  520TIP3    H1 1524   6.229   4.949   4.626  0.4735  1.5960 -0.4002
  520TIP3    H2 1525   6.143   4.985   4.746  0.2479  0.0753 -0.0814
  521TIP3   OH2 1526   3.325   4.455   4.925 -0.4778  0.3649 -0.4713
  521TIP3    H1 1527   3.256   4.510   4.962 -1.2633  0.2594 -1.7376
  521TIP3    H2 1528   3.407   4.499   4.951 -1.0702  1.7929 -0.9329
  522TIP3   OH2 1529   2.501   4.207   4.653  0.0031  0.1893 -0.4567
  522TIP3    H1 1530   2.575   4.218   4.712 -0.4655  1.5975 -0.1015
  522TIP3    H2 1531   2.428   4.251   4.697 -1.1257 -1.3302 -0.7008
  523TIP3   OH2 1532   5.812   5.803   3.909 -0.4854  0.4054 -0.4230
  523TIP3    H1 1533   5.732   5.753   3.897 -0.6056  0.5669 -0.2938
  523TIP3    H2 1534   5.784   5.886   3.948 -0.1224 -0.0183  0.7743
  524TIP3   OH2 1535   5.710   2.023   5.247 -0.1963  0.1276 -0.0094
  524TIP3    H1 1536   5.768   2.040   5.173 -0.6538  0.4980 -0.2795
  524TIP3    H2 1537   5.738   1.937   5.279 -0.5073 -0.3963 -1.0943
  525TIP3   OH2 1538   2.348   4.968   3.316 -0.4815 -0.1543 -0.5274
  525TIP3    H1 1539   2.386   5.015   3.242 -1.2001  2.0037  0.3873
  525TIP3    H2 1540   2.411   4.979   3.387 -1.7568  1.6725  0.4038
  526TIP3   OH2 1541   0.579   3.025   1.551  0.0748  0.0481 -0.8653
  526TIP3    H1 1542   0.641   3.075   1.604 -0.6843  0.3990 -0.2955
  526TIP3    H2 1543   0.618   3.024   1.464  0.1465  1.5839 -0.8832
  527TIP3   OH2 1544   1.793   4.527   1.452 -0.5813 -0.3468 -0.3725
  527TIP3    H1 1545   1.851   4.596   1.482  1.1610 -1.8378 -0.1029
  527TIP3    H2 1546   1.742   4.566   1.381 -0.5931  1.5443  0.6227
  528TIP3   OH2 1547   2.252   3.122   5.315 -0.6789 -0.0564  0.1576
  528TIP3    H1 1548   2.234   3.213   5.339 -1.1065  0.0881 -0.6654
  528TIP3    H2 1549   2.346   3.118   5.301 -0.7878  0.5066 -0.7707
  529TIP3   OH2 1550   6.336   2.906   2.494  0.3920  0.3466  0.6550
  529TIP3    H1 1551   6.427   2.897   2.521  0.6083 -1.0654 -0.3997
  529TIP3    H2 1552   6.286   2.859   2.561  0.6933 -1.0415 -0.0691
  530TIP3   OH2 1553   2.784   1.088   2.705 -0.9235 -0.0818  0.3447
  530TIP3    H1 1554   2.790   1.009   2.652 -0.0224 -0.8099  1.4712
  530TIP3    H2 1555   2.698   1.082   2.747 -0.7854 -0.5710  0.5673
  531TIP3   OH2 1556   3.545   0.819   3.341  0.3115 -0.2570  0.1750
  531TIP3    H1 1557   3.554   0.802   3.435  2.3693  0.1102  0.0849
  531TIP3    H2 1558   3.532   0.914   3.335  1.3765 -0.1030  0.0604
  532TIP3   OH2 1559   2.767   5.968   2.043  0.1105  0.3138 -0.2825
  532TIP3    H1 1560   2.765   5.918   1.961  1.6635 -0.7051  0.2595
  532TIP3    H2 1561   2.724   5.911   2.106 -1.2883  1.1936 -0.4014
  533TIP3   OH2 1562   1.500   1.806   1.708  0.3792  0.4125  0.1768
  533TIP3    H1 1563   1.557   1.783   1.635  0.3454  0.0177  0.2695
  533TIP3    H2 1564   1.495   1.901   1.706  1.0372  0.4518  0.1594
  534TIP3   OH2 1565   0.920   1.516   1.863 -0.4687 -0.0038  0.4418
  534TIP3    H1 1566   1.015   1.511   1.877 -0.5672  0.1677  1.2578
  534TIP3    H2 1567   0.905   1.606   1.835 -0.4534  0.1600  0.9417
  535TIP3   OH2 1568   6.993   3.045   2.658 -0.1454 -0.6711  0.0991
  535TIP3    H1 1569   7.037   3.098   2.592  1.1405 -2.2324 -0.3511
  535TIP3    H2 1570   6.917   3.008   2.614 -1.2815  1.0123  0.5227
  536TIP3   OH2 1571   4.262   6.709   4.795  0.2273 -0.2498 -0.0628
  536TIP3    H1 1572   4.278   6.791   4.750  1.6354 -0.8364 -0.6778
  536TIP3    H2 1573   4.255   6.734   4.888  2.0970  0.4303 -0.0545
  537TIP3   OH2 1574   4.621   6.434   1.722 -0.2718 -0.0712  0.0500
  537TIP3    H1 1575   4.689   6.375   1.754 -0.6491 -0.7225 -0.3463
  537TIP3    H2 1576   4.665   6.520   1.717  0.6701 -0.5793 -0.7130
  538TIP3   OH2 1577   2.957   4.094   2.800 -0.3106  0.3288  0.0368
  538TIP3    H1 1578   2.965   4.066   2.709 -1.8068 -1.2684  0.3388
  538TIP3    H2 1579   3.007   4.029   2.850 -1.7612 -0.4505  0.5458
  539TIP3   OH2 1580   1.734   2.413   3.517  0.0972 -0.4696  0.6449
  539TIP3    H1 1581   1.666   2.443   3.577 -1.6652  0.4184 -1.6663
  539TIP3    H2 1582   1.750   2.488   3.459 -0.2200 -2.0900 -1.6600
  540TIP3   OH2 1583   0.959   0.852   0.350  0.1526  0.2045 -0.0460
  540TIP3    H1 1584   1.050   0.851   0.377  0.4371 -1.3122 -0.9666
  540TIP3    H2 1585   0.937   0.760   0.333 -0.5000  0.8326 -3.2239
  541TIP3   OH2 1586   0.500   4.772   5.549 -0.4731  0.0939 -0.0624
  541TIP3    H1 1587   0.565   4.705   5.530 -1.8812 -1.3984  0.1923
  541TIP3    H2 1588   0.462   4.745   5.633 -1.7647  0.6306 -0.4512
  542TIP3   OH2 1589   0.131   2.867   4.399  0.3419 -0.0060 -0.1040
  542TIP3    H1 1590   0.161   2.938   4.343  0.8567  0.6931  1.0200
  542TIP3    H2 1591   0.143   2.900   4.489 -1.5422 -0.6122  0.4393
  543TIP3   OH2 1592   1.067   1.783   1.318 -0.3226 -0.2443 -0.2494
  543TIP3    H1 1593   1.000   1.840   1.354 -0.8607 -0.9304 -0.1359
  543TIP3    H2 1594   1.019   1.707   1.284  0.3982 -0.8281 -0.0061
  544TIP3   OH2 1595   0.804   5.678   3.558  0.0345 -0.4442  0.0951
  544TIP3    H1 1596   0.820   5.708   3.468  0.9484 -0.5324  0.2238
  544TIP3    H2 1597   0.709   5.687   3.569  0.1963  2.1813  0.0384
  545TIP3   OH2 1598   6.654   1.607   0.253 -0.4946 -0.3876 -0.1035
  545TIP3    H1 1599   6.619   1.543   0.192  0.3667  0.4485 -1.5495
  545TIP3    H2 1600   6.578   1.640   0.300 -1.5879  0.6085 -2.3908
  546TIP3   OH2 1601   5.605   2.355   2.968  0.4710  0.3114 -0.2603
  546TIP3    H1 1602   5.560   2.272   2.983  1.7448 -0.3529  0.0338
  546TIP3    H2 1603   5.567   2.388   2.887  0.9567 -1.3012 -1.1983
  547TIP3   OH2 1604   2.526   4.766   2.532 -0.0041 -0.3732 -0.4321
  547TIP3    H1 1605   2.540   4.717   2.451 -1.1932 -1.7843  0.1684
  547TIP3    H2 1606   2.433   4.753   2.552  0.5260 -1.1339  1.8101
  548TIP3   OH2 1607   2.909   0.992   1.310  0.1627 -0.3292 -0.0265
  548TIP3    H1 1608   2.850   1.019   1.380  1.4412  0.3596  0.8325
  548TIP3    H2 1609   2.946   0.909   1.340  0.7998  0.0252  0.1911
  549TIP3   OH2 1610   6.577   5.512   2.827  0.0241  0.1970 -0.3777
  549TIP3    H1 1611   6.635   5.437   2.814  0.1698 -0.0907  1.6425
  549TIP3    H2 1612   6.497   5.475   2.865  0.1481  1.0595  0.7696
  550TIP3   OH2 1613   3.217   3.889   0.712  0.0092 -0.2494  0.3754
  550TIP3    H1 1614   3.267   3.904   0.793  0.8218  2.4266 -0.5060
  550TIP3    H2 1615   3.132   3.928   0.729 -0.8813 -2.2653  0.8675
  551TIP3   OH2 1616   1.064   4.041   2.514  0.1200  0.8187  0.1261
  551TIP3    H1 1617   1.007   4.101   2.562 -1.7349 -1.3522  0.8279
  551TIP3    H2 1618   1.025   3.955   2.528  3.6304 -0.8507  0.6714
  552TIP3   OH2 1619   4.448   1.189   5.239  0.4379 -0.0132  0.3836
  552TIP3    H1 1620   4.455   1.094   5.236  1.7956  0.0616  0.6433
  552TIP3    H2 1621   4.528   1.221   5.196  0.8702  1.0009  1.8772
  553TIP3   OH2 1622   3.153   1.494   4.000  0.1129  0.3722  0.4750
  553TIP3    H1 1623   3.086   1.437   3.964  0.7012  0.5377 -0.9575
  553TIP3    H2 1624   3.137   1.494   4.095 -0.8888 -0.8536  0.3271
  554TIP3   OH2 1625   7.146   6.552   3.336 -0.1477  0.1075  0.1785
  554TIP3    H1 1626   7.176   6.624   3.281 -0.0721 -0.3153 -0.3407
  554TIP3    H2 1627   7.210   6.548   3.407  1.2666 -1.0059 -1.0944
  555TIP3   OH2 1628   7.104   4.070   3.137 -0.7043  0.3767  0.1003
  555TIP3    H1 1629   7.067   3.995   3.183  0.1019  0.2864  0.6286
  555TIP3    H2 1630   7.198   4.061   3.149 -0.4719  0.4116 -1.4965
  556TIP3   OH2 1631   2.310   4.194   1.564  0.1709 -0.4169  0.2495
  556TIP3    H1 1632   2.371   4.264   1.539 -1.2939  0.3631 -1.4264
  556TIP3    H2 1633   2.276   4.162   1.481 -0.8174 -1.6426  1.0949
  557TIP3   OH2 1634   2.723   4.035   2.251  0.6258  0.5966 -0.3695
  557TIP3    H1 1635   2.680   3.976   2.190 -0.0428  0.4116  0.2729
  557TIP3    H2 1636   2.810   4.050   2.213  0.0008  0.9912 -1.6809
  558TIP3   OH2 1637   0.101   5.931   5.623 -0.6122 -0.5522  0.8407
  558TIP3    H1 1638   0.176   5.990   5.610 -0.8606 -0.5609 -0.8462
  558TIP3    H2 1639   0.116   5.892   5.710  0.6032  0.4744  1.1233
  559TIP3   OH2 1640   1.056   4.355   2.148 -0.0831  0.0502 -0.0381
  559TIP3    H1 1641   1.118   4.283   2.163  0.0267  0.4574  1.5402
  559TIP3    H2 1642   1.083   4.424   2.207 -1.7734  0.4082  0.3852
  560TIP3   OH2 1643   0.725   0.128   2.623 -0.0246 -0.0861  0.0248
  560TIP3    H1 1644   0.733   0.098   2.532 -0.3366 -1.0557  0.2977
  560TIP3    H2 1645   0.811   0.164   2.644  0.1117 -0.0309 -0.5915
  561TIP3   OH2 1646   6.967   2.860   5.363 -0.2191 -0.4111 -0.3085
  561TIP3    H1 1647   7.049   2.844   5.411  0.0264 -0.9967 -0.9184
  561TIP3    H2 1648   6.993   2.915   5.290 -0.8020  1.5733  0.9000
  562TIP3   OH2 1649   4.700   1.784   2.645 -0.2857 -0.1932 -0.4441
  562TIP3    H1 1650   4.715   1.725   2.718  0.8806 -1.2477 -1.4966
  562TIP3    H2 1651   4.749   1.746   2.572  2.1926  3.0256 -0.7194
  563TIP3   OH2 1652   2.039   4.489   1.608  0.1063  0.2229 -0.3868
  563TIP3    H1 1653   2.026   4.420   1.673 -3.2027  1.7058  0.7646
  563TIP3    H2 1654   2.083   4.559   1.656 -0.2830  0.4447 -0.3432
  564TIP3   OH2 1655   3.540   0.609   5.276 -0.3789  0.0653  1.0122
  564TIP3    H1 1656   3.626   0.622   5.236 -1.2975  0.1530 -1.0893
  564TIP3    H2 1657   3.517   0.695   5.312 -1.0633  1.1190 -1.6533
  565TIP3   OH2 1658   2.660   6.250   4.064  0.1688 -0.0688 -0.2807
  565TIP3    H1 1659   2.604   6.310   4.113 -0.5931  0.9705 -2.3167
  565TIP3    H2 1660   2.601   6.181   4.033  0.1404  0.5489 -1.6769
  566TIP3   OH2 1661   3.506   0.631   4.136 -0.2535 -0.2845  0.0370
  566TIP3    H1 1662   3.520   0.555   4.192  0.0235  0.1447  0.5573
  566TIP3    H2 1663   3.420   0.616   4.096 -0.5762 -0.4621  0.7847
  567TIP3   OH2 1664   5.097   1.319   2.964  0.3605 -0.1045  0.0203
  567TIP3    H1 1665   5.021   1.363   3.001  1.8321  2.6872 -0.0052
  567TIP3    H2 1666   5.075   1.308   2.871  0.4182  1.8763 -0.2741
  568TIP3   OH2 1667   1.657   2.898   2.771  0.3007  0.5433 -0.2483
  568TIP3    H1 1668   1.695   2.863   2.691  0.9955 -0.3494  0.4551
  568TIP3    H2 1669   1.665   2.827   2.835 -2.0221  0.5195  0.1089
  569TIP3   OH2 1670   5.134   0.877   0.156  0.1225  0.2915 -0.1353
  569TIP3    H1 1671   5.080   0.814   0.108  2.0216 -0.4550 -1.4106
  569TIP3    H2 1672   5.081   0.900   0.233 -2.4676  0.4978 -1.8360
  570TIP3   OH2 1673   6.395   1.303   0.552 -0.0085  0.2311 -0.4452
  570TIP3    H1 1674   6.308   1.303   0.592  0.2964  2.2902  0.3326
  570TIP3    H2 1675   6.412   1.395   0.532  0.6335 -0.4609 -3.6821
  571TIP3   OH2 1676   2.107   4.369   1.378 -0.1585 -0.0956  0.0218
  571TIP3    H1 1677   2.041   4.301   1.394  1.7916 -1.7503  1.5775
  571TIP3    H2 1678   2.097   4.430   1.451  1.1760 -1.3626  1.3198
  572TIP3   OH2 1679   1.488   4.199   1.819 -0.2697  0.0897  0.1541
  572TIP3    H1 1680   1.404   4.222   1.780 -2.0443 -3.2331  1.6327
  572TIP3    H2 1681   1.487   4.241   1.905 -1.3666 -1.4507  0.9388
  573TIP3   OH2 1682   1.434   2.611   3.623  0.2561  0.1036 -0.3440
  573TIP3    H1 1683   1.500   2.567   3.676  1.3258  2.3803  0.3655
  573TIP3    H2 1684   1.351   2.589   3.665  0.7447 -1.0633  0.0543
  574TIP3   OH2 1685   1.054   1.263   2.093 -0.0327  0.1483 -0.0580
  574TIP3    H1 1686   1.061   1.348   2.050  2.7234  0.5586  0.9342
  574TIP3    H2 1687   1.061   1.199   2.022 -1.5263  0.7355 -0.7528
  575TIP3   OH2 1688   0.078   2.133   2.132 -0.0875  0.0810  0.3162
  575TIP3    H1 1689   0.131   2.147   2.210 -0.9595 -2.4024  1.4642
  575TIP3    H2 1690   0.135   2.157   2.059  0.6468  2.7274  1.6725
  576TIP3   OH2 1691   5.080   6.115   5.075  0.0492 -0.4458  0.0595
  576TIP3    H1 1692   5.114   6.033   5.109  0.5667  0.3954  1.6469
  576TIP3    H2 1693   5.107   6.116   4.983  4.9164  0.3787  1.2290
  577TIP3   OH2 1694   4.466   0.377   3.117  0.0510 -0.7437  0.4471
  577TIP3    H1 1695   4.445   0.467   3.094 -2.0395 -0.9851  1.1589
  577TIP3    H2 1696   4.526   0.385   3.191  1.4047  0.0189 -0.6881
  578TIP3   OH2 1697   2.991   0.083   3.020 -0.5224 -0.0933 -0.6793
  578TIP3    H1 1698   2.896   0.089   3.012 -0.5675  2.0177  0.6370
  578TIP3    H2 1699   3.024   0.088   2.930 -1.6367 -0.8386 -1.1428
  579TIP3   OH2 1700   1.260   3.689   2.315  0.4830 -0.3140 -0.2753
  579TIP3    H1 1701   1.202   3.755   2.352  0.9035 -0.8916  1.5643
  579TIP3    H2 1702   1.310   3.735   2.248 -1.0555  0.5451 -0.8880
  580TIP3   OH2 1703   4.973   2.234   4.244 -0.0816 -0.3254  0.0078
  580TIP3    H1 1704   4.998   2.326   4.241 -1.2269 -0.0345 -1.5854
  580TIP3    H2 1705   4.892   2.232   4.295  0.8667 -0.7234  1.5729
  581TIP3   OH2 1706   2.358   1.568   2.275 -0.1110  0.0763  0.0064
  581TIP3    H1 1707   2.298   1.558   2.202 -0.2815  0.1043  0.1422
  581TIP3    H2 1708   2.445   1.565   2.236 -0.1967  2.8560 -0.6064
  582TIP3   OH2 1709   5.200   6.677   2.092 -0.1628 -0.0125 -0.4656
  582TIP3    H1 1710   5.183   6.762   2.051  0.4655 -0.4165 -1.6336
  582TIP3    H2 1711   5.168   6.613   2.029  0.1883 -0.6526 -0.0094
  583TIP3   OH2 1712   4.466   5.434   1.019  0.5492  0.5218  0.0072
  583TIP3    H1 1713   4.543   5.421   0.963 -0.1910 -1.6430 -0.5733
  583TIP3    H2 1714   4.393   5.401   0.968 -0.9372  3.0614  0.3199
  584TIP3   OH2 1715   3.957   0.696   2.006 -0.3925 -0.4146 -0.1551
  584TIP3    H1 1716   4.013   0.621   1.987  0.3048  0.6459 -2.7380
  584TIP3    H2 1717   4.014   0.757   2.052 -0.5756 -0.8922  0.7265
  585TIP3   OH2 1718   3.951   5.771   0.985 -0.2370 -0.3593  0.1066
  585TIP3    H1 1719   4.020   5.832   1.011 -0.9099  0.7070 -0.5296
  585TIP3    H2 1720   3.870   5.814   1.012 -0.6716 -1.5511  0.7496
  586TIP3   OH2 1721   5.285   5.359   5.693  0.1607 -0.5652 -0.8407
  586TIP3    H1 1722   5.204   5.349   5.642 -0.8098 -0.7875  0.6796
  586TIP3    H2 1723   5.283   5.449   5.724  0.8850 -0.3482 -1.3931
  587TIP3   OH2 1724   3.415   2.028   3.218  0.1702 -0.3045 -0.0781
  587TIP3    H1 1725   3.450   1.949   3.260  0.4931 -0.2365 -0.2153
  587TIP3    H2 1726   3.340   1.996   3.167  0.3174 -0.5302 -0.1572
  588TIP3   OH2 1727   1.496   2.606   4.338  0.1159  0.0078  0.1918
  588TIP3    H1 1728   1.466   2.515   4.345  0.2381 -0.1004 -0.5606
  588TIP3    H2 1729   1.585   2.599   4.303 -0.5224  0.4616 -1.6190
  589TIP3   OH2 1730   1.335   5.277   5.706  0.3883 -0.0095  0.3400
  589TIP3    H1 1731   1.324   5.212   5.637  1.2011 -0.0407  0.2349
  589TIP3    H2 1732   1.392   5.343   5.667  0.4858  0.1983  0.8338
  590TIP3   OH2 1733   6.088   2.892   3.883  0.6153  0.0351  0.3856
  590TIP3    H1 1734   6.112   2.806   3.849 -2.4311  0.3429 -3.1873
  590TIP3    H2 1735   6.015   2.874   3.943 -1.1199  0.0283 -1.5779
  591TIP3   OH2 1736   4.744   6.006   0.936 -0.0915 -0.7887 -0.5635
  591TIP3    H1 1737   4.671   5.947   0.919 -1.1624  0.4423 -0.4779
  591TIP3    H2 1738   4.822   5.958   0.909 -1.0870 -1.5399 -2.2229
  592TIP3   OH2 1739   1.337   0.123   0.772  0.1764  0.0780  0.1860
  592TIP3    H1 1740   1.416   0.163   0.737 -0.9785  0.5686 -2.0355
  592TIP3    H2 1741   1.368   0.050   0.825  2.0532 -1.1957 -2.4907
  593TIP3   OH2 1742   3.433   1.012   5.028  0.7639 -0.2247  0.2211
  593TIP3    H1 1743   3.506   1.012   4.965  0.9366  0.0027  0.4186
  593TIP3    H2 1744   3.471   0.977   5.108  0.4619 -0.8126  0.1094
  594TIP3   OH2 1745   0.492   5.033   5.509 -0.5145  0.0019  0.5427
  594TIP3    H1 1746   0.498   4.942   5.541  0.7699 -0.1409 -0.0526
  594TIP3    H2 1747   0.411   5.035   5.457 -0.2005 -0.9963 -0.0080
  595TIP3   OH2 1748   0.284   2.219   1.444 -0.4230  0.3980  0.0185
  595TIP3    H1 1749   0.297   2.239   1.537  1.1684 -0.8254  0.0947
  595TIP3    H2 1750   0.295   2.124   1.438  0.7672  0.6019 -1.6081
  596TIP3   OH2 1751   2.299   4.030   3.341 -0.0248  0.2271 -0.3700
  596TIP3    H1 1752   2.252   4.088   3.402  2.3142  0.6671  1.1228
  596TIP3    H2 1753   2.267   3.942   3.362  2.0051  0.1043  2.9435
  597TIP3   OH2 1754   5.461   0.072   3.739 -0.6523 -0.1205  0.7139
  597TIP3    H1 1755   5.488   0.155   3.700 -0.8281 -0.2292  0.3603
  597TIP3    H2 1756   5.543   0.033   3.771 -0.3826 -0.4134 -0.2894
  598TIP3   OH2 1757   3.755   4.880   3.426  0.1837  0.6735 -0.4524
  598TIP3    H1 1758   3.802   4.833   3.494  0.9798  1.3938 -0.4953
  598TIP3    H2 1759   3.678   4.916   3.470  0.1306  0.2435 -0.1852
  599TIP3   OH2 1760   1.712   1.783   2.528 -0.6322 -0.2807 -0.2996
  599TIP3    H1 1761   1.743   1.754   2.442  1.4680  0.9020 -0.0015
  599TIP3    H2 1762   1.727   1.877   2.529 -3.2967  0.2133  0.3562
  600TIP3   OH2 1763   5.294   0.519   4.599 -0.2403 -0.1696 -0.5974
  600TIP3    H1 1764   5.252   0.448   4.551  1.2659  0.1547 -2.5528
  600TIP3    H2 1765   5.292   0.593   4.539  2.1408  0.1364 -0.4104
  601TIP3   OH2 1766   0.203   5.131   3.353  0.5268  0.3658 -0.2117
  601TIP3    H1 1767   0.262   5.188   3.303 -0.8570  1.2574 -0.9129
  601TIP3    H2 1768   0.147   5.192   3.401  0.7941 -0.4734  1.2021
  602TIP3   OH2 1769   4.194   1.121   5.306  0.0970 -0.6740 -0.0337
  602TIP3    H1 1770   4.149   1.192   5.352  0.5621 -0.7775  0.5933
  602TIP3    H2 1771   4.273   1.161   5.270  1.5261 -1.2844  2.1873
  603TIP3   OH2 1772   7.042   6.609   0.972  0.5075 -0.9611  0.0362
  603TIP3    H1 1773   7.007   6.687   0.928  1.1195 -0.4765  0.3950
  603TIP3    H2 1774   6.965   6.566   1.009 -0.0155 -1.3483 -1.4547
  604TIP3   OH2 1775   2.253   4.551   1.942 -0.0470 -0.3180  0.4613
  604TIP3    H1 1776   2.185   4.606   1.903 -1.3409 -3.1417 -1.6066
  604TIP3    H2 1777   2.334   4.581   1.901 -0.5948  0.5268 -0.0424
  605TIP3   OH2 1778   4.591   6.604   2.461  0.1931 -0.1113  0.2698
  605TIP3    H1 1779   4.523   6.541   2.437  0.9436 -0.3293 -1.4494
  605TIP3    H2 1780   4.647   6.610   2.383  2.0523  0.1861  1.5636
  606TIP3   OH2 1781   5.041   3.413   2.003  0.6173  0.1483  0.3508
  606TIP3    H1 1782   5.037   3.402   1.908  1.5701 -0.1852  0.3449
  606TIP3    H2 1783   4.991   3.493   2.019  0.6006  0.3097 -0.4411
  607TIP3   OH2 1784   5.094   2.765   4.265 -0.8073  0.0866  0.0421
  607TIP3    H1 1785   5.187   2.754   4.287 -0.1143  1.6299 -1.8598
  607TIP3    H2 1786   5.056   2.803   4.344 -0.0775 -1.5042  1.2138
  608TIP3   OH2 1787   4.299   5.447   0.397 -0.2128 -0.4036  0.0559
  608TIP3    H1 1788   4.249   5.385   0.343  0.8435 -1.2490  0.0082
  608TIP3    H2 1789   4.236   5.482   0.459 -1.0384 -0.8187 -0.5302
  609TIP3   OH2 1790   5.780   6.298   0.719 -0.1703 -0.1206 -0.3137
  609TIP3    H1 1791   5.838   6.271   0.647  0.9792 -1.6997  1.1093
  609TIP3    H2 1792   5.833   6.358   0.771 -0.7784  0.5339 -0.4428
  610TIP3   OH2 1793   3.967   2.580   2.201  0.0560  0.1683 -0.0005
  610TIP3    H1 1794   4.038   2.519   2.220 -0.0616 -0.0707 -0.3288
  610TIP3    H2 1795   3.991   2.660   2.249  0.9269  0.3396 -0.6768
  611TIP3   OH2 1796   2.016   2.528   3.592  0.3185 -0.4986  0.2065
  611TIP3    H1 1797   1.937   2.581   3.599  0.0989 -0.6924 -0.6947
  611TIP3    H2 1798   2.014   2.471   3.669 -0.6758 -0.8375 -0.0579
  612TIP3   OH2 1799   4.082   1.624   1.677  0.3677  0.7585 -0.3563
  612TIP3    H1 1800   4.039   1.642   1.592 -0.3288 -0.5339 -0.3057
  612TIP3    H2 1801   4.009   1.609   1.737  0.8724  1.0671  0.3345
  613TIP3   OH2 1802   0.322   2.854   1.236  0.1918  0.1026 -0.1235
  613TIP3    H1 1803   0.291   2.843   1.326 -0.2315  2.0232  0.0191
  613TIP3    H2 1804   0.362   2.941   1.235  0.8203 -0.1669 -1.6322
  614TIP3   OH2 1805   1.818   5.819   4.967 -0.4917  0.5325  0.1059
  614TIP3    H1 1806   1.907   5.823   4.932 -0.3307  2.1745  0.6316
  614TIP3    H2 1807   1.799   5.725   4.974  0.2147  0.1115 -2.4392
  615TIP3   OH2 1808   2.398   0.277   3.352 -0.2856 -0.6207 -0.4433
  615TIP3    H1 1809   2.345   0.302   3.428 -0.7261  0.0956 -0.9768
  615TIP3    H2 1810   2.397   0.354   3.295  2.4543 -0.0598  0.1346
  616TIP3   OH2 1811   1.659   1.049   2.056 -0.4558 -0.1338 -0.0717
  616TIP3    H1 1812   1.607   0.996   1.995 -0.2410  1.6041 -1.8702
  616TIP3    H2 1813   1.657   1.137   2.019 -0.1287  0.9869  2.3790
  617TIP3   OH2 1814   3.965   4.371   1.933 -0.2621  0.0043 -0.0815
  617TIP3    H1 1815   4.053   4.397   1.958 -0.1816  0.8198 -1.1486
  617TIP3    H2 1816   3.971   4.277   1.915  0.7686  0.3524 -1.6856
  618TIP3   OH2 1817   5.778   2.970   5.756 -0.7932  0.0623 -0.4578
  618TIP3    H1 1818   5.862   2.951   5.715 -0.8998 -1.1434 -0.1678
  618TIP3    H2 1819   5.714   2.919   5.706 -1.2372  0.3313 -0.1750
  619TIP3   OH2 1820   2.685   3.177   2.605 -0.6867 -0.1338  0.1166
  619TIP3    H1 1821   2.779   3.159   2.610 -0.5317  0.5175 -0.3910
  619TIP3    H2 1822   2.673   3.259   2.653 -0.6850  0.8578 -1.5424
  620TIP3   OH2 1823   5.523   4.233   3.518  0.1558  0.4680 -0.5518
  620TIP3    H1 1824   5.583   4.302   3.491  0.7740 -0.2509 -1.0744
  620TIP3    H2 1825   5.541   4.161   3.457 -0.7874  0.0093 -0.3039
  621TIP3   OH2 1826   0.579   3.232   4.410  0.0561 -0.4008 -0.0744
  621TIP3    H1 1827   0.537   3.317   4.423 -0.0188 -0.4919  0.2914
  621TIP3    H2 1828   0.667   3.243   4.446  0.3768 -0.1839 -0.9179
  622TIP3   OH2 1829   1.566   0.248   0.651  0.4147 -0.3330 -0.3866
  622TIP3    H1 1830   1.600   0.178   0.708  1.9846  0.3648 -0.4291
  622TIP3    H2 1831   1.615   0.239   0.570 -1.0147 -0.6003 -1.2414
  623TIP3   OH2 1832   4.074   3.442   1.089  0.5433 -0.1904  0.0670
  623TIP3    H1 1833   4.040   3.519   1.044 -1.5380 -0.6837  0.6754
  623TIP3    H2 1834   4.093   3.380   1.019  0.5106  0.2304 -0.3221
  624TIP3   OH2 1835   3.979   1.274   4.886 -0.3896 -0.0316  0.2624
  624TIP3    H1 1836   4.038   1.350   4.887  1.6340 -1.5004 -0.4017
  624TIP3    H2 1837   4.037   1.199   4.869 -1.9599 -2.0250  2.8567
  625TIP3   OH2 1838   2.673   5.260   1.173 -0.7211 -0.1508  0.0514
  625TIP3    H1 1839   2.711   5.322   1.111  0.5074 -0.0299  0.8860
  625TIP3    H2 1840   2.606   5.310   1.220 -0.1927  0.3567  0.2684
  626TIP3   OH2 1841   6.464   2.791   3.978 -0.0491 -0.6445 -0.2149
  626TIP3    H1 1842   6.538   2.779   3.918 -0.6090 -0.8230 -0.8914
  626TIP3    H2 1843   6.422   2.705   3.981 -0.7546 -0.3207 -0.5650
  627TIP3   OH2 1844   1.328   1.075   0.751  0.6492 -0.0073  0.3458
  627TIP3    H1 1845   1.356   0.985   0.737 -0.1600 -0.4636  1.4918
  627TIP3    H2 1846   1.388   1.128   0.698  1.5497 -1.1636  0.1775
  628TIP3   OH2 1847   2.192   5.279   3.914  0.1961 -0.2178  0.3023
  628TIP3    H1 1848   2.198   5.374   3.918 -2.0261  0.2926 -3.4084
  628TIP3    H2 1849   2.137   5.255   3.988  1.7475  1.1794  1.9911
  629TIP3   OH2 1850   0.790   2.350   2.953  0.0758 -0.9094 -0.0291
  629TIP3    H1 1851   0.823   2.365   3.042  1.5106 -1.8362 -0.3763
  629TIP3    H2 1852   0.866   2.319   2.904 -0.6947 -0.4394 -1.5920
  630TIP3   OH2 1853   3.039   1.910   4.491 -0.1654 -0.1084 -0.0539
  630TIP3    H1 1854   3.046   1.994   4.536 -0.7867 -0.4985  0.8059
  630TIP3    H2 1855   3.067   1.846   4.556  0.6382 -0.5483 -0.8170
  631TIP3   OH2 1856   6.611   6.572   0.924 -0.5908  0.4417  0.2118
  631TIP3    H1 1857   6.690   6.518   0.925 -0.7558  0.1840 -0.1374
  631TIP3    H2 1858   6.589   6.581   0.831 -0.0588  1.8733  0.2058
  632TIP3   OH2 1859   6.362   4.742   3.536 -0.6055  0.0995 -0.0412
  632TIP3    H1 1860   6.347   4.715   3.445 -2.7913 -0.0329  0.3025
  632TIP3    H2 1861   6.372   4.837   3.531  1.4429 -0.0973 -0.6154
  633TIP3   OH2 1862   3.527   0.861   5.819 -0.6300 -0.2173 -0.0284
  633TIP3    H1 1863   3.571   0.812   5.749  0.0199  1.0954 -0.5752
  633TIP3    H2 1864   3.583   0.937   5.833 -2.0624  0.8373  0.1665
  634TIP3   OH2 1865   5.641   2.380   3.931 -0.0704 -0.0731  0.1708
  634TIP3    H1 1866   5.636   2.296   3.977  0.1793 -0.6113 -0.7732
  634TIP3    H2 1867   5.716   2.372   3.873  1.1498  1.5100  1.4185
  635TIP3   OH2 1868   2.875   5.037   5.917  0.4902 -0.2788 -0.4816
  635TIP3    H1 1869   2.852   4.954   5.874 -0.8611  1.1783 -2.7658
  635TIP3    H2 1870   2.925   5.085   5.852  0.7003  0.9820  0.5608
  636TIP3   OH2 1871   4.688   2.473   4.278 -0.4058  0.0226  0.4864
  636TIP3    H1 1872   4.654   2.387   4.302 -1.4208  0.4972  0.8077
  636TIP3    H2 1873   4.707   2.467   4.184  0.2085 -0.7572  0.6502
  637TIP3   OH2 1874   0.774   1.905   1.178  0.0946  0.0838  0.4367
  637TIP3    H1 1875   0.831   1.975   1.210 -1.1044  1.6436 -0.7201
  637TIP3    H2 1876   0.782   1.909   1.083 -1.1890 -0.3345  0.3027
  638TIP3   OH2 1877   4.390   3.925   5.591  0.4516  0.3289 -0.1021
  638TIP3    H1 1878   4.415   3.836   5.567  1.7279 -0.0820  2.4346
  638TIP3    H2 1879   4.405   3.976   5.511  0.1342 -1.6204 -1.4615
  639TIP3   OH2 1880   5.389   5.323   4.965  0.6350 -0.0027  0.0548
  639TIP3    H1 1881   5.309   5.295   4.920  0.6689 -1.0302  0.5867
  639TIP3    H2 1882   5.454   5.257   4.940  0.4661 -1.0503  2.1465
  640TIP3   OH2 1883   1.881   1.824   0.154 -0.0856 -0.4139 -0.0372
  640TIP3    H1 1884   1.841   1.911   0.147  1.2072  0.2986  0.9531
  640TIP3    H2 1885   1.817   1.773   0.204 -0.2311  0.3962  0.6364
  641TIP3   OH2 1886   6.486   5.302   0.695  0.4073  0.2903 -0.4252
  641TIP3    H1 1887   6.400   5.290   0.655 -0.7195 -0.1101  1.9658
  641TIP3    H2 1888   6.491   5.396   0.713  0.0992  0.1914  0.1935
  642TIP3   OH2 1889   5.290   3.476   2.811  0.1741  0.5123  0.0026
  642TIP3    H1 1890   5.220   3.412   2.826 -0.1469  0.7629 -0.4168
  642TIP3    H2 1891   5.297   3.482   2.716  0.5791  0.6966  0.0440
  643TIP3   OH2 1892   5.631   1.481   1.723  0.1750  0.1619  0.2580
  643TIP3    H1 1893   5.583   1.429   1.659  0.6592 -1.0785  0.8846
  643TIP3    H2 1894   5.565   1.503   1.790 -0.1731  0.9068 -0.3090
  644TIP3   OH2 1895   3.546   0.769   4.362 -0.3468 -0.0617 -0.2281
  644TIP3    H1 1896   3.626   0.716   4.360  0.5996  1.1357  1.9849
  644TIP3    H2 1897   3.519   0.775   4.271  1.8606 -0.8580 -1.0069
  645TIP3   OH2 1898   7.024   4.868   0.800 -0.0214 -0.2749 -0.1147
  645TIP3    H1 1899   6.937   4.885   0.763 -0.1584 -3.1671 -1.4178
  645TIP3    H2 1900   7.075   4.833   0.727  2.1307  0.8776  0.7469
  646TIP3   OH2 1901   0.902   6.580   1.299 -0.1538  0.2436  0.4026
  646TIP3    H1 1902   0.950   6.565   1.380  0.9586  0.6842 -0.1635
  646TIP3    H2 1903   0.940   6.659   1.262  1.0483 -1.2405 -1.7573
  647TIP3   OH2 1904   4.121   6.479   3.617  0.1927 -0.2194  0.3685
  647TIP3    H1 1905   4.205   6.501   3.576  0.8060 -1.6549  0.7922
  647TIP3    H2 1906   4.066   6.555   3.599  1.6006  0.8119  0.1657
  648TIP3   OH2 1907   0.572   3.295   5.568  0.0675  0.4169 -0.4284
  648TIP3    H1 1908   0.583   3.303   5.473 -0.8582 -0.6800 -0.6605
  648TIP3    H2 1909   0.486   3.332   5.585 -0.2721 -0.4488 -0.2036
  649TIP3   OH2 1910   4.607   4.425   3.647  0.3375  0.0963 -0.0127
  649TIP3    H1 1911   4.594   4.518   3.666 -0.6955 -0.2690  1.2168
  649TIP3    H2 1912   4.570   4.380   3.723  2.5258 -1.2805  0.3415
  650TIP3   OH2 1913   1.669   3.712   4.579 -0.4018 -0.0005  0.1739
  650TIP3    H1 1914   1.600   3.775   4.561  0.7274  1.0548 -0.6474
  650TIP3    H2 1915   1.750   3.757   4.553  0.6780 -0.9266  1.7527
  651TIP3   OH2 1916   6.984   1.885   5.596  0.2633  0.8900  0.0688
  651TIP3    H1 1917   6.907   1.941   5.604  0.4743  1.1359  0.4239
  651TIP3    H2 1918   7.033   1.899   5.678  0.8377  0.9743 -0.2812
  652TIP3   OH2 1919   0.182   5.926   3.449 -0.3186 -0.3099 -0.7068
  652TIP3    H1 1920   0.158   6.019   3.454  0.6644 -0.0692  0.1418
  652TIP3    H2 1921   0.200   5.911   3.356 -0.4023  0.3778 -0.8436
  653TIP3   OH2 1922   6.827   5.752   2.186  0.3945 -0.0691 -0.1057
  653TIP3    H1 1923   6.815   5.840   2.149 -0.3901  0.0995  0.5413
  653TIP3    H2 1924   6.785   5.694   2.123 -0.5256  0.1767  0.2604
  654TIP3   OH2 1925   2.765   3.265   5.556  0.2013  0.1680  0.1295
  654TIP3    H1 1926   2.706   3.215   5.612 -0.8785  1.0302 -0.2085
  654TIP3    H2 1927   2.834   3.203   5.533 -1.5276 -1.4433 -0.9799
  655TIP3   OH2 1928   2.902   0.514   2.415  0.4507 -0.2127 -0.0736
  655TIP3    H1 1929   2.966   0.550   2.354  0.4009  1.4597  0.8079
  655TIP3    H2 1930   2.912   0.566   2.495 -3.0393  1.2861 -0.4013
  656TIP3   OH2 1931   0.707   3.084   4.760  0.1335 -0.6128  0.3602
  656TIP3    H1 1932   0.726   3.003   4.714 -2.0712 -0.7985 -0.3314
  656TIP3    H2 1933   0.793   3.123   4.777  1.1340 -2.0208 -1.2012
  657TIP3   OH2 1934   0.650   2.246   1.382  0.0057 -0.0924  0.1655
  657TIP3    H1 1935   0.594   2.271   1.308  0.0224 -0.9304 -0.1434
  657TIP3    H2 1936   0.739   2.248   1.347  0.1296  0.6606  0.4965
  658TIP3   OH2 1937   1.294   0.458   4.764  0.3381 -0.3676 -0.3465
  658TIP3    H1 1938   1.210   0.416   4.743  1.2327 -1.5206 -1.8823
  658TIP3    H2 1939   1.332   0.477   4.678  1.3614  0.7516  0.3396
  659TIP3   OH2 1940   5.568   5.727   1.502  0.3571 -0.5183  0.0874
  659TIP3    H1 1941   5.485   5.679   1.493 -0.7685  0.7090  2.7927
  659TIP3    H2 1942   5.585   5.727   1.596  1.5240  2.3352 -0.0258
  660TIP3   OH2 1943   5.483   6.684   4.864  0.1453 -0.7750  0.5381
  660TIP3    H1 1944   5.392   6.710   4.849  0.4235 -0.5214 -0.8223
  660TIP3    H2 1945   5.479   6.626   4.940 -1.1076 -0.5502  0.6700
  661TIP3   OH2 1946   0.456   6.172   3.930 -0.1003  0.3810  0.2958
  661TIP3    H1 1947   0.424   6.165   3.840 -0.2778 -1.3148  0.4762
  661TIP3    H2 1948   0.551   6.178   3.921 -0.1682  1.1886 -0.0253
  662TIP3   OH2 1949   0.063   1.350   2.744  0.5080  0.0257  0.5676
  662TIP3    H1 1950   0.097   1.427   2.698  0.1814  0.7906  1.5648
  662TIP3    H2 1951   0.016   1.301   2.678 -3.4758  3.1180  0.7233
  663TIP3   OH2 1952   5.363   3.716   2.393 -0.2661  0.5490 -0.1276
  663TIP3    H1 1953   5.306   3.734   2.319  0.4219 -1.0150 -1.0783
  663TIP3    H2 1954   5.436   3.666   2.356 -0.7199 -1.7388  1.8403
  664TIP3   OH2 1955   6.443   2.965   4.361 -0.3040 -0.1926 -0.2855
  664TIP3    H1 1956   6.375   2.957   4.294 -0.0789  0.9862 -0.6708
  664TIP3    H2 1957   6.511   3.017   4.320 -0.1736  0.5871  0.8761
  665TIP3   OH2 1958   0.510   6.199   2.854 -0.3785  0.6787  0.2855
  665TIP3    H1 1959   0.523   6.196   2.759  0.5980  0.3549  0.4201
  665TIP3    H2 1960   0.574   6.262   2.885 -1.3851  1.5619  0.6425
  666TIP3   OH2 1961   7.098   1.936   4.802 -0.0042  0.0662  0.0669
  666TIP3    H1 1962   7.100   1.880   4.880 -0.2744  0.2282  0.1929
  666TIP3    H2 1963   7.153   2.011   4.825  0.4907 -0.2201 -0.1612
  667TIP3   OH2 1964   3.848   5.287   2.550  0.0228 -0.3193 -0.2705
  667TIP3    H1 1965   3.860   5.287   2.645  0.7932 -1.5889 -0.3575
  667TIP3    H2 1966   3.756   5.312   2.538  0.1266  0.6517  0.7588
  668TIP3   OH2 1967   6.192   6.353   0.541  0.1061  0.9366  0.0921
  668TIP3    H1 1968   6.251   6.334   0.468  1.3992  0.1232  1.2881
  668TIP3    H2 1969   6.184   6.270   0.588  0.8840  1.8428  1.9443
  669TIP3   OH2 1970   5.275   5.853   5.840 -0.4190 -0.1429  0.3540
  669TIP3    H1 1971   5.350   5.855   5.900 -1.6361 -0.7496  1.9579
  669TIP3    H2 1972   5.202   5.889   5.891 -1.4385 -0.4016 -0.8624
  670TIP3   OH2 1973   4.042   2.696   4.535 -0.4334 -0.7280  0.4187
  670TIP3    H1 1974   4.082   2.689   4.448  0.0744  1.1270  0.4494
  670TIP3    H2 1975   3.950   2.712   4.519 -0.2065  0.4279  0.1598
  671TIP3   OH2 1976   2.763   6.739   0.494  0.4393  0.1697  0.0795
  671TIP3    H1 1977   2.741   6.779   0.410  0.1403 -0.3758 -0.1085
  671TIP3    H2 1978   2.821   6.666   0.471 -0.6708 -0.7901  0.2027
  672TIP3   OH2 1979   3.517   1.288   3.727 -0.0262  0.4643 -0.2274
  672TIP3    H1 1980   3.520   1.211   3.784  2.8572  0.1822 -0.6239
  672TIP3    H2 1981   3.443   1.272   3.668 -0.8398 -0.9225  1.1119
  673TIP3   OH2 1982   2.823   0.735   3.713  0.3203  0.4216 -0.0619
  673TIP3    H1 1983   2.880   0.713   3.787 -1.5016 -1.4273  0.8880
  673TIP3    H2 1984   2.875   0.796   3.660  1.9000  1.3907  2.4194
  674TIP3   OH2 1985   2.726   4.043   4.875  0.4261 -0.0798 -0.4438
  674TIP3    H1 1986   2.764   4.030   4.962  0.3511  0.2575 -0.3564
  674TIP3    H2 1987   2.793   4.012   4.814  0.2807 -0.7740 -0.2524
  675TIP3   OH2 1988   4.641   6.548   4.794 -0.4471  0.2829  0.1133
  675TIP3    H1 1989   4.647   6.643   4.786  1.4192  0.0808 -2.0026
  675TIP3    H2 1990   4.574   6.522   4.731 -2.0482  0.2249  1.7421
  676TIP3   OH2 1991   5.399   1.406   5.263  0.3383  0.0415 -0.1064
  676TIP3    H1 1992   5.473   1.465   5.278  0.8077 -0.6355  0.3362
  676TIP3    H2 1993   5.440   1.321   5.246 -0.3364 -0.5529  1.0978
  677TIP3   OH2 1994   6.784   5.962   0.087 -0.2044  0.0259  0.1673
  677TIP3    H1 1995   6.801   5.869   0.074  1.3440  0.4236 -1.0549
  677TIP3    H2 1996   6.784   5.999  -0.001 -2.0769  1.0248  0.5374
  678TIP3   OH2 1997   0.568   6.778   2.709  0.4435 -0.1177 -0.1747
  678TIP3    H1 1998   0.652   6.745   2.679 -0.5528 -2.4244 -0.6822
  678TIP3    H2 1999   0.530   6.704   2.757 -1.8110  0.4041 -1.0533
  679TIP3   OH2 2000   0.730   5.904   3.844 -0.0388  0.0759 -0.9098
  679TIP3    H1 2001   0.807   5.877   3.895 -0.7626  0.8654  0.6513
  679TIP3    H2 2002   0.765   5.968   3.782  0.8533 -0.8755 -1.4302
  680TIP3   OH2 2003   2.407   0.195   1.153  0.1308 -0.1979 -0.2136
  680TIP3    H1 2004   2.452   0.208   1.070  1.9559 -0.9634  0.6020
  680TIP3    H2 2005   2.315   0.215   1.134  0.4668 -0.5115 -2.4338
  681TIP3   OH2 2006   1.555   5.026   5.763 -0.2822  0.2644  0.4159
  681TIP3    H1 2007   1.546   5.121   5.757 -0.1322  0.2400 -0.4316
  681TIP3    H2 2008   1.595   5.010   5.848 -0.8126  0.9190  0.7909
  682TIP3   OH2 2009   2.216   0.785   2.973  0.5149  0.2035  0.4156
  682TIP3    H1 2010   2.256   0.802   2.887 -0.6668 -1.3740 -0.4894
  682TIP3    H2 2011   2.125   0.812   2.962  0.4064  0.2007  1.2630
  683TIP3   OH2 2012   0.880   1.100   0.452  0.4906 -0.0647 -0.5142
  683TIP3    H1 2013   0.947   1.136   0.511 -0.3973  0.8003 -0.0089
  683TIP3    H2 2014   0.911   1.012   0.433  1.3889  0.0461  0.3252
  684TIP3   OH2 2015   0.054   4.570   1.233  0.2917  0.3063  0.3466
  684TIP3    H1 2016  -0.035   4.556   1.262  0.4054  1.0989  1.1378
  684TIP3    H2 2017   0.055   4.661   1.202  0.0658 -0.5998 -2.6329
  685TIP3   OH2 2018   1.626   3.991   3.024 -0.2306 -0.1418 -0.0622
  685TIP3    H1 2019   1.544   4.033   3.049 -0.3684  0.1855 -1.0037
  685TIP3    H2 2020   1.671   3.974   3.107 -0.9703  0.2402  0.4290
  686TIP3   OH2 2021   0.620   6.376   4.409  0.6709  0.1286 -0.5081
  686TIP3    H1 2022   0.618   6.288   4.370  1.3869  0.0666 -0.4265
  686TIP3    H2 2023   0.711   6.405   4.397 -0.0824  1.8143 -2.6229
  687TIP3   OH2 2024   6.071   5.492   0.790 -0.1832 -0.3128 -0.1135
  687TIP3    H1 2025   6.045   5.441   0.867  0.0560  0.4818  0.5001
  687TIP3    H2 2026   6.032   5.445   0.716 -0.7033 -0.8942  0.5201
  688TIP3   OH2 2027   1.941   3.372   3.641  0.2564 -0.7240 -0.0382
  688TIP3    H1 2028   1.981   3.371   3.727  0.4863  1.7602 -0.0613
  688TIP3    H2 2029   1.889   3.291   3.638 -0.3952 -0.4952  2.7139
  689TIP3   OH2 2030   0.823   1.072   0.788 -0.5127  0.1307  0.3765
  689TIP3    H1 2031   0.816   1.168   0.785  0.5046  0.1948 -1.4984
  689TIP3    H2 2032   0.911   1.054   0.754  0.4703 -1.3744  3.3860
  690TIP3   OH2 2033   3.737   2.552   5.738 -0.1557 -0.3934  0.3186
  690TIP3    H1 2034   3.818   2.603   5.733 -0.5743  0.1783 -1.0425
  690TIP3    H2 2035   3.684   2.599   5.803  0.0854 -0.0023  0.2393
  691TIP3   OH2 2036   2.476   0.501   0.729 -0.4665  0.1573  0.8725
  691TIP3    H1 2037   2.466   0.492   0.635 -1.8296 -0.0931  1.0116
  691TIP3    H2 2038   2.412   0.568   0.753 -1.0952 -0.7276  1.7676
  692TIP3   OH2 2039   4.172   4.966   4.568  0.2235 -0.2083 -0.1041
  692TIP3    H1 2040   4.151   5.041   4.513 -0.0811 -0.8966 -0.9449
  692TIP3    H2 2041   4.136   4.988   4.654  2.4543  1.7790  0.4293
  693TIP3   OH2 2042   6.352   0.337   1.705  0.1543 -0.4369 -0.6695
  693TIP3    H1 2043   6.314   0.316   1.790 -0.4657  0.7343 -0.6256
  693TIP3    H2 2044   6.288   0.305   1.641 -0.7383  1.1134 -0.6055
  694TIP3   OH2 2045   3.947   4.396   3.499  0.0268 -0.4930  0.2531
  694TIP3    H1 2046   4.032   4.356   3.477  0.6262  0.4105  0.8522
  694TIP3    H2 2047   3.882   4.333   3.468  0.8549 -0.2870 -2.0811
  695TIP3   OH2 2048   1.975   0.723   0.968 -0.1859 -0.4441  0.2007
  695TIP3    H1 2049   2.024   0.804   0.981 -2.2667  0.7993  0.5852
  695TIP3    H2 2050   2.004   0.666   1.039  1.4694 -0.1717 -0.2097
  696TIP3   OH2 2051   1.474   0.206   3.291  0.0548  0.4266 -0.1734
  696TIP3    H1 2052   1.545   0.225   3.351 -0.4488 -0.9325  0.9145
  696TIP3    H2 2053   1.517   0.177   3.210  0.8466 -2.6493  1.2047
  697TIP3   OH2 2054   1.072   6.155   1.120  0.2933  0.4969  0.0239
  697TIP3    H1 2055   1.085   6.244   1.152  0.8561  1.5569 -2.8390
  697TIP3    H2 2056   1.148   6.138   1.065  0.3207 -1.9019  0.6729
  698TIP3   OH2 2057   4.959   2.025   0.710  0.0660  0.2592 -0.3323
  698TIP3    H1 2058   5.012   2.034   0.789  0.0571  1.1853 -0.4203
  698TIP3    H2 2059   5.020   1.997   0.643 -0.1493 -1.7870  0.2557
  699TIP3   OH2 2060   5.684   3.124   2.231 -0.0297 -0.2037 -0.3896
  699TIP3    H1 2061   5.668   3.048   2.175  0.6362  0.0852 -1.0011
  699TIP3    H2 2062   5.772   3.110   2.266  0.3756  0.5793 -1.0361
  700TIP3   OH2 2063   5.242   1.300   2.250  0.0890  0.1506 -0.2956
  700TIP3    H1 2064   5.170   1.243   2.276  0.1273  1.1009  2.1142
  700TIP3    H2 2065   5.199   1.372   2.204 -0.4152  0.2523  0.3175
  701TIP3   OH2 2066   4.351   3.175   4.931  0.3914  0.2493  0.5860
  701TIP3    H1 2067   4.341   3.100   4.990 -0.4276  0.0386  0.1957
  701TIP3    H2 2068   4.318   3.144   4.847 -1.0073  1.3528  0.6818
  702TIP3   OH2 2069   5.706   3.426   3.639 -0.1827  0.4092 -0.2429
  702TIP3    H1 2070   5.765   3.352   3.647  0.5510  1.1213  1.4867
  702TIP3    H2 2071   5.658   3.411   3.558 -1.7361 -3.1801  1.1469
  703TIP3   OH2 2072   4.060   1.316   1.331  0.0964  0.1818  0.4198
  703TIP3    H1 2073   4.127   1.310   1.262 -1.3456 -0.2185 -1.0253
  703TIP3    H2 2074   4.019   1.401   1.317  0.0007  0.2394  1.0283
  704TIP3   OH2 2075   1.765   1.702   5.000  0.5393 -0.1305 -0.7600
  704TIP3    H1 2076   1.853   1.668   5.016  0.2800 -0.4975 -0.0639
  704TIP3    H2 2077   1.780   1.786   4.958  1.3218  1.1636  1.8661
  705TIP3   OH2 2078   0.356   3.698   5.797 -0.1987 -0.0158  0.0256
  705TIP3    H1 2079   0.275   3.728   5.756  0.2671  0.4358 -0.5959
  705TIP3    H2 2080   0.425   3.739   5.744  0.4221  0.5226  1.2153
  706TIP3   OH2 2081   2.680   3.464   2.636  0.2736  0.1222  1.0515
  706TIP3    H1 2082   2.708   3.517   2.561  2.2369 -2.5793 -0.3203
  706TIP3    H2 2083   2.753   3.469   2.697 -0.4346  0.6420  1.8764
  707TIP3   OH2 2084   4.843   1.249   1.683  0.7029 -0.7917 -0.4606
  707TIP3    H1 2085   4.909   1.300   1.636  1.0562  0.2606  1.0849
  707TIP3    H2 2086   4.767   1.308   1.689  1.2962 -0.1496  1.8021
  708TIP3   OH2 2087   1.323   1.189   0.380  0.0070 -0.1707  0.0420
  708TIP3    H1 2088   1.385   1.129   0.339 -0.8759 -0.5848 -0.7036
  708TIP3    H2 2089   1.253   1.200   0.316 -0.4458  0.7018  0.6599
  709TIP3   OH2 2090   2.131   4.248   3.524 -0.1677 -0.3021  0.3920
  709TIP3    H1 2091   2.050   4.265   3.476 -0.3187 -1.1164  0.3386
  709TIP3    H2 2092   2.105   4.250   3.616 -0.1422 -0.0195  0.3914
  710TIP3   OH2 2093   5.350   4.878   2.451  0.5974 -0.0084 -0.1985
  710TIP3    H1 2094   5.262   4.910   2.471 -0.1384 -1.0678 -1.5596
  710TIP3    H2 2095   5.387   4.856   2.536 -0.7148 -0.2017  0.3565
  711TIP3   OH2 2096   2.801   6.478   0.031 -0.4620 -0.1146 -0.0060
  711TIP3    H1 2097   2.744   6.424   0.087  0.1889 -0.0168  0.7709
  711TIP3    H2 2098   2.887   6.436   0.036  0.0001  0.8465  0.4223
  712TIP3   OH2 2099   4.956   1.553   5.564  0.7146 -0.8450 -0.3494
  712TIP3    H1 2100   4.899   1.510   5.628 -0.2725  1.0844  0.1599
  712TIP3    H2 2101   5.040   1.563   5.609  1.1686 -2.6976 -0.6993
  713TIP3   OH2 2102   0.493   2.693   1.094 -0.1009  0.1378 -0.3344
  713TIP3    H1 2103   0.493   2.740   1.010  1.0156  0.4862 -0.1634
  713TIP3    H2 2104   0.430   2.740   1.148 -1.7635 -0.8205 -1.3405
  714TIP3   OH2 2105   5.659   5.759   3.531 -0.4802 -0.5289  0.7368
  714TIP3    H1 2106   5.694   5.846   3.554  3.1998 -1.4570 -0.6086
  714TIP3    H2 2107   5.634   5.767   3.439  0.5890 -1.0126  0.3825
  715TIP3   OH2 2108   5.652   3.912   5.007 -0.4646  0.0684 -0.1080
  715TIP3    H1 2109   5.711   3.986   5.001 -0.0495 -0.1785  0.7645
  715TIP3    H2 2110   5.653   3.873   4.920  1.0032 -0.1922  0.0072
  716TIP3   OH2 2111   0.388   0.349   1.418  0.1641  0.5916  0.6889
  716TIP3    H1 2112   0.465   0.293   1.406  0.0533  0.5245  0.2629
  716TIP3    H2 2113   0.338   0.307   1.488  0.5483  0.6721  1.0143
  717TIP3   OH2 2114   5.667   6.101   2.788  0.2159  0.5849 -0.5540
  717TIP3    H1 2115   5.711   6.150   2.718  0.5361  0.7722 -0.2239
  717TIP3    H2 2116   5.596   6.159   2.817 -0.6367  0.0422 -1.4858
  718TIP3   OH2 2117   0.043   1.558   5.482  0.1909 -1.0549  0.3027
  718TIP3    H1 2118   0.113   1.575   5.546  1.8692 -1.4204 -1.3345
  718TIP3    H2 2119   0.088   1.560   5.397 -1.7913 -1.4543 -0.8054
  719TIP3   OH2 2120   5.919   3.140   0.852  0.4375  0.3947  0.1266
  719TIP3    H1 2121   5.987   3.125   0.786  0.9725  1.6450  0.3706
  719TIP3    H2 2122   5.845   3.087   0.823  0.4598  1.3401 -1.7956
  720TIP3   OH2 2123   2.367   3.498   0.500  0.3706  0.3494 -0.1586
  720TIP3    H1 2124   2.461   3.512   0.484  0.3378  1.8572  0.8037
  720TIP3    H2 2125   2.324   3.542   0.426  0.3923  1.2787  0.3680
  721TIP3   OH2 2126   0.738   0.914   3.224 -0.1137 -0.0546 -0.5508
  721TIP3    H1 2127   0.671   0.851   3.250 -1.7620  1.6924 -0.3748
  721TIP3    H2 2128   0.762   0.959   3.305 -1.9161  2.2538 -1.2028
  722TIP3   OH2 2129   3.939   2.771   0.548 -0.0651  0.3844 -0.0144
  722TIP3    H1 2130   3.864   2.807   0.596 -0.2434 -1.4254  1.1639
  722TIP3    H2 2131   4.015   2.813   0.588 -0.3965  2.1664 -1.1582
  723TIP3   OH2 2132   4.956   0.113   5.366 -0.4327 -0.0948 -0.0441
  723TIP3    H1 2133   4.866   0.082   5.373 -0.5533  0.5104  1.3580
  723TIP3    H2 2134   4.953   0.204   5.396  1.2902 -1.2586  4.6051
  724TIP3   OH2 2135   1.255   3.717   0.451  0.2078 -0.2479  0.4563
  724TIP3    H1 2136   1.341   3.680   0.472  0.0068 -0.6683  0.5453
  724TIP3    H2 2137   1.274   3.806   0.420  0.6459 -0.2005  0.8401
  725TIP3   OH2 2138   2.353   6.393   2.086 -0.1284 -0.2076  0.0767
  725TIP3    H1 2139   2.416   6.351   2.028 -0.1463 -1.5315  0.9938
  725TIP3    H2 2140   2.279   6.414   2.029  1.3110  1.9510 -1.1616
  726TIP3   OH2 2141   0.180   5.839   2.129 -0.0832 -0.6915  0.1115
  726TIP3    H1 2142   0.131   5.757   2.125  0.5048 -1.2225  2.2698
  726TIP3    H2 2143   0.270   5.815   2.108  0.0557 -0.5839  0.5567
  727TIP3   OH2 2144   6.355   1.721   4.558 -0.0681  0.4293  0.2900
  727TIP3    H1 2145   6.401   1.658   4.612  0.9964  1.3164  0.4592
  727TIP3    H2 2146   6.408   1.801   4.564 -0.9165  1.0841 -0.5929
  728TIP3   OH2 2147   0.631   5.044   3.467 -0.1812  0.4261 -0.0272
  728TIP3    H1 2148   0.601   5.119   3.517  0.6312  0.4143  0.5022
  728TIP3    H2 2149   0.640   4.974   3.531 -0.9351 -0.1362 -0.5181
  729TIP3   OH2 2150   5.430   5.645   5.062 -0.0677  0.0224  0.0169
  729TIP3    H1 2151   5.486   5.571   5.085 -1.7867 -1.8009 -1.4320
  729TIP3    H2 2152   5.419   5.693   5.145  1.1345 -1.2591  0.9672
  730TIP3   OH2 2153   4.581   3.530   0.997 -0.0990 -0.3849 -0.0596
  730TIP3    H1 2154   4.604   3.467   0.929 -0.7178  0.7668 -1.3867
  730TIP3    H2 2155   4.497   3.498   1.032  0.8382 -1.6766  1.0929
  731TIP3   OH2 2156   4.879   0.370   0.235 -0.1382  0.7723  0.1495
  731TIP3    H1 2157   4.873   0.298   0.172  0.2557 -0.4080  1.4084
  731TIP3    H2 2158   4.803   0.357   0.293 -2.0016  3.3260 -1.4915
  732TIP3   OH2 2159   6.607   0.168   2.441 -0.5908  0.5154 -0.3987
  732TIP3    H1 2160   6.677   0.125   2.392 -1.4859 -0.3491 -0.9820
  732TIP3    H2 2161   6.637   0.167   2.532 -0.3124 -0.8351 -0.4789
  733TIP3   OH2 2162   0.695   1.665   2.895  0.2608 -0.2317 -0.3225
  733TIP3    H1 2163   0.644   1.723   2.838 -0.3268 -1.6876 -1.3380
  733TIP3    H2 2164   0.629   1.621   2.949  0.5568 -0.9853 -0.5648
  734TIP3   OH2 2165   3.054   5.119   5.736  0.0711  0.4295 -0.3609
  734TIP3    H1 2166   3.077   5.176   5.663 -0.3155 -0.2966 -1.0672
  734TIP3    H2 2167   3.132   5.118   5.792  0.5286  0.6503 -0.9875
  735TIP3   OH2 2168   6.874   5.021   2.240 -0.1424  0.0898 -0.5728
  735TIP3    H1 2169   6.934   5.060   2.303  0.2546  0.8517 -1.4038
  735TIP3    H2 2170   6.809   4.975   2.294 -0.8244  2.1847  0.4746
  736TIP3   OH2 2171   5.776   0.210   3.506  1.1386 -0.0082 -0.0463
  736TIP3    H1 2172   5.729   0.164   3.436 -0.5681 -0.1160  1.0834
  736TIP3    H2 2173   5.813   0.139   3.560  0.3315 -0.0289  0.5049
  737TIP3   OH2 2174   5.800   2.985   1.206 -0.3949  0.0203  0.3583
  737TIP3    H1 2175   5.710   2.960   1.228 -0.5359 -0.2217 -0.4540
  737TIP3    H2 2176   5.843   2.902   1.182 -0.2172  0.2493 -0.1378
  738TIP3   OH2 2177   1.203   3.038   0.949 -0.2375 -0.0392  0.2362
  738TIP3    H1 2178   1.178   3.054   0.858 -0.1718  1.5397  0.4612
  738TIP3    H2 2179   1.135   3.081   1.001  0.2465 -0.0709  0.9200
  739TIP3   OH2 2180   3.092   5.011   4.208 -0.4135  0.6438 -0.1465
  739TIP3    H1 2181   3.080   4.965   4.125 -0.9161 -1.4157  0.9798
  739TIP3    H2 2182   3.185   4.998   4.229 -0.8774 -1.4471  0.9506
  740TIP3   OH2 2183   1.004   0.099   3.058 -0.0635  0.8150 -0.0263
  740TIP3    H1 2184   1.096   0.112   3.036 -0.2063  0.8905 -0.5975
  740TIP3    H2 2185   0.969   0.047   2.985 -0.5415  1.0435  0.0373
  741TIP3   OH2 2186   3.637   0.289   5.029  0.2324  0.0702  0.3989
  741TIP3    H1 2187   3.589   0.370   5.014  0.8055  0.5320  1.0223
  741TIP3    H2 2188   3.635   0.244   4.945 -0.0207  0.7678  0.0260
  742TIP3   OH2 2189   3.269   4.085   2.402 -0.4800  0.1041 -0.4551
  742TIP3    H1 2190   3.345   4.069   2.346  0.2544  0.8247  0.3163
  742TIP3    H2 2191   3.240   4.173   2.379 -0.2139  0.3775  0.2461
  743TIP3   OH2 2192   1.840   1.541   4.514 -0.2739 -0.2718  0.3096
  743TIP3    H1 2193   1.850   1.464   4.568 -0.9273 -0.7739 -0.2734
  743TIP3    H2 2194   1.915   1.597   4.538  0.3576 -1.1933  0.5369
  744TIP3   OH2 2195   2.723   3.829   4.580  0.4184 -0.3773 -0.2611
  744TIP3    H1 2196   2.790   3.786   4.527 -0.9084 -1.6987 -0.9520
  744TIP3    H2 2197   2.722   3.781   4.662 -0.2010 -0.8696 -0.5506
  745TIP3   OH2 2198   3.039   4.909   5.557 -0.0907  0.1234 -0.6087
  745TIP3    H1 2199   3.014   4.940   5.644  0.3234 -0.3773 -0.3056
  745TIP3    H2 2200   3.120   4.955   5.537  1.6816 -2.1805  0.7249
  746TIP3   OH2 2201   0.178  -0.036   2.322  0.0775  0.1638 -0.2739
  746TIP3    H1 2202   0.135   0.020   2.386 -1.3475 -0.0145 -1.0312
  746TIP3    H2 2203   0.210   0.025   2.255  3.4974  0.6036  1.5178
  747TIP3   OH2 2204   0.009   4.916   0.439  0.4287 -0.1514 -0.8879
  747TIP3    H1 2205  -0.035   4.991   0.479  1.1578 -0.6208  0.8935
  747TIP3    H2 2206   0.100   4.923   0.469  0.1977 -2.5481  0.6023
  748TIP3   OH2 2207   5.655   5.839   0.361 -0.2793  0.3360  0.7721
  748TIP3    H1 2208   5.676   5.931   0.351  1.1022  0.0080  0.3498
  748TIP3    H2 2209   5.626   5.830   0.452  0.0869  1.0958  0.9673
  749TIP3   OH2 2210   1.058   1.091   5.473 -0.0388  0.1817 -0.3046
  749TIP3    H1 2211   1.065   1.003   5.512 -0.5519  0.0673 -0.4636
  749TIP3    H2 2212   1.146   1.110   5.441 -0.1278 -0.6813 -1.1151
  750TIP3   OH2 2213   5.414   0.238   5.837 -0.0707 -0.1666 -0.0028
  750TIP3    H1 2214   5.344   0.200   5.784  0.0504 -0.3920 -0.0036
  750TIP3    H2 2215   5.404   0.197   5.923 -0.2047  0.1225  0.1230
  751TIP3   OH2 2216   5.425   0.807   2.912  0.1802  0.2177 -0.1009
  751TIP3    H1 2217   5.441   0.890   2.866  0.4691 -0.1648 -0.6989
  751TIP3    H2 2218   5.509   0.762   2.911 -0.0496 -0.2165 -0.0476
  752TIP3   OH2 2219   7.132   2.516   3.120  0.0319 -0.0339 -0.4641
  752TIP3    H1 2220   7.153   2.482   3.207  2.0557 -0.3175 -0.9982
  752TIP3    H2 2221   7.118   2.610   3.134  0.8408  0.0144  0.1302
  753TIP3   OH2 2222   7.047   0.426   5.575 -0.0600 -0.4047 -0.4270
  753TIP3    H1 2223   6.961   0.393   5.600  0.2749 -1.4903 -0.6572
  753TIP3    H2 2224   7.075   0.369   5.503  1.5709 -1.1771  0.7471
  754TIP3   OH2 2225   3.149   2.597   4.708  0.0453 -0.1232 -0.1210
  754TIP3    H1 2226   3.149   2.692   4.696  0.0536 -0.0997  0.0577
  754TIP3    H2 2227   3.132   2.585   4.802  1.7784 -0.2627  0.2046
  755TIP3   OH2 2228   7.085   3.944   0.708 -0.3123  0.1203 -0.3564
  755TIP3    H1 2229   7.016   3.956   0.773 -1.9676 -0.1518 -2.0068
  755TIP3    H2 2230   7.149   3.888   0.752 -1.4847 -0.2421  0.9661
  756TIP3   OH2 2231   2.395   5.061   1.709 -0.0574 -0.0281  0.4208
  756TIP3    H1 2232   2.489   5.064   1.692  0.2752  1.7911  2.1998
  756TIP3    H2 2233   2.356   5.119   1.644  0.5400  2.2001  1.9248
  757TIP3   OH2 2234   6.288   6.658   1.859  0.3456 -0.5772 -0.2508
  757TIP3    H1 2235   6.194   6.649   1.868  0.4527 -0.6087  0.9551
  757TIP3    H2 2236   6.324   6.579   1.898  0.8659 -0.8209 -1.1818
  758TIP3   OH2 2237   1.006   6.608   2.007  0.2564 -0.0363  0.0987
  758TIP3    H1 2238   1.007   6.698   2.037  0.7862  0.1038 -0.3107
  758TIP3    H2 2239   0.934   6.567   2.054  0.1334  0.5507  0.4277
  759TIP3   OH2 2240   7.151   1.293   2.500 -0.3663  0.2490  0.1164
  759TIP3    H1 2241   7.133   1.220   2.442 -0.4558 -0.3025  0.8215
  759TIP3    H2 2242   7.076   1.352   2.489 -0.1721  0.3635 -0.6346
  760TIP3   OH2 2243   4.224   0.939   0.278  0.5382  0.1608  0.1640
  760TIP3    H1 2244   4.242   0.929   0.372  1.7958  1.4027  0.0897
  760TIP3    H2 2245   4.138   0.898   0.266 -0.3460  1.2456  2.1484
  761TIP3   OH2 2246   2.846   4.162   4.021 -0.3116 -0.5952  0.2758
  761TIP3    H1 2247   2.892   4.170   4.105 -0.0088 -1.2864  0.1823
  761TIP3    H2 2248   2.763   4.207   4.035 -1.0217 -2.1783  1.5126
  762TIP3   OH2 2249   5.033   3.994   1.734 -0.0844 -0.4819  0.1983
  762TIP3    H1 2250   5.048   3.998   1.640 -3.5233  2.6669 -0.4516
  762TIP3    H2 2251   5.062   4.079   1.767 -1.7421 -0.3095  1.3709
  763TIP3   OH2 2252   5.894   0.744   5.459 -0.7699 -0.0646 -0.0324
  763TIP3    H1 2253   5.879   0.776   5.548 -1.4270 -0.6164  0.0573
  763TIP3    H2 2254   5.942   0.816   5.416  0.7285 -0.3260  1.1330
  764TIP3   OH2 2255   0.336   1.124   1.582  0.0029 -0.0876 -0.2298
  764TIP3    H1 2256   0.428   1.131   1.556 -0.4871  2.3069 -1.7116
  764TIP3    H2 2257   0.336   1.145   1.675  0.9830 -0.3135 -0.1656
  765TIP3   OH2 2258   1.698   4.875   4.726  0.0586 -0.3436 -0.0276
  765TIP3    H1 2259   1.747   4.931   4.786 -2.2518  1.8394 -0.0291
  765TIP3    H2 2260   1.673   4.799   4.779 -1.6879  1.3940  1.8564
  766TIP3   OH2 2261   0.833   2.269   4.721  0.2688 -0.0314  0.4196
  766TIP3    H1 2262   0.840   2.235   4.632 -1.7880  2.4380 -0.8182
  766TIP3    H2 2263   0.763   2.218   4.761  1.3526 -1.3032  0.7728
  767TIP3   OH2 2264   4.228   4.495   5.578 -0.0953  0.2803  0.0635
  767TIP3    H1 2265   4.143   4.538   5.582  0.0427  1.1227 -3.3271
  767TIP3    H2 2266   4.222   4.434   5.504  2.3080  0.6312 -0.5250
  768TIP3   OH2 2267   6.065   5.988   3.391  0.7352 -0.1945 -0.5618
  768TIP3    H1 2268   6.099   5.990   3.302  0.5424 -0.0971 -0.6330
  768TIP3    H2 2269   5.974   6.015   3.383  0.8211  0.1871 -0.2857
  769TIP3   OH2 2270   4.668   3.976   2.934  0.2507 -0.1439 -0.3472
  769TIP3    H1 2271   4.740   3.913   2.928  0.3681  0.1322 -3.2170
  769TIP3    H2 2272   4.590   3.926   2.907 -0.4602 -0.1026  1.4904
  770TIP3   OH2 2273   2.817   6.139   1.622 -0.3379  0.3892 -0.9891
  770TIP3    H1 2274   2.891   6.085   1.595 -0.4847  0.6077 -1.8452
  770TIP3    H2 2275   2.743   6.105   1.571 -0.7899  0.3114 -0.2985
  771TIP3   OH2 2276   5.774   0.712   4.231 -0.3589 -0.1400 -0.0247
  771TIP3    H1 2277   5.835   0.642   4.209 -1.6748 -1.1306 -0.5968
  771TIP3    H2 2278   5.729   0.681   4.310 -0.8647  0.1178 -0.2113
  772TIP3   OH2 2279   4.914   2.721   1.509  0.2987  0.0128  0.2026
  772TIP3    H1 2280   4.920   2.723   1.605  0.9377 -0.0564  0.1648
  772TIP3    H2 2281   4.997   2.757   1.479 -0.6059  1.7786 -0.3327
  773TIP3   OH2 2282   0.543   4.791   4.865 -0.3615  0.2611 -0.0609
  773TIP3    H1 2283   0.473   4.837   4.911  0.3930  0.6947  0.6948
  773TIP3    H2 2284   0.519   4.796   4.773 -1.4720  0.1314  0.2082
  774TIP3   OH2 2285   1.871   0.274   2.329  0.2043 -0.6142 -0.3783
  774TIP3    H1 2286   1.844   0.337   2.262  0.6015 -0.9081 -0.8109
  774TIP3    H2 2287   1.962   0.255   2.310  1.2957  1.6225  2.0418
  775TIP3   OH2 2288   0.521   1.293   3.914  0.5345 -0.5467 -0.3475
  775TIP3    H1 2289   0.426   1.299   3.900  0.7984 -1.6894 -3.2457
  775TIP3    H2 2290   0.531   1.301   4.009 -2.3852  0.2192  0.0130
  776TIP3   OH2 2291   2.526   1.634   0.970  0.2507 -0.0123  0.1183
  776TIP3    H1 2292   2.575   1.569   0.920  1.9420  1.0944  0.2542
  776TIP3    H2 2293   2.553   1.620   1.061 -0.1679  0.2103  0.2790
  777TIP3   OH2 2294   6.458   3.133   5.736 -0.0170 -0.2421 -0.1667
  777TIP3    H1 2295   6.443   3.227   5.723 -1.2248 -0.1080  1.7693
  777TIP3    H2 2296   6.476   3.125   5.830 -0.9348 -2.0487 -0.1124
  778TIP3   OH2 2297   5.460   6.525   4.625 -0.1754 -0.0268  0.0832
  778TIP3    H1 2298   5.490   6.587   4.691 -1.3236 -0.5324  1.1360
  778TIP3    H2 2299   5.524   6.531   4.555 -0.2129  2.2879  0.1807
  779TIP3   OH2 2300   1.230   1.282   0.908 -0.4372 -0.3565  0.9025
  779TIP3    H1 2301   1.320   1.294   0.876 -1.2009 -1.1331 -1.8407
  779TIP3    H2 2302   1.227   1.193   0.941 -0.5168 -0.8130 -0.3045
  780TIP3   OH2 2303   0.544   0.634   2.730 -0.1186  0.0745  0.1276
  780TIP3    H1 2304   0.536   0.648   2.824 -1.6843 -1.4916  0.2829
  780TIP3    H2 2305   0.625   0.584   2.719  0.1541  0.4052  0.5942
  781TIP3   OH2 2306   4.484   1.521   3.035 -0.0054 -0.1908  0.2889
  781TIP3    H1 2307   4.544   1.593   3.014  0.4802 -1.3183 -2.7019
  781TIP3    H2 2308   4.403   1.544   2.990 -1.5580  0.7192  3.3137
  782TIP3   OH2 2309   4.289   4.699   0.277 -0.3906  0.5968  0.3390
  782TIP3    H1 2310   4.378   4.672   0.301 -0.1799  1.0551  0.1043
  782TIP3    H2 2311   4.298   4.792   0.258 -0.1252 -0.0457 -3.3439
  783TIP3   OH2 2312   6.034   1.797   3.312  0.4699  0.1427 -0.3241
  783TIP3    H1 2313   6.110   1.761   3.266  0.7774 -0.6880  0.7880
  783TIP3    H2 2314   5.962   1.737   3.291 -0.1070  1.3440 -1.9899
  784TIP3   OH2 2315   5.935   6.369   3.344 -0.2110 -0.5126  0.1066
  784TIP3    H1 2316   5.942   6.357   3.249  0.2714 -0.1228  0.0889
  784TIP3    H2 2317   6.019   6.406   3.369 -0.8478  0.7403  0.4776
  785TIP3   OH2 2318   0.101   0.799   2.143 -0.4124  0.9542  0.1139
  785TIP3    H1 2319   0.139   0.770   2.060  1.4274  0.4986  1.0609
  785TIP3    H2 2320   0.177   0.827   2.196 -1.5917  1.9067  1.3919
  786TIP3   OH2 2321   1.042   4.800   1.718 -0.3633  0.2174 -0.5148
  786TIP3    H1 2322   1.124   4.848   1.728  0.2953 -1.0099  0.1789
  786TIP3    H2 2323   1.049   4.758   1.632  0.2702 -0.8318  0.0313
  787TIP3   OH2 2324   5.763   6.755   2.825  0.6870 -0.6511 -0.0575
  787TIP3    H1 2325   5.823   6.737   2.753  0.3506 -0.9471 -0.2658
  787TIP3    H2 2326   5.697   6.813   2.788  2.4957  2.2565  0.9402
  788TIP3   OH2 2327   3.736   4.913   3.806  0.6083 -0.2147  0.4262
  788TIP3    H1 2328   3.723   4.828   3.764  1.7915 -1.9833  3.3459
  788TIP3    H2 2329   3.648   4.940   3.832  0.4375 -1.9253  1.8208
  789TIP3   OH2 2330   6.777   1.606   5.322  0.0133 -0.2683 -0.4740
  789TIP3    H1 2331   6.802   1.674   5.260  0.3012 -0.3911 -0.4972
  789TIP3    H2 2332   6.690   1.630   5.352  0.1961  0.2213 -0.3325
  790TIP3   OH2 2333   1.014   3.631   0.605  0.2892  0.4724 -0.0169
  790TIP3    H1 2334   1.082   3.660   0.544 -1.1162  0.7954 -1.5218
  790TIP3    H2 2335   1.033   3.538   0.619  1.8532  0.8798  0.7550
  791TIP3   OH2 2336   1.720   6.229   3.329 -0.0758  0.5393 -0.1312
  791TIP3    H1 2337   1.717   6.153   3.270  2.2963  1.1457 -1.1499
  791TIP3    H2 2338   1.746   6.302   3.273 -0.6504  1.7636  1.1418
  792TIP3   OH2 2339   3.525   2.094   4.363 -0.8999  0.0937  0.5508
  792TIP3    H1 2340   3.585   2.113   4.291  0.5910  0.5293  1.8400
  792TIP3    H2 2341   3.438   2.100   4.324 -0.1689  0.8737 -1.0752
  793TIP3   OH2 2342   2.640   0.232   5.490  0.0239 -0.4701 -1.1477
  793TIP3    H1 2343   2.678   0.228   5.578  0.1037 -3.2926 -1.2074
  793TIP3    H2 2344   2.553   0.194   5.499 -0.2279 -0.1767 -2.1755
  794TIP3   OH2 2345   4.603   4.441   4.889  0.1227  0.2087 -0.0306
  794TIP3    H1 2346   4.588   4.533   4.870  0.2287  0.8165  2.4401
  794TIP3    H2 2347   4.698   4.431   4.883  0.1411  0.3435  0.0275
  795TIP3   OH2 2348   2.191   6.447   0.032 -0.1642 -0.2679 -0.2198
  795TIP3    H1 2349   2.133   6.378   0.065 -0.0393 -0.7141 -0.9122
  795TIP3    H2 2350   2.279   6.416   0.051 -0.1059 -0.3195 -0.5652
  796TIP3   OH2 2351   6.281   6.635   5.060  0.4718  0.3503 -0.3151
  796TIP3    H1 2352   6.305   6.693   5.132 -2.2737  0.0506  0.9371
  796TIP3    H2 2353   6.278   6.692   4.983  0.4389  1.3100  0.3880
  797TIP3   OH2 2354   1.205   6.099   3.175 -0.2696 -0.6940  0.7525
  797TIP3    H1 2355   1.190   6.139   3.261  0.1406  1.7879 -0.2544
  797TIP3    H2 2356   1.291   6.059   3.182  0.4689  0.8876  1.0522
  798TIP3   OH2 2357   2.344   5.868   5.386 -0.0642  0.0316  0.0275
  798TIP3    H1 2358   2.325   5.923   5.462 -0.6282 -1.8130  1.2991
  798TIP3    H2 2359   2.283   5.794   5.394  1.0115 -1.0602 -1.3046
  799TIP3   OH2 2360   1.586   0.798   1.388 -0.6887 -0.1053  0.1145
  799TIP3    H1 2361   1.639   0.841   1.455  1.0048 -0.5991 -0.8751
  799TIP3    H2 2362   1.541   0.870   1.344 -0.4038  0.3750  0.5940
  800TIP3   OH2 2363   6.640   1.448   1.196 -0.6192  0.0813 -0.1596
  800TIP3    H1 2364   6.734   1.447   1.217 -0.1445  0.9720 -2.0242
  800TIP3    H2 2365   6.623   1.538   1.168 -1.4335 -0.6901 -2.2833
  801TIP3   OH2 2366   5.134   5.634   3.800  0.6230 -0.9272  0.1030
  801TIP3    H1 2367   5.220   5.633   3.758 -0.2158  1.7152 -1.8630
  801TIP3    H2 2368   5.125   5.722   3.836 -1.1340 -1.2645  0.5891
  802TIP3   OH2 2369   0.947   3.427   4.002 -0.3913 -0.2792 -0.4806
  802TIP3    H1 2370   0.964   3.495   3.937 -0.6135  0.4457  0.2085
  802TIP3    H2 2371   0.859   3.444   4.033 -0.6900 -1.2671 -0.7330
  803TIP3   OH2 2372   0.107   5.802   3.707  0.4288 -0.3108  0.4112
  803TIP3    H1 2373   0.085   5.816   3.615  1.8433  0.1663  0.1248
  803TIP3    H2 2374   0.061   5.721   3.730 -0.5433 -0.0448 -0.4888
  804TIP3   OH2 2375   3.702   4.162   0.839  0.1504  0.0369  0.0728
  804TIP3    H1 2376   3.744   4.077   0.820 -0.4482 -0.2967  0.2148
  804TIP3    H2 2377   3.716   4.213   0.760  1.8754  0.3706  0.5538
  805TIP3   OH2 2378   4.081   1.813   4.813  0.0527 -0.4446 -0.0862
  805TIP3    H1 2379   4.050   1.897   4.778  0.5065 -0.2946 -0.1360
  805TIP3    H2 2380   4.096   1.759   4.736 -0.2154 -0.5618 -0.0552
  806TIP3   OH2 2381   4.629   1.392   4.690  0.3320 -0.1308 -0.4443
  806TIP3    H1 2382   4.570   1.424   4.621 -0.2082 -2.3233 -1.0685
  806TIP3    H2 2383   4.572   1.344   4.750  1.3620 -1.9299 -0.8275
  807TIP3   OH2 2384   4.942   5.594   2.620 -0.2240  0.4362  0.0825
  807TIP3    H1 2385   4.947   5.498   2.612  0.7059  0.3967  0.9642
  807TIP3    H2 2386   4.851   5.611   2.645  0.1054 -0.4191  2.0755
  808TIP3   OH2 2387   5.047   2.756   5.878  0.3723  0.4378  0.0886
  808TIP3    H1 2388   5.015   2.830   5.827  1.1959 -0.0429 -1.1815
  808TIP3    H2 2389   4.983   2.687   5.864 -0.1723  0.7521  0.9299
  809TIP3   OH2 2390   0.510   5.077   0.088  0.0571 -0.0103  0.5752
  809TIP3    H1 2391   0.491   5.047   0.177 -1.2543  3.1478  1.4976
  809TIP3    H2 2392   0.605   5.089   0.087  0.1490 -0.5737  1.3611
  810TIP3   OH2 2393   2.911   0.764   2.882  0.1501 -0.2655  0.1950
  810TIP3    H1 2394   2.843   0.803   2.937  0.6687 -0.2318  0.8235
  810TIP3    H2 2395   2.992   0.780   2.929  0.8140  1.1239 -1.3295
  811TIP3   OH2 2396   0.832   5.746   5.630 -0.3206  0.0125 -0.1590
  811TIP3    H1 2397   0.860   5.837   5.626  0.4563 -0.2562 -2.5129
  811TIP3    H2 2398   0.742   5.750   5.663  0.0421  1.5080  0.7511
  812TIP3   OH2 2399   4.737   5.449   5.159  0.5137  0.0869 -0.2339
  812TIP3    H1 2400   4.685   5.441   5.239  0.8445  0.0228 -0.0271
  812TIP3    H2 2401   4.810   5.389   5.172  0.0069 -0.7311 -1.0254
  813TIP3   OH2 2402   2.578   1.918   1.219  0.7081  0.0086 -0.9038
  813TIP3    H1 2403   2.596   1.829   1.250 -1.9853  0.0356  1.1092
  813TIP3    H2 2404   2.659   1.966   1.237  0.7789 -1.0432  2.3684
  814TIP3   OH2 2405   0.420   5.822   1.302  0.7986 -0.6223  0.0783
  814TIP3    H1 2406   0.495   5.849   1.355  0.3575 -0.8220  0.8256
  814TIP3    H2 2407   0.347   5.818   1.364  0.0886 -0.0820 -0.7020
  815TIP3   OH2 2408   2.621   5.380   4.882 -0.5558  0.6431  0.4865
  815TIP3    H1 2409   2.716   5.391   4.877 -0.5240  1.1340  1.7517
  815TIP3    H2 2410   2.588   5.421   4.802  0.2137  1.7762  0.7247
  816TIP3   OH2 2411   4.881   5.219   0.587 -0.2274  0.4264  0.9548
  816TIP3    H1 2412   4.957   5.203   0.532  0.4017  2.7625  1.0308
  816TIP3    H2 2413   4.915   5.267   0.663 -1.4943 -0.2250  1.9956
  817TIP3   OH2 2414   2.004   1.691   1.939  0.0005 -0.2415  0.6542
  817TIP3    H1 2415   1.992   1.719   2.030  0.1202  0.4244  0.4748
  817TIP3    H2 2416   1.961   1.759   1.887  1.7369  0.5137  0.1383
  818TIP3   OH2 2417   6.131   1.537   5.255  0.6807  0.3202 -0.1743
  818TIP3    H1 2418   6.173   1.468   5.306  1.8458  0.4801 -0.8697
  818TIP3    H2 2419   6.065   1.574   5.314 -1.2532 -2.5287 -0.3521
  819TIP3   OH2 2420   2.043   2.189   4.046  0.0987  0.7900 -0.5969
  819TIP3    H1 2421   2.024   2.118   4.107 -0.0360 -0.1521 -1.6941
  819TIP3    H2 2422   2.088   2.256   4.099  0.7290 -0.3440  0.3361
  820TIP3   OH2 2423   3.198   4.017   3.478  0.3617 -0.0997 -0.1068
  820TIP3    H1 2424   3.108   4.049   3.475 -0.1089 -1.0822  2.0195
  820TIP3    H2 2425   3.234   4.040   3.392 -1.6069  1.1379 -0.6708
  821TIP3   OH2 2426   3.062   3.567   2.989  0.1284  0.7626 -0.8695
  821TIP3    H1 2427   3.032   3.612   3.067 -3.8650 -0.9688 -1.1637
  821TIP3    H2 2428   3.097   3.483   3.021  0.2237  0.8166 -0.8322
  822TIP3   OH2 2429   5.285   0.011   3.995 -0.3051  0.4690 -0.1584
  822TIP3    H1 2430   5.342   0.015   3.918 -1.0135  1.6382 -0.6590
  822TIP3    H2 2431   5.215   0.073   3.975 -0.8565  0.2970  1.1622
  823TIP3   OH2 2432   1.195   3.422   5.667 -0.3729 -0.6440  0.1535
  823TIP3    H1 2433   1.118   3.371   5.642 -0.0991 -1.6703  1.2953
  823TIP3    H2 2434   1.165   3.475   5.741 -0.6743  0.9882 -1.0559
  824TIP3   OH2 2435   5.926   6.109   2.288 -0.8441  0.0625 -0.1332
  824TIP3    H1 2436   5.908   6.052   2.213 -0.0202 -1.4475  0.7653
  824TIP3    H2 2437   5.849   6.164   2.296 -1.8359 -1.1787 -0.8506
  825TIP3   OH2 2438   3.133   0.262   5.562  0.4241 -0.2776 -0.7807
  825TIP3    H1 2439   3.105   0.175   5.533  1.2443  0.1119 -2.9358
  825TIP3    H2 2440   3.150   0.310   5.481  2.5528  1.0414  0.3397
  826TIP3   OH2 2441   2.005   4.837   2.048 -0.1896 -0.4994  0.0129
  826TIP3    H1 2442   2.081   4.880   2.008 -1.4153  0.4228 -1.4277
  826TIP3    H2 2443   2.029   4.826   2.140  1.1404  1.0159 -0.1106
  827TIP3   OH2 2444   6.662   1.921   5.418 -0.3162 -0.5044  0.2696
  827TIP3    H1 2445   6.626   1.928   5.506 -0.4055 -1.1211  0.2901
  827TIP3    H2 2446   6.631   1.835   5.387 -0.6409 -0.1136 -0.5163
  828TIP3   OH2 2447   1.130   3.707   1.755  0.2054 -0.3194 -0.1277
  828TIP3    H1 2448   1.154   3.790   1.713  0.2171 -0.2534  0.0096
  828TIP3    H2 2449   1.161   3.640   1.694  0.3516 -0.2268 -0.1573
  829TIP3   OH2 2450   0.194   2.156   2.856  0.2864  0.2081  0.6646
  829TIP3    H1 2451   0.233   2.099   2.922 -0.7198 -1.1608  0.1267
  829TIP3    H2 2452   0.193   2.243   2.897  1.1733 -0.2815  1.7911
  830TIP3   OH2 2453   2.763   4.566   5.645 -0.3071  0.0718 -0.1957
  830TIP3    H1 2454   2.751   4.586   5.552  0.9349 -0.5300 -0.4983
  830TIP3    H2 2455   2.851   4.528   5.651 -1.1206 -1.7941  0.9109
  831TIP3   OH2 2456   5.895   3.947   4.236  0.1243  0.3874  0.7255
  831TIP3    H1 2457   5.814   3.989   4.208  0.1169 -0.2770 -0.2939
  831TIP3    H2 2458   5.883   3.854   4.215  1.2138  0.3055  0.4036
  832TIP3   OH2 2459   5.126   1.407   0.431 -0.2036 -0.5550  0.0162
  832TIP3    H1 2460   5.090   1.496   0.435 -0.4388 -0.6918  1.5066
  832TIP3    H2 2461   5.218   1.418   0.453 -0.1199 -0.6315 -0.2895
  833TIP3   OH2 2462   0.286   1.078   2.752  0.4004 -0.1652  0.1247
  833TIP3    H1 2463   0.239   1.032   2.821  0.6647 -0.5292  0.0630
  833TIP3    H2 2464   0.346   1.013   2.716  0.8058  0.2354  0.0636
  834TIP3   OH2 2465   6.590   4.975   3.631  0.6476  0.2077  0.1569
  834TIP3    H1 2466   6.647   5.044   3.596 -0.1617  1.1451  0.6468
  834TIP3    H2 2467   6.559   4.928   3.554  1.4592  0.1757 -0.1643
  835TIP3   OH2 2468   3.353   4.372   0.280 -0.6011  0.2579  0.3510
  835TIP3    H1 2469   3.291   4.299   0.286  0.3491 -0.4902  1.7168
  835TIP3    H2 2470   3.329   4.418   0.200 -2.0478 -0.8005  0.1414
  836TIP3   OH2 2471   0.669   2.490   1.054 -0.1553 -0.7151 -0.1223
  836TIP3    H1 2472   0.621   2.418   1.094 -0.3460 -1.1805 -1.1745
  836TIP3    H2 2473   0.612   2.566   1.066 -0.6229 -1.0322 -0.3343
  837TIP3   OH2 2474   4.901   2.555   1.050  0.2605 -0.0305  0.2768
  837TIP3    H1 2475   4.883   2.602   0.968  0.9395 -3.6504 -2.2175
  837TIP3    H2 2476   4.815   2.538   1.088 -0.1328  0.9674 -0.1372
  838TIP3   OH2 2477   4.361   5.769   5.091  0.5981 -0.5055  0.3715
  838TIP3    H1 2478   4.324   5.747   5.005 -0.0937  1.1660  0.1962
  838TIP3    H2 2479   4.315   5.849   5.117  1.2241 -0.6406  2.0434
  839TIP3   OH2 2480   4.256   4.362   0.399 -0.1102 -0.2962 -0.5494
  839TIP3    H1 2481   4.208   4.444   0.411 -1.4589 -1.2625  1.1458
  839TIP3    H2 2482   4.288   4.340   0.487 -1.3640 -2.5008 -0.5677
  840TIP3   OH2 2483   4.817   0.260   1.820  0.1117  0.0634 -0.2369
  840TIP3    H1 2484   4.783   0.348   1.803  1.4228  1.0535  1.9408
  840TIP3    H2 2485   4.846   0.262   1.911  0.9797 -2.3790 -0.3849
  841TIP3   OH2 2486   2.937   6.114   4.706 -0.0897  0.0617 -0.7823
  841TIP3    H1 2487   2.996   6.153   4.770  1.1641 -2.0209 -0.5785
  841TIP3    H2 2488   2.993   6.058   4.653 -1.7718 -1.4345 -1.0532
  842TIP3   OH2 2489   4.436   6.645   5.054 -0.2352  0.2312  0.4026
  842TIP3    H1 2490   4.484   6.669   5.134  0.2494 -0.4641  0.3224
  842TIP3    H2 2491   4.409   6.729   5.017 -0.8072  0.5558  1.4985
  843TIP3   OH2 2492   3.100   1.690   2.866  0.1488 -0.3635 -0.3469
  843TIP3    H1 2493   3.098   1.598   2.893  0.9330 -0.0546  0.8937
  843TIP3    H2 2494   3.106   1.739   2.949 -1.1694  0.8547 -0.9256
  844TIP3   OH2 2495   2.464   3.756   1.344 -0.0944  0.2177 -0.2881
  844TIP3    H1 2496   2.377   3.795   1.353  0.4674  1.2090  1.2248
  844TIP3    H2 2497   2.523   3.831   1.344  0.7823 -0.4527 -1.2571
  845TIP3   OH2 2498   4.080   1.510   0.215 -0.7974 -0.7644  0.1113
  845TIP3    H1 2499   4.141   1.522   0.288 -1.2457  0.5980  0.2971
  845TIP3    H2 2500   4.088   1.418   0.192  0.1630 -0.9712  1.1649
  846TIP3   OH2 2501   4.256   4.965   2.227  0.0455 -0.2024  0.3116
  846TIP3    H1 2502   4.203   4.972   2.307  0.0591 -1.6165  0.4744
  846TIP3    H2 2503   4.277   4.872   2.221  1.0457  0.0728 -0.7102
  847TIP3   OH2 2504   3.311   5.019   2.024  0.3337 -0.0168 -0.3387
  847TIP3    H1 2505   3.383   5.070   1.985  0.8984 -0.8180 -0.3762
  847TIP3    H2 2506   3.311   5.044   2.116  1.7426 -1.1770  0.0251
  848TIP3   OH2 2507   7.088   3.502   5.214 -1.0427 -0.1073  0.8544
  848TIP3    H1 2508   7.090   3.471   5.124 -1.8246 -0.0019  0.8014
  848TIP3    H2 2509   7.042   3.433   5.262 -1.8806  0.4853  0.9185
  849TIP3   OH2 2510   6.909   3.866   5.516 -0.1688 -0.0581  0.1655
  849TIP3    H1 2511   6.912   3.781   5.471 -1.4227 -0.4580  0.7982
  849TIP3    H2 2512   6.968   3.856   5.591  0.1013 -0.1859 -0.0625
  850TIP3   OH2 2513   5.119   3.707   0.802 -0.3904  0.0521  0.0896
  850TIP3    H1 2514   5.102   3.696   0.708  2.0077  1.9133 -0.6644
  850TIP3    H2 2515   5.097   3.799   0.819 -1.1264 -0.3577  1.4669
  851TIP3   OH2 2516   6.740   4.518   3.847 -0.4610 -0.0592  0.0399
  851TIP3    H1 2517   6.663   4.568   3.876  1.6542  3.0119  0.8753
  851TIP3    H2 2518   6.751   4.452   3.914 -0.6900  1.3918  1.5827
  852TIP3   OH2 2519   2.032   1.379   3.654 -0.1032  0.5845 -0.0289
  852TIP3    H1 2520   2.035   1.452   3.715 -3.0529 -0.7264  1.9122
  852TIP3    H2 2521   2.044   1.301   3.709 -0.6383 -0.5638 -1.4787
  853TIP3   OH2 2522   6.355   5.273   4.231  0.1801 -0.5247  0.4979
  853TIP3    H1 2523   6.402   5.189   4.228  0.6504 -0.2509 -1.4522
  853TIP3    H2 2524   6.269   5.254   4.193  0.8377  0.1393 -1.4451
  854TIP3   OH2 2525   0.295   5.992   4.054  0.0185 -0.0801  0.3604
  854TIP3    H1 2526   0.352   6.056   4.011 -0.4147 -0.2938 -0.5485
  854TIP3    H2 2527   0.296   5.916   3.996 -1.0636 -0.1475  0.4208
  855TIP3   OH2 2528   2.308   0.146   5.804 -0.3323 -0.0429 -0.5456
  855TIP3    H1 2529   2.260   0.156   5.887  0.7175 -0.6181  0.1541
  855TIP3    H2 2530   2.380   0.209   5.811  1.3360 -1.9394  0.1790
  856TIP3   OH2 2531   7.165   2.393   3.380  0.0574 -0.7030 -0.2911
  856TIP3    H1 2532   7.183   2.302   3.405 -1.6938 -0.3587  2.8196
  856TIP3    H2 2533   7.070   2.402   3.390  0.2409  1.5506 -0.0594
  857TIP3   OH2 2534   5.924   1.485   5.425 -0.1881 -0.3496  0.0474
  857TIP3    H1 2535   5.896   1.399   5.457 -0.0442 -0.5907 -0.4698
  857TIP3    H2 2536   5.905   1.545   5.498 -3.3619 -0.2552 -0.7081
  858TIP3   OH2 2537   1.162   6.079   0.276 -0.0384 -0.1565  0.1515
  858TIP3    H1 2538   1.092   6.062   0.339 -0.4009  0.6530 -0.0110
  858TIP3    H2 2539   1.164   6.175   0.267  0.8420 -0.1870 -0.1287
  859TIP3   OH2 2540   1.426   1.484   3.684  0.2453 -0.4397  0.0390
  859TIP3    H1 2541   1.483   1.465   3.758 -0.3840 -3.2269 -0.0781
  859TIP3    H2 2542   1.354   1.534   3.721  0.3114 -1.1530  1.1757
  860TIP3   OH2 2543   4.679   4.909   4.479 -0.9814  0.1508 -0.1707
  860TIP3    H1 2544   4.587   4.887   4.494 -0.5249 -0.8840  1.3127
  860TIP3    H2 2545   4.697   4.982   4.537 -1.0009  0.7293 -0.8806
  861TIP3   OH2 2546   0.785   3.338   5.731  0.4658 -0.1163  0.6997
  861TIP3    H1 2547   0.697   3.323   5.695  0.1016 -1.5681  2.0867
  861TIP3    H2 2548   0.774   3.326   5.825  1.8918  1.0893  1.0472
  862TIP3   OH2 2549   1.080   4.675   3.925 -0.0971  0.6175  0.1886
  862TIP3    H1 2550   1.096   4.589   3.887 -0.1967  1.3859 -1.7028
  862TIP3    H2 2551   1.114   4.669   4.014  0.2797 -1.2345 -0.0473
  863TIP3   OH2 2552   2.438   2.451   4.833  0.0346  1.1115 -0.4171
  863TIP3    H1 2553   2.516   2.497   4.803  1.6647  0.0116  1.8261
  863TIP3    H2 2554   2.462   2.416   4.919 -1.5550 -2.6816 -1.3158
  864TIP3   OH2 2555   0.148   5.438   2.393  0.2245  0.0251  0.3989
  864TIP3    H1 2556   0.120   5.525   2.420  0.4865  0.1190  0.3655
  864TIP3    H2 2557   0.208   5.453   2.320  1.6701 -0.0913  1.5317
  865TIP3   OH2 2558   5.024   2.382   3.663 -0.7105 -0.3247  0.6394
  865TIP3    H1 2559   5.051   2.473   3.670 -0.0525 -0.4147 -0.5614
  865TIP3    H2 2560   5.060   2.352   3.580 -0.8559 -1.7066  1.0484
  866TIP3   OH2 2561   2.830   4.886   3.461  0.2839  0.2651  0.4017
  866TIP3    H1 2562   2.911   4.935   3.470  0.3593  0.1879  0.1599
  866TIP3    H2 2563   2.828   4.859   3.369  0.7051 -0.9756  0.7298
  867TIP3   OH2 2564   5.999   1.288   3.529  0.3523 -0.2884  0.6005
  867TIP3    H1 2565   5.942   1.248   3.594 -0.4105  0.0719  0.1612
  867TIP3    H2 2566   6.034   1.215   3.478  0.1625 -0.4939  0.7673
  868TIP3   OH2 2567   6.796   5.758   4.916 -0.8944  0.3273 -0.0937
  868TIP3    H1 2568   6.756   5.796   4.838  1.5150 -0.2446 -1.7092
  868TIP3    H2 2569   6.889   5.751   4.895 -0.1053  0.2719  2.9132
  869TIP3   OH2 2570   1.443   0.826   0.660  0.5676 -0.2624  0.1527
  869TIP3    H1 2571   1.408   0.806   0.574  1.8801 -0.2467 -0.4082
  869TIP3    H2 2572   1.421   0.749   0.713 -1.0545  0.1216  0.0798
  870TIP3   OH2 2573   6.361   5.754   3.823 -0.2725  0.0291  0.5483
  870TIP3    H1 2574   6.453   5.730   3.831 -0.6376 -1.5366  0.2928
  870TIP3    H2 2575   6.362   5.843   3.787  1.1297  0.1905  0.9596
  871TIP3   OH2 2576   1.186   1.549   0.785 -0.3549 -0.0995 -0.3040
  871TIP3    H1 2577   1.183   1.458   0.814  0.6824  0.0194  0.2239
  871TIP3    H2 2578   1.212   1.598   0.863 -4.4627  1.1643  0.5204
  872TIP3   OH2 2579   0.805   3.834   2.327  0.9424  0.1185  0.0603
  872TIP3    H1 2580   0.821   3.744   2.299 -1.5942 -0.5207  0.4181
  872TIP3    H2 2581   0.811   3.886   2.246 -0.0647 -0.7788 -0.6195
  873TIP3   OH2 2582   5.554   1.380   1.037 -0.2596 -0.1472  0.0405
  873TIP3    H1 2583   5.466   1.384   1.001 -0.4598  0.2296  0.5529
  873TIP3    H2 2584   5.544   1.410   1.128  0.0661 -1.9520  0.7146
  874TIP3   OH2 2585   1.244   4.977   3.025 -0.2312  0.0907  0.0009
  874TIP3    H1 2586   1.246   4.900   3.082 -1.0000  0.0920  0.0423
  874TIP3    H2 2587   1.151   4.998   3.016 -0.1376  0.0264 -1.3468
  875TIP3   OH2 2588   3.128   1.536   4.268  0.1278  0.0282  0.1095
  875TIP3    H1 2589   3.129   1.440   4.267 -1.4726 -0.1159  2.2379
  875TIP3    H2 2590   3.104   1.558   4.358  0.6165  2.4558 -0.2820
  876TIP3   OH2 2591   4.073   1.228   4.329 -0.0896  0.4819  0.7516
  876TIP3    H1 2592   4.066   1.258   4.239  2.8414  1.1187  0.6274
  876TIP3    H2 2593   4.080   1.133   4.322  2.5435  0.6421 -0.0320
  877TIP3   OH2 2594   5.590   6.375   3.981  0.2315 -0.1678 -0.1840
  877TIP3    H1 2595   5.657   6.310   4.002 -0.7759 -1.7385 -1.6574
  877TIP3    H2 2596   5.623   6.419   3.903 -0.3740 -0.8517 -0.8336
  878TIP3   OH2 2597   3.307   2.979   2.316  0.1040 -0.1136  0.1952
  878TIP3    H1 2598   3.328   2.904   2.371 -0.0054  2.0321  3.3787
  878TIP3    H2 2599   3.390   3.000   2.272  0.5876 -0.9450  0.6746
  879TIP3   OH2 2600   2.071   2.486   0.498  0.2288  0.0583  0.4260
  879TIP3    H1 2601   1.977   2.471   0.509  0.2765 -0.6872 -0.0669
  879TIP3    H2 2602   2.088   2.570   0.540 -0.9750  1.0821 -1.0657
  880TIP3   OH2 2603   3.163   4.226   5.345 -0.1643  0.3634  0.3410
  880TIP3    H1 2604   3.157   4.297   5.281  0.0776  1.2226  1.2506
  880TIP3    H2 2605   3.243   4.245   5.395  1.2571 -1.8548 -0.9070
  881TIP3   OH2 2606   5.073   4.838   4.307 -0.1580  0.0804 -0.3954
  881TIP3    H1 2607   5.043   4.804   4.222  1.4366 -0.2302 -0.8519
  881TIP3    H2 2608   5.012   4.799   4.370  0.1652 -1.7687 -1.1458
  882TIP3   OH2 2609   4.735   6.361   5.426  1.0413  0.3756 -0.5931
  882TIP3    H1 2610   4.784   6.303   5.368  0.3688 -0.2857 -0.5135
  882TIP3    H2 2611   4.749   6.325   5.514  0.4947  0.2447 -0.5600
  883TIP3   OH2 2612   6.728   2.995   2.848  0.7192  0.2038  0.3041
  883TIP3    H1 2613   6.807   2.944   2.830 -0.3334 -1.0290 -1.0834
  883TIP3    H2 2614   6.707   2.975   2.939  2.8682  1.8880  1.2953
  884TIP3   OH2 2615   2.360   5.799   2.078  0.1399  0.7179  0.5848
  884TIP3    H1 2616   2.266   5.818   2.081  0.3002  1.5528  3.7235
  884TIP3    H2 2617   2.378   5.756   2.161  2.6151  0.8963  0.2062
  885TIP3   OH2 2618   4.904   1.361   5.005  0.2227  0.7843 -0.1735
  885TIP3    H1 2619   4.943   1.444   5.031  2.2516 -0.1283 -0.1371
  885TIP3    H2 2620   4.869   1.376   4.917  0.9008  1.5628 -0.3085
  886TIP3   OH2 2621   5.380   5.274   2.108 -0.3262 -0.0564 -0.1388
  886TIP3    H1 2622   5.445   5.235   2.166 -0.3395  0.4025  0.1881
  886TIP3    H2 2623   5.345   5.348   2.157  0.2208  0.8211 -1.0442
  887TIP3   OH2 2624   7.137   3.432   4.246  0.2103 -0.1072 -0.1591
  887TIP3    H1 2625   7.113   3.341   4.259 -1.2103  0.1604 -0.6963
  887TIP3    H2 2626   7.079   3.462   4.176  2.0096  0.6738 -1.4026
  888TIP3   OH2 2627   2.284   1.417   3.462  0.2303  0.4628  0.7509
  888TIP3    H1 2628   2.207   1.473   3.448 -0.6370 -0.5636  1.2496
  888TIP3    H2 2629   2.251   1.346   3.518  1.1972 -0.7543 -0.1882
  889TIP3   OH2 2630   6.756   4.575   4.641  0.0399 -0.1198 -0.5744
  889TIP3    H1 2631   6.788   4.518   4.711  0.5478  0.9558  0.0875
  889TIP3    H2 2632   6.661   4.574   4.651  0.1202  0.3701  0.4397
  890TIP3   OH2 2633   3.776   3.517   5.645  0.1793 -0.2567  0.0816
  890TIP3    H1 2634   3.724   3.441   5.619 -0.4721  0.8915 -2.3186
  890TIP3    H2 2635   3.725   3.559   5.714 -1.0767 -0.2983 -0.7815
  891TIP3   OH2 2636   0.208   0.898   0.566  0.1836  0.0264 -0.2539
  891TIP3    H1 2637   0.166   0.821   0.529 -0.5422  1.2265 -2.0642
  891TIP3    H2 2638   0.228   0.954   0.491 -0.0400  1.9524  1.0257
  892TIP3   OH2 2639   1.196   1.728   4.455 -0.2922 -0.1707  0.2461
  892TIP3    H1 2640   1.235   1.756   4.538 -0.9262  0.1478  0.4448
  892TIP3    H2 2641   1.241   1.781   4.389 -0.2123  0.0159  0.4456
  893TIP3   OH2 2642   6.220   1.226   3.114 -0.3574 -0.7148  0.2158
  893TIP3    H1 2643   6.306   1.192   3.090  0.3561  1.2106 -0.1766
  893TIP3    H2 2644   6.165   1.207   3.038  0.3480  0.0794 -0.5191
  894TIP3   OH2 2645   3.987   6.728   3.535  0.1601 -0.1736 -0.4436
  894TIP3    H1 2646   3.970   6.803   3.592  0.0993  0.0327 -0.7259
  894TIP3    H2 2647   3.924   6.739   3.463  0.5176 -0.1918 -0.7648
  895TIP3   OH2 2648   3.202   2.060   4.859  0.4116 -0.3606 -0.2400
  895TIP3    H1 2649   3.274   2.012   4.900  0.8704 -0.0749 -0.7057
  895TIP3    H2 2650   3.146   1.993   4.821  0.2403 -0.6023  0.4210
  896TIP3   OH2 2651   5.821   3.792   0.125  0.0037  0.1195  0.1448
  896TIP3    H1 2652   5.734   3.807   0.161 -0.9766 -3.5564 -0.2669
  896TIP3    H2 2653   5.807   3.784   0.030  0.6364 -1.1549  0.1366
  897TIP3   OH2 2654   5.160   2.331   0.894  0.2224 -0.1505  0.3089
  897TIP3    H1 2655   5.084   2.384   0.867  0.1857  0.7093  1.9851
  897TIP3    H2 2656   5.184   2.366   0.980  2.3484 -0.6138 -0.0559
  898TIP3   OH2 2657   0.902   3.596   0.226 -0.1516 -0.0593 -0.1881
  898TIP3    H1 2658   0.971   3.563   0.283 -1.0545 -1.6138  0.0650
  898TIP3    H2 2659   0.944   3.603   0.140  0.8046  0.8229  0.3294
  899TIP3   OH2 2660   4.935   5.703   5.161 -0.3366 -0.1120  0.2168
  899TIP3    H1 2661   4.840   5.708   5.149 -0.6132 -1.5162  1.4838
  899TIP3    H2 2662   4.946   5.667   5.249  1.4053  3.3729  1.6046
  900TIP3   OH2 2663   1.206   6.725   5.699  0.3427  0.4197  0.1187
  900TIP3    H1 2664   1.119   6.764   5.697  0.8140  1.5938  1.0645
  900TIP3    H2 2665   1.266   6.800   5.701  1.3395 -0.3610  0.7029
  901TIP3   OH2 2666   3.396   5.640   0.701  0.2248  0.1468  0.3225
  901TIP3    H1 2667   3.345   5.602   0.771 -0.5164  0.3902 -0.0769
  901TIP3    H2 2668   3.385   5.580   0.627 -0.7200  0.9617 -0.2203
  902TIP3   OH2 2669   3.316   4.560   4.650 -0.0518  0.0780 -0.1882
  902TIP3    H1 2670   3.410   4.575   4.640  0.0769 -1.3297 -1.3833
  902TIP3    H2 2671   3.308   4.517   4.735  0.4284 -0.1044 -0.2293
  903TIP3   OH2 2672   1.089   2.363   0.150  0.1533 -0.5247  0.4722
  903TIP3    H1 2673   1.072   2.420   0.075  1.0339  0.6491  1.1223
  903TIP3    H2 2674   1.007   2.317   0.164  0.2971 -1.6129 -1.8799
  904TIP3   OH2 2675   1.291   5.937   4.942 -0.7324  0.2152 -0.4884
  904TIP3    H1 2676   1.317   6.024   4.912  0.6807  0.5296  1.4601
  904TIP3    H2 2677   1.374   5.891   4.958 -1.4096 -0.6204  0.8631
  905TIP3   OH2 2678   2.251   2.499   2.340 -0.2212 -0.3715  0.2672
  905TIP3    H1 2679   2.255   2.465   2.250  1.8604 -0.7776  0.4709
  905TIP3    H2 2680   2.242   2.420   2.394 -1.6031 -0.1186  0.4449
  906TIP3   OH2 2681   1.569   2.525   3.212  0.0423 -0.0232  0.6268
  906TIP3    H1 2682   1.636   2.566   3.267  0.4567  0.7203 -0.4048
  906TIP3    H2 2683   1.599   2.436   3.199  1.4833  0.6342 -0.8132
  907TIP3   OH2 2684   4.211   5.023   4.186  0.3593  0.0353 -0.3109
  907TIP3    H1 2685   4.293   5.065   4.158  1.0580 -0.5962  0.7430
  907TIP3    H2 2686   4.147   5.050   4.119  1.1017  1.6191 -0.4401
  908TIP3   OH2 2687   4.985   4.639   5.205 -0.3338 -0.3345  0.3871
  908TIP3    H1 2688   4.961   4.624   5.113  0.8999 -2.2204  0.3250
  908TIP3    H2 2689   4.901   4.643   5.251 -0.9827  1.0144 -0.8387
  909TIP3   OH2 2690   3.203   1.030   2.313 -0.0830  0.1831  0.0271
  909TIP3    H1 2691   3.249   0.949   2.289  0.2980  0.0075  1.2985
  909TIP3    H2 2692   3.270   1.084   2.355 -0.1744  1.4417 -1.3467
  910TIP3   OH2 2693   3.943   2.740   4.158  0.7950 -0.0488 -0.1715
  910TIP3    H1 2694   3.894   2.658   4.145  0.4287  0.0274  0.7219
  910TIP3    H2 2695   4.027   2.712   4.195  0.6154 -0.0130  0.2669
  911TIP3   OH2 2696   5.169   0.845   2.718  0.0463  0.4418  0.1620
  911TIP3    H1 2697   5.113   0.849   2.640 -0.1334 -1.9012  0.0914
  911TIP3    H2 2698   5.235   0.779   2.696  1.1618  1.1530  1.2976
  912TIP3   OH2 2699   2.121   0.296   3.327  0.0361  0.5550 -0.0052
  912TIP3    H1 2700   2.075   0.255   3.400  1.8860  1.6821  1.8953
  912TIP3    H2 2701   2.193   0.237   3.307  0.8061  1.2819  0.5640
  913TIP3   OH2 2702   2.489   5.316   2.896  0.1361  0.3345  0.0660
  913TIP3    H1 2703   2.518   5.302   2.986  1.5816  0.4912 -0.3567
  913TIP3    H2 2704   2.480   5.411   2.888  1.8362  0.4975 -0.4524
  914TIP3   OH2 2705   3.121   6.412   0.139 -0.1992 -0.5566  0.8555
  914TIP3    H1 2706   3.189   6.441   0.079  1.0546 -3.3465  0.7714
  914TIP3    H2 2707   3.116   6.318   0.126 -3.0926 -0.6582  1.9383
  915TIP3   OH2 2708   1.345   2.392   4.608 -0.4790  0.5433 -0.3415
  915TIP3    H1 2709   1.376   2.409   4.519 -2.8899 -1.2387 -1.6576
  915TIP3    H2 2710   1.406   2.439   4.665  1.4725  1.2987 -2.8882
  916TIP3   OH2 2711   3.951   0.753   4.668 -0.5321  0.2179  0.0709
  916TIP3    H1 2712   3.896   0.823   4.703 -0.0395 -0.2835  1.9601
  916TIP3    H2 2713   3.892   0.678   4.658 -0.7804  0.5080 -0.6858
  917TIP3   OH2 2714   5.741   3.176   5.438  0.1710 -0.2750 -0.6776
  917TIP3    H1 2715   5.815   3.115   5.449  0.0446 -0.9750 -3.1225
  917TIP3    H2 2716   5.765   3.229   5.362 -1.3205  0.3090 -0.7589
  918TIP3   OH2 2717   5.396   1.726   3.097 -0.4130 -0.1163  0.2963
  918TIP3    H1 2718   5.357   1.790   3.157 -1.7020  0.3777 -0.9860
  918TIP3    H2 2719   5.353   1.643   3.119 -2.5414  0.4742 -1.2828
  919TIP3   OH2 2720   5.206   4.995   1.705 -0.1056  0.1884  0.2417
  919TIP3    H1 2721   5.216   5.039   1.790 -1.6799 -0.2575  0.6817
  919TIP3    H2 2722   5.146   5.050   1.656 -0.3103 -0.2890 -0.0501
  920TIP3   OH2 2723   3.984   6.415   0.729  0.0867 -0.0054 -0.0439
  920TIP3    H1 2724   4.044   6.372   0.790  0.8279  1.2406  0.1416
  920TIP3    H2 2725   3.995   6.367   0.647 -0.7928 -1.5864  0.7221
  921TIP3   OH2 2726   6.592   4.058   0.319 -0.1761  0.1501  0.4211
  921TIP3    H1 2727   6.586   4.018   0.233  0.4140 -0.2123  0.5446
  921TIP3    H2 2728   6.579   3.986   0.381  1.2934  0.0509  0.6471
  922TIP3   OH2 2729   6.844   0.116   3.419  0.0249  0.7432 -0.0260
  922TIP3    H1 2730   6.855   0.167   3.500  0.9358  1.3691 -0.5273
  922TIP3    H2 2731   6.884   0.031   3.439  0.1495  0.8554  0.2086
  923TIP3   OH2 2732   5.088   3.899   5.783  0.0559 -0.1648  0.4290
  923TIP3    H1 2733   5.006   3.853   5.800 -0.4287  0.9147  1.1235
  923TIP3    H2 2734   5.149   3.862   5.847 -0.3678  0.2299  1.0803
  924TIP3   OH2 2735   6.692   3.526   2.572 -0.7900 -0.0962  0.0670
  924TIP3    H1 2736   6.733   3.448   2.607  1.2713  1.1048  0.4756
  924TIP3    H2 2737   6.622   3.547   2.635 -0.7376 -1.0514  0.4504
  925TIP3   OH2 2738   5.456   1.392   1.495 -0.0568 -0.9739 -0.4246
  925TIP3    H1 2739   5.380   1.362   1.546 -0.3820 -2.6403 -1.8113
  925TIP3    H2 2740   5.418   1.431   1.417  0.4576  1.1026  0.3086
  926TIP3   OH2 2741   0.372   6.481   5.735  0.1109  0.5427  0.1698
  926TIP3    H1 2742   0.329   6.430   5.666  1.1010 -0.1690  0.0564
  926TIP3    H2 2743   0.405   6.559   5.690  0.3320  0.3130 -0.0700
  927TIP3   OH2 2744   5.135   1.335   2.579  0.9572 -0.1257  0.1315
  927TIP3    H1 2745   5.128   1.406   2.515  0.4674 -1.9982 -1.9939
  927TIP3    H2 2746   5.170   1.261   2.530  0.7318 -1.6175  2.0833
  928TIP3   OH2 2747   1.659   4.510   4.348 -0.1277  0.4920  0.0967
  928TIP3    H1 2748   1.724   4.503   4.418  0.7931  0.4717 -0.7396
  928TIP3    H2 2749   1.651   4.421   4.314  0.5745  0.7592 -0.8139
  929TIP3   OH2 2750   6.720   1.906   1.663 -0.5273 -0.3387 -0.2432
  929TIP3    H1 2751   6.696   1.860   1.583  0.6536 -1.9906  0.3092
  929TIP3    H2 2752   6.800   1.954   1.639 -0.3114 -0.6396 -0.1364
  930TIP3   OH2 2753   2.030   0.723   3.250 -0.2010  0.5290  0.0400
  930TIP3    H1 2754   2.104   0.713   3.190  1.1143  3.4348  0.9731
  930TIP3    H2 2755   2.058   0.680   3.331 -0.3478 -0.0638 -0.2268
  931TIP3   OH2 2756   1.603   6.563   3.462 -0.2221  0.0306  0.0809
  931TIP3    H1 2757   1.625   6.542   3.371 -0.1968 -2.5732  0.6151
  931TIP3    H2 2758   1.683   6.605   3.496 -0.2279  1.0234 -1.0420
  932TIP3   OH2 2759   1.249   3.236   5.445 -0.1963 -0.0546  0.0513
  932TIP3    H1 2760   1.251   3.326   5.412  1.7984  0.3959  1.2032
  932TIP3    H2 2761   1.166   3.231   5.494 -0.6649  0.9122 -0.6020
  933TIP3   OH2 2762   1.809   6.251   1.481  0.4070 -0.2118  1.3423
  933TIP3    H1 2763   1.891   6.263   1.530  0.5932 -1.2417  1.2955
  933TIP3    H2 2764   1.835   6.202   1.403  0.1099  1.3778  0.1880
  934TIP3   OH2 2765   1.882   2.166   5.802  0.1169  0.2586  0.4211
  934TIP3    H1 2766   1.977   2.173   5.804  0.1611  0.6206 -1.3168
  934TIP3    H2 2767   1.864   2.115   5.723 -1.0541 -1.9952  2.0512
  935TIP3   OH2 2768   2.016   6.148   3.808  0.3546  0.1140 -0.7756
  935TIP3    H1 2769   1.926   6.166   3.835  0.4037  1.5793 -1.5224
  935TIP3    H2 2770   2.020   6.052   3.802 -0.4419 -0.1285  1.6020
  936TIP3   OH2 2771   3.153   3.267   0.315 -0.1433  0.2026 -0.3140
  936TIP3    H1 2772   3.079   3.275   0.375  0.5228  0.8521  0.4421
  936TIP3    H2 2773   3.163   3.172   0.301 -1.5937  0.1377 -1.0560
  937TIP3   OH2 2774   3.226   5.407   4.326  0.5170  0.1964 -0.4283
  937TIP3    H1 2775   3.163   5.479   4.320  1.5037  1.2958  1.4249
  937TIP3    H2 2776   3.180   5.337   4.371  0.5192  0.9299  0.7666
  938TIP3   OH2 2777   1.218   1.912   5.524 -0.1671  0.1020  0.0479
  938TIP3    H1 2778   1.137   1.947   5.486  0.1081  0.4615 -0.2160
  938TIP3    H2 2779   1.194   1.826   5.559 -1.1961  1.0742  1.8830
  939TIP3   OH2 2780   6.443   1.043   5.452  0.1102  0.0508 -0.2903
  939TIP3    H1 2781   6.473   0.952   5.452  0.1367  0.0599 -0.1773
  939TIP3    H2 2782   6.365   1.042   5.396  0.7755  0.1761 -1.2385
  940TIP3   OH2 2783   5.602   6.675   0.540 -0.3966 -0.0191 -0.0001
  940TIP3    H1 2784   5.672   6.702   0.599 -1.5263 -0.6663  1.7270
  940TIP3    H2 2785   5.524   6.720   0.574 -1.0854 -0.4131 -1.0105
  941TIP3   OH2 2786   0.676   4.982   1.185  0.4375  0.6837 -0.5309
  941TIP3    H1 2787   0.612   4.914   1.207  3.4918 -1.5455  2.6505
  941TIP3    H2 2788   0.634   5.064   1.213 -1.7711 -0.3412 -0.5933
  942TIP3   OH2 2789   2.469   3.603   3.784  0.6035  0.1860  0.2172
  942TIP3    H1 2790   2.535   3.539   3.755  0.0832  0.1791 -1.0129
  942TIP3    H2 2791   2.491   3.620   3.876  1.2486 -1.1498  0.3422
  943TIP3   OH2 2792   6.750   2.794   3.556 -0.0568  0.3605 -0.0085
  943TIP3    H1 2793   6.819   2.859   3.542  0.0200  0.3636  0.3768
  943TIP3    H2 2794   6.752   2.741   3.476  0.1182  0.6100 -0.1746
  944TIP3   OH2 2795   6.534   2.617   3.187  0.3067 -0.0921 -0.2548
  944TIP3    H1 2796   6.571   2.552   3.127 -0.8101 -1.5168  0.5324
  944TIP3    H2 2797   6.486   2.565   3.251 -1.1646  1.5584  0.0491
  945TIP3   OH2 2798   0.272   2.033   4.549 -0.0852  0.0376 -0.7272
  945TIP3    H1 2799   0.290   2.060   4.459 -0.8348 -0.7566 -1.1267
  945TIP3    H2 2800   0.180   2.055   4.563 -0.2153 -0.6451 -0.4564
  946TIP3   OH2 2801   4.625   0.632   3.391 -0.2712  0.3855 -0.2562
  946TIP3    H1 2802   4.698   0.579   3.359 -0.7818 -0.2723 -0.3484
  946TIP3    H2 2803   4.612   0.698   3.323  0.5883  0.8518  0.0175
  947TIP3   OH2 2804   3.554   0.052   0.897  0.5322 -0.5067 -0.2565
  947TIP3    H1 2805   3.482   0.052   0.833  0.5834 -2.8829 -0.4149
  947TIP3    H2 2806   3.557  -0.038   0.929  2.0066  0.0833  1.4234
  948TIP3   OH2 2807   2.653   2.964   1.271 -0.5278  0.1003 -0.1526
  948TIP3    H1 2808   2.634   3.044   1.224 -0.0417  0.4705  0.2575
  948TIP3    H2 2809   2.573   2.945   1.320 -0.3386  0.8514  0.4676
  949TIP3   OH2 2810   5.106   5.923   5.299 -0.1600 -0.1645  0.2293
  949TIP3    H1 2811   5.053   5.853   5.260 -0.8319  0.1149  0.6240
  949TIP3    H2 2812   5.043   5.976   5.348  0.4671  0.2600  0.5859
  950TIP3   OH2 2813   3.668   4.054   4.600 -0.3418 -0.3305 -0.2127
  950TIP3    H1 2814   3.706   4.073   4.514 -0.1508 -0.5157 -0.1716
  950TIP3    H2 2815   3.610   4.127   4.618 -0.8449 -0.5842 -0.7706
  951TIP3   OH2 2816   4.596   5.309   3.269  0.1876 -0.4972  0.0095
  951TIP3    H1 2817   4.633   5.241   3.325 -1.5026  0.4469  2.4153
  951TIP3    H2 2818   4.671   5.366   3.249  0.8785 -0.9750  1.1319
  952TIP3   OH2 2819   6.931   4.816   4.085 -0.0655 -0.2185 -0.0803
  952TIP3    H1 2820   6.931   4.720   4.084  0.5426 -0.2613  1.1803
  952TIP3    H2 2821   7.023   4.840   4.100 -0.1452  0.5791 -0.7781
  953TIP3   OH2 2822   6.527   0.146   3.200 -0.3005 -0.5064 -0.1399
  953TIP3    H1 2823   6.514   0.057   3.231 -1.4512 -0.7755 -1.3033
  953TIP3    H2 2824   6.464   0.199   3.249 -0.7828 -0.6171 -0.6325
  954TIP3   OH2 2825   6.750   4.377   0.440 -0.0692  0.4916  0.4036
  954TIP3    H1 2826   6.709   4.368   0.354  0.3009  0.7784  0.1993
  954TIP3    H2 2827   6.836   4.415   0.423  0.5256 -0.6237  0.7709
  955TIP3   OH2 2828   4.008   4.880   3.201  0.5904  0.0451 -0.1912
  955TIP3    H1 2829   4.018   4.822   3.125  0.1380 -0.2902  0.0025
  955TIP3    H2 2830   3.977   4.963   3.164 -2.3693 -0.9157 -0.1640
  956TIP3   OH2 2831   1.405   2.572   1.425  0.4168 -0.5340 -0.0958
  956TIP3    H1 2832   1.367   2.649   1.466 -0.0510 -0.9092  0.1923
  956TIP3    H2 2833   1.450   2.605   1.348 -0.6733 -0.0833 -0.5664
  957TIP3   OH2 2834   5.346   6.443   0.890  0.3741  0.1841 -0.1738
  957TIP3    H1 2835   5.341   6.348   0.902  0.0792 -0.2538 -3.0757
  957TIP3    H2 2836   5.439   6.461   0.873  0.2607  0.2208 -0.7850
  958TIP3   OH2 2837   2.948   2.196   3.520  0.1248 -0.3524  0.4828
  958TIP3    H1 2838   2.917   2.117   3.564  3.7020 -1.6632  0.9817
  958TIP3    H2 2839   3.038   2.207   3.550  0.2900  3.0690 -0.7936
  959TIP3   OH2 2840   3.264   2.497   3.959  0.0978 -0.2842  0.2423
  959TIP3    H1 2841   3.201   2.491   3.888 -1.4679 -0.5053  1.5984
  959TIP3    H2 2842   3.349   2.499   3.915 -0.8668  1.7824 -1.7128
  960TIP3   OH2 2843   0.403   4.135   2.538 -0.0140 -0.5089  0.3870
  960TIP3    H1 2844   0.364   4.048   2.545  0.7526 -0.8596  0.3476
  960TIP3    H2 2845   0.474   4.135   2.602  0.8702 -0.4052 -0.5677
  961TIP3   OH2 2846   2.278   2.456   2.048  0.1572 -0.5128  0.1119
  961TIP3    H1 2847   2.228   2.429   1.971 -0.9274  1.7725 -0.0670
  961TIP3    H2 2848   2.368   2.461   2.016 -0.4665  1.9564 -1.5658
  962TIP3   OH2 2849   7.048   4.212   3.752  0.2990  0.0776  0.0420
  962TIP3    H1 2850   7.124   4.170   3.711 -0.6695 -1.9356  0.1421
  962TIP3    H2 2851   6.979   4.204   3.686  0.2910  2.4724 -0.3142
  963TIP3   OH2 2852   5.977   3.501   0.094 -0.0156  0.1590  0.1209
  963TIP3    H1 2853   5.892   3.461   0.107  0.5533 -1.0144  0.3432
  963TIP3    H2 2854   5.962   3.595   0.109 -1.5821  0.2103 -1.4050
  964TIP3   OH2 2855   5.345   5.148   1.055 -0.3025  0.3539  0.0793
  964TIP3    H1 2856   5.402   5.079   1.090 -0.3815  0.7664  1.0430
  964TIP3    H2 2857   5.256   5.120   1.076 -0.5999 -0.8164 -2.3447
  965TIP3   OH2 2858   0.109   6.641   2.677 -0.0340  0.1913  0.2799
  965TIP3    H1 2859   0.168   6.678   2.611  0.6493 -0.7899  0.3360
  965TIP3    H2 2860   0.039   6.707   2.685 -0.1606  0.3258 -1.4531
  966TIP3   OH2 2861   5.839   4.353   5.016  0.4205  0.3147  0.0247
  966TIP3    H1 2862   5.920   4.303   5.008  1.5513  2.0667  0.2241
  966TIP3    H2 2863   5.843   4.418   4.945 -2.1814 -1.3393 -1.8520
  967TIP3   OH2 2864   0.894   4.684   4.792 -0.9124  0.1470 -0.2888
  967TIP3    H1 2865   0.863   4.733   4.868 -1.0420  0.5575 -0.6018
  967TIP3    H2 2866   0.817   4.638   4.760 -0.7873 -0.2736  0.0138
  968TIP3   OH2 2867   2.176   0.821   1.455 -0.3315 -0.2632  0.0926
  968TIP3    H1 2868   2.186   0.817   1.360  0.8174 -0.0786  0.1956
  968TIP3    H2 2869   2.087   0.855   1.468  0.2163  1.6765 -0.9264
  969TIP3   OH2 2870   6.584   1.484   1.467 -0.6577 -0.0108  0.1530
  969TIP3    H1 2871   6.539   1.402   1.485  1.8057 -1.3255  0.7310
  969TIP3    H2 2872   6.638   1.466   1.391  0.2608  0.9482  0.5535
  970TIP3   OH2 2873   0.598   4.493   3.690 -0.4652  0.1036  0.0478
  970TIP3    H1 2874   0.653   4.555   3.737 -0.8029  1.1277 -0.8486
  970TIP3    H2 2875   0.515   4.539   3.677 -0.0982  0.2596 -2.2890
  971TIP3   OH2 2876   4.612   0.006   2.089 -0.0625 -0.1632  0.3304
  971TIP3    H1 2877   4.518  -0.000   2.103  0.1061 -0.2117  1.5333
  971TIP3    H2 2878   4.630   0.100   2.092 -0.0942 -0.1424 -0.0832
  972TIP3   OH2 2879   3.021   3.307   3.839 -0.0131 -0.1203 -0.0834
  972TIP3    H1 2880   3.089   3.291   3.773  0.4889  0.0302  0.3914
  972TIP3    H2 2881   2.942   3.270   3.801  0.3407 -0.3154 -0.6400
  973TIP3   OH2 2882   2.190   3.004   0.058 -0.0501 -0.0128  0.1662
  973TIP3    H1 2883   2.096   3.003   0.075 -0.2580 -0.5758 -0.9846
  973TIP3    H2 2884   2.202   3.073  -0.008  0.6041  1.3220  1.5853
  974TIP3   OH2 2885   0.085   0.334   4.882  0.1091 -0.2178 -0.2634
  974TIP3    H1 2886  -0.006   0.351   4.861 -0.3829 -1.9879  0.2285
  974TIP3    H2 2887   0.131   0.414   4.857 -1.2641 -0.0201 -2.3868
  975TIP3   OH2 2888   1.463   0.856   0.986  0.3865 -0.1117 -0.2077
  975TIP3    H1 2889   1.431   0.777   0.942 -1.3806  0.5181 -0.1465
  975TIP3    H2 2890   1.558   0.852   0.977  0.3096 -2.0093 -0.5929
  976TIP3   OH2 2891   1.540   4.800   4.148  0.1763  0.6156 -0.2971
  976TIP3    H1 2892   1.552   4.823   4.056  0.5559 -1.8894 -0.9297
  976TIP3    H2 2893   1.628   4.786   4.182 -0.0557 -0.9238 -0.2605
  977TIP3   OH2 2894   4.613   6.148   1.175  0.3090  0.0340 -0.0964
  977TIP3    H1 2895   4.589   6.238   1.197 -0.4986 -0.1087 -0.3478
  977TIP3    H2 2896   4.650   6.153   1.087  0.5550  0.1678  0.0168
  978TIP3   OH2 2897   6.253   0.769   3.138  0.0559 -0.7104 -0.1037
  978TIP3    H1 2898   6.306   0.826   3.082 -0.4159  0.2386  0.3871
  978TIP3    H2 2899   6.295   0.684   3.132  1.7442  0.0456  0.3907
  979TIP3   OH2 2900   2.318   1.845   1.780  0.2313  0.3554 -0.5290
  979TIP3    H1 2901   2.279   1.759   1.797 -0.7798  1.0514  0.8651
  979TIP3    H2 2902   2.383   1.829   1.711  0.0407 -1.5078 -0.3201
  980TIP3   OH2 2903   2.624   2.590   3.919 -0.4115  0.5950  0.2605
  980TIP3    H1 2904   2.716   2.593   3.948 -0.2612 -1.3741  0.1691
  980TIP3    H2 2905   2.629   2.560   3.828 -1.1589 -0.4640  0.5521
  981TIP3   OH2 2906   3.558   5.832   3.536  0.1131  0.0653 -0.4471
  981TIP3    H1 2907   3.554   5.883   3.616  0.9863  0.1388 -0.4424
  981TIP3    H2 2908   3.467   5.825   3.507 -0.3929 -1.1621  1.2930
  982TIP3   OH2 2909   1.960   2.908   0.499  0.1356  0.4680 -0.5609
  982TIP3    H1 2910   1.917   2.929   0.416 -1.1221  1.9208  0.4136
  982TIP3    H2 2911   1.928   2.974   0.561  1.7382 -0.0143  0.8817
  983TIP3   OH2 2912   4.377   5.610   0.694 -0.3022  0.3215  0.1638
  983TIP3    H1 2913   4.298   5.575   0.654  1.4627 -2.3564 -1.3132
  983TIP3    H2 2914   4.420   5.533   0.733  0.5171  2.0386  2.9273
  984TIP3   OH2 2915   6.309   1.695   3.338  0.0096 -0.1974  0.0591
  984TIP3    H1 2916   6.360   1.760   3.386  1.0005 -0.4484 -0.6365
  984TIP3    H2 2917   6.285   1.630   3.404  2.1009 -0.9935  0.0936
  985TIP3   OH2 2918   6.325   0.716   4.455  0.0076 -0.0577  0.0419
  985TIP3    H1 2919   6.229   0.711   4.451 -0.1020  0.2283  1.5995
  985TIP3    H2 2920   6.353   0.715   4.363 -1.6155  2.1004 -0.5615
  986TIP3   OH2 2921   3.788   0.669   4.279  0.2287  0.3335 -0.4796
  986TIP3    H1 2922   3.871   0.622   4.289 -0.7211 -1.4114 -0.3495
  986TIP3    H2 2923   3.807   0.738   4.216  1.5648 -0.5927 -1.1458
  987TIP3   OH2 2924   2.329   2.166   5.622 -0.4315  0.3606 -0.0764
  987TIP3    H1 2925   2.409   2.181   5.672 -0.5497  0.9588 -0.0591
  987TIP3    H2 2926   2.353   2.188   5.531 -0.2590 -0.5786 -0.2671
  988TIP3   OH2 2927   1.675   4.705   3.779 -0.3660 -0.1086  0.3264
  988TIP3    H1 2928   1.745   4.730   3.839  1.0926 -1.6597 -0.6157
  988TIP3    H2 2929   1.664   4.611   3.793  0.2509 -0.5945 -1.9960
  989TIP3   OH2 2930   1.733   6.051   0.333 -0.8009 -0.1400 -0.4754
  989TIP3    H1 2931   1.787   6.019   0.260  0.3002 -1.4746  0.8487
  989TIP3    H2 2932   1.660   5.990   0.337  0.4400 -1.5982  1.0304
  990TIP3   OH2 2933   2.178   6.032   0.246 -0.2219 -0.1371 -0.2348
  990TIP3    H1 2934   2.244   5.968   0.271 -2.0629 -1.6551  1.0075
  990TIP3    H2 2935   2.189   6.103   0.310  0.1613 -0.4113  0.0096
  991TIP3   OH2 2936   5.939   0.451   0.208 -0.0272 -0.5424 -0.2476
  991TIP3    H1 2937   5.898   0.535   0.188  0.6527 -0.3103 -0.6788
  991TIP3    H2 2938   5.919   0.396   0.132 -0.7009 -0.8711  0.1507
  992TIP3   OH2 2939   6.793   0.104   4.979  0.1485  0.3565  0.0040
  992TIP3    H1 2940   6.829   0.183   5.020 -1.6924  1.6352 -0.6939
  992TIP3    H2 2941   6.719   0.136   4.928 -1.3294 -1.9732  0.5467
  993TIP3   OH2 2942   6.897   3.609   5.423 -0.8249  0.0354  0.6502
  993TIP3    H1 2943   6.882   3.584   5.332  0.6030  1.0573  0.0941
  993TIP3    H2 2944   6.941   3.533   5.462 -2.1199 -0.7027  0.7246
  994TIP3   OH2 2945   1.463   4.568   4.637 -0.0855 -0.2696  0.0244
  994TIP3    H1 2946   1.546   4.520   4.648  0.7096  1.3473  1.8077
  994TIP3    H2 2947   1.403   4.526   4.699  0.2903  0.3110  0.8059
  995TIP3   OH2 2948   6.941   4.252   3.022 -0.4550 -0.3296 -0.2903
  995TIP3    H1 2949   6.981   4.285   3.103 -1.3365  0.8154 -0.2918
  995TIP3    H2 2950   7.003   4.187   2.989  1.9565  2.0826 -0.8513
  996TIP3   OH2 2951   5.767   2.619   4.090 -0.0762  0.1894 -0.0196
  996TIP3    H1 2952   5.766   2.651   4.000 -1.0218  0.6633  0.1471
  996TIP3    H2 2953   5.676   2.624   4.119  0.2388  0.2263  1.0328
  997TIP3   OH2 2954   4.062   5.144   4.016 -0.5155  0.2190  0.2066
  997TIP3    H1 2955   4.046   5.229   4.055  0.5221  1.3351 -1.6581
  997TIP3    H2 2956   4.011   5.145   3.935 -0.4845 -0.9416  0.1504
  998TIP3   OH2 2957   0.098   2.086   1.795  0.2616 -1.0688 -0.1918
  998TIP3    H1 2958   0.158   2.141   1.745 -0.0102 -1.1418 -0.6067
  998TIP3    H2 2959   0.038   2.148   1.836  1.1449 -0.9396  0.9406
  999TIP3   OH2 2960   1.217   2.680   4.924 -0.0140 -0.2806  0.6383
  999TIP3    H1 2961   1.178   2.602   4.884  0.2318 -0.3305  0.4926
  999TIP3    H2 2962   1.144   2.739   4.938  0.1383  0.5815 -1.7906
 1000TIP3   OH2 2963   1.588   1.582   4.782 -0.0617 -0.0931  0.3586
 1000TIP3    H1 2964   1.516   1.643   4.767  0.8168  1.0752  0.7939
 1000TIP3    H2 2965   1.646   1.627   4.843  0.7332 -1.2704  0.5075
 1001TIP3   OH2 2966   0.690   6.708   4.878  0.6975 -0.5879  0.0833
 1001TIP3    H1 2967   0.658   6.679   4.793  0.1913 -0.7033  0.3115
 1001TIP3    H2 2968   0.750   6.780   4.857 -0.5076  0.3345 -0.3006
 1002TIP3   OH2 2969   2.266   2.065   4.537 -0.1771  0.2449  0.6132
 1002TIP3    H1 2970   2.185   2.070   4.487  0.2189 -0.9801 -0.2203
 1002TIP3    H2 2971   2.324   2.011   4.483  0.8779  0.3367  1.6054
 1003TIP3   OH2 2972   1.080   6.492   4.727 -0.3944 -0.0410  0.4713
 1003TIP3    H1 2973   1.022   6.528   4.795 -1.4094  1.1933 -0.9818
 1003TIP3    H2 2974   1.030   6.420   4.688  0.8673 -1.8947  2.0816
 1004TIP3   OH2 2975   3.158  -0.010   3.759  0.2759 -0.2748 -0.1238
 1004TIP3    H1 2976   3.141  -0.043   3.847  1.4053 -1.6293 -0.3829
 1004TIP3    H2 2977   3.191   0.079   3.773 -1.1167  0.1469  0.6941
 1005TIP3   OH2 2978   5.847   1.516   3.350  0.3997  0.2420  0.7918
 1005TIP3    H1 2979   5.805   1.596   3.380 -4.6892 -2.2252  1.2911
 1005TIP3    H2 2980   5.914   1.497   3.416  1.5027  3.6974  0.8516
 1006TIP3   OH2 2981   0.889   1.771   1.681 -0.2074 -0.4170 -0.2083
 1006TIP3    H1 2982   0.831   1.779   1.606 -0.6367 -0.0362  0.1564
 1006TIP3    H2 2983   0.966   1.725   1.648 -0.6874 -0.8724 -0.7101
 1007TIP3   OH2 2984   4.442   5.853   3.274 -0.2413 -0.0803  0.1990
 1007TIP3    H1 2985   4.431   5.790   3.345 -1.7512 -0.0615  0.0200
 1007TIP3    H2 2986   4.397   5.932   3.306  0.1965  0.3580 -0.2529
 1008TIP3   OH2 2987   4.883   5.128   2.983  0.0878  0.0363  0.0541
 1008TIP3    H1 2988   4.873   5.038   3.014 -1.7904  0.5808  1.2187
 1008TIP3    H2 2989   4.977   5.146   2.990  0.0345 -0.2716  4.6216
 1009TIP3   OH2 2990   3.458   2.793   1.845 -0.2119 -0.3207 -0.0031
 1009TIP3    H1 2991   3.467   2.847   1.767  0.2465 -0.8790 -0.3471
 1009TIP3    H2 2992   3.527   2.726   1.836  0.2045 -0.0704  1.1402
 1010TIP3   OH2 2993   3.148   1.774   4.905  0.3374  0.1765  0.4135
 1010TIP3    H1 2994   3.054   1.787   4.921  0.2036  0.4461 -0.5554
 1010TIP3    H2 2995   3.177   1.721   4.979 -1.1855 -2.3871 -0.6938
 1011TIP3   OH2 2996   1.922   5.150   5.139  0.1303 -0.1965  0.8323
 1011TIP3    H1 2997   1.916   5.076   5.200  2.0418 -1.3779 -0.3022
 1011TIP3    H2 2998   2.007   5.189   5.157 -0.3382  0.9993  0.5608
 1012TIP3   OH2 2999   6.075   4.225   0.425  0.7992 -0.0011 -0.0757
 1012TIP3    H1 3000   6.152   4.199   0.476  1.2227  0.3772 -0.5181
 1012TIP3    H2 3001   6.063   4.156   0.361 -1.0025 -1.5968  1.8230
 1013TIP3   OH2 3002   3.819   0.837   0.480 -0.6716 -0.2721 -0.0874
 1013TIP3    H1 3003   3.875   0.838   0.403  0.1765  1.1476  0.4885
 1013TIP3    H2 3004   3.733   0.864   0.448 -0.2735  0.5253 -0.5076
 1014TIP3   OH2 3005   4.397   2.622   4.170  0.3762  0.2771  0.5788
 1014TIP3    H1 3006   4.471   2.678   4.146  1.5274 -1.6976 -0.8536
 1014TIP3    H2 3007   4.365   2.588   4.086 -0.5616 -0.8291  1.3525
 1015TIP3   OH2 3008   5.825   3.229   0.343  0.3309  0.0226  0.1358
 1015TIP3    H1 3009   5.828   3.166   0.271  0.8955 -0.1995  0.3498
 1015TIP3    H2 3010   5.915   3.259   0.352  0.4435 -0.5992  1.3119
 1016TIP3   OH2 3011   1.607   1.700   2.107 -0.0048  0.2075  0.1095
 1016TIP3    H1 3012   1.665   1.680   2.180  0.8495  0.4771 -0.4834
 1016TIP3    H2 3013   1.642   1.650   2.033 -1.0496 -0.3220 -0.0534
 1017TIP3   OH2 3014   2.844   1.582   2.905 -0.0570 -0.2303 -0.6317
 1017TIP3    H1 3015   2.891   1.636   2.841  0.9641 -0.5490 -0.1555
 1017TIP3    H2 3016   2.902   1.508   2.922 -0.5110 -0.3753  0.3438
 1018TIP3   OH2 3017   7.091   2.262   1.062 -0.4688 -0.3892  0.2429
 1018TIP3    H1 3018   7.157   2.197   1.086 -1.3932 -0.8928  1.5420
 1018TIP3    H2 3019   7.114   2.288   0.973  1.9908  0.1216  0.9559
 1019TIP3   OH2 3020   0.962   2.266   3.160 -0.1300 -0.3892  0.2804
 1019TIP3    H1 3021   0.964   2.348   3.208  0.2812 -1.0919  1.5226
 1019TIP3    H2 3022   0.907   2.208   3.213 -0.1407 -1.0224 -0.3960
 1020TIP3   OH2 3023   6.359   3.479   1.359 -0.7144 -0.3927 -0.2378
 1020TIP3    H1 3024   6.378   3.572   1.365  0.8348 -0.7810  1.6015
 1020TIP3    H2 3025   6.276   3.469   1.406 -0.1268 -0.1295  0.8883
 1021TIP3   OH2 3026   1.694   5.131   1.979  0.2488 -0.5274  0.1405
 1021TIP3    H1 3027   1.610   5.158   2.016 -0.9171 -3.0475 -0.5122
 1021TIP3    H2 3028   1.755   5.138   2.052 -1.0806 -1.1573  1.3625
 1022TIP3   OH2 3029   4.592   5.963   5.010  0.4983 -0.5126  0.2305
 1022TIP3    H1 3030   4.585   5.978   4.916 -0.2852 -1.2906  0.1461
 1022TIP3    H2 3031   4.592   5.868   5.019  2.8446 -0.5190  0.8893
 1023TIP3   OH2 3032   6.159   4.358   4.304 -0.9429  0.1810 -0.7456
 1023TIP3    H1 3033   6.206   4.422   4.252  1.1342 -2.0367 -1.8050
 1023TIP3    H2 3034   6.095   4.320   4.244 -0.7364 -0.1759 -0.7429
 1024TIP3   OH2 3035   3.991   4.725   1.501  0.0225 -0.0372 -0.1609
 1024TIP3    H1 3036   3.924   4.762   1.443  0.8448 -0.5405 -1.4998
 1024TIP3    H2 3037   4.072   4.769   1.475  0.4545 -0.4672  0.4384
 1025TIP3   OH2 3038   1.564   0.283   4.530 -0.2787 -0.0801  0.2422
 1025TIP3    H1 3039   1.483   0.259   4.576 -0.0952  3.1916  2.7053
 1025TIP3    H2 3040   1.634   0.250   4.587 -0.0506  3.3887  2.2885
 1026TIP3   OH2 3041   5.984   3.132   1.624  0.4415 -0.2402 -0.0819
 1026TIP3    H1 3042   5.910   3.162   1.572  0.2015 -2.0366 -0.8374
 1026TIP3    H2 3043   6.060   3.144   1.567  0.5285  0.0374  0.0832
 1027TIP3   OH2 3044   3.889   1.519   3.435  0.1943 -0.2127  0.3124
 1027TIP3    H1 3045   3.913   1.466   3.359  0.9986 -1.5265  1.4194
 1027TIP3    H2 3046   3.845   1.457   3.494 -0.0334  0.6652  1.0953
 1028TIP3   OH2 3047   0.262   3.603   0.177 -0.1200  0.2234  0.2091
 1028TIP3    H1 3048   0.239   3.682   0.225  0.8061  0.3760  0.3994
 1028TIP3    H2 3049   0.189   3.592   0.115 -0.6379  0.7818  0.6994
 1029TIP3   OH2 3050   0.147   4.843   1.163  0.0295  0.3447  0.2804
 1029TIP3    H1 3051   0.216   4.903   1.136  0.1812 -0.2466 -0.6946
 1029TIP3    H2 3052   0.112   4.808   1.081 -0.0621 -0.8751  0.8164
 1030TIP3   OH2 3053   0.143   3.382   0.294 -0.3705 -0.4665 -0.1156
 1030TIP3    H1 3054   0.186   3.450   0.241  0.5960 -0.2177  0.9401
 1030TIP3    H2 3055   0.066   3.357   0.243  0.3996 -0.0842 -1.5312
 1031TIP3   OH2 3056   5.655   2.901   2.101 -0.0359  0.5264 -0.8249
 1031TIP3    H1 3057   5.571   2.860   2.079  0.5315 -0.9037 -0.4023
 1031TIP3    H2 3058   5.718   2.829   2.101  0.8790  1.2775  0.6323
 1032TIP3   OH2 3059   2.221   2.874   5.227 -0.3093  0.1606 -0.0256
 1032TIP3    H1 3060   2.223   2.950   5.285  1.9707 -0.6595  1.1091
 1032TIP3    H2 3061   2.312   2.861   5.201 -0.4824 -2.5604  0.3633
 1033TIP3   OH2 3062   2.876   5.775   1.585 -0.1064 -0.4503 -0.2786
 1033TIP3    H1 3063   2.876   5.846   1.520 -0.9179 -0.1297  0.0648
 1033TIP3    H2 3064   2.809   5.800   1.648  1.1809 -0.3822  1.1195
 1034TIP3   OH2 3065   2.700   5.012   1.019  0.0420 -0.2952 -0.4093
 1034TIP3    H1 3066   2.777   5.049   0.976 -0.1657  0.7663  0.0952
 1034TIP3    H2 3067   2.669   5.082   1.076 -1.4106 -0.6463 -0.7471
 1035TIP3   OH2 3068   6.151   3.497   5.160  0.3882 -0.6188 -0.3363
 1035TIP3    H1 3069   6.058   3.486   5.140  0.2498 -1.4274  0.7106
 1035TIP3    H2 3070   6.177   3.574   5.108 -1.0730  0.1827  0.0564
 1036TIP3   OH2 3071   3.359   0.083   5.749 -0.2873 -0.2958 -0.2947
 1036TIP3    H1 3072   3.280   0.039   5.778  0.2074 -0.9868  0.0283
 1036TIP3    H2 3073   3.340   0.176   5.760 -0.7449 -0.4835  0.6123
 1037TIP3   OH2 3074   4.948   0.630   2.691  0.1087 -0.2750  0.1610
 1037TIP3    H1 3075   4.976   0.718   2.663  1.2429 -0.8490 -0.5952
 1037TIP3    H2 3076   4.959   0.576   2.613  1.5781 -1.5623  1.2129
 1038TIP3   OH2 3077   4.590   2.706   4.403 -0.3695 -0.2927  0.1741
 1038TIP3    H1 3078   4.533   2.769   4.360 -0.4552 -0.6621 -0.2665
 1038TIP3    H2 3079   4.622   2.651   4.331 -0.2082 -0.6780  0.5399
 1039TIP3   OH2 3080   0.384   2.313   4.745  0.3002  0.5135  0.0672
 1039TIP3    H1 3081   0.425   2.229   4.765 -1.7997 -0.8737 -1.1735
 1039TIP3    H2 3082   0.297   2.308   4.783 -0.4087  1.5004 -1.3151
 1040TIP3   OH2 3083   1.826   3.055   1.058  0.4032  0.1406  0.2943
 1040TIP3    H1 3084   1.828   3.110   0.979 -0.0165 -0.5898 -0.2327
 1040TIP3    H2 3085   1.750   3.087   1.107  1.4596  1.5388  1.1216
 1041TIP3   OH2 3086   1.218   5.344   3.377 -0.2680 -0.5437 -0.3643
 1041TIP3    H1 3087   1.142   5.378   3.424 -0.5953 -0.2219 -1.1111
 1041TIP3    H2 3088   1.188   5.334   3.287  0.5175 -0.5883 -0.6268
 1042TIP3   OH2 3089   5.322   4.926   5.770  0.0111 -0.0495 -0.3116
 1042TIP3    H1 3090   5.295   4.888   5.854 -0.8167  0.6922 -0.2270
 1042TIP3    H2 3091   5.369   5.006   5.795  0.9049 -0.4927 -0.5211
 1043TIP3   OH2 3092   6.220   4.133   4.789 -0.1326 -0.2964 -1.2480
 1043TIP3    H1 3093   6.311   4.162   4.794 -0.5219  0.9144 -1.1083
 1043TIP3    H2 3094   6.227   4.040   4.764  1.1454 -0.3643 -0.7300
 1044TIP3   OH2 3095   2.338   0.524   5.581 -0.4808  0.2410 -0.0763
 1044TIP3    H1 3096   2.370   0.536   5.671  0.2912 -0.7398 -0.2152
 1044TIP3    H2 3097   2.243   0.534   5.589 -0.9771 -3.7884  1.6257
 1045TIP3   OH2 3098   0.760   1.979   2.733 -0.0681  0.5416  0.1750
 1045TIP3    H1 3099   0.806   1.950   2.812  0.4626 -0.5872 -0.5196
 1045TIP3    H2 3100   0.675   1.935   2.737  0.6549 -1.0383 -0.7695
 1046TIP3   OH2 3101   4.506   3.553   4.550  0.2403  0.0233 -0.5587
 1046TIP3    H1 3102   4.478   3.493   4.481  0.1322 -0.8681  0.2363
 1046TIP3    H2 3103   4.498   3.640   4.511 -2.2241 -0.2816 -0.8562
 1047TIP3   OH2 3104   0.345   2.464   5.357  0.0873 -0.3070  0.0788
 1047TIP3    H1 3105   0.264   2.496   5.397  0.7935 -0.2028  1.4948
 1047TIP3    H2 3106   0.346   2.503   5.269 -1.2174 -0.0333  0.1729
 1048TIP3   OH2 3107   2.649   6.419   1.702 -0.5564 -0.8946 -0.2599
 1048TIP3    H1 3108   2.680   6.487   1.762 -0.8838  2.1315 -3.2483
 1048TIP3    H2 3109   2.715   6.414   1.633 -2.1929 -1.0389 -1.9083
 1049TIP3   OH2 3110   3.303   0.095   4.936  0.2074 -0.4935  0.5222
 1049TIP3    H1 3111   3.276   0.184   4.914  1.5356 -0.1555  0.1632
 1049TIP3    H2 3112   3.380   0.079   4.882 -0.2367 -2.0175  0.2942
 1050TIP3   OH2 3113   5.893   6.295   1.180 -0.3016  0.3350 -0.1018
 1050TIP3    H1 3114   5.935   6.357   1.240  2.0087  1.3116 -2.4947
 1050TIP3    H2 3115   5.800   6.305   1.197  0.1075  2.7812  1.2602
 1051TIP3   OH2 3116   4.598   6.275   3.496 -0.5483 -0.5309 -0.2392
 1051TIP3    H1 3117   4.573   6.339   3.563 -0.2762  0.8518 -1.3990
 1051TIP3    H2 3118   4.650   6.210   3.544  2.6550  2.2072  0.4773
 1052TIP3   OH2 3119   6.327   4.182   1.998  0.4684 -0.3113  0.1874
 1052TIP3    H1 3120   6.394   4.132   2.045  0.0475 -1.4992 -0.4142
 1052TIP3    H2 3121   6.313   4.260   2.050  0.8892 -1.0126  1.3865
 1053TIP3   OH2 3122   2.427   0.891   0.493 -0.4963 -0.4683  0.1469
 1053TIP3    H1 3123   2.354   0.902   0.554 -1.1853 -0.7086 -0.6127
 1053TIP3    H2 3124   2.491   0.839   0.542 -1.3633 -1.3187  0.4268
 1054TIP3   OH2 3125   5.646   5.515   2.034  0.9009 -0.3415  0.4130
 1054TIP3    H1 3126   5.704   5.445   2.062  0.5653 -0.8109 -0.0354
 1054TIP3    H2 3127   5.610   5.551   2.115  2.0787  0.1933  0.7097
 1055TIP3   OH2 3128   4.442   1.474   2.065  0.4793 -0.4389  0.6461
 1055TIP3    H1 3129   4.418   1.520   1.984  0.1985  1.9970  2.0175
 1055TIP3    H2 3130   4.537   1.460   2.057  0.2282 -1.6351 -0.7239
 1056TIP3   OH2 3131   0.711   5.250   5.504 -0.0848  0.2496  0.3562
 1056TIP3    H1 3132   0.685   5.291   5.587 -0.7636  1.9496 -0.6260
 1056TIP3    H2 3133   0.634   5.200   5.477  0.1144 -0.2547  0.7277
 1057TIP3   OH2 3134   2.036   3.048   4.429 -0.2955 -0.1407  0.6363
 1057TIP3    H1 3135   2.062   2.955   4.429 -1.3179 -0.4509 -0.5258
 1057TIP3    H2 3136   1.941   3.047   4.442 -0.1262  0.8498  2.2260
 1058TIP3   OH2 3137   5.138   6.573   0.734 -0.1175  0.5246  0.5341
 1058TIP3    H1 3138   5.157   6.544   0.645 -0.2134 -0.5670  0.8668
 1058TIP3    H2 3139   5.211   6.541   0.786 -0.2958  0.7623  0.9332
 1059TIP3   OH2 3140   5.903   1.666   0.326  0.0762 -0.0981  0.0445
 1059TIP3    H1 3141   5.907   1.724   0.249  1.4172 -0.6928 -0.3471
 1059TIP3    H2 3142   5.994   1.655   0.353 -0.4216  1.1515  2.5500
 1060TIP3   OH2 3143   6.753   6.548   5.866  0.1048 -0.4870 -0.4765
 1060TIP3    H1 3144   6.684   6.606   5.833 -1.1137 -1.2414  0.6163
 1060TIP3    H2 3145   6.819   6.547   5.797  0.5766  2.7957 -0.2252
 1061TIP3   OH2 3146   2.980   1.071   5.593  0.5379 -0.2722 -0.5416
 1061TIP3    H1 3147   3.008   1.123   5.668 -1.0538  0.2172 -0.2607
 1061TIP3    H2 3148   2.908   1.120   5.555 -1.2862 -2.3825 -0.0461
 1062TIP3   OH2 3149   7.027   2.754   1.976 -0.2204  0.2360 -0.5992
 1062TIP3    H1 3150   6.964   2.708   1.921  0.8700 -1.2464 -0.6812
 1062TIP3    H2 3151   7.111   2.741   1.932  0.1782  2.1873 -0.5108
 1063TIP3   OH2 3152   0.317   0.896   0.073  0.2030  0.3772  0.0409
 1063TIP3    H1 3153   0.409   0.919   0.090  0.7087  0.5945 -2.5661
 1063TIP3    H2 3154   0.302   0.818   0.127  2.1426 -0.0694  0.0270
 1064TIP3   OH2 3155   2.325   4.997   3.806  0.3673  0.3805  0.0953
 1064TIP3    H1 3156   2.307   5.089   3.825  0.4749  0.3245  0.4814
 1064TIP3    H2 3157   2.244   4.965   3.767  0.1081  0.4871  0.5307
 1065TIP3   OH2 3158   0.223   0.373   5.574  0.4991 -0.9726 -0.0953
 1065TIP3    H1 3159   0.190   0.457   5.605 -0.2584 -1.1381 -0.4280
 1065TIP3    H2 3160   0.219   0.379   5.479  3.8998 -0.0271 -0.3358
 1066TIP3   OH2 3161   6.869   0.356   2.455  0.0527 -0.0602  0.1918
 1066TIP3    H1 3162   6.905   0.289   2.396  0.5944  0.0703  0.3686
 1066TIP3    H2 3163   6.843   0.427   2.396 -3.8828 -1.7355 -0.4669
 1067TIP3   OH2 3164   6.984   1.722   2.245  0.2391  0.2169 -0.3594
 1067TIP3    H1 3165   7.001   1.635   2.210 -1.0374  0.1223 -0.8047
 1067TIP3    H2 3166   7.018   1.782   2.179  1.4816  0.0918  0.1284
 1068TIP3   OH2 3167   5.833   4.343   5.335  0.3177  0.1453 -0.0097
 1068TIP3    H1 3168   5.825   4.365   5.242  1.9431  0.3806 -0.1245
 1068TIP3    H2 3169   5.770   4.401   5.379 -0.9916 -0.4709 -0.9994
 1069TIP3   OH2 3170   7.139   5.437   3.856  0.0156  0.1143 -0.3072
 1069TIP3    H1 3171   7.148   5.364   3.917 -1.3745 -0.9059 -1.2619
 1069TIP3    H2 3172   7.070   5.410   3.795 -0.1556  1.9972 -1.0361
 1070TIP3   OH2 3173   1.086   0.577   2.657  0.2857 -0.0487  0.5186
 1070TIP3    H1 3174   1.100   0.542   2.569  0.5835 -1.9958  1.3126
 1070TIP3    H2 3175   1.136   0.520   2.714 -1.4353  0.0201  2.1761
 1071TIP3   OH2 3176   0.537   6.603   0.870  0.2755 -0.1808  0.0460
 1071TIP3    H1 3177   0.489   6.669   0.821  1.0695  1.0479  0.8721
 1071TIP3    H2 3178   0.594   6.653   0.928  1.0713 -1.6001  0.5300
 1072TIP3   OH2 3179   2.880   2.641   3.947 -0.1369 -0.2217  0.8450
 1072TIP3    H1 3180   2.952   2.652   3.885  0.0091 -1.3808  0.7805
 1072TIP3    H2 3181   2.921   2.646   4.033 -0.4087  1.8542  0.8916
 1073TIP3   OH2 3182   0.410   4.744   5.290  0.6551 -0.3787 -0.1190
 1073TIP3    H1 3183   0.476   4.675   5.281  1.9954  0.7782  0.5628
 1073TIP3    H2 3184   0.414   4.769   5.382 -1.1558 -0.6539  0.0706
 1074TIP3   OH2 3185   4.578   6.806   0.419 -0.0722  0.0029  0.1430
 1074TIP3    H1 3186   4.521   6.728   0.420 -0.3948  0.1704 -1.9640
 1074TIP3    H2 3187   4.637   6.792   0.345 -0.5894  2.0615 -0.7089
 1075TIP3   OH2 3188   2.303   0.417   2.133 -0.4727  0.2854 -0.5251
 1075TIP3    H1 3189   2.302   0.511   2.153  1.4203  0.2086  0.1171
 1075TIP3    H2 3190   2.334   0.412   2.042 -2.1320  0.3064 -1.1368
 1076TIP3   OH2 3191   2.328   0.139   1.626 -0.2659 -0.1053 -0.1232
 1076TIP3    H1 3192   2.399   0.077   1.638  0.3629  0.3928 -1.1477
 1076TIP3    H2 3193   2.276   0.132   1.706  1.1012 -0.2541  0.7792
 1077TIP3   OH2 3194   3.167   1.749   1.878  0.1426 -0.4932  0.1980
 1077TIP3    H1 3195   3.245   1.784   1.834 -0.3902  0.0028 -0.3617
 1077TIP3    H2 3196   3.174   1.654   1.865 -0.0741 -0.3527 -1.1015
 1078TIP3   OH2 3197   0.076   3.735   1.537  0.7247  0.4808 -0.0245
 1078TIP3    H1 3198   0.010   3.665   1.537 -0.4003  1.4899 -0.7691
 1078TIP3    H2 3199   0.100   3.745   1.444  1.8116  0.2599  0.2149
 1079TIP3   OH2 3200   2.884   5.486   4.039  0.3803 -0.1911  0.1209
 1079TIP3    H1 3201   2.899   5.392   4.041  2.1243 -0.0046 -1.4561
 1079TIP3    H2 3202   2.788   5.495   4.045  0.0840 -2.1286 -0.9076
 1080TIP3   OH2 3203   3.081   1.905   5.246 -0.1906  0.1283 -0.1523
 1080TIP3    H1 3204   3.169   1.898   5.285  0.4183 -0.4647 -1.5799
 1080TIP3    H2 3205   3.052   1.994   5.268  1.0524  0.5727 -0.2450
 1081TIP3   OH2 3206   5.316   6.281   2.173  0.1604  0.3507 -0.2204
 1081TIP3    H1 3207   5.303   6.307   2.264  0.1873  0.5865 -0.2825
 1081TIP3    H2 3208   5.229   6.285   2.135  0.2548  0.9572 -0.3848
 1082TIP3   OH2 3209   1.722   1.116   4.280  0.1090 -0.6016  0.0121
 1082TIP3    H1 3210   1.711   1.209   4.258 -1.2919 -0.7221  0.0940
 1082TIP3    H2 3211   1.804   1.091   4.237 -1.0941 -0.1233 -2.7857
 1083TIP3   OH2 3212   6.763   1.221   4.027 -0.6422  0.7316  0.1721
 1083TIP3    H1 3213   6.734   1.143   4.074  0.8109  0.4181  0.5976
 1083TIP3    H2 3214   6.751   1.293   4.089  0.7488  0.3971  0.8779
 1084TIP3   OH2 3215   4.285   5.436   3.977 -0.1763  0.3020  0.1196
 1084TIP3    H1 3216   4.315   5.365   4.035  1.5225 -2.4902 -3.6889
 1084TIP3    H2 3217   4.192   5.420   3.966  0.4882 -3.0654 -2.3495
 1085TIP3   OH2 3218   6.604   3.164   4.095  0.3121  0.6677 -0.3494
 1085TIP3    H1 3219   6.685   3.204   4.128  0.8300 -0.1183 -0.6341
 1085TIP3    H2 3220   6.544   3.237   4.084  1.1676  1.3449 -0.6556
 1086TIP3   OH2 3221   2.205   2.949   1.194  0.3435  0.1026 -0.0395
 1086TIP3    H1 3222   2.155   2.870   1.171  1.0231  0.4586 -3.2936
 1086TIP3    H2 3223   2.172   3.016   1.134 -0.0880  2.3389  2.5090
 1087TIP3   OH2 3224   6.995   4.521   0.847  0.0138  0.1672 -0.2271
 1087TIP3    H1 3225   6.942   4.511   0.926  1.0904 -0.9574  0.3996
 1087TIP3    H2 3226   6.938   4.567   0.786 -1.7374 -1.0808  0.3625
 1088TIP3   OH2 3227   5.318   0.015   2.796 -0.0639  0.0973  0.1277
 1088TIP3    H1 3228   5.246   0.040   2.737 -1.8028 -2.4632  1.0130
 1088TIP3    H2 3229   5.275  -0.009   2.877  1.6429 -2.5397  0.3846
 1089TIP3   OH2 3230   4.794   4.583   3.212 -0.1819  0.0602 -0.4204
 1089TIP3    H1 3231   4.726   4.517   3.196 -1.5541  1.1849  0.4896
 1089TIP3    H2 3232   4.761   4.634   3.287  1.2735  1.1802 -0.4945
 1090TIP3   OH2 3233   5.868   0.942   4.629 -0.1139  0.3784  0.2425
 1090TIP3    H1 3234   5.794   0.911   4.682 -0.7135  1.4590  0.0674
 1090TIP3    H2 3235   5.852   0.904   4.542 -0.7998  1.0824  0.0485
 1091TIP3   OH2 3236   6.672   4.676   1.478  0.4609  0.1148 -1.0854
 1091TIP3    H1 3237   6.593   4.728   1.497 -1.0600 -2.1171 -0.9218
 1091TIP3    H2 3238   6.727   4.735   1.426 -0.4004  2.4196  0.4552
 1092TIP3   OH2 3239   3.881   0.776   1.341 -0.3901  0.0783 -0.0923
 1092TIP3    H1 3240   3.944   0.847   1.330 -1.1716  0.5831 -1.5879
 1092TIP3    H2 3241   3.897   0.717   1.267  0.8983 -1.8898  1.6304
 1093TIP3   OH2 3242   2.153   5.313   5.208  0.3129 -0.4447  0.1100
 1093TIP3    H1 3243   2.169   5.226   5.244 -0.3544 -0.4239  0.4719
 1093TIP3    H2 3244   2.206   5.372   5.261  1.0001 -0.6613 -0.3290
 1094TIP3   OH2 3245   6.163   1.900   0.483  0.3932  0.2555  0.4126
 1094TIP3    H1 3246   6.189   1.991   0.499 -0.5640  0.7223 -0.5541
 1094TIP3    H2 3247   6.102   1.879   0.553  0.8543  0.2346  0.8179
 1095TIP3   OH2 3248   6.452   4.891   1.237 -0.5636  0.1826  0.6612
 1095TIP3    H1 3249   6.448   4.915   1.330 -2.1084  1.5507  0.2851
 1095TIP3    H2 3250   6.361   4.887   1.209 -0.1810 -1.8031 -0.4458
 1096TIP3   OH2 3251   1.018   0.668   3.690 -0.4246  0.2837 -0.0183
 1096TIP3    H1 3252   1.052   0.629   3.610  0.8397 -0.3556  0.8066
 1096TIP3    H2 3253   1.091   0.666   3.752 -1.7251 -0.4774  1.5972
 1097TIP3   OH2 3254   4.316   6.306   2.949  0.1972 -0.1056 -0.0073
 1097TIP3    H1 3255   4.258   6.323   2.875  0.5101  1.0705 -0.0029
 1097TIP3    H2 3256   4.270   6.241   3.002 -1.1739  0.8710  0.0440
 1098TIP3   OH2 3257   2.686   6.519   3.547 -0.2028 -0.1964  0.7355
 1098TIP3    H1 3258   2.770   6.546   3.509  0.2376 -1.8142  0.4710
 1098TIP3    H2 3259   2.694   6.542   3.640 -0.2976  1.4986  0.3576
 1099TIP3   OH2 3260   5.266   3.657   3.528 -0.2480 -0.1498 -0.4333
 1099TIP3    H1 3261   5.308   3.669   3.613 -1.1569 -1.0062  0.1684
 1099TIP3    H2 3262   5.337   3.633   3.469  0.3546  0.1481  0.1563
 1100TIP3   OH2 3263   1.297   3.178   3.024 -0.2507 -0.0530 -0.6731
 1100TIP3    H1 3264   1.322   3.140   2.940 -2.1003  0.7337 -1.6342
 1100TIP3    H2 3265   1.202   3.164   3.029  0.0094 -1.5577  2.0509
 1101TIP3   OH2 3266   6.784   3.122   3.712 -0.1981 -0.0833  0.9827
 1101TIP3    H1 3267   6.741   3.075   3.641  0.7781  0.3207  0.0932
 1101TIP3    H2 3268   6.734   3.099   3.790 -0.0784 -2.2003  0.5024
 1102TIP3   OH2 3269   0.923   6.113   0.881  0.1916  0.4270 -0.3042
 1102TIP3    H1 3270   0.965   6.132   0.965 -0.2662 -1.6619  0.4598
 1102TIP3    H2 3271   0.830   6.127   0.897 -0.0551 -1.3186  0.0128
 1103TIP3   OH2 3272   5.018   0.241   2.319 -0.6441  0.7444 -0.4805
 1103TIP3    H1 3273   4.943   0.216   2.373 -0.4550  1.7412  0.2715
 1103TIP3    H2 3274   4.980   0.292   2.247 -0.7423  0.8447 -0.3592
 1104TIP3   OH2 3275   3.516   1.146   4.401 -0.0639 -0.5803  0.4594
 1104TIP3    H1 3276   3.517   1.231   4.357  0.5201 -0.7862  0.0549
 1104TIP3    H2 3277   3.553   1.163   4.488 -0.1512 -0.3812  0.4578
 1105TIP3   OH2 3278   4.101   1.032   5.625 -0.3069 -0.7461 -0.6920
 1105TIP3    H1 3279   4.143   1.099   5.571 -1.2863  1.8217  1.4750
 1105TIP3    H2 3280   4.170   1.002   5.684 -0.1782 -0.7079 -0.8216
 1106TIP3   OH2 3281   5.870   1.101   3.673  0.0127 -0.5730  0.2666
 1106TIP3    H1 3282   5.864   1.009   3.646 -0.5659 -1.0206  1.8132
 1106TIP3    H2 3283   5.803   1.110   3.741 -0.5944  1.2560 -0.5183
 1107TIP3   OH2 3284   5.363   2.700   5.581  0.4143  0.0378  0.0822
 1107TIP3    H1 3285   5.360   2.752   5.501 -0.6593  0.9481  0.6718
 1107TIP3    H2 3286   5.453   2.708   5.612  0.5468  0.6329 -0.4370
 1108TIP3   OH2 3287   3.576   1.881   1.552  0.4404  0.1618 -0.0566
 1108TIP3    H1 3288   3.511   1.891   1.482 -0.7142 -1.3403  0.7440
 1108TIP3    H2 3289   3.601   1.789   1.549  0.5528  0.1221  1.3592
 1109TIP3   OH2 3290   4.095   2.754   3.336 -0.3463 -0.1931  0.0210
 1109TIP3    H1 3291   4.148   2.675   3.330  0.2473  0.2138 -0.2437
 1109TIP3    H2 3292   4.126   2.810   3.265 -1.9582 -0.4089 -0.8983
 1110TIP3   OH2 3293   2.934   4.026   4.500 -0.1316 -0.0570 -0.5422
 1110TIP3    H1 3294   2.850   3.992   4.529  0.6744 -1.2201  0.5256
 1110TIP3    H2 3295   2.974   3.953   4.451  1.6288 -0.7786  1.7883
 1111TIP3   OH2 3296   7.141   0.412   0.667 -0.4682  0.1981 -0.4918
 1111TIP3    H1 3297   7.228   0.391   0.632 -1.2585 -1.6993 -1.4597
 1111TIP3    H2 3298   7.097   0.327   0.674 -1.4095  0.8100  2.4302
 1112TIP3   OH2 3299   4.785   6.056   2.909 -0.2469  0.0011  0.1939
 1112TIP3    H1 3300   4.796   5.962   2.924 -1.3585  0.1534  2.2200
 1112TIP3    H2 3301   4.700   6.077   2.948  0.3684  2.0127  0.5514
 1113TIP3   OH2 3302   6.773   0.923   5.269 -0.0997  0.0734 -0.3705
 1113TIP3    H1 3303   6.757   0.998   5.212 -0.4598  0.3047  0.0349
 1113TIP3    H2 3304   6.861   0.937   5.303 -0.5024  0.7797  0.4055
 1114TIP3   OH2 3305   4.906   4.257   0.041 -0.0247 -0.0033  0.1736
 1114TIP3    H1 3306   4.908   4.352   0.054 -0.1482  0.0848 -0.4312
 1114TIP3    H2 3307   4.974   4.224   0.100  1.3352  0.6327 -0.9889
 1115TIP3   OH2 3308   3.229   6.577   3.450 -0.2944  0.0760  0.2193
 1115TIP3    H1 3309   3.228   6.503   3.389 -1.4471 -0.9341  1.4211
 1115TIP3    H2 3310   3.160   6.557   3.514  1.3611  0.7373  2.3110
 1116TIP3   OH2 3311   1.460   4.833   1.989  0.0290  0.1123 -0.2665
 1116TIP3    H1 3312   1.417   4.783   2.058  1.2430 -0.4488  0.0992
 1116TIP3    H2 3313   1.541   4.787   1.972  0.2251  0.8139 -1.3732
 1117TIP3   OH2 3314   6.752   5.276   1.661 -0.3814 -0.8360 -0.3010
 1117TIP3    H1 3315   6.833   5.312   1.626 -0.9427  0.2227 -0.5783
 1117TIP3    H2 3316   6.700   5.353   1.684 -1.1550 -1.4977  0.2201
 1118TIP3   OH2 3317   1.165   4.082   4.811  0.5218  0.0831 -0.3811
 1118TIP3    H1 3318   1.241   4.053   4.862  0.9772  0.4202 -0.8621
 1118TIP3    H2 3319   1.138   4.164   4.852 -1.4137 -1.4140  1.6533
 1119TIP3   OH2 3320   1.138   3.964   3.245  0.0695  0.2017  0.1842
 1119TIP3    H1 3321   1.157   3.899   3.313  0.0040 -0.0396 -0.0273
 1119TIP3    H2 3322   1.203   3.949   3.177 -0.9440 -0.7268 -0.6110
 1120TIP3   OH2 3323   2.772   1.922   3.542  0.4947  0.6287 -0.2787
 1120TIP3    H1 3324   2.724   1.875   3.611  0.2639  0.7149 -0.3784
 1120TIP3    H2 3325   2.853   1.873   3.532  0.1455  0.0936 -0.5564
 1121TIP3   OH2 3326   2.303   6.805   5.391 -0.1862  0.4517  0.2598
 1121TIP3    H1 3327   2.247   6.778   5.319 -0.9801  0.8761  0.7064
 1121TIP3    H2 3328   2.304   6.729   5.450  1.1195 -0.2074 -0.5497
 1122TIP3   OH2 3329   5.149   3.478   4.225 -0.2084  0.3447  0.2438
 1122TIP3    H1 3330   5.174   3.389   4.201 -1.0005  0.5275 -1.4458
 1122TIP3    H2 3331   5.204   3.534   4.170 -1.7340  0.8043 -0.8847
 1123TIP3   OH2 3332   3.905   0.084   2.170  0.3215  0.2278 -0.6591
 1123TIP3    H1 3333   3.953   0.047   2.096  3.4451  1.1889  0.6671
 1123TIP3    H2 3334   3.935   0.033   2.245  1.1689  2.3713  0.5578
 1124TIP3   OH2 3335   4.455   0.396   0.829 -0.0034 -0.1358 -0.0565
 1124TIP3    H1 3336   4.450   0.310   0.871 -1.8802 -0.2283 -0.3847
 1124TIP3    H2 3337   4.366   0.413   0.797  0.6863  1.2281 -1.4103
 1125TIP3   OH2 3338   3.049   2.790   0.817  0.3479  0.1625 -0.5283
 1125TIP3    H1 3339   3.112   2.752   0.755  1.5725  1.4947 -0.1766
 1125TIP3    H2 3340   2.964   2.780   0.774  0.9324 -0.6709 -1.5458
 1126TIP3   OH2 3341   2.845   1.923   3.017 -0.3543 -0.0471 -0.1703
 1126TIP3    H1 3342   2.814   1.908   3.107  0.3088  4.3748  1.0311
 1126TIP3    H2 3343   2.939   1.906   3.021 -0.2405  0.6136  0.1637
 1127TIP3   OH2 3344   6.572   3.228   0.012  0.5356 -0.3026 -1.1616
 1127TIP3    H1 3345   6.507   3.192   0.072 -0.5091  0.3546 -1.8707
 1127TIP3    H2 3346   6.529   3.303  -0.028  0.9465 -1.1211 -3.2566
 1128TIP3   OH2 3347   0.684   6.263   5.700 -0.1702 -0.2539 -0.7447
 1128TIP3    H1 3348   0.700   6.251   5.606  1.8747  0.1444 -0.4947
 1128TIP3    H2 3349   0.699   6.356   5.716  1.4571 -0.6409  0.2667
 1129TIP3   OH2 3350   2.154   3.833   5.182  0.0949 -0.4514  0.4019
 1129TIP3    H1 3351   2.245   3.863   5.176 -0.0447  0.3697  1.8367
 1129TIP3    H2 3352   2.144   3.804   5.272 -0.9681 -0.9013  0.1555
 1130TIP3   OH2 3353   2.446   1.279   4.429  0.2644 -0.3951  0.4297
 1130TIP3    H1 3354   2.400   1.360   4.450 -0.4874 -0.7375  0.1397
 1130TIP3    H2 3355   2.395   1.211   4.474 -0.0346 -0.8788 -0.6130
 1131TIP3   OH2 3356   0.793   4.192   0.617 -0.1245 -0.1841 -0.4070
 1131TIP3    H1 3357   0.714   4.243   0.599  0.7048  0.6886 -1.7332
 1131TIP3    H2 3358   0.848   4.204   0.540  0.8378 -1.7157 -0.0092
 1132TIP3   OH2 3359   3.550   5.751   2.708 -0.2442  0.1986  0.0686
 1132TIP3    H1 3360   3.570   5.811   2.637  0.2669 -0.0144  0.0262
 1132TIP3    H2 3361   3.478   5.792   2.756  0.2206  0.9284  0.1494
 1133TIP3   OH2 3362   6.376   4.054   5.728  0.1613  0.2818 -0.7480
 1133TIP3    H1 3363   6.309   3.989   5.708 -0.2298  0.3732  0.2046
 1133TIP3    H2 3364   6.415   4.075   5.644 -0.5274 -0.3004 -1.2241
 1134TIP3   OH2 3365   2.152   1.838  -0.015 -0.1433  0.1542 -0.1225
 1134TIP3    H1 3366   2.075   1.851   0.041 -0.3437 -1.8929  0.1831
 1134TIP3    H2 3367   2.226   1.850   0.043 -0.2595  0.8717 -0.1146
 1135TIP3   OH2 3368   2.990   1.104   2.910  0.5579 -0.1859 -0.1764
 1135TIP3    H1 3369   3.059   1.048   2.876  0.0082 -0.7186 -0.4454
 1135TIP3    H2 3370   2.911   1.075   2.863 -0.5079 -1.8600  2.4537
 1136TIP3   OH2 3371   2.599   1.083   5.677 -0.1158  0.0629  0.3973
 1136TIP3    H1 3372   2.600   1.006   5.621  0.1615 -0.0931  0.6166
 1136TIP3    H2 3373   2.642   1.151   5.624 -1.0726  0.2972 -0.1108
 1137TIP3   OH2 3374   1.290   6.271   3.719  0.1054 -0.3504  0.0152
 1137TIP3    H1 3375   1.382   6.286   3.740  0.6162 -1.6375 -1.1533
 1137TIP3    H2 3376   1.263   6.199   3.776  0.7083 -1.9735 -1.6530
 1138TIP3   OH2 3377   0.900   3.125   1.460  0.5981 -0.9506  0.0750
 1138TIP3    H1 3378   0.854   3.172   1.529  0.0993 -1.8624  0.3879
 1138TIP3    H2 3379   0.926   3.192   1.398 -0.5389 -0.3151  0.2538
 1139TIP3   OH2 3380   3.964   0.209   1.386 -0.6036 -0.7903  0.3299
 1139TIP3    H1 3381   4.041   0.164   1.422  0.2998 -0.3688 -0.9854
 1139TIP3    H2 3382   3.924   0.145   1.328 -0.6268 -0.6730  0.2140
 1140TIP3   OH2 3383   3.265   2.331   1.164  0.5739 -0.2198  0.1774
 1140TIP3    H1 3384   3.228   2.370   1.243  0.1952 -0.1212 -0.0435
 1140TIP3    H2 3385   3.189   2.310   1.110  0.8272 -0.2975 -0.1535
 1141TIP3   OH2 3386   4.700   5.751   2.654 -0.4343  0.0097  0.4241
 1141TIP3    H1 3387   4.734   5.823   2.600 -0.5375 -0.8451 -0.8017
 1141TIP3    H2 3388   4.741   5.764   2.739  0.4241  0.8769 -0.1043
 1142TIP3   OH2 3389   2.472   1.914   2.274  0.3101  0.2563  0.0623
 1142TIP3    H1 3390   2.460   1.994   2.223 -1.6824  1.1482  1.7986
 1142TIP3    H2 3391   2.512   1.853   2.213  0.7312  2.1631 -1.6915
 1143TIP3   OH2 3392   6.238   2.497   5.781  0.5332  0.4931  0.2185
 1143TIP3    H1 3393   6.198   2.579   5.809 -1.0931 -0.0430 -0.4278
 1143TIP3    H2 3394   6.164   2.438   5.766  1.6868 -1.3422  1.3960
 1144TIP3   OH2 3395   6.653   1.090   1.342  0.1301 -0.1487 -0.0689
 1144TIP3    H1 3396   6.736   1.082   1.390  0.7458 -3.4852 -1.4242
 1144TIP3    H2 3397   6.592   1.125   1.407  2.1839  0.8894  1.4361
 1145TIP3   OH2 3398   2.693   0.348   3.387 -0.0225  0.1931 -0.0009
 1145TIP3    H1 3399   2.599   0.362   3.400  0.1027 -0.1995  1.4706
 1145TIP3    H2 3400   2.735   0.405   3.452  0.6837 -1.1906  0.7919
 1146TIP3   OH2 3401   1.777   6.018   5.153  0.5094  0.1988  0.7077
 1146TIP3    H1 3402   1.718   5.951   5.188  2.2496 -1.1855  1.1846
 1146TIP3    H2 3403   1.807   5.982   5.069  2.2362 -0.1471  1.4290
 1147TIP3   OH2 3404   1.837   5.404   0.978  0.0183 -0.2677  0.5229
 1147TIP3    H1 3405   1.744   5.385   0.970  0.3705 -1.6289 -0.6653
 1147TIP3    H2 3406   1.881   5.322   0.954  1.5439  0.8185 -0.5951
 1148TIP3   OH2 3407   2.058   2.319   2.727 -0.7404 -0.1436  0.5710
 1148TIP3    H1 3408   2.113   2.388   2.689  0.2538 -1.9941 -1.6087
 1148TIP3    H2 3409   2.041   2.349   2.816  1.1777  2.0185  0.3301
 1149TIP3   OH2 3410   1.410   6.577   0.445 -0.4783 -0.0107 -0.0227
 1149TIP3    H1 3411   1.456   6.647   0.492 -2.7396  0.5439  1.5494
 1149TIP3    H2 3412   1.467   6.501   0.453  0.1073  0.5721  2.0558
 1150TIP3   OH2 3413   5.530   4.944   1.147  0.5213 -0.5463  0.0719
 1150TIP3    H1 3414   5.579   4.911   1.223  0.7692 -0.6281 -0.1227
 1150TIP3    H2 3415   5.455   4.885   1.140 -0.0135  0.0193  0.8202
 1151TIP3   OH2 3416   0.754   5.419   3.342  0.3452 -0.4279  0.2007
 1151TIP3    H1 3417   0.688   5.477   3.304 -1.7176 -3.3952 -1.0384
 1151TIP3    H2 3418   0.710   5.375   3.413  2.0382 -0.1987  1.4631
 1152TIP3   OH2 3419   4.204   2.240   4.513  0.6867  0.0644 -0.2042
 1152TIP3    H1 3420   4.205   2.256   4.608 -0.0902 -1.4122  0.0788
 1152TIP3    H2 3421   4.271   2.299   4.478  0.4651  1.1742  1.1691
 1153TIP3   OH2 3422   7.089   3.523   2.965  0.2473  0.2300  0.7073
 1153TIP3    H1 3423   6.993   3.526   2.961  0.2245 -1.1889 -0.5273
 1153TIP3    H2 3424   7.115   3.615   2.963 -1.0898  0.6661  1.6166
 1154TIP3   OH2 3425   4.114   4.526   4.896 -0.1987  0.1785 -0.4544
 1154TIP3    H1 3426   4.065   4.527   4.977 -0.2549  3.4631 -0.3826
 1154TIP3    H2 3427   4.054   4.489   4.831 -0.5021 -1.5161  0.7307
 1155TIP3   OH2 3428   2.199   4.887   1.364 -0.1204  0.0010 -0.0556
 1155TIP3    H1 3429   2.286   4.861   1.393  0.1986  1.3065  0.2427
 1155TIP3    H2 3430   2.160   4.807   1.329  1.1202 -0.6434 -0.0188
 1156TIP3   OH2 3431   6.131   0.538   5.538 -0.6545 -0.0972 -0.5931
 1156TIP3    H1 3432   6.041   0.548   5.567 -0.4537  0.2984 -0.1048
 1156TIP3    H2 3433   6.165   0.464   5.589 -1.4439 -1.9308 -2.5669
 1157TIP3   OH2 3434   2.075   5.275   1.616 -0.5782 -0.1802  0.2279
 1157TIP3    H1 3435   2.077   5.233   1.702  1.3257 -0.5004  0.0658
 1157TIP3    H2 3436   2.144   5.231   1.566 -0.1066  1.5468 -0.7136
 1158TIP3   OH2 3437   1.937   5.547   1.184 -0.1779  0.5015  0.3031
 1158TIP3    H1 3438   1.896   5.481   1.128  0.3313  1.0001 -0.7034
 1158TIP3    H2 3439   2.022   5.509   1.207  0.8254  1.4016 -1.6222
 1159TIP3   OH2 3440   5.820   4.092   4.917  0.1160  0.3276 -0.0430
 1159TIP3    H1 3441   5.778   4.170   4.955 -2.0313  0.6176 -2.7067
 1159TIP3    H2 3442   5.833   4.114   4.825 -1.4419 -2.7002 -1.1165
 1160TIP3   OH2 3443   6.182   1.519   0.674 -0.7683  0.0027 -0.0035
 1160TIP3    H1 3444   6.226   1.575   0.737 -0.9496 -0.3689  0.4618
 1160TIP3    H2 3445   6.199   1.430   0.705 -0.9681 -0.1780 -0.4049
 1161TIP3   OH2 3446   4.398   4.862   0.492 -0.0623 -0.5760 -0.2978
 1161TIP3    H1 3447   4.331   4.807   0.533  0.7197 -0.7548  0.7970
 1161TIP3    H2 3448   4.352   4.943   0.470 -0.1015  0.5429  3.2201
 1162TIP3   OH2 3449   6.977   4.863   3.178  0.6321 -0.3743  0.2370
 1162TIP3    H1 3450   7.009   4.842   3.091 -1.1733  0.5610 -0.6987
 1162TIP3    H2 3451   7.035   4.932   3.210  0.8134 -0.1506 -0.5648
 1163TIP3   OH2 3452   3.279   2.235   2.798 -0.2874 -0.1156  0.1804
 1163TIP3    H1 3453   3.290   2.184   2.878  2.2791 -4.1231 -2.3743
 1163TIP3    H2 3454   3.186   2.226   2.776 -0.0592 -3.6828  0.0689
 1164TIP3   OH2 3455   4.022   5.842   5.402 -0.6438 -0.0155  0.4685
 1164TIP3    H1 3456   3.992   5.844   5.311  1.3917 -1.5704 -0.3151
 1164TIP3    H2 3457   4.068   5.926   5.413 -1.9901  0.7377  0.5029
 1165TIP3   OH2 3458   5.343   5.566   1.892  0.0759  0.4467 -0.6853
 1165TIP3    H1 3459   5.306   5.652   1.872 -1.5004 -0.1374 -0.4417
 1165TIP3    H2 3460   5.318   5.550   1.982 -2.8284 -1.7488 -1.7445
 1166TIP3   OH2 3461   2.942   3.897   3.509  0.1488  0.3702  0.0400
 1166TIP3    H1 3462   2.872   3.832   3.507 -1.2098  1.7673 -0.1483
 1166TIP3    H2 3463   3.021   3.847   3.529 -0.7944 -1.3489 -0.3415
 1167TIP3   OH2 3464   1.120   6.527   0.530  0.1093  0.3983 -0.1489
 1167TIP3    H1 3465   1.210   6.543   0.503 -0.0586  3.2488  0.6910
 1167TIP3    H2 3466   1.126   6.507   0.624 -0.1126  0.2069 -0.1739
 1168TIP3   OH2 3467   2.894   1.794   1.041 -0.1491  0.0381  0.0669
 1168TIP3    H1 3468   2.907   1.883   1.008 -1.7517 -0.2383 -1.4056
 1168TIP3    H2 3469   2.803   1.792   1.069  0.5078 -0.4686  2.4033
 1169TIP3   OH2 3470   2.967   2.984   2.402 -0.0141 -0.0555  0.0754
 1169TIP3    H1 3471   3.061   2.986   2.383 -0.0518 -0.3326 -0.1476
 1169TIP3    H2 3472   2.954   3.056   2.463  0.3811 -0.1410  0.2723
 1170TIP3   OH2 3473   1.299   0.423   3.351  0.5841  0.2807 -0.1153
 1170TIP3    H1 3474   1.379   0.372   3.339  0.9962  0.9635 -0.3804
 1170TIP3    H2 3475   1.322   0.511   3.319 -0.6945  0.1418 -1.5175
 1171TIP3   OH2 3476   0.593   0.384   4.507  0.4661 -0.0876  0.5294
 1171TIP3    H1 3477   0.585   0.295   4.542 -0.7510 -0.7558 -1.2835
 1171TIP3    H2 3478   0.622   0.371   4.417  0.7394  1.4007  0.3776
 1172TIP3   OH2 3479   0.191   6.686   4.850 -0.2932  0.4214  0.5111
 1172TIP3    H1 3480   0.162   6.671   4.940 -0.5223 -0.2244  0.3360
 1172TIP3    H2 3481   0.274   6.733   4.859 -1.5604  2.7018  1.0213
 1173TIP3   OH2 3482   0.717   5.231   1.376  0.2318  0.6908 -0.1944
 1173TIP3    H1 3483   0.737   5.299   1.312 -0.7515  0.6104 -0.6174
 1173TIP3    H2 3484   0.650   5.270   1.433 -1.1202 -0.2227 -1.0759
 1174TIP3   OH2 3485   6.403   2.875   1.185 -1.2294 -0.8294  0.2445
 1174TIP3    H1 3486   6.408   2.971   1.191  0.0076 -0.7812 -0.8730
 1174TIP3    H2 3487   6.325   2.858   1.132 -0.7613 -0.3549 -0.6271
 1175TIP3   OH2 3488   1.397   2.380   1.999 -0.2172  0.2783 -0.7861
 1175TIP3    H1 3489   1.366   2.380   2.090 -0.2106  2.9989 -0.7105
 1175TIP3    H2 3490   1.325   2.343   1.949 -0.4708 -0.6681  0.2400
 1176TIP3   OH2 3491   0.363   3.385   2.829  0.4408  0.0879 -0.2375
 1176TIP3    H1 3492   0.315   3.328   2.889 -0.8214  0.4393 -0.8777
 1176TIP3    H2 3493   0.371   3.335   2.748  1.0572  0.0847 -0.1802
 1177TIP3   OH2 3494   6.419   5.943   2.745  0.1355  0.4856 -0.3332
 1177TIP3    H1 3495   6.409   5.974   2.835 -0.9926  1.3801 -0.7304
 1177TIP3    H2 3496   6.476   6.008   2.703 -0.5918  0.9456 -0.6420
 1178TIP3   OH2 3497   2.624   2.842   4.699 -0.4815  0.0367 -0.1163
 1178TIP3    H1 3498   2.695   2.808   4.753  0.6054 -0.7273 -1.9032
 1178TIP3    H2 3499   2.609   2.774   4.633 -1.0111  1.3280 -1.3990
 1179TIP3   OH2 3500   2.869   4.907   5.097 -0.3715  0.0092 -0.0959
 1179TIP3    H1 3501   2.818   4.834   5.061 -1.1281  0.1579  0.6377
 1179TIP3    H2 3502   2.816   4.939   5.170  0.5325  0.5208  0.3469
 1180TIP3   OH2 3503   4.300   3.708   3.719 -0.3426 -0.3541 -0.0607
 1180TIP3    H1 3504   4.223   3.662   3.688 -0.3487  0.5704 -1.5321
 1180TIP3    H2 3505   4.290   3.797   3.686  1.6777 -0.3828 -0.9244
 1181TIP3   OH2 3506   3.832   4.755   4.898  0.1157 -0.0753 -0.1592
 1181TIP3    H1 3507   3.836   4.827   4.835  0.4317  0.1906  0.1587
 1181TIP3    H2 3508   3.781   4.687   4.854  0.5411  0.0099 -0.8040
 1182TIP3   OH2 3509   1.854   3.876   3.744 -0.5011 -0.3361  0.2625
 1182TIP3    H1 3510   1.831   3.906   3.831 -0.6125 -0.2869  0.2167
 1182TIP3    H2 3511   1.822   3.945   3.685 -0.7245 -0.5239  0.1598
 1183TIP3   OH2 3512   1.115   5.912   3.768 -0.1969  0.2507  0.3448
 1183TIP3    H1 3513   1.207   5.901   3.745 -0.8116 -0.7062 -1.9891
 1183TIP3    H2 3514   1.080   5.823   3.769 -1.4374  0.7051 -0.5278
 1184TIP3   OH2 3515   2.692   3.688   1.755 -1.5825 -0.2592  0.5396
 1184TIP3    H1 3516   2.685   3.783   1.746 -3.0495 -0.4378 -0.5867
 1184TIP3    H2 3517   2.624   3.653   1.697  0.5831 -2.0821 -1.0664
 1185TIP3   OH2 3518   1.897   0.200   5.245 -0.6272 -0.0170 -0.3720
 1185TIP3    H1 3519   1.897   0.252   5.325  0.5137 -0.7187  0.1075
 1185TIP3    H2 3520   1.874   0.263   5.175 -1.3339  0.6593  0.4427
 1186TIP3   OH2 3521   1.996   2.763   4.805 -0.0582 -0.3119 -0.1002
 1186TIP3    H1 3522   1.998   2.667   4.805  0.5561 -0.3108  0.4770
 1186TIP3    H2 3523   2.083   2.789   4.775 -0.6521  0.0889 -1.5964
 1187TIP3   OH2 3524   4.762   0.330   3.317 -0.6008  0.1671  0.3427
 1187TIP3    H1 3525   4.838   0.351   3.372  0.1734 -1.1846 -0.1563
 1187TIP3    H2 3526   4.746   0.237   3.332 -1.5521  0.2106 -0.3080
 1188TIP3   OH2 3527   3.554   0.043   0.250 -0.7405 -0.0807  0.1439
 1188TIP3    H1 3528   3.532   0.096   0.172 -2.6274  1.8413  1.8347
 1188TIP3    H2 3529   3.492  -0.030   0.247 -0.2616 -0.4755 -0.5405
 1189TIP3   OH2 3530   3.306   0.404   4.209  0.3618  0.0418 -0.2776
 1189TIP3    H1 3531   3.374   0.367   4.265  0.1608  0.5716  0.3341
 1189TIP3    H2 3532   3.317   0.359   4.125 -0.7394 -2.3782  0.7948
 1190TIP3   OH2 3533   2.616   5.084   5.101  0.1071 -0.3622  0.0858
 1190TIP3    H1 3534   2.688   5.146   5.108 -0.5933  0.6106 -0.9139
 1190TIP3    H2 3535   2.601   5.054   5.190  0.8559  0.4493  0.4995
 1191TIP3   OH2 3536   2.657   2.249   3.822  0.1147 -0.1968  0.4439
 1191TIP3    H1 3537   2.614   2.241   3.737 -1.1393  0.4766  0.9904
 1191TIP3    H2 3538   2.732   2.306   3.806 -0.1686 -0.0011 -0.1861
 1192TIP3   OH2 3539   5.469   0.317   2.713  0.1986 -0.2110  0.5275
 1192TIP3    H1 3540   5.381   0.355   2.709  0.8051  1.2238  0.5418
 1192TIP3    H2 3541   5.453   0.224   2.731 -1.3499 -0.2168 -0.6151
 1193TIP3   OH2 3542   1.470   2.245   4.972  0.3281  0.2213 -0.2175
 1193TIP3    H1 3543   1.462   2.330   5.016  0.4788  0.4502 -0.6184
 1193TIP3    H2 3544   1.518   2.190   5.034 -0.1702  0.2893  0.2302
 1194TIP3   OH2 3545   5.633   5.451   5.116 -0.1015 -0.7577  0.1107
 1194TIP3    H1 3546   5.709   5.399   5.142 -0.5613 -1.4729  0.0619
 1194TIP3    H2 3547   5.595   5.404   5.043 -0.0337  0.1273 -0.5091
 1195TIP3   OH2 3548   4.223   4.881   1.434  0.6218  0.0583  0.1509
 1195TIP3    H1 3549   4.222   4.973   1.462 -0.3188  0.6193 -1.5803
 1195TIP3    H2 3550   4.234   4.884   1.339 -0.6987 -1.5421 -0.1145
 1196TIP3   OH2 3551   3.305   0.779   3.228 -0.4493 -0.1899 -0.3316
 1196TIP3    H1 3552   3.330   0.692   3.259 -0.2300 -0.7240 -1.8784
 1196TIP3    H2 3553   3.383   0.833   3.239 -1.3922  0.6918  3.3402
 1197TIP3   OH2 3554   5.846   4.981   5.483 -0.1941  0.2886 -0.0673
 1197TIP3    H1 3555   5.873   5.056   5.536 -3.2057  2.9467 -1.9251
 1197TIP3    H2 3556   5.900   4.985   5.404 -0.1047  0.2785 -0.0065
 1198TIP3   OH2 3557   2.212   6.272   5.743 -0.2539  0.2059  0.0123
 1198TIP3    H1 3558   2.286   6.333   5.740  1.4398 -1.7498 -0.0933
 1198TIP3    H2 3559   2.136   6.328   5.762  1.0399  2.4332 -0.9387
 1199TIP3   OH2 3560   0.196   6.759   4.484 -0.2646 -0.2351  0.0457
 1199TIP3    H1 3561   0.157   6.746   4.397  1.3292  0.6242 -0.8582
 1199TIP3    H2 3562   0.164   6.686   4.536  0.4752 -2.0928 -1.9220
 1200TIP3   OH2 3563   1.575   5.356   1.190  0.2536 -0.4038 -0.4945
 1200TIP3    H1 3564   1.534   5.438   1.217 -2.1988 -1.8834  0.6221
 1200TIP3    H2 3565   1.554   5.348   1.097 -1.1869 -0.6378 -0.1723
 1201TIP3   OH2 3566   0.261   6.027   2.540 -0.0093  0.5759 -1.0523
 1201TIP3    H1 3567   0.277   5.957   2.476 -1.2920 -0.8032  0.0600
 1201TIP3    H2 3568   0.167   6.043   2.534 -0.0205  0.9478 -0.0445
 1202TIP3   OH2 3569   4.531   0.653   5.321 -0.2504  0.5324 -0.1982
 1202TIP3    H1 3570   4.441   0.660   5.353 -0.0261 -1.1911  1.0192
 1202TIP3    H2 3571   4.575   0.602   5.389  2.0025  2.4494 -0.1166
 1203TIP3   OH2 3572   2.210   4.345   5.811 -0.6083  0.0998 -0.4107
 1203TIP3    H1 3573   2.134   4.403   5.810 -0.5841  0.2320  1.4453
 1203TIP3    H2 3574   2.274   4.387   5.754 -0.7540  1.6994  0.5377
 1204TIP3   OH2 3575   0.040   6.705   4.280 -0.1662  0.0715  0.1677
 1204TIP3    H1 3576   0.010   6.633   4.224 -0.2570  0.3155 -0.1003
 1204TIP3    H2 3577  -0.040   6.750   4.307 -0.0775  0.4053 -0.1192
 1205TIP3   OH2 3578   3.260   6.730   3.873 -0.2771 -0.4561 -0.2995
 1205TIP3    H1 3579   3.323   6.691   3.812 -1.5119 -2.7534 -0.2192
 1205TIP3    H2 3580   3.273   6.682   3.955  0.5409  1.7807  0.9705
 1206TIP3   OH2 3581   4.865   4.390   3.522  0.3800  0.1482 -0.4567
 1206TIP3    H1 3582   4.861   4.327   3.451 -0.8433  2.5311 -2.6468
 1206TIP3    H2 3583   4.775   4.399   3.552  0.4486  1.1956 -0.5170
 1207TIP3   OH2 3584   3.432   5.945   0.884 -0.0148  0.2492  0.2055
 1207TIP3    H1 3585   3.506   5.902   0.841 -2.8166 -1.3682 -3.6301
 1207TIP3    H2 3586   3.426   5.904   0.970  1.8971 -1.6013 -0.4734
 1208TIP3   OH2 3587   0.843   0.288   5.442 -0.0033 -0.2667  0.3825
 1208TIP3    H1 3588   0.793   0.210   5.465 -2.0132  1.0613  0.7692
 1208TIP3    H2 3589   0.791   0.361   5.475  2.0448  1.2534  0.4908
 1209TIP3   OH2 3590   1.211   2.199   4.922 -0.3202  0.4171 -0.5244
 1209TIP3    H1 3591   1.217   2.142   4.845  1.1378  2.2933 -1.8781
 1209TIP3    H2 3592   1.301   2.223   4.942 -0.7464  0.7035  1.2468
 1210TIP3   OH2 3593   4.957   2.109   2.553 -0.0686 -0.0016  0.3348
 1210TIP3    H1 3594   4.982   2.026   2.512  0.3757 -0.4881  1.5556
 1210TIP3    H2 3595   4.870   2.094   2.589  0.7720 -0.5699  2.2070
 1211TIP3   OH2 3596   2.013   0.025   1.103 -0.5155 -0.2488  0.2091
 1211TIP3    H1 3597   1.927  -0.006   1.130 -0.4556 -0.7926 -0.2120
 1211TIP3    H2 3598   2.013   0.015   1.007 -0.2034  0.3042  0.1495
 1212TIP3   OH2 3599   4.439   6.337   5.650 -0.2736  0.1584 -0.8472
 1212TIP3    H1 3600   4.399   6.285   5.580 -1.1115  0.1361 -0.3673
 1212TIP3    H2 3601   4.530   6.307   5.653 -0.0340  0.6628 -2.3867
 1213TIP3   OH2 3602   4.798   1.024   1.558  0.2001  0.5164  0.3988
 1213TIP3    H1 3603   4.793   1.097   1.619 -1.2302  1.1203 -0.3951
 1213TIP3    H2 3604   4.809   1.064   1.472  0.9808 -0.2692  0.1179
 1214TIP3   OH2 3605   0.656   5.801   0.965  0.1503 -0.1209 -0.2821
 1214TIP3    H1 3606   0.695   5.756   1.040 -0.3687  1.0575  0.7294
 1214TIP3    H2 3607   0.706   5.769   0.889  0.5047 -1.5440  0.5051
 1215TIP3   OH2 3608   7.218   1.920   0.180 -0.4710 -0.4328  0.6713
 1215TIP3    H1 3609   7.124   1.909   0.196 -0.5175 -1.2569 -0.0977
 1215TIP3    H2 3610   7.261   1.887   0.258 -0.8261  0.4350  1.2503
 1216TIP3   OH2 3611   2.325   4.163   3.078 -0.7065  0.7014  0.1349
 1216TIP3    H1 3612   2.267   4.222   3.127 -2.7504 -1.4211  0.4491
 1216TIP3    H2 3613   2.362   4.106   3.145 -2.4805 -1.3539 -0.5068
 1217TIP3   OH2 3614   5.568   3.024   3.660  0.1033 -0.5729 -0.0985
 1217TIP3    H1 3615   5.619   3.038   3.580 -1.1459  1.7484 -0.5896
 1217TIP3    H2 3616   5.633   2.999   3.726  1.4472 -0.5442 -1.3585
 1218TIP3   OH2 3617   2.408   5.812   4.360  0.2998  0.1825  0.1834
 1218TIP3    H1 3618   2.340   5.865   4.401  0.3213  0.6416 -0.3731
 1218TIP3    H2 3619   2.361   5.759   4.295  0.5256  0.7949 -0.4865
 1219TIP3   OH2 3620   5.941   0.308   2.669 -0.1635 -0.0734  0.1219
 1219TIP3    H1 3621   6.025   0.271   2.640 -0.4609 -0.6530 -0.0201
 1219TIP3    H2 3622   5.877   0.240   2.647 -0.9201  1.0848 -1.4380
 1220TIP3   OH2 3623   4.448   0.394   2.791  0.0939  0.4198 -0.4250
 1220TIP3    H1 3624   4.467   0.321   2.850 -1.9942 -0.4970 -0.7892
 1220TIP3    H2 3625   4.533   0.435   2.775  0.9230 -0.1526  2.0753
 1221TIP3   OH2 3626   6.146   3.257   5.651  0.7186  0.3148  0.7166
 1221TIP3    H1 3627   6.098   3.175   5.639 -1.2723  1.3059  1.5081
 1221TIP3    H2 3628   6.137   3.303   5.568 -0.8507  1.0356  1.2503
 1222TIP3   OH2 3629   3.904   5.661   5.767 -0.5246 -0.3397 -0.5180
 1222TIP3    H1 3630   3.849   5.611   5.827  1.0740  0.0824  1.4301
 1222TIP3    H2 3631   3.906   5.749   5.805 -0.8784  0.4161 -2.2049
 1223TIP3   OH2 3632   0.194   6.249   0.263  0.2443 -0.1761 -1.1004
 1223TIP3    H1 3633   0.269   6.243   0.323  0.5931  0.4522 -1.4610
 1223TIP3    H2 3634   0.215   6.187   0.193  0.3386 -0.1371 -1.1075
 1224TIP3   OH2 3635   5.178   0.713   4.449  0.4258  0.4050  0.0017
 1224TIP3    H1 3636   5.169   0.730   4.355  1.3464  0.0659 -0.1512
 1224TIP3    H2 3637   5.091   0.683   4.475 -0.0729  1.3017 -0.5678
 1225TIP3   OH2 3638   4.865   1.375   5.901 -0.3077 -0.3741  0.1740
 1225TIP3    H1 3639   4.951   1.342   5.874 -0.3106 -0.7803  0.6525
 1225TIP3    H2 3640   4.811   1.367   5.822  0.7103  2.2023 -0.8950
 1226TIP3   OH2 3641   2.187   3.046   2.394 -0.2251 -0.8982 -0.2971
 1226TIP3    H1 3642   2.135   3.082   2.466  1.3924 -0.2931  0.6202
 1226TIP3    H2 3643   2.220   2.963   2.427 -1.3406 -1.7451 -1.2310
 1227TIP3   OH2 3644   4.373   1.377   0.737 -0.1568  0.2114 -0.1351
 1227TIP3    H1 3645   4.292   1.331   0.758 -0.1425  0.4908  0.5717
 1227TIP3    H2 3646   4.432   1.309   0.703 -0.9157  0.1344 -1.3491
 1228TIP3   OH2 3647   6.846   1.410   2.448  0.0388 -0.2728  0.6618
 1228TIP3    H1 3648   6.832   1.412   2.353 -0.3285  0.9461  0.7293
 1228TIP3    H2 3649   6.836   1.501   2.476  1.7217 -0.3519  1.6588
 1229TIP3   OH2 3650   2.038   3.602   3.480  0.0833  0.5279 -0.2749
 1229TIP3    H1 3651   1.988   3.533   3.524  2.1850 -1.1960 -0.4160
 1229TIP3    H2 3652   1.972   3.656   3.437 -1.6832 -1.2426  0.0880
 1230TIP3   OH2 3653   6.498   5.128   5.251  0.1074  0.2193 -0.7776
 1230TIP3    H1 3654   6.451   5.053   5.287 -1.7988  1.4083 -0.6984
 1230TIP3    H2 3655   6.448   5.204   5.279  0.9515  1.4231 -2.3881
 1231TIP3   OH2 3656   5.925   0.416   3.632 -0.8649  0.4421 -0.6457
 1231TIP3    H1 3657   5.867   0.344   3.605  1.0970 -0.5381 -2.5167
 1231TIP3    H2 3658   5.921   0.478   3.559 -0.3733  0.8676 -0.3154
 1232TIP3   OH2 3659   5.118   6.459   1.095  0.0499 -0.3441 -0.4394
 1232TIP3    H1 3660   5.171   6.433   1.020  1.3236  0.2370  0.2221
 1232TIP3    H2 3661   5.181   6.493   1.159 -0.8619 -1.7130  1.2983
 1233TIP3   OH2 3662   4.067   1.470   3.815  0.2421 -0.2720 -0.1551
 1233TIP3    H1 3663   4.050   1.564   3.812  2.2398  0.1114 -1.6038
 1233TIP3    H2 3664   3.997   1.431   3.763 -0.4332  0.4360  0.2154
 1234TIP3   OH2 3665   2.767   2.631   3.217  0.3325  0.7916 -0.6605
 1234TIP3    H1 3666   2.807   2.667   3.296  1.3990 -1.2984 -0.1924
 1234TIP3    H2 3667   2.770   2.703   3.154  2.3549  1.5310  0.2120
 1235TIP3   OH2 3668   2.473   1.394   0.310  0.1766 -0.6101 -0.1845
 1235TIP3    H1 3669   2.563   1.369   0.288 -0.0938 -0.5901 -1.3862
 1235TIP3    H2 3670   2.434   1.313   0.344  0.8002 -0.4743  0.9218
 1236TIP3   OH2 3671   0.501   0.682   2.409  0.5872  0.2804 -0.4473
 1236TIP3    H1 3672   0.511   0.592   2.440 -1.0221 -0.4674 -1.9668
 1236TIP3    H2 3673   0.591   0.711   2.394  1.1267 -1.1776 -0.2680
 1237TIP3   OH2 3674   1.157   3.713   5.381  0.6535 -0.1067  0.0223
 1237TIP3    H1 3675   1.221   3.654   5.343  1.8578  2.0212 -1.4678
 1237TIP3    H2 3676   1.194   3.801   5.369 -2.3736  1.2418 -0.7405
 1238TIP3   OH2 3677   5.525   1.419   3.724 -0.3541 -0.1601 -0.1561
 1238TIP3    H1 3678   5.468   1.452   3.793 -1.3841 -0.3839 -0.8852
 1238TIP3    H2 3679   5.613   1.423   3.762 -0.7496  0.9517  0.6922
 1239TIP3   OH2 3680   5.489   4.535   0.181  0.2674  0.0157  0.3862
 1239TIP3    H1 3681   5.498   4.518   0.275  0.9880 -1.9230  0.0248
 1239TIP3    H2 3682   5.579   4.543   0.150  0.0261  0.9010 -0.1109
 1240TIP3   OH2 3683   0.672   2.525   1.810 -0.0301 -0.0678  0.5058
 1240TIP3    H1 3684   0.613   2.479   1.751  0.0089  1.4122 -0.7722
 1240TIP3    H2 3685   0.616   2.588   1.856 -0.5236 -2.6859  3.8977
 1241TIP3   OH2 3686   5.241   6.492   5.619  0.2090  0.2725 -0.2576
 1241TIP3    H1 3687   5.272   6.505   5.708 -0.6781  0.0089  0.0966
 1241TIP3    H2 3688   5.274   6.568   5.571  1.0068  0.2233  0.2020
 1242TIP3   OH2 3689   5.321   0.942   1.446 -0.2066  0.0359 -0.5052
 1242TIP3    H1 3690   5.399   0.996   1.462 -2.0567  3.1800 -1.2058
 1242TIP3    H2 3691   5.312   0.940   1.351 -0.9849 -0.2651 -0.4336
 1243TIP3   OH2 3692   4.144   6.430   5.715 -0.8302  0.1028  0.1177
 1243TIP3    H1 3693   4.177   6.386   5.637 -0.1040  1.7877 -0.5766
 1243TIP3    H2 3694   4.117   6.517   5.684 -0.4385  0.8449  1.7492
 1244TIP3   OH2 3695   3.872   3.509   2.504 -0.2074 -0.2593  0.1172
 1244TIP3    H1 3696   3.847   3.599   2.483 -0.8492 -0.0757  1.5536
 1244TIP3    H2 3697   3.886   3.468   2.419 -2.6266  0.4274 -0.6947
 1245TIP3   OH2 3698   6.993   2.152   2.211 -0.7533 -0.5709  0.5257
 1245TIP3    H1 3699   7.056   2.124   2.278 -0.5124  0.7762  0.8932
 1245TIP3    H2 3700   6.983   2.075   2.155  2.7246 -0.3395 -0.6961
 1246TIP3   OH2 3701   6.926   5.678   1.705  0.1596  0.7022  0.3171
 1246TIP3    H1 3702   6.861   5.610   1.686 -0.1116  1.4668 -1.8007
 1246TIP3    H2 3703   7.002   5.654   1.652  0.4508  1.4775  0.3677
 1247TIP3   OH2 3704   6.102   4.175   1.463 -0.2929  0.5415  0.1392
 1247TIP3    H1 3705   6.043   4.167   1.388 -0.7374  1.2071  0.4023
 1247TIP3    H2 3706   6.188   4.193   1.425 -0.3451  0.0088 -0.2353
 1248TIP3   OH2 3707   1.325   4.963   2.763 -0.7228 -0.3148  0.1236
 1248TIP3    H1 3708   1.259   4.957   2.833 -0.0955 -1.2207  0.6554
 1248TIP3    H2 3709   1.385   5.030   2.794 -0.8345 -0.2146  0.1240
 1249TIP3   OH2 3710   5.176   6.197   5.879  0.3223 -0.0837 -0.0196
 1249TIP3    H1 3711   5.270   6.180   5.874  0.3753  0.5993 -1.7859
 1249TIP3    H2 3712   5.141   6.166   5.796 -0.9404  0.2021  0.3824
 1250TIP3   OH2 3713   6.951   6.507   5.620  0.4288  0.1012  0.3321
 1250TIP3    H1 3714   6.911   6.451   5.553 -0.1853  0.1495  0.6505
 1250TIP3    H2 3715   6.993   6.446   5.680  2.8329  0.1238 -1.2044
 1251TIP3   OH2 3716   3.585   2.490   4.434  0.0113  0.3246 -0.4790
 1251TIP3    H1 3717   3.538   2.414   4.468  1.7074  0.5334  2.7017
 1251TIP3    H2 3718   3.636   2.456   4.361 -2.3876 -0.5984 -1.8506
 1252TIP3   OH2 3719   2.118   1.308   2.244  0.1104  0.8462 -0.0931
 1252TIP3    H1 3720   2.203   1.351   2.236 -0.9467  2.8512 -1.6859
 1252TIP3    H2 3721   2.061   1.357   2.184 -1.9486 -1.0054  0.2233
 1253TIP3   OH2 3722   1.631   0.040   0.803 -0.1067 -0.2793 -0.0627
 1253TIP3    H1 3723   1.652  -0.029   0.740  0.1717  0.1799 -0.4796
 1253TIP3    H2 3724   1.588  -0.006   0.875  1.7898 -1.1790  0.5558
 1254TIP3   OH2 3725   6.697   1.856   2.106  0.1269 -0.3325 -0.1287
 1254TIP3    H1 3726   6.698   1.827   2.198  1.0513  0.8061  0.2518
 1254TIP3    H2 3727   6.789   1.877   2.087 -0.0300 -0.7447 -1.3837
 1255TIP3   OH2 3728   6.198   5.230   1.730  0.3165 -0.4441  0.2998
 1255TIP3    H1 3729   6.149   5.311   1.712 -1.2817 -1.4119  0.0643
 1255TIP3    H2 3730   6.278   5.239   1.679  0.3944  1.1845  0.6502
 1256TIP3   OH2 3731   7.191   0.530   1.478 -0.1758 -0.6362 -0.1962
 1256TIP3    H1 3732   7.206   0.455   1.421 -0.4117 -0.7357 -0.1281
 1256TIP3    H2 3733   7.117   0.504   1.533  1.1159 -1.2182  1.3464
 1257TIP3   OH2 3734   4.790   4.430   1.382 -0.5855  0.0004  0.1306
 1257TIP3    H1 3735   4.797   4.431   1.286  0.2961  0.5252  0.1901
 1257TIP3    H2 3736   4.706   4.388   1.399 -0.0747 -1.5252 -0.8433
 1258TIP3   OH2 3737   6.106   6.371   3.806  0.0605 -0.2104 -0.5347
 1258TIP3    H1 3738   6.089   6.376   3.901  0.3429  3.0247 -0.5604
 1258TIP3    H2 3739   6.187   6.320   3.799 -0.0810 -0.6953  0.9214
 1259TIP3   OH2 3740   4.258   4.668   2.601 -0.6448  0.0242  0.6616
 1259TIP3    H1 3741   4.283   4.719   2.678  1.8198  1.0239 -0.6546
 1259TIP3    H2 3742   4.296   4.717   2.527 -1.3095 -1.8445 -1.0103
 1260TIP3   OH2 3743   2.093   0.015   0.833 -0.0785  1.3248 -0.2172
 1260TIP3    H1 3744   2.156   0.087   0.830  1.7343 -0.1300  0.7387
 1260TIP3    H2 3745   2.098  -0.025   0.747  2.3438 -0.3299  0.5769
 1261TIP3   OH2 3746   4.376   0.977   5.466 -0.3098 -0.4983  0.0531
 1261TIP3    H1 3747   4.384   0.892   5.424  0.0589 -0.0039 -0.9051
 1261TIP3    H2 3748   4.296   1.014   5.429  0.4267  0.2623 -0.8539
 1262TIP3   OH2 3749   1.319   4.409   0.673 -0.1129 -0.3059  0.2586
 1262TIP3    H1 3750   1.275   4.455   0.601  1.1566 -0.3700 -0.5934
 1262TIP3    H2 3751   1.357   4.479   0.726 -1.2387 -0.2500  1.0072
 1263TIP3   OH2 3752   1.150   2.072   2.632 -0.1089 -0.2143 -0.0269
 1263TIP3    H1 3753   1.079   2.026   2.677  0.4376 -1.0520  0.0183
 1263TIP3    H2 3754   1.210   2.002   2.606  0.8040  0.4939  0.1329
 1264TIP3   OH2 3755   6.945   4.005   0.105  0.3139  0.0921 -0.2413
 1264TIP3    H1 3756   6.944   4.100   0.115 -2.5955 -0.0078  1.3376
 1264TIP3    H2 3757   6.931   3.991   0.011 -0.0600  1.2307 -0.3785
 1265TIP3   OH2 3758   7.120   4.117   2.511  0.0388  0.3223  0.7486
 1265TIP3    H1 3759   7.209   4.135   2.480  0.0979  1.4492  1.4885
 1265TIP3    H2 3760   7.068   4.111   2.431  0.9092 -1.2053  0.2661
 1266TIP3   OH2 3761   0.460   0.669   1.874  0.0345  0.5023 -0.0472
 1266TIP3    H1 3762   0.463   0.618   1.793  1.0743  0.8286 -0.2279
 1266TIP3    H2 3763   0.464   0.603   1.944  1.4347  0.3090 -0.2758
 1267TIP3   OH2 3764   6.779   4.210   0.685  0.1853 -0.2889 -0.1060
 1267TIP3    H1 3765   6.784   4.182   0.594  0.9480  0.3616 -0.2823
 1267TIP3    H2 3766   6.729   4.292   0.682  0.1667 -0.2933  0.0634
 1268TIP3   OH2 3767   6.852   0.403   1.994 -0.0417 -0.4309  0.4628
 1268TIP3    H1 3768   6.885   0.463   1.927  1.2476 -3.0125 -1.4016
 1268TIP3    H2 3769   6.902   0.423   2.072 -0.3787  1.5422  0.2144
 1269TIP3   OH2 3770   6.086   6.541   0.096  0.0453  0.4494 -0.2724
 1269TIP3    H1 3771   6.044   6.489   0.028  1.1047  0.7629 -1.2219
 1269TIP3    H2 3772   6.038   6.624   0.097 -0.2814  0.2588 -0.2963
 1270TIP3   OH2 3773   1.543   6.176  -0.028 -0.4360 -0.3751 -0.5571
 1270TIP3    H1 3774   1.469   6.192   0.030 -1.4990 -0.8827 -1.6999
 1270TIP3    H2 3775   1.617   6.222   0.012 -0.9225 -1.3241  1.5631
 1271TIP3   OH2 3776   2.104   3.457   5.634 -0.0756 -0.2049 -0.0343
 1271TIP3    H1 3777   2.183   3.419   5.672 -0.3244 -1.0333 -0.3197
 1271TIP3    H2 3778   2.129   3.547   5.610  0.3747 -0.0092  1.1156
 1272TIP3   OH2 3779   5.100   3.277   2.796  0.0689 -0.1902 -0.0282
 1272TIP3    H1 3780   5.034   3.209   2.810  0.4419 -0.5553 -0.0043
 1272TIP3    H2 3781   5.069   3.326   2.721 -0.5313  0.0148  0.3440
 1273TIP3   OH2 3782   2.300   5.805   0.125 -0.5237  0.1335 -0.8283
 1273TIP3    H1 3783   2.265   5.862   0.056  0.0007 -1.9207 -2.9216
 1273TIP3    H2 3784   2.258   5.721   0.111  1.8170 -1.1701 -0.5668
 1274TIP3   OH2 3785   3.538   2.976   5.827 -0.2996 -0.2732 -0.0062
 1274TIP3    H1 3786   3.469   2.995   5.763 -0.0111  0.9638  0.0098
 1274TIP3    H2 3787   3.497   2.918   5.890 -1.5757  0.9983  0.4004
 1275TIP3   OH2 3788   5.766   0.264   1.127 -0.3595  0.1387  0.2839
 1275TIP3    H1 3789   5.765   0.207   1.204 -1.5178 -0.3289 -0.0573
 1275TIP3    H2 3790   5.699   0.331   1.146 -1.5262 -0.6762 -0.7994
 1276TIP3   OH2 3791   3.721   0.275   4.463  0.3020 -0.3020  0.1307
 1276TIP3    H1 3792   3.667   0.292   4.540  0.2672 -1.2987  0.3383
 1276TIP3    H2 3793   3.810   0.299   4.490  0.1689  0.1330  0.1989
 1277TIP3   OH2 3794   4.814   1.066   2.791 -0.2107  0.2909 -0.3678
 1277TIP3    H1 3795   4.803   1.028   2.703  1.4655 -0.9683 -0.0850
 1277TIP3    H2 3796   4.847   1.154   2.774 -0.0318  0.1088 -1.0009
 1278TIP3   OH2 3797   6.735   4.920   2.825 -0.1893  0.7842  0.2544
 1278TIP3    H1 3798   6.782   5.003   2.824 -0.9975  1.2632 -1.0707
 1278TIP3    H2 3799   6.776   4.869   2.755 -0.0607  0.2736  0.6987
 1279TIP3   OH2 3800   5.466   4.948   5.137 -0.0317  0.4157 -0.0664
 1279TIP3    H1 3801   5.560   4.936   5.144 -0.3356 -1.7259  1.4500
 1279TIP3    H2 3802   5.439   4.980   5.224 -0.6814  1.3265 -0.5852
 1280TIP3   OH2 3803   2.057   6.397   0.705  0.0517 -0.0882  0.4036
 1280TIP3    H1 3804   1.963   6.398   0.725 -0.8390 -2.7580 -2.7868
 1280TIP3    H2 3805   2.099   6.399   0.791 -2.9630 -0.4092  2.0399
 1281TIP3   OH2 3806   3.501   3.793   3.859 -0.2744  0.2754  0.5009
 1281TIP3    H1 3807   3.549   3.827   3.784 -0.3838 -1.0945 -0.2163
 1281TIP3    H2 3808   3.568   3.785   3.928 -0.5257  3.3317  1.2327
 1282TIP3   OH2 3809   1.126   0.248   4.214 -0.7922 -0.1956 -0.2283
 1282TIP3    H1 3810   1.164   0.265   4.300 -1.1763  0.4298 -0.1795
 1282TIP3    H2 3811   1.040   0.212   4.232 -0.6569 -0.5768 -0.3467
 1283TIP3   OH2 3812   5.951   4.058   3.595 -0.0048  0.2965 -0.4524
 1283TIP3    H1 3813   5.887   3.987   3.581 -0.8256  0.8302  0.4445
 1283TIP3    H2 3814   6.018   4.018   3.650 -0.9327  0.4327  0.8238
 1284TIP3   OH2 3815   0.202   0.723   1.888  0.1961 -0.7618 -0.3627
 1284TIP3    H1 3816   0.162   0.754   1.807  1.4982  0.2208 -0.6761
 1284TIP3    H2 3817   0.295   0.711   1.866  0.4913 -0.9150  0.8559
 1285TIP3   OH2 3818   7.150   2.647   1.238  0.8026  0.5359 -0.3703
 1285TIP3    H1 3819   7.193   2.733   1.238  2.0804 -0.0763 -0.2295
 1285TIP3    H2 3820   7.093   2.649   1.315  0.5150  1.4043 -0.5976
 1286TIP3   OH2 3821   6.639   5.520   4.653 -0.0300  0.1928  0.1845
 1286TIP3    H1 3822   6.615   5.498   4.743 -1.3550 -1.9759 -0.6235
 1286TIP3    H2 3823   6.561   5.501   4.602  0.4389  2.1505 -1.3607
 1287TIP3   OH2 3824   0.590   0.505   5.040 -0.4312  0.6563  0.0155
 1287TIP3    H1 3825   0.610   0.570   4.972 -0.1985 -0.8725 -1.4457
 1287TIP3    H2 3826   0.676   0.473   5.067 -0.5844  0.0908 -0.1615
 1288TIP3   OH2 3827   6.563   3.241   4.395  0.1805  0.3089 -0.3481
 1288TIP3    H1 3828   6.537   3.224   4.486 -1.1134  1.2862 -0.5105
 1288TIP3    H2 3829   6.652   3.274   4.402  0.2663 -0.0588  0.5181
 1289TIP3   OH2 3830   4.916   2.350   0.520 -0.3612  0.2042  0.5126
 1289TIP3    H1 3831   4.888   2.268   0.477 -1.8135  0.1266  1.5296
 1289TIP3    H2 3832   4.884   2.419   0.462  0.6165  0.0841 -0.2012
 1290TIP3   OH2 3833   2.075   0.645   5.541  0.0727  0.5498 -0.4328
 1290TIP3    H1 3834   1.984   0.671   5.527 -0.6648 -0.7868  1.4409
 1290TIP3    H2 3835   2.105   0.701   5.613  1.4572  2.3942 -2.3324
 1291TIP3   OH2 3836   3.721   5.160   2.900  0.1439  0.1951 -0.5849
 1291TIP3    H1 3837   3.662   5.084   2.899  0.6650 -0.2238 -1.9081
 1291TIP3    H2 3838   3.664   5.234   2.922 -0.9354 -0.1743 -1.9912
 1292TIP3   OH2 3839   1.875   6.628   2.316  0.0217  0.0398  0.5153
 1292TIP3    H1 3840   1.906   6.718   2.315  1.3118 -0.3886 -0.2515
 1292TIP3    H2 3841   1.916   6.589   2.392 -1.9180  0.5106  1.8911
 1293TIP3   OH2 3842   2.182   3.634   0.359 -0.2931 -0.4299  0.0065
 1293TIP3    H1 3843   2.147   3.706   0.306 -0.5421 -0.3171  0.3188
 1293TIP3    H2 3844   2.105   3.583   0.383 -0.2238 -0.3017  0.5200
 1294TIP3   OH2 3845   6.550   2.369   5.153 -0.1885  0.2639 -0.4737
 1294TIP3    H1 3846   6.582   2.442   5.207  1.8511  0.8090 -2.2399
 1294TIP3    H2 3847   6.564   2.291   5.207 -2.7668  1.1108  1.6163
 1295TIP3   OH2 3848   1.805   0.948   2.257 -0.2092  0.2774  0.1228
 1295TIP3    H1 3849   1.741   0.983   2.195  0.6337  1.6530 -0.0223
 1295TIP3    H2 3850   1.752   0.923   2.334 -0.9773  0.8935 -0.1880
 1296TIP3   OH2 3851   2.785   6.236   0.470  0.3181 -0.1831  0.1839
 1296TIP3    H1 3852   2.707   6.184   0.490  0.1227 -0.6377 -1.5687
 1296TIP3    H2 3853   2.853   6.199   0.525  0.4297 -3.0277 -1.6398
 1297TIP3   OH2 3854   0.754   2.560   4.697  0.3110  0.3608 -0.1966
 1297TIP3    H1 3855   0.800   2.486   4.736  0.7277  0.1986 -0.9696
 1297TIP3    H2 3856   0.773   2.553   4.604 -2.1513 -0.3118 -0.7093
 1298TIP3   OH2 3857   1.783   3.504   0.108 -1.0570  0.4671 -0.5115
 1298TIP3    H1 3858   1.778   3.409   0.122 -2.2058  0.6199  0.1581
 1298TIP3    H2 3859   1.756   3.542   0.191 -2.1220  1.3878 -1.2607
 1299TIP3   OH2 3860   6.625   1.769   3.131  0.0789  0.0470 -0.5369
 1299TIP3    H1 3861   6.618   1.837   3.199 -0.6664 -0.4875 -0.0563
 1299TIP3    H2 3862   6.535   1.738   3.120  0.1805  0.2079 -1.8698
 1300TIP3   OH2 3863   0.184   2.510   1.114 -0.2381 -0.0161  0.2314
 1300TIP3    H1 3864   0.170   2.530   1.022  0.4144 -0.3094  0.0574
 1300TIP3    H2 3865   0.114   2.556   1.160 -3.0410 -3.0005 -0.6649
 1301TIP3   OH2 3866   0.200   5.468   5.425  0.1324  0.6566 -0.0204
 1301TIP3    H1 3867   0.136   5.438   5.361  1.0168 -1.0760 -0.1516
 1301TIP3    H2 3868   0.284   5.465   5.379  0.7685 -0.5494  1.1536
 1302TIP3   OH2 3869   5.724   2.714   3.840  0.7168  0.2530  0.4084
 1302TIP3    H1 3870   5.646   2.659   3.839  1.1096 -0.3418  1.5484
 1302TIP3    H2 3871   5.771   2.690   3.759  0.2496 -0.1564  0.2537
 1303TIP3   OH2 3872   7.011   5.176   2.434  0.0225 -0.2902  0.7180
 1303TIP3    H1 3873   7.087   5.214   2.477  0.9560 -0.4922 -0.6944
 1303TIP3    H2 3874   6.956   5.251   2.412  0.0766 -0.0938  1.2455
 1304TIP3   OH2 3875   3.616   5.003   0.467 -0.0587  0.5805 -0.0550
 1304TIP3    H1 3876   3.609   5.099   0.470 -1.3889  0.4977  0.0962
 1304TIP3    H2 3877   3.703   4.987   0.430  0.8315  1.8347  1.3622
 1305TIP3   OH2 3878   3.534   5.588   3.390 -0.3068  0.0383  0.8014
 1305TIP3    H1 3879   3.554   5.659   3.451  2.1328 -1.1300  1.4676
 1305TIP3    H2 3880   3.539   5.509   3.444 -2.9124 -0.7230  0.0641
 1306TIP3   OH2 3881   0.663   2.357   4.396  0.2595  0.3951  0.9755
 1306TIP3    H1 3882   0.710   2.275   4.414 -2.1209 -1.1732  0.4881
 1306TIP3    H2 3883   0.576   2.343   4.434 -1.2901  1.3733 -1.9513
 1307TIP3   OH2 3884   0.173   0.915   4.106  0.2968  0.6304  0.1954
 1307TIP3    H1 3885   0.182   0.825   4.075  0.7955 -0.2803  2.6978
 1307TIP3    H2 3886   0.196   0.969   4.031  0.6083 -1.3239 -1.2031
 1308TIP3   OH2 3887   5.406   2.873   5.375  0.5125 -0.0586 -0.2001
 1308TIP3    H1 3888   5.414   2.965   5.401  0.2393  0.3597 -1.5101
 1308TIP3    H2 3889   5.344   2.874   5.302  0.0585 -1.3640  0.1420
 1309TIP3   OH2 3890   6.914   5.987   0.987 -0.8269  0.0847  0.1549
 1309TIP3    H1 3891   6.904   6.070   0.939 -0.7679  0.3323  0.5702
 1309TIP3    H2 3892   6.996   5.951   0.953  0.1653  1.1260  1.3419
 1310TIP3   OH2 3893   6.627   4.030   1.989  0.0756  0.3180  0.1609
 1310TIP3    H1 3894   6.618   4.119   1.955  0.5878  0.6409  0.8425
 1310TIP3    H2 3895   6.592   4.034   2.078 -2.6662 -0.8641 -0.7536
 1311TIP3   OH2 3896   2.423   4.803   4.404 -0.3283  0.1155  0.1724
 1311TIP3    H1 3897   2.431   4.727   4.462 -0.7518  0.4119  0.6204
 1311TIP3    H2 3898   2.396   4.766   4.320  0.5447 -0.3425  0.0809
 1312TIP3   OH2 3899   5.110   5.639   5.754 -0.2958 -0.2671 -0.3575
 1312TIP3    H1 3900   5.141   5.564   5.805  0.3009 -0.2006 -0.6142
 1312TIP3    H2 3901   5.174   5.708   5.773  0.9531 -0.7402 -2.5178
 1313TIP3   OH2 3902   1.045   5.705   1.259 -0.4427  0.4536 -0.8358
 1313TIP3    H1 3903   0.972   5.644   1.268 -0.8311  0.9870 -0.1901
 1313TIP3    H2 3904   1.118   5.652   1.229 -0.8699 -0.2590 -0.6383
 1314TIP3   OH2 3905   3.542   2.738   4.269 -0.3667  0.4810 -0.2399
 1314TIP3    H1 3906   3.508   2.810   4.321  1.1443  1.2811 -0.2989
 1314TIP3    H2 3907   3.524   2.660   4.321 -0.9178  1.0294  0.4074
 1315TIP3   OH2 3908   3.801   2.381   4.291 -0.3015 -0.4312 -0.1982
 1315TIP3    H1 3909   3.800   2.413   4.201 -0.5322  0.0088 -0.0400
 1315TIP3    H2 3910   3.894   2.376   4.313 -0.2260  2.3926  0.5584
 1316TIP3   OH2 3911   5.384   1.174   4.740  0.0433  0.2742  0.1160
 1316TIP3    H1 3912   5.306   1.119   4.734 -0.5190  1.1537 -1.2312
 1316TIP3    H2 3913   5.370   1.229   4.817 -1.4054  1.4430 -0.9289
 1317TIP3   OH2 3914   3.712   0.380   2.975  0.3149  0.5331 -0.2479
 1317TIP3    H1 3915   3.626   0.420   2.960 -0.0157  0.0949  0.4247
 1317TIP3    H2 3916   3.774   0.452   2.966  0.2236  0.3709 -3.7088
 1318TIP3   OH2 3917   5.287   0.668   1.531 -0.6220 -0.5416  0.3258
 1318TIP3    H1 3918   5.279   0.634   1.442 -2.0682 -0.3946  0.3654
 1318TIP3    H2 3919   5.283   0.763   1.521  0.6119 -0.4694  0.4421
 1319TIP3   OH2 3920   1.623   3.396   1.912  0.9667 -0.0995  0.6164
 1319TIP3    H1 3921   1.697   3.398   1.851  1.0406  0.3675  0.7208
 1319TIP3    H2 3922   1.568   3.324   1.880  2.3308 -1.6281  1.5728
 1320TIP3   OH2 3923   2.771   4.798   5.809  0.1619 -0.2614  0.8076
 1320TIP3    H1 3924   2.684   4.805   5.847  0.2599  0.3123  0.9335
 1320TIP3    H2 3925   2.770   4.715   5.761 -0.3147 -0.4589  1.1520
 1321TIP3   OH2 3926   1.949   4.147   1.396  0.3041 -0.3707  0.1380
 1321TIP3    H1 3927   1.959   4.085   1.324 -2.0387 -1.2607  0.4787
 1321TIP3    H2 3928   1.874   4.201   1.370  0.4263  0.3296  1.1973
 1322TIP3   OH2 3929   5.854   1.873   5.481  0.1972  0.2849 -0.2935
 1322TIP3    H1 3930   5.916   1.898   5.412  1.1671 -0.6774  0.1977
 1322TIP3    H2 3931   5.778   1.838   5.434  1.5844 -2.1283 -0.9207
 1323TIP3   OH2 3932   5.661   4.875   0.726  0.0978 -0.7054 -0.3579
 1323TIP3    H1 3933   5.585   4.818   0.740 -0.6406  0.1705 -0.6421
 1323TIP3    H2 3934   5.642   4.953   0.778  1.4807 -1.0289  0.6879
 1324TIP3   OH2 3935   2.037   2.391   0.820  0.5568 -0.0184 -0.2234
 1324TIP3    H1 3936   2.001   2.304   0.840  1.4321 -0.8233 -1.9667
 1324TIP3    H2 3937   1.961   2.444   0.798  0.0940 -0.6144 -0.0849
 1325TIP3   OH2 3938   1.971   0.884   3.877  0.0012  0.4186  0.5499
 1325TIP3    H1 3939   2.043   0.944   3.857  0.3816 -0.4467 -0.8269
 1325TIP3    H2 3940   2.014   0.799   3.889 -0.7427 -0.0090  0.1965
 1326TIP3   OH2 3941   6.350   5.381   5.836  0.0005  0.0941 -0.3084
 1326TIP3    H1 3942   6.358   5.292   5.871 -0.3853  0.7466  1.5826
 1326TIP3    H2 3943   6.432   5.396   5.789  1.4214 -0.2532  1.8842
 1327TIP3   OH2 3944   0.450   6.649   3.204 -0.2836 -0.3672  0.2051
 1327TIP3    H1 3945   0.440   6.740   3.230  0.4569  0.0593 -0.9294
 1327TIP3    H2 3946   0.477   6.603   3.283  0.3727  0.5897  0.5456
 1328TIP3   OH2 3947   6.247   1.002   4.185 -0.2627  0.6472  0.0755
 1328TIP3    H1 3948   6.238   1.004   4.090  1.3828 -0.4823 -0.1320
 1328TIP3    H2 3949   6.277   1.090   4.208  2.7587 -0.0187 -0.8958
 1329TIP3   OH2 3950   3.646   4.084   1.464  0.0101 -0.2434  0.5079
 1329TIP3    H1 3951   3.670   4.048   1.378  0.7066  0.8104  0.2388
 1329TIP3    H2 3952   3.638   4.007   1.521  0.0092 -0.9246 -0.3834
 1330TIP3   OH2 3953   5.950   0.402   0.475 -0.7676 -0.1951  0.2754
 1330TIP3    H1 3954   6.005   0.475   0.503 -1.2753  0.1448  0.3972
 1330TIP3    H2 3955   5.951   0.407   0.380  0.1263 -0.7317  0.2404
 1331TIP3   OH2 3956   3.891   6.551   3.124  0.1562  0.5728  0.3934
 1331TIP3    H1 3957   3.903   6.644   3.146 -1.5944  0.6213  1.2946
 1331TIP3    H2 3958   3.980   6.520   3.105  0.6668  2.6592 -0.9603
 1332TIP3   OH2 3959   4.911   5.933   4.909 -0.0894 -0.2964  0.4315
 1332TIP3    H1 3960   4.950   5.873   4.846 -1.7559  0.3388 -1.3021
 1332TIP3    H2 3961   4.962   5.921   4.989  1.4482 -1.8815 -0.7233
 1333TIP3   OH2 3962   4.137   3.459   2.630  0.1525  0.4461  0.2708
 1333TIP3    H1 3963   4.175   3.511   2.558 -0.6236 -1.0761 -1.3193
 1333TIP3    H2 3964   4.047   3.491   2.636  0.0715  0.2207  0.2277
 1334TIP3   OH2 3965   2.833   0.783   3.184  0.5127 -0.7655 -0.2612
 1334TIP3    H1 3966   2.753   0.787   3.237  0.7608  1.0009  0.0539
 1334TIP3    H2 3967   2.896   0.837   3.231  2.3008 -2.9657  0.0652
 1335TIP3   OH2 3968   6.059   5.814   1.279 -0.1325 -0.7062  0.2199
 1335TIP3    H1 3969   6.041   5.898   1.237  0.9220 -0.5487  0.0604
 1335TIP3    H2 3970   5.974   5.769   1.280 -0.2888 -0.5127 -1.6130
 1336TIP3   OH2 3971   0.297   2.643   4.740  0.1018 -0.3587  0.1145
 1336TIP3    H1 3972   0.348   2.574   4.784 -0.4651  0.0779  1.5041
 1336TIP3    H2 3973   0.311   2.627   4.647  1.7244 -1.0394  0.4450
 1337TIP3   OH2 3974   1.066   1.388   1.122  0.0903  0.5084  0.1536
 1337TIP3    H1 3975   1.097   1.350   1.040 -3.9099 -1.5238 -0.6751
 1337TIP3    H2 3976   1.109   1.335   1.190 -0.1711 -1.0778 -0.8495
 1338TIP3   OH2 3977   1.594   0.575   1.628 -0.5079  0.3250  0.1434
 1338TIP3    H1 3978   1.682   0.611   1.639  1.3475 -3.7410  0.6634
 1338TIP3    H2 3979   1.574   0.589   1.535  1.3110  0.2324 -0.3069
 1339TIP3   OH2 3980   1.141   1.710   0.117 -0.1676 -0.8320 -0.6834
 1339TIP3    H1 3981   1.177   1.625   0.139  0.8718 -0.1755  0.2109
 1339TIP3    H2 3982   1.116   1.749   0.201 -0.1481 -0.0477 -1.0278
 1340TIP3   OH2 3983   5.227   6.273   0.367 -0.1315 -0.0556 -0.1132
 1340TIP3    H1 3984   5.290   6.344   0.381  1.0475 -1.5375  3.6450
 1340TIP3    H2 3985   5.157   6.290   0.430 -0.3461 -1.6142  0.1260
 1341TIP3   OH2 3986   2.163   1.131   2.881 -0.1704  0.3394 -0.0545
 1341TIP3    H1 3987   2.184   1.204   2.822  1.9410  0.6433  0.9718
 1341TIP3    H2 3988   2.229   1.065   2.860 -1.5909 -1.0093 -0.4291
 1342TIP3   OH2 3989   4.080   1.008   3.419  0.5298 -0.1966 -0.7095
 1342TIP3    H1 3990   4.041   0.947   3.357  1.4432  0.1469 -1.6730
 1342TIP3    H2 3991   4.007   1.063   3.448  0.1189 -0.1827 -1.7169
 1343TIP3   OH2 3992   0.158   1.805   1.241  0.3790 -0.1513 -0.1346
 1343TIP3    H1 3993   0.132   1.720   1.279  2.0469 -0.0930  1.2716
 1343TIP3    H2 3994   0.208   1.847   1.311  1.5292  1.0293 -1.6128
 1344TIP3   OH2 3995   2.314   3.253   4.878 -0.1224  0.3448  0.0445
 1344TIP3    H1 3996   2.291   3.266   4.786  1.9806 -0.1403 -0.6031
 1344TIP3    H2 3997   2.265   3.175   4.904  0.2485 -0.2750 -1.0604
 1345TIP3   OH2 3998   2.800   6.147   5.792  0.1952  0.4540 -0.3601
 1345TIP3    H1 3999   2.794   6.150   5.888  0.4669 -0.7025 -0.3008
 1345TIP3    H2 4000   2.723   6.098   5.764 -0.0297  1.0195 -0.7703
 1346TIP3   OH2 4001   1.363   1.855   5.281  0.7391  0.7165 -0.3314
 1346TIP3    H1 4002   1.404   1.812   5.356 -0.6186  0.2576  0.1789
 1346TIP3    H2 4003   1.437   1.887   5.229  1.7177  0.6671  0.9687
 1347TIP3   OH2 4004   1.343   5.826   0.224  0.3958 -0.1863  0.5889
 1347TIP3    H1 4005   1.305   5.914   0.229 -2.1410 -1.0838 -1.0930
 1347TIP3    H2 4006   1.300   5.785   0.149  2.0949 -2.6299  0.8241
 1348TIP3   OH2 4007   0.322   2.039   4.258  0.2599  0.2381 -0.0102
 1348TIP3    H1 4008   0.374   2.064   4.182  1.1638 -0.1107  0.4833
 1348TIP3    H2 4009   0.275   1.960   4.229  0.3631  0.2819 -0.3021
 1349TIP3   OH2 4010   2.410   3.044   2.609 -0.3596  0.6980 -0.1009
 1349TIP3    H1 4011   2.343   3.081   2.666 -0.2628 -0.2015  0.6061
 1349TIP3    H2 4012   2.467   2.994   2.668 -0.8534 -1.1230 -1.1283
 1350TIP3   OH2 4013   3.507   6.133   2.790  0.0944  0.2373  0.2763
 1350TIP3    H1 4014   3.528   6.224   2.772  1.5713 -0.1936 -0.3320
 1350TIP3    H2 4015   3.447   6.107   2.719  0.4440  0.4665 -0.1050
 1351TIP3   OH2 4016   4.902   0.235   2.708  0.2306 -0.3739  0.2511
 1351TIP3    H1 4017   4.989   0.207   2.736 -0.0480 -0.0420  1.4993
 1351TIP3    H2 4018   4.846   0.220   2.784 -0.8929 -0.9611 -0.6694
 1352TIP3   OH2 4019   6.688   4.137   4.736 -0.3706  0.1625 -0.1937
 1352TIP3    H1 4020   6.685   4.072   4.807 -2.3910 -0.4451 -0.7603
 1352TIP3    H2 4021   6.745   4.098   4.670 -0.0484 -0.1653  0.2722
 1353TIP3   OH2 4022   0.950   5.301   3.528  0.4401  0.0394  0.4371
 1353TIP3    H1 4023   0.913   5.360   3.462  0.1473  0.5416  1.0297
 1353TIP3    H2 4024   0.950   5.215   3.487  0.6096  0.4087 -0.3445
 1354TIP3   OH2 4025   7.131   3.243   1.909 -0.0004 -0.3050  0.4872
 1354TIP3    H1 4026   7.179   3.267   1.988  0.9649  0.3584 -0.2769
 1354TIP3    H2 4027   7.196   3.248   1.839 -1.3610  1.5590 -0.7304
 1355TIP3   OH2 4028   5.517   1.678   4.708  0.0376 -0.6474 -0.8040
 1355TIP3    H1 4029   5.472   1.594   4.719 -0.5476 -0.2925 -0.4705
 1355TIP3    H2 4030   5.605   1.662   4.740  0.1593 -1.3503 -1.4553
 1356TIP3   OH2 4031   0.989   1.266   4.076  0.1128 -0.2862 -0.3151
 1356TIP3    H1 4032   0.979   1.267   3.981 -1.0813  2.1536 -0.2447
 1356TIP3    H2 4033   0.907   1.229   4.109 -1.0370  2.1178 -0.2307
 1357TIP3   OH2 4034   6.806   3.070   1.148  0.6844  0.2825 -0.2474
 1357TIP3    H1 4035   6.744   3.101   1.082  0.5205  0.4158 -0.0316
 1357TIP3    H2 4036   6.854   3.000   1.104 -2.8414 -3.3086  0.9624
 1358TIP3   OH2 4037   5.615   2.090   4.310  0.0999  0.2754 -0.1057
 1358TIP3    H1 4038   5.619   2.182   4.336 -0.7963  0.1455  0.5134
 1358TIP3    H2 4039   5.574   2.045   4.384 -0.8157 -0.3975 -0.9913
 1359TIP3   OH2 4040   1.867   0.203   4.554 -0.4788 -0.1666  0.5234
 1359TIP3    H1 4041   1.806   0.156   4.496 -1.2979  0.7773  0.5852
 1359TIP3    H2 4042   1.953   0.192   4.514 -0.9275 -0.1655 -0.4639
 1360TIP3   OH2 4043   5.749   2.826   5.140  0.1798 -0.4722  0.4114
 1360TIP3    H1 4044   5.738   2.843   5.046  0.0618 -1.5067  0.2337
 1360TIP3    H2 4045   5.720   2.907   5.182 -1.7276 -0.7197 -0.3464
 1361TIP3   OH2 4046   0.438   0.678   4.147  0.0642 -0.0447  0.2821
 1361TIP3    H1 4047   0.447   0.586   4.123 -1.1558 -0.4930  1.3996
 1361TIP3    H2 4048   0.454   0.726   4.066  0.4378 -1.2605 -0.3799
 1362TIP3   OH2 4049   4.802   5.934   0.649  0.3953  0.1135  0.4571
 1362TIP3    H1 4050   4.716   5.893   0.652 -0.2056  1.3020  0.1293
 1362TIP3    H2 4051   4.800   5.990   0.571  1.2596  0.5799  0.7511
 1363TIP3   OH2 4052   1.796   6.598   1.711 -0.5911  0.0935 -0.6123
 1363TIP3    H1 4053   1.871   6.643   1.752  0.4960  0.5432 -2.9137
 1363TIP3    H2 4054   1.792   6.513   1.755  0.9632  0.2601 -0.0865
 1364TIP3   OH2 4055   1.460   5.843   4.702  0.0268 -0.4501 -0.2354
 1364TIP3    H1 4056   1.489   5.903   4.634  1.5404  1.8014  2.2106
 1364TIP3    H2 4057   1.383   5.884   4.741 -0.5553 -1.4861 -0.2419
 1365TIP3   OH2 4058   2.070   6.122   2.686 -0.2625  0.0154 -0.6960
 1365TIP3    H1 4059   2.148   6.075   2.658 -1.0876 -1.0946 -1.2225
 1365TIP3    H2 4060   2.097   6.172   2.763  0.5504 -1.6785  0.1707
 1366TIP3   OH2 4061   6.316   5.499   1.780 -0.2645  0.3678  0.6550
 1366TIP3    H1 4062   6.287   5.437   1.846 -0.4440 -1.4453 -1.0337
 1366TIP3    H2 4063   6.245   5.501   1.715  0.4448  1.0813 -0.1326
 1367TIP3   OH2 4064   0.875   0.915   3.752 -0.3731 -0.0708  0.2674
 1367TIP3    H1 4065   0.954   0.957   3.787  0.3552  0.7510 -2.1337
 1367TIP3    H2 4066   0.898   0.823   3.743 -0.0161 -0.0073  0.5168
 1368TIP3   OH2 4067   4.471   5.869   0.113  0.4261  0.3958 -0.4150
 1368TIP3    H1 4068   4.477   5.951   0.065 -0.2651  1.1599  0.7508
 1368TIP3    H2 4069   4.541   5.815   0.077 -0.7019  0.5228 -2.9786
 1369TIP3   OH2 4070   3.643   1.025   3.991  0.3931 -0.1459  0.0213
 1369TIP3    H1 4071   3.668   1.102   4.042 -0.0755 -1.2713  2.0500
 1369TIP3    H2 4072   3.548   1.030   3.985  0.2379 -1.1083  1.1764
 1370TIP3   OH2 4073   3.074   5.182   2.955 -0.3339  0.3607  0.0971
 1370TIP3    H1 4074   3.033   5.107   2.998  1.0022 -1.2368 -1.2596
 1370TIP3    H2 4075   3.155   5.147   2.917  0.8771  2.7326  0.2643
 1371TIP3   OH2 4076   0.629   5.569   4.109  0.2897  0.1720 -0.2548
 1371TIP3    H1 4077   0.567   5.601   4.043  1.5113  0.0498 -1.5134
 1371TIP3    H2 4078   0.633   5.639   4.174 -0.2932  0.6822 -0.7595
 1372TIP3   OH2 4079   1.076   0.311   3.741 -0.0195 -0.2419 -0.2988
 1372TIP3    H1 4080   1.057   0.368   3.817 -0.9328 -1.3916  0.3643
 1372TIP3    H2 4081   1.098   0.372   3.671  3.9241  0.8776  1.5768
 1373TIP3   OH2 4082   3.772   4.464   4.465  0.0755 -0.5671  0.2078
 1373TIP3    H1 4083   3.836   4.530   4.492  0.6239 -1.1714  0.4171
 1373TIP3    H2 4084   3.699   4.476   4.525  0.3928 -0.4890  0.5876
 1374TIP3   OH2 4085   6.999   1.700   1.184 -0.2572  0.0114 -0.0448
 1374TIP3    H1 4086   7.047   1.667   1.108 -0.1959 -0.8943  0.3655
 1374TIP3    H2 4087   7.061   1.759   1.227 -0.5715  1.1700 -1.1120
 1375TIP3   OH2 4088   1.801   1.629   1.260 -0.1149  0.2637 -0.1583
 1375TIP3    H1 4089   1.768   1.707   1.215 -1.2592 -1.2908 -2.1382
 1375TIP3    H2 4090   1.884   1.609   1.217  0.2859  0.4896  0.4936
 1376TIP3   OH2 4091   5.372   4.740   3.471 -0.7679 -0.3391 -0.2183
 1376TIP3    H1 4092   5.305   4.676   3.448 -1.9666  0.6948  0.3018
 1376TIP3    H2 4093   5.338   4.823   3.438  0.2904  0.2118  0.0218
 1377TIP3   OH2 4094   0.080   6.276   2.415 -0.3877  0.0502 -0.0940
 1377TIP3    H1 4095   0.105   6.217   2.344  1.5320  1.1239 -0.3907
 1377TIP3    H2 4096   0.013   6.229   2.463 -1.5688 -0.8301 -2.4502
 1378TIP3   OH2 4097   5.214   6.500   3.212  0.0530  0.2291 -0.0278
 1378TIP3    H1 4098   5.235   6.582   3.257  1.7241  0.3414 -0.9008
 1378TIP3    H2 4099   5.283   6.439   3.240  0.1491 -0.1859 -1.1074
 1379TIP3   OH2 4100   7.186   1.894   0.982 -0.2305 -0.0568 -0.1156
 1379TIP3    H1 4101   7.219   1.809   0.953  0.5625  0.1352  0.2175
 1379TIP3    H2 4102   7.094   1.894   0.955 -0.0186 -0.6770 -0.8683
 1380TIP3   OH2 4103   2.187   3.066   3.447 -0.3883  0.4233 -0.5489
 1380TIP3    H1 4104   2.188   3.159   3.467 -3.9975  0.4725  0.1600
 1380TIP3    H2 4105   2.204   3.061   3.353  3.9331  1.2770 -0.0227
 1381TIP3   OH2 4106   4.155   4.046   2.368  0.2200  0.2467 -0.2723
 1381TIP3    H1 4107   4.172   4.009   2.454 -0.4804  0.3300 -0.0966
 1381TIP3    H2 4108   4.061   4.033   2.353  0.2149  0.7765 -0.7624
 1382TIP3   OH2 4109   1.453   3.063   5.255 -0.4401  0.4577  0.2367
 1382TIP3    H1 4110   1.411   2.983   5.287 -0.0879  0.3057  0.3225
 1382TIP3    H2 4111   1.413   3.133   5.307  0.7181  0.1390  1.6188
 1383TIP3   OH2 4112   6.845   2.990   2.213  0.6179  0.3855  0.0208
 1383TIP3    H1 4113   6.913   3.005   2.148 -0.6463 -1.5393 -1.8434
 1383TIP3    H2 4114   6.764   3.022   2.172  0.0010  0.4097  1.2020
 1384TIP3   OH2 4115   1.592   0.843   4.207  0.4680  0.1127  0.5255
 1384TIP3    H1 4116   1.607   0.889   4.289 -0.3355 -0.8743  1.2524
 1384TIP3    H2 4117   1.497   0.838   4.199  0.5442 -0.3809 -0.1245
 1385TIP3   OH2 4118   6.634   4.966   4.825 -0.4317 -0.3549 -0.4284
 1385TIP3    H1 4119   6.539   4.970   4.839 -0.3818  2.5135 -0.5107
 1385TIP3    H2 4120   6.672   4.983   4.912 -0.0219  0.6887 -0.8035
 1386TIP3   OH2 4121   5.573   2.232   0.819  0.1919 -0.2040  0.4539
 1386TIP3    H1 4122   5.578   2.256   0.726  0.9049  0.6320  0.6945
 1386TIP3    H2 4123   5.557   2.138   0.818 -2.7269  0.1976 -0.5207
 1387TIP3   OH2 4124   6.619   0.553   1.351  0.5654 -0.3213 -0.2954
 1387TIP3    H1 4125   6.680   0.495   1.305 -0.8734  0.0606 -2.8690
 1387TIP3    H2 4126   6.671   0.631   1.370  0.9649 -0.0156 -2.3997
 1388TIP3   OH2 4127   5.343   3.089   0.691 -0.4863 -0.5400 -0.3533
 1388TIP3    H1 4128   5.401   3.158   0.657 -1.1336 -1.0890 -2.8019
 1388TIP3    H2 4129   5.269   3.089   0.630 -1.1714 -2.4478  0.4321
 1389TIP3   OH2 4130   0.442   6.732   5.343 -0.0151  0.2457  0.3231
 1389TIP3    H1 4131   0.425   6.826   5.345  1.7817  0.5898  1.0086
 1389TIP3    H2 4132   0.463   6.709   5.433  1.1475 -0.4871 -0.1063
 1390TIP3   OH2 4133   1.934   5.662   1.979  0.0610  0.0635 -0.7987
 1390TIP3    H1 4134   1.890   5.668   2.064 -2.0614  2.7265 -1.9734
 1390TIP3    H2 4135   1.873   5.612   1.924 -0.3101  1.4811 -1.7130
 1391TIP3   OH2 4136   6.379   0.984   3.343 -0.0741 -0.1145 -0.0133
 1391TIP3    H1 4137   6.331   1.066   3.359 -0.9444 -0.5882 -0.1275
 1391TIP3    H2 4138   6.322   0.934   3.284  1.5518  0.2125 -1.9979
 1392TIP3   OH2 4139   3.650   5.076   4.608 -0.0861 -0.5494 -0.2354
 1392TIP3    H1 4140   3.574   5.109   4.656  0.6376  0.9968 -0.0832
 1392TIP3    H2 4141   3.702   5.155   4.589  1.4837 -1.5555 -0.2939
 1393TIP3   OH2 4142   2.906   1.948   0.796  0.3190 -0.4568  0.0245
 1393TIP3    H1 4143   2.923   1.862   0.756 -0.7533 -0.2331 -0.9686
 1393TIP3    H2 4144   2.933   2.011   0.729 -0.7623 -0.0623 -0.0556
 1394TIP3   OH2 4145   2.196   2.103   3.827  0.4050 -0.6425 -0.1595
 1394TIP3    H1 4146   2.262   2.040   3.857  0.4589 -0.5838 -0.1550
 1394TIP3    H2 4147   2.151   2.130   3.907  0.3902 -0.6662 -0.1599
 1395TIP3   OH2 4148   4.507   2.123   1.929  0.3488  0.1414 -0.6348
 1395TIP3    H1 4149   4.590   2.161   1.900 -0.6510  2.3686 -0.8706
 1395TIP3    H2 4150   4.473   2.077   1.853 -0.4082  2.6079 -1.9162
 1396TIP3   OH2 4151   3.888   3.933   0.837  0.2482  0.3592 -0.5851
 1396TIP3    H1 4152   3.970   3.911   0.793  0.0967 -0.3985 -0.5035
 1396TIP3    H2 4153   3.821   3.881   0.792  0.2831 -1.5791  1.3833
 1397TIP3   OH2 4154   6.284   6.663   0.365  0.2676 -0.2048 -0.4441
 1397TIP3    H1 4155   6.357   6.627   0.414  0.6053 -0.1445 -0.8979
 1397TIP3    H2 4156   6.206   6.629   0.409  0.5644 -0.1924  0.0943
 1398TIP3   OH2 4157   4.676   5.432   2.506 -0.3671 -0.5503 -0.0376
 1398TIP3    H1 4158   4.741   5.375   2.547  1.0861  0.7777 -0.3878
 1398TIP3    H2 4159   4.709   5.446   2.417 -1.5928 -0.5194 -0.5143
 1399TIP3   OH2 4160   1.295   4.433   3.273  0.1563  0.4938  0.0601
 1399TIP3    H1 4161   1.209   4.462   3.244 -0.1707 -0.5995 -0.1308
 1399TIP3    H2 4162   1.276   4.366   3.339  0.8194 -0.7743 -0.9890
 1400TIP3   OH2 4163   3.386   3.385   0.977  0.3165 -0.0451  0.1874
 1400TIP3    H1 4164   3.442   3.463   0.979 -1.8605  1.6239  0.0465
 1400TIP3    H2 4165   3.400   3.348   0.890  0.1306  1.2027 -0.4029
 1401TIP3   OH2 4166   5.266   0.493   2.717 -0.4416 -0.3059  0.2501
 1401TIP3    H1 4167   5.188   0.490   2.662 -0.0055 -1.9159 -0.3374
 1401TIP3    H2 4168   5.237   0.457   2.801 -0.9072  1.3858  0.8359
 1402TIP3   OH2 4169   5.930   6.089   4.737 -0.0943  0.7066  0.3256
 1402TIP3    H1 4170   5.995   6.094   4.667 -0.3502  0.9574  0.1026
 1402TIP3    H2 4171   5.962   6.149   4.804  0.1534  0.4623  0.4267
 1403TIP3   OH2 4172   2.034   6.405   5.159  0.1266  0.0077 -0.1051
 1403TIP3    H1 4173   1.960   6.409   5.098 -0.0686 -0.6429  0.0837
 1403TIP3    H2 4174   2.051   6.312   5.171  0.4305  0.1351  0.5156
 1404TIP3   OH2 4175   1.723   4.578   2.151  0.8729 -0.4190  0.2818
 1404TIP3    H1 4176   1.721   4.662   2.106  1.1166 -0.3135  0.4657
 1404TIP3    H2 4177   1.807   4.539   2.124  1.4754  0.0568  1.3803
 1405TIP3   OH2 4178   6.993   2.198   5.017  0.9158 -0.0490 -0.2580
 1405TIP3    H1 4179   6.940   2.256   4.962  0.8835 -0.2133 -0.4003
 1405TIP3    H2 4180   6.991   2.239   5.104  1.1184  0.3071 -0.4199
 1406TIP3   OH2 4181   4.324   0.398   4.749 -0.3931 -1.0997  0.5257
 1406TIP3    H1 4182   4.389   0.355   4.806  0.7530  0.8454  0.7641
 1406TIP3    H2 4183   4.258   0.330   4.734 -0.0149 -2.1579  2.9926
 1407TIP3   OH2 4184   2.167   2.520   4.870  0.2452  0.4184  0.1187
 1407TIP3    H1 4185   2.252   2.491   4.835  0.0661  2.3293 -2.1918
 1407TIP3    H2 4186   2.104   2.457   4.834  0.4409  0.3419 -0.0934
 1408TIP3   OH2 4187   5.905   0.295   4.207 -0.6296  0.1680 -0.0456
 1408TIP3    H1 4188   5.980   0.256   4.251 -1.2040  0.3206  1.1196
 1408TIP3    H2 4189   5.939   0.374   4.166  0.3011 -0.9141 -1.4478
 1409TIP3   OH2 4190   4.025   1.494   2.301 -0.0030  0.1790 -0.1006
 1409TIP3    H1 4191   4.029   1.589   2.290 -2.5859  0.1676 -2.2864
 1409TIP3    H2 4192   4.033   1.459   2.213 -0.8229 -1.5409  0.4585
 1410TIP3   OH2 4193   6.906   2.404   1.985  0.0643  0.0157  1.1186
 1410TIP3    H1 4194   6.857   2.472   1.940  1.6790  2.0129  2.2227
 1410TIP3    H2 4195   6.840   2.340   2.012 -1.2818  0.2179 -1.4406
 1411TIP3   OH2 4196   1.409   2.935   3.096 -0.4037 -0.1514  0.1102
 1411TIP3    H1 4197   1.404   2.863   3.033 -0.8126 -0.2834  0.2897
 1411TIP3    H2 4198   1.487   2.985   3.069 -0.4886 -0.2890 -0.4079
 1412TIP3   OH2 4199   0.154   5.761   5.367 -0.3193 -0.0027 -0.5802
 1412TIP3    H1 4200   0.188   5.673   5.386  1.5504  0.7314 -0.2857
 1412TIP3    H2 4201   0.153   5.805   5.452  0.5091  0.8205 -0.9826
 1413TIP3   OH2 4202   3.119   2.349   2.517  0.2701 -0.5188  0.5355
 1413TIP3    H1 4203   3.025   2.328   2.521  0.6235 -2.0554  1.8826
 1413TIP3    H2 4204   3.157   2.275   2.470  0.9801 -0.6730  1.3321
 1414TIP3   OH2 4205   5.055   3.346   3.522 -0.2428  0.3515 -0.1716
 1414TIP3    H1 4206   5.149   3.354   3.538 -0.0768  2.8571 -1.8481
 1414TIP3    H2 4207   5.016   3.413   3.579 -1.0124 -0.4817  0.3035
 1415TIP3   OH2 4208   5.075   3.739   2.808 -0.3539 -0.7117 -0.1905
 1415TIP3    H1 4209   5.058   3.820   2.857 -1.5630  0.6503 -2.6863
 1415TIP3    H2 4210   5.072   3.670   2.875  2.6345  1.3634  2.3907
 1416TIP3   OH2 4211   7.107   1.891   5.359 -0.0660 -0.1881  0.1084
 1416TIP3    H1 4212   7.060   1.869   5.440 -0.0830 -0.3026  0.0672
 1416TIP3    H2 4213   7.177   1.950   5.388  0.6757 -1.1806  0.3811
 1417TIP3   OH2 4214   0.386   0.723   5.759  0.2920 -0.0419 -0.0874
 1417TIP3    H1 4215   0.306   0.744   5.808 -0.2455 -0.0401 -0.9421
 1417TIP3    H2 4216   0.355   0.704   5.671  1.2554  0.0710 -0.4564
 1418TIP3   OH2 4217   1.944   5.460   0.552 -0.3969 -0.3982  0.5980
 1418TIP3    H1 4218   1.946   5.509   0.635 -0.1936  2.3581 -0.8943
 1418TIP3    H2 4219   2.033   5.469   0.518 -1.1135  0.8349 -1.0962
 1419TIP3   OH2 4220   1.436   2.622   3.950  0.5918 -0.6696 -0.4931
 1419TIP3    H1 4221   1.483   2.665   4.022 -1.7212 -0.1793  0.8182
 1419TIP3    H2 4222   1.398   2.694   3.899  1.3034 -1.0519 -1.6027
 1420TIP3   OH2 4223   2.701   2.573   0.200 -0.1236  0.3701 -0.6598
 1420TIP3    H1 4224   2.691   2.668   0.210  0.0218  0.1980  1.4001
 1420TIP3    H2 4225   2.730   2.542   0.285 -0.8453 -1.6310 -1.0852
 1421TIP3   OH2 4226   6.477   0.779   3.531  0.3679 -0.0111  0.1950
 1421TIP3    H1 4227   6.440   0.851   3.479  1.3135 -0.0461 -0.5525
 1421TIP3    H2 4228   6.401   0.736   3.570 -0.1828  2.1427  1.7047
 1422TIP3   OH2 4229   2.718   1.410   1.634  0.2189 -0.2265  0.1458
 1422TIP3    H1 4230   2.652   1.403   1.702 -0.2116  0.3309 -0.1961
 1422TIP3    H2 4231   2.800   1.424   1.680 -0.1470  0.6622  0.5392
 1423TIP3   OH2 4232   4.329   2.594   3.422 -0.2430 -0.0967 -0.0973
 1423TIP3    H1 4233   4.267   2.554   3.482  0.6466  0.2148  1.0597
 1423TIP3    H2 4234   4.362   2.671   3.468  2.3119 -1.2130  0.0957
 1424TIP3   OH2 4235   0.388   5.568   4.473 -0.1956  0.3219 -0.2364
 1424TIP3    H1 4236   0.450   5.620   4.524  0.7379  0.8178 -1.8097
 1424TIP3    H2 4237   0.400   5.478   4.506  0.1701  0.6650  0.5931
 1425TIP3   OH2 4238   6.071   1.043   0.450  0.8164 -0.2183  0.2273
 1425TIP3    H1 4239   6.085   0.997   0.533  0.2009  1.7115  1.4679
 1425TIP3    H2 4240   6.067   1.136   0.475 -2.0275  0.2550 -1.5795
 1426TIP3   OH2 4241   1.751   1.210   3.632 -0.3380  0.2707  0.8975
 1426TIP3    H1 4242   1.783   1.267   3.702 -0.3881  2.2994 -0.6261
 1426TIP3    H2 4243   1.780   1.122   3.657  2.5982  1.3653  1.7823
 1427TIP3   OH2 4244   3.158   2.957   4.945 -0.0978  0.4113 -0.1560
 1427TIP3    H1 4245   3.112   3.022   4.892  1.9227  0.8462 -1.5194
 1427TIP3    H2 4246   3.164   2.997   5.032  0.3579  1.7071 -0.7482
 1428TIP3   OH2 4247   4.755   4.411   5.582  0.0311  0.0666 -0.2141
 1428TIP3    H1 4248   4.718   4.439   5.499  0.2278 -0.5319 -0.5083
 1428TIP3    H2 4249   4.849   4.404   5.565  0.3309  1.8222  0.5938
 1429TIP3   OH2 4250   0.440   3.122   4.700  0.1488  0.4995  0.7717
 1429TIP3    H1 4251   0.527   3.132   4.662  0.0907 -0.6194  0.3177
 1429TIP3    H2 4252   0.453   3.063   4.775  0.4004  3.2387  3.0810
 1430TIP3   OH2 4253   0.675   0.345   0.496  0.2353  0.1488  0.3275
 1430TIP3    H1 4254   0.762   0.370   0.464 -0.2047 -0.3598 -1.3495
 1430TIP3    H2 4255   0.690   0.319   0.587  1.8861 -0.1894 -0.0043
 1431TIP3   OH2 4256   3.864   5.446   2.820 -0.1929  0.1044 -0.2161
 1431TIP3    H1 4257   3.782   5.493   2.807 -0.6839 -0.7269 -0.1946
 1431TIP3    H2 4258   3.887   5.461   2.912 -0.4422  0.1563 -0.1632
 1432TIP3   OH2 4259   6.589   2.100   3.686  0.2765 -0.5736 -0.2827
 1432TIP3    H1 4260   6.617   2.141   3.768 -0.3224  0.3334 -0.5202
 1432TIP3    H2 4261   6.498   2.072   3.703 -0.3936  0.9994 -1.1052
 1433TIP3   OH2 4262   3.721   1.481   2.385 -0.2387 -0.2089  0.1707
 1433TIP3    H1 4263   3.755   1.396   2.356 -0.3241 -0.5961  1.1719
 1433TIP3    H2 4264   3.797   1.539   2.385  0.7056 -1.2658  3.1944
 1434TIP3   OH2 4265   3.181   5.272   3.305  0.2882 -0.3351  0.3559
 1434TIP3    H1 4266   3.136   5.301   3.226 -0.2672 -1.5916  0.1946
 1434TIP3    H2 4267   3.273   5.291   3.288 -0.0276  1.2307  0.2346
 1435TIP3   OH2 4268   3.221   2.200   3.611  0.2462 -0.2336 -0.3852
 1435TIP3    H1 4269   3.237   2.293   3.626 -0.9825 -0.0443 -0.1104
 1435TIP3    H2 4270   3.270   2.156   3.680  0.1736  0.2552 -0.0157
 1436TIP3   OH2 4271   0.966   1.537   2.808  0.3823 -0.1147  0.2250
 1436TIP3    H1 4272   0.929   1.449   2.802  0.3371 -0.0205 -1.4403
 1436TIP3    H2 4273   0.898   1.595   2.773  0.0914  0.7219  2.0296
 1437TIP3   OH2 4274   2.865   6.756   2.048  0.0771  0.6380  0.2633
 1437TIP3    H1 4275   2.880   6.833   2.103 -0.4432 -0.3303  1.8142
 1437TIP3    H2 4276   2.808   6.700   2.100  0.2487 -0.7039 -0.9332
 1438TIP3   OH2 4277   5.151   4.560   5.894 -0.2774  0.0968 -0.0171
 1438TIP3    H1 4278   5.159   4.467   5.870 -1.5645  0.4213 -1.9790
 1438TIP3    H2 4279   5.227   4.601   5.852  0.3099 -0.0571  0.8782
 1439TIP3   OH2 4280   3.244   0.794   1.249 -0.0613  0.6029  0.2661
 1439TIP3    H1 4281   3.235   0.713   1.198 -1.2635 -0.4255  2.0084
 1439TIP3    H2 4282   3.338   0.811   1.250  0.1147 -0.0849 -1.1172
 1440TIP3   OH2 4283   6.927   5.346   1.460  0.2172  0.3448 -0.3135
 1440TIP3    H1 4284   6.925   5.266   1.408  2.9985 -0.0682  0.0900
 1440TIP3    H2 4285   6.888   5.413   1.404 -1.6468 -1.1151 -0.8616
 1441TIP3   OH2 4286   0.605   1.597   4.376  0.3252  0.3258  0.3345
 1441TIP3    H1 4287   0.640   1.517   4.337 -3.8990 -1.6939  0.0841
 1441TIP3    H2 4288   0.624   1.665   4.312  0.8098 -1.2481 -1.2974
 1442TIP3   OH2 4289   6.986   0.856   1.783 -0.3009  0.0991  0.2781
 1442TIP3    H1 4290   7.078   0.869   1.760 -1.0180  0.8403 -2.5872
 1442TIP3    H2 4291   6.957   0.942   1.815  0.5231 -0.7631  3.7804
 1443TIP3   OH2 4292   3.713   3.044   0.937 -0.1180  0.6652 -0.2282
 1443TIP3    H1 4293   3.630   3.042   0.888  0.2010  0.6846 -0.7760
 1443TIP3    H2 4294   3.716   2.959   0.981  0.1551  0.1463 -1.2082
 1444TIP3   OH2 4295   1.233   2.297   5.344 -0.2838 -0.1856 -0.2784
 1444TIP3    H1 4296   1.152   2.253   5.318 -1.1530  1.6557 -0.8111
 1444TIP3    H2 4297   1.233   2.379   5.295  2.1535 -0.3378 -0.6558
 1445TIP3   OH2 4298   1.958   5.817   5.690  0.7122 -0.2586  0.2150
 1445TIP3    H1 4299   1.923   5.747   5.637  0.1144 -0.1470  0.4533
 1445TIP3    H2 4300   2.040   5.782   5.725  0.2013 -1.0084  0.6952
 1446TIP3   OH2 4301   3.358   5.109   4.648 -0.6231 -0.2762  0.5101
 1446TIP3    H1 4302   3.326   5.051   4.580  2.0085 -0.5807 -0.6075
 1446TIP3    H2 4303   3.279   5.140   4.693 -2.3581 -1.2833 -1.6535
 1447TIP3   OH2 4304   1.334   0.922   4.118 -0.3027 -0.2863  0.2617
 1447TIP3    H1 4305   1.288   0.876   4.188  0.8949  1.3787  2.2848
 1447TIP3    H2 4306   1.292   1.008   4.115  1.5636  0.7448  1.1405
 1448TIP3   OH2 4307   5.836   2.442   0.476 -0.6374 -0.3487  0.2278
 1448TIP3    H1 4308   5.758   2.389   0.494 -0.3410 -0.4487  1.2542
 1448TIP3    H2 4309   5.847   2.496   0.553  0.0796 -0.0372 -0.0821
 1449TIP3   OH2 4310   3.984   6.600   5.556  0.3799  0.7164 -0.2041
 1449TIP3    H1 4311   3.920   6.601   5.628  0.2488  0.6235 -0.3192
 1449TIP3    H2 4312   3.957   6.527   5.501  0.0045  1.2611 -0.7688
 1450TIP3   OH2 4313   5.673   0.339   2.908  0.1069 -0.0770  0.2100
 1450TIP3    H1 4314   5.579   0.346   2.894 -0.2018 -0.4104  1.9156
 1450TIP3    H2 4315   5.692   0.246   2.901 -0.3930 -0.5445  3.4794
 1451TIP3   OH2 4316   6.192   3.747   4.198  0.0712  0.1067  0.4733
 1451TIP3    H1 4317   6.264   3.790   4.245  0.3540 -1.0979  1.1904
 1451TIP3    H2 4318   6.142   3.703   4.266  0.0508 -1.0488 -0.2706
 1452TIP3   OH2 4319   4.930   4.053   0.463 -0.1216  0.0104 -0.1272
 1452TIP3    H1 4320   4.909   4.145   0.482 -0.7678  0.4951 -2.7044
 1452TIP3    H2 4321   5.024   4.046   0.474 -0.0883  0.9703  0.2428
 1453TIP3   OH2 4322   0.077   1.673   4.595  0.7380  0.0107 -0.2133
 1453TIP3    H1 4323   0.028   1.704   4.672 -1.1960 -2.4466 -0.3191
 1453TIP3    H2 4324   0.056   1.735   4.526  0.7955  1.0772  0.7038
 1454TIP3   OH2 4325   0.245   0.937   2.983 -0.4462  0.0234  0.1167
 1454TIP3    H1 4326   0.235   0.970   3.073  0.9972 -0.3257  0.4252
 1454TIP3    H2 4327   0.178   0.870   2.976 -1.7145  1.2122  0.3411
 1455TIP3   OH2 4328   1.402   4.183   3.611  0.0698  0.3591 -0.1322
 1455TIP3    H1 4329   1.405   4.117   3.680  1.5896  0.0293 -0.4786
 1455TIP3    H2 4330   1.417   4.266   3.657  1.1804  0.1312 -0.0528
 1456TIP3   OH2 4331   6.556   5.558   0.618 -0.1509  0.6558 -0.1717
 1456TIP3    H1 4332   6.510   5.638   0.641 -0.3282  0.8297 -1.1304
 1456TIP3    H2 4333   6.641   5.567   0.661 -1.1024  0.1399  1.9811
 1457TIP3   OH2 4334   7.071   3.326   1.001 -0.2548  0.9030 -0.0447
 1457TIP3    H1 4335   7.020   3.386   0.947  0.3131  0.4110 -1.1585
 1457TIP3    H2 4336   7.065   3.242   0.957  1.3595  0.7832 -0.1198
 1458TIP3   OH2 4337   2.510   5.552   0.933 -0.6378  0.1755  0.5309
 1458TIP3    H1 4338   2.555   5.555   0.848  0.6820  0.4955  1.2101
 1458TIP3    H2 4339   2.483   5.461   0.942 -2.8840  0.5746 -1.2387
 1459TIP3   OH2 4340   2.198   1.337   1.891 -0.0335  0.2121 -0.1883
 1459TIP3    H1 4341   2.192   1.242   1.901  2.4393 -0.0012 -0.0902
 1459TIP3    H2 4342   2.201   1.352   1.797 -0.3926  0.1978 -0.2030
 1460TIP3   OH2 4343   5.945   5.304   0.945  0.3536  0.1686  0.0660
 1460TIP3    H1 4344   5.933   5.246   1.021 -1.4569 -0.4758 -0.6494
 1460TIP3    H2 4345   5.895   5.261   0.875  1.7624  0.8861 -1.4284
 1461TIP3   OH2 4346   2.125   0.252   4.446 -0.8839  0.0026 -0.1682
 1461TIP3    H1 4347   2.127   0.230   4.353 -1.6651  0.3729 -0.2743
 1461TIP3    H2 4348   2.155   0.172   4.490 -0.0830 -0.0273 -0.7540
 1462TIP3   OH2 4349   0.107   1.262   0.430  0.5883  0.0078  0.5475
 1462TIP3    H1 4350   0.163   1.319   0.482  1.3585  2.6858 -2.8343
 1462TIP3    H2 4351   0.164   1.190   0.403  1.2788  0.5948  0.3957
 1463TIP3   OH2 4352   3.830   4.572   2.372 -0.1609  0.2261 -0.3652
 1463TIP3    H1 4353   3.889   4.639   2.338  0.2805 -0.5924 -1.2645
 1463TIP3    H2 4354   3.853   4.492   2.323  0.4198 -0.9942  1.7672
 1464TIP3   OH2 4355   6.505   4.065   4.522 -0.3298 -0.2141 -0.4600
 1464TIP3    H1 4356   6.571   4.073   4.592 -0.6011 -2.1935  0.0751
 1464TIP3    H2 4357   6.550   4.018   4.452 -0.6622 -0.0457 -0.7890
 1465TIP3   OH2 4358   3.701   6.325   1.987  0.0840 -0.2687 -0.4490
 1465TIP3    H1 4359   3.740   6.391   2.045 -2.3449  0.6195  0.2647
 1465TIP3    H2 4360   3.763   6.318   1.915  0.8906  2.0947 -0.0786
 1466TIP3   OH2 4361   5.097   0.369   3.470  0.5651  0.0791  0.0667
 1466TIP3    H1 4362   5.079   0.446   3.525 -0.8166  1.6023 -2.3214
 1466TIP3    H2 4363   5.153   0.402   3.400 -2.7716  0.0038 -2.9880
 1467TIP3   OH2 4364   3.220   1.846   0.665 -0.3537  0.1731  0.3132
 1467TIP3    H1 4365   3.225   1.913   0.597 -1.0738  2.3528  2.3082
 1467TIP3    H2 4366   3.128   1.818   0.665  0.4254 -3.2253 -2.5247
 1468TIP3   OH2 4367   1.602   5.466   2.121  0.3381 -0.4644 -0.1191
 1468TIP3    H1 4368   1.686   5.481   2.078 -0.5762 -0.6654 -2.0645
 1468TIP3    H2 4369   1.542   5.445   2.050 -1.2087 -1.0525  1.3002
 1469TIP3   OH2 4370   0.188   3.350   3.924 -0.5851 -0.6355 -0.5976
 1469TIP3    H1 4371   0.249   3.280   3.947 -0.1497  0.4060  1.6676
 1469TIP3    H2 4372   0.242   3.429   3.920 -1.4605 -0.0121 -0.5457
 1470TIP3   OH2 4373   3.653   2.883   2.813  0.5785 -0.1114 -0.1260
 1470TIP3    H1 4374   3.602   2.910   2.889  2.3805  1.3610  0.6413
 1470TIP3    H2 4375   3.668   2.789   2.826 -1.3893 -0.4721 -0.1170
 1471TIP3   OH2 4376   6.137   1.975   4.708  0.5814  0.1216 -0.2701
 1471TIP3    H1 4377   6.202   1.998   4.775  1.0326  0.1933 -0.7270
 1471TIP3    H2 4378   6.118   2.058   4.664 -0.3266  0.2271  0.2982
 1472TIP3   OH2 4379   4.605   5.713   5.222 -0.4765  0.5082  0.2989
 1472TIP3    H1 4380   4.602   5.618   5.228 -0.8725  0.1408 -3.2136
 1472TIP3    H2 4381   4.520   5.737   5.184  0.4205  1.9801 -0.8969
 1473TIP3   OH2 4382   5.902   0.126   3.775  0.1791 -0.3819  0.2109
 1473TIP3    H1 4383   5.873   0.037   3.753  0.4904 -0.6171  0.7287
 1473TIP3    H2 4384   5.842   0.154   3.844 -0.3720  0.0926 -0.4518
 1474TIP3   OH2 4385   5.162   3.256   3.062  0.6268  0.0166  0.2709
 1474TIP3    H1 4386   5.219   3.191   3.102 -2.5311 -2.5071  1.1282
 1474TIP3    H2 4387   5.138   3.219   2.977  0.4380  1.1230 -0.1827
 1475TIP3   OH2 4388   3.693   5.934   0.741  1.0646 -0.1617  0.4892
 1475TIP3    H1 4389   3.754   6.003   0.717  3.2545 -2.1432 -0.0192
 1475TIP3    H2 4390   3.746   5.854   0.742 -1.2506 -1.8082  1.4022
 1476TIP3   OH2 4391   6.918   6.508   4.660 -0.0134  0.3892  0.1947
 1476TIP3    H1 4392   6.864   6.533   4.585 -0.9059 -0.2976  0.5956
 1476TIP3    H2 4393   7.005   6.492   4.622 -0.4746 -0.0647 -0.7155
 1477TIP3   OH2 4394   5.672   6.234   3.269 -0.6857  0.1864  0.6615
 1477TIP3    H1 4395   5.741   6.267   3.327 -0.2731 -1.5413  1.2158
 1477TIP3    H2 4396   5.675   6.292   3.192 -1.5535  2.8402  2.4741
 1478TIP3   OH2 4397   6.686   5.893   4.708 -0.0782  0.1439 -0.5222
 1478TIP3    H1 4398   6.768   5.917   4.665  0.2594 -2.2041 -1.3677
 1478TIP3    H2 4399   6.621   5.894   4.638 -0.2327 -0.4214 -0.3945
 1479TIP3   OH2 4400   3.198   4.761   1.676 -0.1419  0.1301 -0.6911
 1479TIP3    H1 4401   3.210   4.675   1.635 -0.3882 -0.3873  0.3044
 1479TIP3    H2 4402   3.236   4.752   1.763  0.1483  1.1456 -0.6988
 1480TIP3   OH2 4403   6.971   2.442   0.509 -0.2625 -0.6751  0.2721
 1480TIP3    H1 4404   6.880   2.467   0.520  0.2548  1.7856 -0.4199
 1480TIP3    H2 4405   6.979   2.357   0.552 -3.2760 -1.8501 -1.2210
 1481TIP3   OH2 4406   2.362   5.195   1.181  0.2051  0.0004 -0.0707
 1481TIP3    H1 4407   2.426   5.157   1.241  0.4732  0.3597 -0.1222
 1481TIP3    H2 4408   2.279   5.152   1.203  0.5993 -1.0027 -0.4932
 1482TIP3   OH2 4409   1.290   0.816   2.333  0.3528 -0.2969  0.0961
 1482TIP3    H1 4410   1.367   0.762   2.344 -0.2291 -0.9934  0.8930
 1482TIP3    H2 4411   1.322   0.897   2.294  1.3163 -0.9923 -0.5783
 1483TIP3   OH2 4412   2.030   6.300   4.791  0.3775 -0.6344 -0.2992
 1483TIP3    H1 4413   1.944   6.337   4.813  1.0958  1.6754 -1.0489
 1483TIP3    H2 4414   2.012   6.211   4.761 -1.7588 -0.1731 -0.4973
 1484TIP3   OH2 4415   3.297   1.427   1.165  0.5540 -0.0639  0.1176
 1484TIP3    H1 4416   3.377   1.397   1.122  2.0829  1.3821  1.7515
 1484TIP3    H2 4417   3.276   1.510   1.122  0.9396  0.3935  0.7844
 1485TIP3   OH2 4418   3.246   3.835   1.123  0.3402 -0.4210 -0.1083
 1485TIP3    H1 4419   3.214   3.769   1.062  0.3477 -0.5266  0.0028
 1485TIP3    H2 4420   3.322   3.795   1.164 -0.1888 -0.6899  0.6181
 1486TIP3   OH2 4421   5.162   1.550   5.761 -0.0077 -0.3916 -0.7131
 1486TIP3    H1 4422   5.225   1.590   5.822 -1.3410 -0.1086  0.5389
 1486TIP3    H2 4423   5.157   1.459   5.789 -0.9816 -0.1521 -0.0408
 1487TIP3   OH2 4424   3.470   6.418   3.601  0.0062  0.3864  0.2189
 1487TIP3    H1 4425   3.440   6.355   3.667 -0.3520 -0.5246 -0.7654
 1487TIP3    H2 4426   3.564   6.424   3.615 -0.2680  1.5484  1.9009
 1488TIP3   OH2 4427   1.068   2.750   3.763 -0.4800 -0.1855  0.3211
 1488TIP3    H1 4428   1.099   2.841   3.763 -1.0506  0.0107  0.1450
 1488TIP3    H2 4429   1.009   2.745   3.838  0.5743 -0.7737  1.1305
 1489TIP3   OH2 4430   4.928   3.155   1.897 -0.1687  0.6179 -0.3887
 1489TIP3    H1 4431   4.961   3.160   1.986  0.0056  1.7147 -0.4900
 1489TIP3    H2 4432   4.833   3.151   1.906 -0.3712  3.5455 -0.1300
 1490TIP3   OH2 4433   2.777   6.687   3.000 -0.0230  0.2611  0.5840
 1490TIP3    H1 4434   2.702   6.636   2.968 -0.7328  1.6313 -0.0356
 1490TIP3    H2 4435   2.840   6.621   3.029 -0.8634 -0.9661 -0.2490
 1491TIP3   OH2 4436   2.566   3.822   0.876  0.1219  0.4261 -0.3900
 1491TIP3    H1 4437   2.592   3.753   0.937 -0.7886  0.4721  0.0557
 1491TIP3    H2 4438   2.526   3.775   0.802  1.4037  0.3564 -1.0708
 1492TIP3   OH2 4439   6.826   1.145   3.137 -0.7141 -0.2538 -0.0225
 1492TIP3    H1 4440   6.914   1.142   3.098 -0.8158 -0.5588 -0.2288
 1492TIP3    H2 4441   6.778   1.208   3.082 -1.0375 -1.1396 -0.7710
 1493TIP3   OH2 4442   0.963   5.082   1.189  0.0550  0.4492 -0.9449
 1493TIP3    H1 4443   0.872   5.052   1.186 -0.1870  1.1346 -0.6240
 1493TIP3    H2 4444   0.958   5.171   1.224  0.9652 -0.0590  0.6139
 1494TIP3   OH2 4445   3.566   6.078   4.765  0.0654 -0.0957 -0.2624
 1494TIP3    H1 4446   3.611   6.063   4.848 -1.6242  0.4184  0.7907
 1494TIP3    H2 4447   3.476   6.050   4.781 -0.5498  1.0321 -1.5922
 1495TIP3   OH2 4448   1.765   4.794   2.734  0.5825  0.0263 -0.8156
 1495TIP3    H1 4449   1.857   4.768   2.736  0.4020 -0.5852 -0.3941
 1495TIP3    H2 4450   1.766   4.886   2.760  1.1635  0.2815 -1.7135
 1496TIP3   OH2 4451   6.641   3.177   5.443  0.4617  0.2510  0.4119
 1496TIP3    H1 4452   6.638   3.216   5.356  2.0150 -0.5788 -0.0613
 1496TIP3    H2 4453   6.604   3.244   5.501 -1.3447  0.5079 -0.9498
 1497TIP3   OH2 4454   6.401   5.136   2.289  0.4475 -0.7172  0.0328
 1497TIP3    H1 4455   6.444   5.113   2.371  0.3203 -0.9264  0.0447
 1497TIP3    H2 4456   6.437   5.221   2.265 -0.2218 -0.2009  0.8047
 1498TIP3   OH2 4457   3.697   2.524   5.457  0.3414  0.1463 -0.4483
 1498TIP3    H1 4458   3.622   2.467   5.478 -0.0262  0.6251 -0.4430
 1498TIP3    H2 4459   3.742   2.537   5.540 -0.8228  1.6261  0.0010
 1499TIP3   OH2 4460   2.891   4.092   3.309  0.4610  0.1033 -0.1856
 1499TIP3    H1 4461   2.902   4.041   3.390 -1.1256  0.7111  0.4456
 1499TIP3    H2 4462   2.796   4.101   3.299  0.6784  2.0560 -0.8278
 1500TIP3   OH2 4463   1.935   0.971   4.978  0.0650  0.8608 -0.0621
 1500TIP3    H1 4464   1.973   0.895   5.023  1.9390  0.9818 -1.3099
 1500TIP3    H2 4465   1.979   1.047   5.018  0.4025  1.0771 -0.8264
 1501TIP3   OH2 4466   7.096   1.057   2.343  0.0688 -0.1200 -0.8403
 1501TIP3    H1 4467   7.177   1.057   2.293  0.3978  1.4545 -0.3546
 1501TIP3    H2 4468   7.030   1.026   2.281  0.4028  2.0517 -2.3887
 1502TIP3   OH2 4469   1.264   4.351   1.713  0.0459 -0.2873  0.1365
 1502TIP3    H1 4470   1.288   4.422   1.772  0.0591 -0.0208 -0.1846
 1502TIP3    H2 4471   1.247   4.394   1.629 -0.8252 -0.5576  0.1660
 1503TIP3   OH2 4472   7.103   3.294   2.793  0.3681 -0.3888 -0.6746
 1503TIP3    H1 4473   7.187   3.298   2.746 -0.3593  1.9834 -1.9409
 1503TIP3    H2 4474   7.098   3.378   2.840 -1.1737 -0.6148 -0.3854
 1504TIP3   OH2 4475   4.643   0.133   0.721  0.0083  0.4764 -0.0893
 1504TIP3    H1 4476   4.573   0.124   0.785  0.1733  2.2823  0.4117
 1504TIP3    H2 4477   4.674   0.223   0.732  0.5772  0.5891 -2.1740
 1505TIP3   OH2 4478   2.523   2.875   5.185 -0.2560 -0.2284  0.0413
 1505TIP3    H1 4479   2.517   2.968   5.209 -0.1888 -0.1087 -0.3978
 1505TIP3    H2 4480   2.617   2.858   5.179 -0.2710 -0.2558 -0.1304
 1506TIP3   OH2 4481   5.920   0.545   1.742 -0.1479 -0.3877  0.0888
 1506TIP3    H1 4482   6.008   0.581   1.728 -0.1707 -1.1138 -2.3051
 1506TIP3    H2 4483   5.920   0.518   1.834  1.2648  1.8333  0.8349
 1507TIP3   OH2 4484   7.175   2.868   5.538  0.0298  0.5480  0.1698
 1507TIP3    H1 4485   7.155   2.814   5.614 -0.0713  1.3557  0.7223
 1507TIP3    H2 4486   7.185   2.957   5.572  2.8055  0.5148 -0.3241
 1508TIP3   OH2 4487   0.389   1.044   3.353 -0.4433  0.1633 -0.6542
 1508TIP3    H1 4488   0.443   0.966   3.337 -1.5724 -1.0097  0.9637
 1508TIP3    H2 4489   0.310   1.029   3.300 -0.4450  0.4681 -0.7402
 1509TIP3   OH2 4490   3.743   2.500   4.785  0.1733  0.3765 -0.2726
 1509TIP3    H1 4491   3.807   2.472   4.719  0.1008 -1.1077  0.2516
 1509TIP3    H2 4492   3.792   2.558   4.843  0.8045  0.0294 -0.4418
 1510TIP3   OH2 4493   3.916   4.801   1.954 -0.2004 -0.0154 -0.1003
 1510TIP3    H1 4494   3.902   4.739   1.882 -2.4646 -0.1432  0.3828
 1510TIP3    H2 4495   4.001   4.775   1.991  0.8384 -0.1941 -2.4094
 1511TIP3   OH2 4496   2.282   5.536   2.676  0.8439 -0.5244  0.1464
 1511TIP3    H1 4497   2.209   5.593   2.652 -0.9719 -2.9241 -0.4495
 1511TIP3    H2 4498   2.348   5.552   2.609  0.9464  1.7185  0.7074
 1512TIP3   OH2 4499   2.698   1.846   5.284  0.5768  0.1269  0.6696
 1512TIP3    H1 4500   2.662   1.774   5.233 -1.1319  0.6494  1.0528
 1512TIP3    H2 4501   2.656   1.924   5.248  1.1295  0.7518  1.3399
 1513TIP3   OH2 4502   2.606   6.173   1.071  0.0167 -0.1784 -0.5350
 1513TIP3    H1 4503   2.672   6.142   1.009  0.0501 -0.3910 -0.3954
 1513TIP3    H2 4504   2.599   6.102   1.135 -0.8162 -0.4530 -0.9024
 1514TIP3   OH2 4505   1.496   6.195   5.359  0.4071 -0.6462 -0.3992
 1514TIP3    H1 4506   1.571   6.250   5.338 -0.4880  0.2268 -1.4030
 1514TIP3    H2 4507   1.522   6.107   5.331  1.6549 -0.6727  0.7533
 1515TIP3   OH2 4508   6.015   3.865   0.300  0.2507 -0.0879 -0.2865
 1515TIP3    H1 4509   5.970   3.937   0.344  1.6661  0.1389  0.8505
 1515TIP3    H2 4510   5.958   3.843   0.226 -1.4633  0.5070  0.7967
 1516TIP3   OH2 4511   4.096   6.465   5.004  0.0859 -0.1068  0.4918
 1516TIP3    H1 4512   4.017   6.516   5.022 -0.3060 -0.6184  0.2408
 1516TIP3    H2 4513   4.066   6.394   4.948  1.0859  0.9053 -1.4263
 1517TIP3   OH2 4514   3.282   2.952   0.005  0.8620  0.0331  0.1053
 1517TIP3    H1 4515   3.295   3.029  -0.049  0.6337 -0.6973 -1.0280
 1517TIP3    H2 4516   3.223   2.981   0.075 -1.2316  0.3307 -1.6734
 1518TIP3   OH2 4517   5.549   1.443   4.448  0.6566 -0.1416 -0.0472
 1518TIP3    H1 4518   5.590   1.381   4.508 -0.2642 -0.2773  0.4621
 1518TIP3    H2 4519   5.600   1.524   4.459  0.8982 -0.3554  0.4460
 1519TIP3   OH2 4520   0.425   2.805   0.177 -0.6344 -0.0502 -0.3128
 1519TIP3    H1 4521   0.347   2.836   0.222  0.6641 -1.0413  2.8606
 1519TIP3    H2 4522   0.490   2.875   0.191 -0.3531 -0.1143 -1.2116
 1520TIP3   OH2 4523   2.953   1.888   1.756  0.2229 -0.2153  0.2733
 1520TIP3    H1 4524   2.937   1.959   1.818 -0.1557 -1.0626  1.1766
 1520TIP3    H2 4525   3.026   1.839   1.794 -0.8584 -1.5060  0.7756
 1521TIP3   OH2 4526   3.324   1.559   0.593 -0.3803 -0.8048 -0.6120
 1521TIP3    H1 4527   3.315   1.647   0.630  0.6912 -0.5297 -0.9699
 1521TIP3    H2 4528   3.264   1.505   0.645  2.3341 -0.8517  2.8512
 1522TIP3   OH2 4529   2.185   1.610   1.741  0.3239 -0.0137  0.0211
 1522TIP3    H1 4530   2.103   1.614   1.790  0.6642  2.0441  0.5053
 1522TIP3    H2 4531   2.170   1.544   1.674 -0.5237 -2.2190  2.2195
 1523TIP3   OH2 4532   0.597   4.672   4.051  0.1768 -0.0941  0.2530
 1523TIP3    H1 4533   0.600   4.759   4.091  0.2115 -0.7243  1.7169
 1523TIP3    H2 4534   0.505   4.656   4.035  0.1379  0.0958  0.2862
 1524TIP3   OH2 4535   6.283   6.676   5.723  0.2761 -0.0747  0.1034
 1524TIP3    H1 4536   6.218   6.722   5.776  0.2655 -1.2037  1.1052
 1524TIP3    H2 4537   6.240   6.595   5.695  0.4983  0.2101 -1.1336
 1525TIP3   OH2 4538   2.268   3.739   3.400  0.2972 -0.7011  0.4727
 1525TIP3    H1 4539   2.332   3.673   3.426  0.1033 -0.6622  1.0780
 1525TIP3    H2 4540   2.183   3.699   3.420  0.0210 -1.3804 -1.7516
 1526TIP3   OH2 4541   0.980   2.803   4.973 -0.3712  0.0244  0.2426
 1526TIP3    H1 4542   0.947   2.826   4.886  1.7076  0.9747 -0.3528
 1526TIP3    H2 4543   1.009   2.887   5.010 -0.7481 -0.4414  1.6799
 1527TIP3   OH2 4544   4.772   1.910   4.378  0.1884 -0.0112  0.5076
 1527TIP3    H1 4545   4.834   1.861   4.432  0.7243  1.4125  1.2302
 1527TIP3    H2 4546   4.770   1.863   4.295  1.5089 -0.6207  0.8008
 1528TIP3   OH2 4547   1.652   2.922   3.426 -0.2467 -0.2633 -0.3038
 1528TIP3    H1 4548   1.641   2.914   3.521 -0.9327 -1.2755 -0.4556
 1528TIP3    H2 4549   1.644   3.015   3.408 -0.8110 -0.1432  0.5517
 1529TIP3   OH2 4550   3.945   0.834   3.789  0.4733  0.2282  0.0517
 1529TIP3    H1 4551   3.932   0.928   3.773  1.6681  0.6368  1.2803
 1529TIP3    H2 4552   3.989   0.803   3.710  2.3704  1.2864  0.6054
 1530TIP3   OH2 4553   4.224   0.472   3.809  0.6330  0.7368  0.2932
 1530TIP3    H1 4554   4.286   0.537   3.775 -0.6246  0.6254 -2.4325
 1530TIP3    H2 4555   4.142   0.520   3.817  0.2015  0.0017  0.3221
 1531TIP3   OH2 4556   0.447   1.027   4.279  0.0782  0.4656  0.5437
 1531TIP3    H1 4557   0.512   0.966   4.245 -1.1765  0.3942 -1.9776
 1531TIP3    H2 4558   0.366   0.975   4.282 -0.5084  1.3740  0.6723
 1532TIP3   OH2 4559   4.732   6.040   4.213  0.3297 -0.3395  0.1433
 1532TIP3    H1 4560   4.776   6.069   4.133  0.1866 -1.9604 -0.5653
 1532TIP3    H2 4561   4.717   6.121   4.262 -1.1941  0.9704 -2.2596
 1533TIP3   OH2 4562   2.384   2.306   5.389  0.3977 -0.4454  0.0434
 1533TIP3    H1 4563   2.384   2.398   5.414  1.2186 -0.2917 -0.5056
 1533TIP3    H2 4564   2.291   2.284   5.379  0.2141  0.4339 -0.2491
 1534TIP3   OH2 4565   7.155   3.805   3.170  0.5778 -0.6403 -0.4201
 1534TIP3    H1 4566   7.158   3.711   3.182  1.5112 -0.5205  0.3792
 1534TIP3    H2 4567   7.229   3.839   3.220 -0.6250  0.6419  0.6085
 1535TIP3   OH2 4568   1.227   2.104   4.419  0.2553  0.5077 -0.1936
 1535TIP3    H1 4569   1.212   2.063   4.334 -1.5184 -0.0748  0.3594
 1535TIP3    H2 4570   1.151   2.080   4.472  2.2698 -0.9456  2.2813
 1536TIP3   OH2 4571   4.796   0.241   0.005  0.1178 -0.5051  0.5554
 1536TIP3    H1 4572   4.843   0.184  -0.055  0.5419 -0.3152  0.7081
 1536TIP3    H2 4573   4.745   0.181   0.060  1.1211 -0.7819  1.1972
 1537TIP3   OH2 4574   0.031   6.758  -0.026 -0.0151 -0.4145 -0.0834
 1537TIP3    H1 4575   0.085   6.741   0.051  1.0101 -0.4940 -0.8023
 1537TIP3    H2 4576  -0.052   6.788   0.010 -0.0120 -1.7078  1.0833
 1538TIP3   OH2 4577   2.861   2.986   3.648  0.0554  0.3804 -0.1020
 1538TIP3    H1 4578   2.953   2.962   3.640 -0.3516 -1.0750 -0.8090
 1538TIP3    H2 4579   2.815   2.921   3.595 -1.6543 -0.8308  2.6621
 1539TIP3   OH2 4580   1.392   1.682   2.273 -0.4530 -0.3337  0.0342
 1539TIP3    H1 4581   1.418   1.658   2.362 -1.7059  0.2143  0.5716
 1539TIP3    H2 4582   1.473   1.675   2.222  0.3793 -0.2662  1.2922
 1540TIP3   OH2 4583   1.749   2.038   2.378 -0.7517  0.5199  0.2058
 1540TIP3    H1 4584   1.818   1.989   2.333  0.1070  0.6775  1.3329
 1540TIP3    H2 4585   1.793   2.111   2.419 -1.7339  1.1326  0.2089
 1541TIP3   OH2 4586   0.216   5.025   2.755 -0.4081  0.1904 -0.3221
 1541TIP3    H1 4587   0.256   4.999   2.672  0.2169 -0.1700  0.0843
 1541TIP3    H2 4588   0.289   5.058   2.808 -0.8280  0.5944  0.0205
 1542TIP3   OH2 4589   1.545   6.476   3.045 -0.0681 -0.6234  0.2103
 1542TIP3    H1 4590   1.476   6.417   3.013 -1.1281  0.7131 -0.0377
 1542TIP3    H2 4591   1.545   6.549   2.984  1.1918 -0.3158  0.5534
 1543TIP3   OH2 4592   6.858   6.577   3.852 -0.0359 -0.1457 -0.0660
 1543TIP3    H1 4593   6.907   6.514   3.799  0.1266  0.0935 -0.1983
 1543TIP3    H2 4594   6.779   6.529   3.878  0.7039 -0.8574  0.9372
 1544TIP3   OH2 4595   3.850   6.450   3.899 -0.3354  0.2461  0.4153
 1544TIP3    H1 4596   3.943   6.469   3.915  0.1616  0.5112 -2.4012
 1544TIP3    H2 4597   3.804   6.500   3.966  1.5285  0.1435  1.8601
 1545TIP3   OH2 4598   4.017   1.738   0.075  0.4543 -0.2920  0.3065
 1545TIP3    H1 4599   4.046   1.670   0.135  0.0404 -1.7767 -1.1118
 1545TIP3    H2 4600   4.057   1.715  -0.009  0.3968  1.2956 -0.1940
 1546TIP3   OH2 4601   2.154   1.384   0.256 -0.1937  0.4545 -0.1557
 1546TIP3    H1 4602   2.090   1.315   0.268  0.7397 -0.8829 -2.1953
 1546TIP3    H2 4603   2.226   1.342   0.208  1.5390  2.2446  0.7111
 1547TIP3   OH2 4604   5.954   6.653   5.511  0.2641  0.1278 -0.4293
 1547TIP3    H1 4605   5.897   6.696   5.575  0.2171  0.0147 -0.3947
 1547TIP3    H2 4606   5.984   6.574   5.556  0.5910  0.2782 -0.3794
 1548TIP3   OH2 4607   2.451   2.330   2.550  0.2113 -0.4970 -0.2624
 1548TIP3    H1 4608   2.508   2.354   2.476  0.4782 -1.2220 -0.2970
 1548TIP3    H2 4609   2.371   2.297   2.508  0.5952 -1.4638 -0.2311
 1549TIP3   OH2 4610   2.755   4.904   4.370  0.5932  0.1342 -0.4405
 1549TIP3    H1 4611   2.800   4.880   4.451  0.6274 -1.6266 -0.9576
 1549TIP3    H2 4612   2.748   5.000   4.375  1.8489  0.1967  0.9740
 1550TIP3   OH2 4613   6.155   3.087   1.404  0.6135 -0.4420 -0.2572
 1550TIP3    H1 4614   6.103   3.136   1.339 -0.1454 -0.5862  0.2212
 1550TIP3    H2 4615   6.141   2.995   1.382 -0.6820 -0.5383  0.8539
 1551TIP3   OH2 4616   2.329   5.371   3.608  0.6775  0.1291 -0.3204
 1551TIP3    H1 4617   2.279   5.359   3.527 -0.2830 -0.7625  0.3876
 1551TIP3    H2 4618   2.414   5.330   3.590 -0.6835 -3.1849  0.2257
 1552TIP3   OH2 4619   7.090   5.755   4.854  0.0722  0.1328 -0.1733
 1552TIP3    H1 4620   7.166   5.812   4.849  0.7249 -0.6744  0.2990
 1552TIP3    H2 4621   7.097   5.714   4.940 -1.5091  0.8806  0.3649
 1553TIP3   OH2 4622   1.711   2.822   4.026 -0.5080  0.1339 -0.0638
 1553TIP3    H1 4623   1.754   2.863   3.951 -0.5929 -2.7330 -1.8215
 1553TIP3    H2 4624   1.768   2.749   4.049 -3.4159 -2.8525 -1.4644
 1554TIP3   OH2 4625   4.486   1.868   4.174  0.4526  0.6683 -0.2213
 1554TIP3    H1 4626   4.487   1.878   4.269  1.5441 -2.6683  0.2289
 1554TIP3    H2 4627   4.412   1.922   4.145 -1.8254 -0.5451  2.8378
 1555TIP3   OH2 4628   3.293   1.510   5.498  0.0322  0.3652 -0.0511
 1555TIP3    H1 4629   3.307   1.602   5.478  1.3674  0.3281  0.5810
 1555TIP3    H2 4630   3.351   1.463   5.438 -1.2176 -0.1181 -0.9023
 1556TIP3   OH2 4631   7.131   1.462   3.842 -0.1981  0.1406  0.1210
 1556TIP3    H1 4632   7.042   1.431   3.827  1.1075 -3.3323 -1.4230
 1556TIP3    H2 4633   7.145   1.451   3.936 -0.2223 -3.2307 -0.1610
 1557TIP3   OH2 4634   3.093   1.569   0.140  0.3007  0.1736 -0.5188
 1557TIP3    H1 4635   3.153   1.542   0.070  0.0808 -0.2295 -0.5530
 1557TIP3    H2 4636   3.068   1.658   0.116  1.0342  0.4136 -0.4016
 1558TIP3   OH2 4637   6.193   2.759   5.375  0.0862 -1.0393  0.4610
 1558TIP3    H1 4638   6.237   2.802   5.448 -0.3325 -1.7392  1.1411
 1558TIP3    H2 4639   6.262   2.747   5.310  0.3939 -0.1148  0.5941
 1559TIP3   OH2 4640   3.834   0.195   0.743 -0.1905 -0.0574 -0.2996
 1559TIP3    H1 4641   3.767   0.128   0.729 -1.1470  0.3535  1.8690
 1559TIP3    H2 4642   3.817   0.261   0.676 -0.4259 -1.0880 -1.2724
 1560TIP3   OH2 4643   1.908   6.386   0.467  0.4411  0.4782 -0.1600
 1560TIP3    H1 4644   1.853   6.313   0.493 -0.7885  0.9276 -1.4156
 1560TIP3    H2 4645   1.977   6.388   0.533 -0.0532 -1.1818  0.4556
 1561TIP3   OH2 4646   0.193   1.028   3.862  0.0296  0.2278 -0.4096
 1561TIP3    H1 4647   0.107   1.020   3.822  0.5399  0.7853 -1.6737
 1561TIP3    H2 4648   0.245   1.076   3.797  0.5918  2.1932  1.3858
 1562TIP3   OH2 4649   0.374   0.111   0.786  0.0730 -0.3185  0.1863
 1562TIP3    H1 4650   0.296   0.110   0.731  1.0213  0.6989 -1.2539
 1562TIP3    H2 4651   0.370   0.195   0.832  0.1040 -0.4536  0.4382
 1563TIP3   OH2 4652   1.202   3.378   0.646 -0.0654  0.2759  0.4801
 1563TIP3    H1 4653   1.277   3.327   0.615 -0.3870  0.8086 -1.2817
 1563TIP3    H2 4654   1.240   3.454   0.689  0.3989 -0.3102  1.1225
 1564TIP3   OH2 4655   6.113   0.770   0.096  0.1460 -0.4747  0.2722
 1564TIP3    H1 4656   6.107   0.858   0.134  2.3741 -0.4520  0.7149
 1564TIP3    H2 4657   6.022   0.745   0.078 -0.5849  1.6308  0.7668
 1565TIP3   OH2 4658   4.286   5.621   3.771  0.0893 -0.2321 -0.1890
 1565TIP3    H1 4659   4.350   5.578   3.714  1.4696  0.1109  1.0296
 1565TIP3    H2 4660   4.297   5.579   3.856 -0.3134  0.8038  0.3990
 1566TIP3   OH2 4661  -0.001   6.128   4.368  0.5239 -0.2564 -0.7507
 1566TIP3    H1 4662   0.032   6.199   4.313  0.4134 -0.2947 -0.8634
 1566TIP3    H2 4663   0.031   6.151   4.456  2.1021 -1.0437 -1.0801
 1567TIP3   OH2 4664   0.836   0.551   3.336 -0.0151 -0.0761  0.2599
 1567TIP3    H1 4665   0.904   0.589   3.280 -0.5490 -0.8754 -0.9579
 1567TIP3    H2 4666   0.804   0.625   3.387  1.4125  0.4087  0.4908
 1568TIP3   OH2 4667   5.309   5.875   2.343 -0.0003 -0.1954  0.2424
 1568TIP3    H1 4668   5.284   5.960   2.380  1.3302 -0.0150  0.8005
 1568TIP3    H2 4669   5.281   5.811   2.408 -0.9088 -0.1917 -0.1300
 1569TIP3   OH2 4670   6.067   2.619   1.991 -0.0590 -0.2559  0.0285
 1569TIP3    H1 4671   6.116   2.545   1.954 -1.2321  0.2014 -2.6842
 1569TIP3    H2 4672   6.118   2.696   1.966 -0.9869  0.0815 -0.8635
 1570TIP3   OH2 4673   6.848   1.434   2.170  0.1684 -0.8437  0.2077
 1570TIP3    H1 4674   6.940   1.421   2.148  0.5468  0.0893  1.0846
 1570TIP3    H2 4675   6.809   1.473   2.092  0.4432 -1.5150 -0.2689
 1571TIP3   OH2 4676   5.060   0.503   4.049 -0.3624 -0.2357 -0.2209
 1571TIP3    H1 4677   5.038   0.566   4.117  0.2120 -0.9399  0.6465
 1571TIP3    H2 4678   4.977   0.464   4.023 -0.6557  0.4940 -0.3850
 1572TIP3   OH2 4679   0.994   2.275   3.478  0.2464  0.3126  0.2428
 1572TIP3    H1 4680   0.924   2.257   3.415 -1.1108  0.3216  1.6784
 1572TIP3    H2 4681   1.025   2.189   3.504  0.2133  0.2885  0.2037
 1573TIP3   OH2 4682   6.545   6.714   5.817 -0.1989 -0.7308 -0.1741
 1573TIP3    H1 4683   6.456   6.713   5.782 -0.3047 -2.3196  0.0673
 1573TIP3    H2 4684   6.561   6.806   5.838 -0.8561  0.0002 -2.4889
 1574TIP3   OH2 4685   6.660   0.670   3.336  0.1332 -0.3009 -0.1882
 1574TIP3    H1 4686   6.604   0.714   3.400  1.2586 -0.3895  0.8958
 1574TIP3    H2 4687   6.614   0.588   3.317  0.0016 -0.4870  0.8701
 1575TIP3   OH2 4688   2.917   6.696   2.523  0.3610 -0.1303  0.2887
 1575TIP3    H1 4689   2.930   6.654   2.608 -1.5976  0.5759  0.9976
 1575TIP3    H2 4690   2.969   6.643   2.462  1.8087 -0.6586  1.9019
 1576TIP3   OH2 4691   2.138   4.312   4.969 -0.4237 -0.1078 -0.9280
 1576TIP3    H1 4692   2.223   4.307   5.013 -0.4226 -0.5689 -0.9763
 1576TIP3    H2 4693   2.086   4.243   5.010 -0.0811 -1.2802 -2.3627
 1577TIP3   OH2 4694   3.427   5.995   5.062  0.2803 -0.3053 -0.6050
 1577TIP3    H1 4695   3.493   5.940   5.104  1.1831  0.5785 -0.8528
 1577TIP3    H2 4696   3.402   5.946   4.983  0.1789 -0.9274 -0.1929
 1578TIP3   OH2 4697   5.727   3.190   3.881  0.0640  0.2520  0.0554
 1578TIP3    H1 4698   5.743   3.097   3.867  0.7517  0.5732 -1.6563
 1578TIP3    H2 4699   5.814   3.226   3.902  0.6052  1.0134 -2.9327
 1579TIP3   OH2 4700   0.258   3.249   4.509 -0.8872  0.5845  0.4255
 1579TIP3    H1 4701   0.335   3.204   4.543 -0.4959 -0.0680 -1.2309
 1579TIP3    H2 4702   0.189   3.231   4.573 -0.0454 -0.0540  1.1733
 1580TIP3   OH2 4703   0.806   4.648   3.780 -0.7545 -0.1011 -0.0518
 1580TIP3    H1 4704   0.753   4.685   3.851 -0.8787  1.5084 -0.9553
 1580TIP3    H2 4705   0.893   4.685   3.792 -0.4341 -0.8449  0.0014
 1581TIP3   OH2 4706   3.725   5.405   1.574 -0.1803 -0.3131  0.0312
 1581TIP3    H1 4707   3.718   5.311   1.561 -0.1762 -0.3709  0.4229
 1581TIP3    H2 4708   3.788   5.415   1.645  0.0542 -0.0027 -0.2197
 1582TIP3   OH2 4709   1.455   0.994   0.230 -0.4147 -0.3023 -0.1087
 1582TIP3    H1 4710   1.524   0.932   0.253 -2.1594 -2.1707  0.4947
 1582TIP3    H2 4711   1.499   1.064   0.183  1.9997 -0.8971  1.1166
 1583TIP3   OH2 4712   6.371   5.087   1.030 -0.2433 -0.6543  0.0674
 1583TIP3    H1 4713   6.329   5.101   1.115  0.9520 -0.3302  0.6323
 1583TIP3    H2 4714   6.448   5.144   1.032 -1.0543  0.6133 -1.8936
 1584TIP3   OH2 4715   1.249   6.063   0.579  0.4976 -0.4886  0.5609
 1584TIP3    H1 4716   1.163   6.102   0.589  0.1579 -1.1320  0.2291
 1584TIP3    H2 4717   1.234   5.969   0.586  0.9036 -0.7214 -1.1939
 1585TIP3   OH2 4718   3.958   5.328   1.734 -0.6838 -0.0634 -0.0350
 1585TIP3    H1 4719   3.918   5.260   1.789 -1.2345 -1.7892 -2.4036
 1585TIP3    H2 4720   4.005   5.279   1.667  0.8006  1.9570 -0.5498
 1586TIP3   OH2 4721   3.375   1.837   1.748 -0.2819 -0.3295  0.0562
 1586TIP3    H1 4722   3.448   1.838   1.809 -0.3916 -0.4290  0.1878
 1586TIP3    H2 4723   3.415   1.820   1.663  0.0758  1.3775 -0.1579
 1587TIP3   OH2 4724   5.312   1.527   5.007 -0.3490 -0.5541 -0.2898
 1587TIP3    H1 4725   5.338   1.619   5.013  0.9951 -0.9084 -0.4528
 1587TIP3    H2 4726   5.317   1.494   5.097  0.3787 -0.7773 -0.4078
 1588TIP3   OH2 4727   3.997   0.839   3.229  0.7876  0.3481  0.4855
 1588TIP3    H1 4728   3.967   0.753   3.257  0.6404  0.4365  0.6017
 1588TIP3    H2 4729   4.009   0.831   3.134 -4.2343  1.5781 -0.5709
 1589TIP3   OH2 4730   2.746   2.540   5.656  0.0857  0.1771 -0.3586
 1589TIP3    H1 4731   2.726   2.461   5.605  1.9471 -0.1692 -0.6207
 1589TIP3    H2 4732   2.691   2.608   5.617 -2.1611 -1.0944  0.3816
 1590TIP3   OH2 4733   2.046   4.078   5.106 -0.0040  0.5319  0.6822
 1590TIP3    H1 4734   2.003   4.100   5.189 -0.6903  1.9780 -0.0267
 1590TIP3    H2 4735   2.082   3.990   5.121 -2.8072 -0.6162  1.4867
 1591TIP3   OH2 4736   0.135   1.638   3.824  0.0392  0.6106  0.1518
 1591TIP3    H1 4737   0.062   1.580   3.843 -2.1748  2.9653 -0.5446
 1591TIP3    H2 4738   0.161   1.673   3.909 -0.9080  1.1317  0.2390
 1592TIP3   OH2 4739   3.767   1.328   4.254 -0.2180  0.2984 -0.1250
 1592TIP3    H1 4740   3.802   1.398   4.310 -0.4530  0.6210 -0.3810
 1592TIP3    H2 4741   3.672   1.333   4.265 -0.2633  0.3440 -0.5334
 1593TIP3   OH2 4742   4.059   2.836   0.286 -0.1930  0.5414 -0.2519
 1593TIP3    H1 4743   4.150   2.832   0.315 -0.1776  0.0751 -0.3682
 1593TIP3    H2 4744   4.009   2.803   0.360 -0.2338  0.3831 -0.3496
 1594TIP3   OH2 4745   1.802   1.810   4.174  0.5275  0.1138  0.1281
 1594TIP3    H1 4746   1.794   1.716   4.194  2.9502 -0.1132  0.3607
 1594TIP3    H2 4747   1.823   1.850   4.258  0.3769  0.7422 -0.1312
 1595TIP3   OH2 4748   1.659   3.842   5.254 -0.4477  0.2342 -0.1529
 1595TIP3    H1 4749   1.577   3.796   5.271 -0.7294  0.5811 -0.5490
 1595TIP3    H2 4750   1.690   3.869   5.340  1.7720 -4.0521  0.6579
 1596TIP3   OH2 4751   0.717   6.779   0.964 -0.4770  0.8043 -0.0928
 1596TIP3    H1 4752   0.788   6.766   0.901 -1.0308 -0.6773 -0.4342
 1596TIP3    H2 4753   0.762   6.796   1.047  0.3005 -0.3212 -0.2586
 1597TIP3   OH2 4754   0.566   3.867   3.920  0.0221 -0.0556  0.4939
 1597TIP3    H1 4755   0.569   3.944   3.976  3.0663 -0.7953  1.5696
 1597TIP3    H2 4756   0.657   3.838   3.915 -0.6767 -2.2053 -1.8436
 1598TIP3   OH2 4757   7.084   5.941   3.164 -0.2463  0.1372  0.1167
 1598TIP3    H1 4758   7.164   5.890   3.168  0.3117  1.0111  0.4458
 1598TIP3    H2 4759   7.066   5.951   3.071 -1.7336 -2.6768 -0.0125
 1599TIP3   OH2 4760   4.977   0.906   0.379  0.0792  0.2539  0.6737
 1599TIP3    H1 4761   4.883   0.887   0.372  0.2755 -0.1054 -1.4723
 1599TIP3    H2 4762   4.981   0.987   0.430 -1.5616  1.5254 -1.0928
 1600TIP3   OH2 4763   6.133   1.966   1.679  0.1731  0.0688  0.3983
 1600TIP3    H1 4764   6.054   1.979   1.731 -0.6914 -0.2862 -0.7913
 1600TIP3    H2 4765   6.185   2.045   1.693 -0.1216  0.0574  1.6332
 1601TIP3   OH2 4766   4.214   4.067   0.950 -0.3338  0.0945 -0.4664
 1601TIP3    H1 4767   4.131   4.114   0.947 -1.6682 -2.1620 -1.1936
 1601TIP3    H2 4768   4.281   4.136   0.944 -2.1258  1.9523 -0.0926
 1602TIP3   OH2 4769   0.477   0.482   2.070 -0.2262  0.2124 -0.1195
 1602TIP3    H1 4770   0.553   0.430   2.098  0.6534  1.9908  0.9405
 1602TIP3    H2 4771   0.410   0.464   2.137  0.3026  0.9047  0.6192
 1603TIP3   OH2 4772   6.042   4.149   3.005 -0.3328 -0.0649 -0.0672
 1603TIP3    H1 4773   6.103   4.144   3.079 -1.3282  1.2754  0.8949
 1603TIP3    H2 4774   6.022   4.058   2.985 -0.4291 -0.4621  1.6574
 1604TIP3   OH2 4775   7.055   5.894   4.302 -0.1506  0.1539  0.0877
 1604TIP3    H1 4776   7.063   5.851   4.387  2.6536  1.2605  0.4919
 1604TIP3    H2 4777   7.088   5.982   4.316  0.4325  0.3671 -2.1521
 1605TIP3   OH2 4778   2.968   6.080   3.689 -0.1988  0.4749 -0.3950
 1605TIP3    H1 4779   3.028   6.007   3.671 -1.8673 -1.3666  1.0832
 1605TIP3    H2 4780   2.933   6.103   3.603  1.9736  1.0850 -1.1931
 1606TIP3   OH2 4781   2.772   5.483   3.515 -0.2248 -0.8244  0.2490
 1606TIP3    H1 4782   2.745   5.534   3.591 -0.1604  1.1426 -0.9626
 1606TIP3    H2 4783   2.856   5.521   3.489 -1.2185  0.0263 -2.0091
 1607TIP3   OH2 4784   7.170   3.870   2.201  0.3451 -0.1641 -0.0225
 1607TIP3    H1 4785   7.102   3.823   2.153 -1.8074  1.1847  1.5140
 1607TIP3    H2 4786   7.218   3.918   2.133 -1.6479  0.5221 -1.0277
 1608TIP3   OH2 4787   0.900   1.561   0.950 -0.0757 -0.2490  0.0574
 1608TIP3    H1 4788   0.836   1.583   1.018 -0.6279 -2.0114  0.1529
 1608TIP3    H2 4789   0.960   1.500   0.993  0.6443  0.0313 -0.5384
 1609TIP3   OH2 4790   7.069   4.435   5.045  0.5110  0.1250 -0.0821
 1609TIP3    H1 4791   7.115   4.396   4.971 -1.0313  0.6743 -1.3984
 1609TIP3    H2 4792   7.002   4.370   5.068  0.3807  0.3583  0.2029
 1610TIP3   OH2 4793   0.746   3.514   4.165  0.4040 -0.0158 -0.9392
 1610TIP3    H1 4794   0.651   3.505   4.153  0.0631  1.0351  0.6713
 1610TIP3    H2 4795   0.769   3.446   4.228  0.2236  1.3519  0.6706
 1611TIP3   OH2 4796   5.489   6.194   4.307 -0.2905  0.4439  0.0727
 1611TIP3    H1 4797   5.452   6.278   4.281 -1.1408  0.0080 -0.1592
 1611TIP3    H2 4798   5.579   6.197   4.277 -0.1465  1.4989  0.5681
 1612TIP3   OH2 4799   0.644   3.215   3.260  0.0256 -0.5224 -0.2141
 1612TIP3    H1 4800   0.695   3.190   3.183  0.0285  0.1565 -0.4436
 1612TIP3    H2 4801   0.572   3.267   3.225  1.0284  1.3375  0.3638
 1613TIP3   OH2 4802   6.746   4.609   3.009 -0.5614 -0.4407 -0.3713
 1613TIP3    H1 4803   6.767   4.591   3.100 -0.9444 -1.9089 -0.5553
 1613TIP3    H2 4804   6.675   4.672   3.013  1.4269  1.9268  0.2799
 1614TIP3   OH2 4805   6.663   0.214   2.056  0.3266  0.3733  0.6391
 1614TIP3    H1 4806   6.632   0.233   1.968 -2.3564  2.2042  1.8602
 1614TIP3    H2 4807   6.739   0.271   2.068  0.2732  0.6335 -0.2387
 1615TIP3   OH2 4808   3.400   4.236   5.471 -0.0433 -0.5409  0.2750
 1615TIP3    H1 4809   3.475   4.275   5.425 -0.5761  0.7298  0.4292
 1615TIP3    H2 4810   3.437   4.164   5.522  1.0131 -0.1688  0.0566
 1616TIP3   OH2 4811   5.513   3.215   4.477 -0.1468  0.2563  0.0566
 1616TIP3    H1 4812   5.608   3.204   4.480 -0.0244  0.3446 -2.0398
 1616TIP3    H2 4813   5.497   3.265   4.396 -1.8935  1.3440  1.0200
 1617TIP3   OH2 4814   7.107   6.300   0.081  0.3253 -0.0181 -0.0913
 1617TIP3    H1 4815   7.014   6.308   0.102  0.4674  2.4798 -0.0750
 1617TIP3    H2 4816   7.150   6.300   0.167  0.3900 -0.5696 -0.1190
 1618TIP3   OH2 4817   0.208   1.044   5.686 -0.4486 -0.1569 -0.2383
 1618TIP3    H1 4818   0.232   0.962   5.644 -0.8635 -0.7785  0.7114
 1618TIP3    H2 4819   0.195   1.105   5.613  3.0776  0.0390 -0.8774
 1619TIP3   OH2 4820   0.253   4.736   1.599  0.0812  0.2333  0.5763
 1619TIP3    H1 4821   0.204   4.749   1.518  0.5549 -0.4803  0.1625
 1619TIP3    H2 4822   0.344   4.745   1.573  0.1993  1.1191  1.2564
 1620TIP3   OH2 4823   5.413   0.981   5.077  0.1510 -0.5096 -0.0297
 1620TIP3    H1 4824   5.374   1.058   5.038 -0.2168  0.1984  1.6475
 1620TIP3    H2 4825   5.354   0.957   5.148  2.4108  0.3339  2.3136
 1621TIP3   OH2 4826   4.803   2.552   0.340 -0.1119  0.0646 -0.5011
 1621TIP3    H1 4827   4.805   2.642   0.373 -1.7380  0.0922 -0.3890
 1621TIP3    H2 4828   4.817   2.560   0.246  0.3945  0.3638 -0.4044
 1622TIP3   OH2 4829   1.463   4.412   4.096 -0.4213  0.5701  0.0446
 1622TIP3    H1 4830   1.492   4.322   4.086 -0.3308  0.4534  1.2061
 1622TIP3    H2 4831   1.437   4.419   4.188 -3.9009  0.7517 -0.8097
 1623TIP3   OH2 4832   0.540   3.850   2.248  0.6664 -0.4858  0.0901
 1623TIP3    H1 4833   0.624   3.858   2.293 -0.0916  0.0102  1.4496
 1623TIP3    H2 4834   0.501   3.938   2.254  1.1678  0.0550 -2.8796
 1624TIP3   OH2 4835   1.728   1.076   5.566  0.0548  0.2509 -0.2402
 1624TIP3    H1 4836   1.755   1.151   5.618 -0.1797  0.8867 -1.0130
 1624TIP3    H2 4837   1.661   1.110   5.507  0.0532 -0.5276 -0.7098
 1625TIP3   OH2 4838   2.463   5.135   0.107 -0.0013  0.5160 -0.1513
 1625TIP3    H1 4839   2.557   5.134   0.121  0.2463 -2.1670 -1.3032
 1625TIP3    H2 4840   2.431   5.056   0.152 -1.5327  0.8180 -0.6405
 1626TIP3   OH2 4841   2.086   5.653   1.715  0.4525  0.0168  0.9106
 1626TIP3    H1 4842   2.079   5.593   1.789 -1.2412 -0.0751  0.7165
 1626TIP3    H2 4843   2.104   5.596   1.640 -1.5310 -0.3604  0.6611
 1627TIP3   OH2 4844   3.055   4.014   4.821  0.1190  0.3337  0.1788
 1627TIP3    H1 4845   3.044   3.920   4.802  0.0244  0.2648  0.5681
 1627TIP3    H2 4846   3.131   4.040   4.770 -0.4674  0.2825 -0.7616
 1628TIP3   OH2 4847   1.968   3.300   2.533 -0.4160  0.0130  0.5477
 1628TIP3    H1 4848   1.945   3.282   2.442  0.1590  0.8590  0.2230
 1628TIP3    H2 4849   1.999   3.216   2.567  0.8380  0.0284 -0.4922
 1629TIP3   OH2 4850   6.196   0.270   0.347  0.1920  0.0728  0.0938
 1629TIP3    H1 4851   6.241   0.310   0.421 -0.4736 -1.3149  1.2998
 1629TIP3    H2 4852   6.116   0.234   0.385 -1.6654  1.8788 -1.8579
 1630TIP3   OH2 4853   0.341   5.013   1.114  0.1885  0.2772 -0.2810
 1630TIP3    H1 4854   0.402   4.943   1.137  0.0385 -0.0893 -0.9640
 1630TIP3    H2 4855   0.371   5.089   1.164  0.9508 -0.0102 -0.2909
 1631TIP3   OH2 4856   1.901   5.397   5.341  0.4188  0.1718 -0.3329
 1631TIP3    H1 4857   1.844   5.377   5.267  0.5061 -0.2063 -0.2969
 1631TIP3    H2 4858   1.939   5.313   5.367 -0.3599  0.1275  0.7561
 1632TIP3   OH2 4859   3.126   3.957   4.194 -0.4952 -0.4471 -0.0849
 1632TIP3    H1 4860   3.189   3.904   4.145 -0.3326 -1.2315  0.9462
 1632TIP3    H2 4861   3.041   3.917   4.172 -0.4643 -0.5237 -0.0666
 1633TIP3   OH2 4862   2.513   0.674   1.473 -0.0001  0.0719  0.3337
 1633TIP3    H1 4863   2.433   0.623   1.468 -0.9954  1.4249  1.5484
 1633TIP3    H2 4864   2.544   0.661   1.563  0.2789  0.7833  0.3518
 1634TIP3   OH2 4865   0.450   0.631   0.678 -0.8655  0.1538 -0.6951
 1634TIP3    H1 4866   0.419   0.606   0.765 -0.2716 -0.2495 -0.5948
 1634TIP3    H2 4867   0.462   0.725   0.683  1.1542 -0.1142  0.3218
 1635TIP3   OH2 4868   2.840   4.916   5.383 -0.8170  0.4566 -0.3427
 1635TIP3    H1 4869   2.864   4.826   5.360  0.6128  1.1094 -1.6123
 1635TIP3    H2 4870   2.907   4.943   5.446 -0.1041  1.2130 -1.3896
 1636TIP3   OH2 4871   4.289   0.810   1.088  0.0622 -0.5451  0.0908
 1636TIP3    H1 4872   4.283   0.825   1.182  0.4811  2.0722 -0.2297
 1636TIP3    H2 4873   4.221   0.745   1.070 -1.5468  0.5188  1.8958
 1637TIP3   OH2 4874   3.583   2.340   3.584  0.5452  0.0621 -0.2294
 1637TIP3    H1 4875   3.491   2.345   3.610  0.2599  0.8862 -1.3335
 1637TIP3    H2 4876   3.581   2.339   3.489  1.6134 -1.9074 -0.2783
 1638TIP3   OH2 4877   6.574   2.965   2.617 -0.6222  0.3038  0.1372
 1638TIP3    H1 4878   6.562   3.057   2.595  0.4732  0.7863  1.4152
 1638TIP3    H2 4879   6.636   2.965   2.690 -1.5046 -1.3721  0.9639
 1639TIP3   OH2 4880   2.668   5.873   0.933 -0.2234  0.4978  0.5019
 1639TIP3    H1 4881   2.737   5.939   0.928 -0.9683  1.2843  0.4058
 1639TIP3    H2 4882   2.678   5.834   1.020  0.4990  0.4133  0.3870
 1640TIP3   OH2 4883   1.350   5.359   4.772  0.2743 -0.0291  0.1900
 1640TIP3    H1 4884   1.328   5.314   4.854  1.9053 -1.5462 -0.1368
 1640TIP3    H2 4885   1.307   5.443   4.779 -0.2367 -0.4026  2.3039
 1641TIP3   OH2 4886   6.038   5.468   1.698  0.1459 -0.4663  0.1424
 1641TIP3    H1 4887   5.986   5.512   1.765  0.3692  0.0418 -0.0104
 1641TIP3    H2 4888   5.975   5.444   1.630  0.3292  1.8852 -0.9703
 1642TIP3   OH2 4889   4.260   5.349   3.088 -0.2911  0.0811  0.0246
 1642TIP3    H1 4890   4.222   5.309   3.166 -0.9069  1.1146  0.2719
 1642TIP3    H2 4891   4.186   5.388   3.042  0.0958 -0.2991 -0.9628
 1643TIP3   OH2 4892   0.123   6.082   1.153 -0.3009 -0.1596  0.0270
 1643TIP3    H1 4893   0.056   6.094   1.220 -0.8586 -1.0537 -0.3491
 1643TIP3    H2 4894   0.147   5.989   1.160 -0.2422 -0.2206 -0.8884
 1644TIP3   OH2 4895   4.977   5.714   5.457  0.0076 -0.1130 -0.3024
 1644TIP3    H1 4896   5.066   5.697   5.426  0.7845 -1.4448  2.3285
 1644TIP3    H2 4897   4.938   5.626   5.465 -0.9594  0.3476  0.1767
 1645TIP3   OH2 4898   0.072   6.464   1.110 -0.2147  0.3314 -0.1071
 1645TIP3    H1 4899   0.072   6.544   1.162 -0.3173 -0.3210  0.9248
 1645TIP3    H2 4900   0.154   6.467   1.060 -0.1112  0.9575  0.1016
 1646TIP3   OH2 4901   3.335   0.804   0.900 -0.2516 -0.3823 -0.1596
 1646TIP3    H1 4902   3.331   0.721   0.948 -1.4278  0.3464  1.0555
 1646TIP3    H2 4903   3.362   0.869   0.966 -1.0457  0.4919 -0.6709
 1647TIP3   OH2 4904   5.111   3.531   4.509 -0.5716 -0.0915 -0.1575
 1647TIP3    H1 4905   5.127   3.502   4.420  0.8645 -1.7409  0.5857
 1647TIP3    H2 4906   5.054   3.464   4.547  0.1092 -0.2455  0.6177
 1648TIP3   OH2 4907   6.631   6.333   2.139 -0.4040 -0.2791 -0.0558
 1648TIP3    H1 4908   6.583   6.255   2.167  0.9008 -0.7692  0.9224
 1648TIP3    H2 4909   6.632   6.390   2.215  1.2556 -0.6460  0.2249
 1649TIP3   OH2 4910   6.202   4.052   0.874  0.1238  0.3134  0.5689
 1649TIP3    H1 4911   6.161   3.967   0.892 -0.2957  0.1834 -0.9042
 1649TIP3    H2 4912   6.130   4.115   0.877 -0.3843  0.0284 -2.4445
 1650TIP3   OH2 4913   3.553   0.574   1.421 -0.4492 -0.9057 -0.2323
 1650TIP3    H1 4914   3.649   0.578   1.426 -0.4066  0.5794 -1.4141
 1650TIP3    H2 4915   3.523   0.643   1.479 -0.7570 -0.5722 -0.7856
 1651TIP3   OH2 4916   2.060   1.887   3.044 -0.1429  0.0743  0.3374
 1651TIP3    H1 4917   2.105   1.934   3.114 -1.0240 -0.1162  1.0517
 1651TIP3    H2 4918   2.130   1.841   2.998  0.6896  1.6942 -0.1059
 1652TIP3   OH2 4919   6.083   2.394   3.736  0.1448  0.1271 -0.0543
 1652TIP3    H1 4920   6.078   2.321   3.674  0.0713 -0.5396  0.7102
 1652TIP3    H2 4921   6.055   2.356   3.819  1.3074  0.7221  0.6285
 1653TIP3   OH2 4922   2.577   5.488   2.107 -0.0879 -0.0855 -0.0410
 1653TIP3    H1 4923   2.661   5.459   2.072 -0.0921 -1.3581  0.9461
 1653TIP3    H2 4924   2.512   5.452   2.047  0.0200  0.1697 -0.3160
 1654TIP3   OH2 4925   3.220   5.458   3.878 -0.7102  0.1695 -0.1034
 1654TIP3    H1 4926   3.189   5.380   3.831  0.8693 -0.8597  0.4621
 1654TIP3    H2 4927   3.154   5.525   3.860 -1.6409 -1.0273 -1.3761
 1655TIP3   OH2 4928   2.008   3.724   2.596  0.0209 -0.0091  0.5271
 1655TIP3    H1 4929   1.933   3.773   2.631 -0.0852  1.8016 -1.9094
 1655TIP3    H2 4930   2.081   3.786   2.601  0.9933 -1.1980  1.4050
 1656TIP3   OH2 4931   5.917   4.940   5.802 -0.7121  0.0246 -0.1381
 1656TIP3    H1 4932   6.003   4.903   5.780 -0.7953  0.2138 -0.7779
 1656TIP3    H2 4933   5.897   5.000   5.731  0.0693  2.4540  1.5627
 1657TIP3   OH2 4934   5.882   5.505   1.126  0.4120  0.2017  0.6143
 1657TIP3    H1 4935   5.892   5.585   1.074 -0.0121  0.6326  1.1866
 1657TIP3    H2 4936   5.915   5.435   1.069 -0.9263  0.5286 -0.6045
 1658TIP3   OH2 4937   0.748   0.880   4.524  0.1249  0.0306  0.1433
 1658TIP3    H1 4938   0.721   0.837   4.443  0.1642 -0.4694  0.3879
 1658TIP3    H2 4939   0.752   0.973   4.502 -0.2696 -0.0540 -0.3165
 1659TIP3   OH2 4940   4.073   3.973   4.908 -0.2717  0.0087  0.8342
 1659TIP3    H1 4941   4.087   4.058   4.948 -1.0084  0.7569 -0.4257
 1659TIP3    H2 4942   3.980   3.973   4.883 -0.2789 -1.1489  0.7765
 1660TIP3   OH2 4943   0.531   5.297   1.570 -0.0464  0.2117 -0.4283
 1660TIP3    H1 4944   0.581   5.348   1.635 -0.7383  1.3347 -0.7482
 1660TIP3    H2 4945   0.466   5.251   1.622  1.7271 -1.8731  0.0907
 1661TIP3   OH2 4946   4.191   6.106   3.080 -0.0367  0.4992 -0.0743
 1661TIP3    H1 4947   4.177   6.086   3.173  0.2009 -1.1434 -0.3512
 1661TIP3    H2 4948   4.187   6.020   3.037  2.4735  0.9015 -1.2567
 1662TIP3   OH2 4949   5.672   5.424   0.876 -0.0684  0.2260 -0.1522
 1662TIP3    H1 4950   5.656   5.509   0.916  3.6855  1.1037 -0.0863
 1662TIP3    H2 4951   5.715   5.445   0.793 -1.1303 -1.6348 -1.2391
 1663TIP3   OH2 4952   2.151   5.918   4.387 -0.2461  0.0631  0.7376
 1663TIP3    H1 4953   2.111   5.834   4.366 -0.9767  0.5695  0.0442
 1663TIP3    H2 4954   2.111   5.980   4.325  0.9760  0.7463  0.5958
 1664TIP3   OH2 4955   0.292   4.794   4.579  0.2654 -0.2168  0.2207
 1664TIP3    H1 4956   0.385   4.814   4.585 -0.2831  2.8338  0.2069
 1664TIP3    H2 4957   0.279   4.721   4.641  2.4573 -0.0117  1.0107
 1665TIP3   OH2 4958   5.585   3.896   2.708 -0.3337  0.2938 -0.0081
 1665TIP3    H1 4959   5.509   3.838   2.707 -1.1705  1.3450 -0.3810
 1665TIP3    H2 4960   5.573   3.949   2.787 -0.2840  0.8153 -0.3415
 1666TIP3   OH2 4961   6.428   2.615   0.631  0.0037 -0.5079  0.0760
 1666TIP3    H1 4962   6.459   2.594   0.719 -0.2649  0.4568  0.4126
 1666TIP3    H2 4963   6.485   2.686   0.601 -1.2144  0.6100  0.3140
 1667TIP3   OH2 4964   0.356   5.646   5.001 -0.2831 -0.4905 -0.0486
 1667TIP3    H1 4965   0.338   5.567   4.949 -1.2844 -0.0674 -0.3583
 1667TIP3    H2 4966   0.413   5.699   4.944 -1.2039 -0.1232 -0.6461
 1668TIP3   OH2 4967   1.806   3.432   2.937  0.5081 -0.5026 -0.3309
 1668TIP3    H1 4968   1.898   3.407   2.932  0.2912 -1.1431 -2.4840
 1668TIP3    H2 4969   1.774   3.390   3.017  1.7139 -1.6567 -0.4147
 1669TIP3   OH2 4970   5.800   1.665   0.758 -0.3814  0.4710 -0.4273
 1669TIP3    H1 4971   5.773   1.615   0.682 -1.7844  0.7724 -0.1611
 1669TIP3    H2 4972   5.792   1.605   0.832 -1.6993  0.9459 -0.1598
 1670TIP3   OH2 4973   6.532   6.639   0.664  0.0183  0.0565  0.9486
 1670TIP3    H1 4974   6.519   6.578   0.591 -0.8822  1.3293  0.0032
 1670TIP3    H2 4975   6.592   6.705   0.630  1.4964 -0.5728  2.1712
 1671TIP3   OH2 4976   7.148   5.884   0.172 -0.3988  0.5825  0.3436
 1671TIP3    H1 4977   7.142   5.789   0.164 -1.1401  0.6748 -0.4015
 1671TIP3    H2 4978   7.137   5.916   0.082 -1.2120  1.4054  0.7243
 1672TIP3   OH2 4979   2.392   4.749   3.633  0.2439 -0.0014  0.0106
 1672TIP3    H1 4980   2.299   4.772   3.642  0.0629 -0.3550 -0.8909
 1672TIP3    H2 4981   2.436   4.834   3.626 -0.4989  0.2512 -4.0712
 1673TIP3   OH2 4982   1.547   2.946   4.229 -0.1553  0.3869  0.4101
 1673TIP3    H1 4983   1.592   2.869   4.193 -1.9430 -0.7236  0.4296
 1673TIP3    H2 4984   1.510   2.990   4.153  1.1158  1.4464  0.3680
 1674TIP3   OH2 4985   6.104   4.387   2.220  0.0477  0.1137  0.4739
 1674TIP3    H1 4986   6.008   4.392   2.227 -0.0566 -1.9805  1.1691
 1674TIP3    H2 4987   6.128   4.464   2.169 -2.2702 -0.6147 -1.9580
 1675TIP3   OH2 4988   4.851   2.473   4.500 -0.1834  0.8657 -0.0818
 1675TIP3    H1 4989   4.775   2.486   4.442  0.8133  2.2033 -1.1638
 1675TIP3    H2 4990   4.817   2.487   4.588 -1.3515  0.6832 -0.4867
 1676TIP3   OH2 4991   3.808   4.188   0.202  0.0839  0.1486 -0.3865
 1676TIP3    H1 4992   3.889   4.231   0.174  0.4118 -1.2147 -1.7119
 1676TIP3    H2 4993   3.835   4.130   0.273  0.1287  0.2594 -0.3133
 1677TIP3   OH2 4994   6.938   4.740   1.057 -0.2942 -0.1070 -1.0563
 1677TIP3    H1 4995   6.865   4.742   0.995 -0.8535 -0.3894 -0.4123
 1677TIP3    H2 4996   7.013   4.771   1.006 -0.8543  0.1670 -1.7287
 1678TIP3   OH2 4997   4.972   2.505   3.302  0.3854 -0.2281 -0.1499
 1678TIP3    H1 4998   5.014   2.591   3.304  1.3389 -0.6111 -1.5461
 1678TIP3    H2 4999   4.977   2.479   3.210 -1.7263 -0.9059 -0.1238
 1679TIP3   OH2 5000   1.062   5.941   3.486 -0.5942  0.1628 -0.3880
 1679TIP3    H1 5001   1.155   5.940   3.462 -0.7567  1.0053 -1.0646
 1679TIP3    H2 5002   1.062   5.967   3.578 -0.0575 -1.7008  0.1863
 1680TIP3   OH2 5003   0.257   4.767   3.393 -0.3661 -0.5314  0.5075
 1680TIP3    H1 5004   0.166   4.774   3.423 -0.7123 -0.8702 -0.4302
 1680TIP3    H2 5005   0.256   4.806   3.305  0.5348  0.0456  0.7365
 1681TIP3   OH2 5006   4.829   2.117   4.572  0.1216  0.2797 -0.2995
 1681TIP3    H1 5007   4.785   2.048   4.523 -0.9789  0.1137  0.8532
 1681TIP3    H2 5008   4.787   2.198   4.543 -1.6170  0.0581  1.3615
 1682TIP3   OH2 5009   5.891   5.804   3.152 -0.0891 -0.0902 -0.2454
 1682TIP3    H1 5010   5.805   5.794   3.192  0.1786  1.1126  0.6668
 1682TIP3    H2 5011   5.952   5.759   3.211 -0.1493 -1.5680 -1.2541
 1683TIP3   OH2 5012   5.063   0.128   3.558 -0.0628 -0.6280  0.9356
 1683TIP3    H1 5013   5.083   0.208   3.510 -1.2907 -0.8986 -0.0891
 1683TIP3    H2 5014   5.000   0.155   3.625 -0.6141 -0.7574  0.4747
 1684TIP3   OH2 5015   1.827   2.689   1.567 -0.2353  0.5511 -0.1290
 1684TIP3    H1 5016   1.785   2.765   1.607  0.3407  1.8437 -1.8730
 1684TIP3    H2 5017   1.758   2.648   1.515  0.0385  1.3898 -1.2058
 1685TIP3   OH2 5018   2.161   5.393   1.253 -0.2164 -0.2049 -0.0486
 1685TIP3    H1 5019   2.122   5.306   1.262 -0.1526 -0.1341  1.0412
 1685TIP3    H2 5020   2.234   5.380   1.192 -0.3777 -0.8518 -0.1120
 1686TIP3   OH2 5021   4.583   6.474   3.701  0.4058 -0.5665 -0.3243
 1686TIP3    H1 5022   4.593   6.529   3.623  0.9441 -0.5517 -0.2511
 1686TIP3    H2 5023   4.658   6.497   3.755 -0.9115  0.7660  1.0413
 1687TIP3   OH2 5024   4.603   0.760   1.601  0.5218  0.0875  0.1153
 1687TIP3    H1 5025   4.687   0.791   1.635  0.3289 -0.2634  0.9299
 1687TIP3    H2 5026   4.538   0.816   1.644  0.3299  0.3612 -0.5158
 1688TIP3   OH2 5027   1.429   2.382   2.928  0.5359 -0.0243 -0.7774
 1688TIP3    H1 5028   1.502   2.385   2.990  2.2664 -3.4363 -2.3579
 1688TIP3    H2 5029   1.356   2.346   2.979  1.3107 -0.7928 -0.1696
 1689TIP3   OH2 5030   1.980   0.851   4.707 -0.7881  0.2547  0.1160
 1689TIP3    H1 5031   1.961   0.884   4.794  0.0354 -0.5059  0.5942
 1689TIP3    H2 5032   1.999   0.930   4.655 -0.1926  0.6376  0.8966
 1690TIP3   OH2 5033   3.282   5.593   0.453 -0.0896 -0.3543  0.2700
 1690TIP3    H1 5034   3.202   5.624   0.494 -0.9051 -2.2758  0.2475
 1690TIP3    H2 5035   3.293   5.649   0.376 -0.3687  1.1077  1.2435
 1691TIP3   OH2 5036   2.272   4.828   0.528 -0.0390  0.0905  0.2051
 1691TIP3    H1 5037   2.186   4.845   0.489  0.1751  1.3289  0.2064
 1691TIP3    H2 5038   2.256   4.823   0.622 -0.1119  0.3611  0.2085
 1692TIP3   OH2 5039   0.917   4.464   0.676  0.0218  0.0709 -0.0846
 1692TIP3    H1 5040   0.831   4.450   0.716  0.1627 -1.0321 -0.1164
 1692TIP3    H2 5041   0.966   4.384   0.698  1.4628  1.1797  0.9982
 1693TIP3   OH2 5042   0.767   0.133   1.131 -0.2559 -0.4285  0.2979
 1693TIP3    H1 5043   0.704   0.127   1.203 -0.7765  0.1882 -0.0915
 1693TIP3    H2 5044   0.739   0.210   1.082  0.6369 -0.3133 -0.0492
 1694TIP3   OH2 5045   2.950   6.197   2.819 -0.6558  0.4593  0.3171
 1694TIP3    H1 5046   2.930   6.203   2.912  0.6853  0.5500  0.6164
 1694TIP3    H2 5047   3.019   6.131   2.813  0.5305  1.7193 -0.3984
 1695TIP3   OH2 5048   5.921   6.777   0.268 -0.1614 -0.2073 -0.3440
 1695TIP3    H1 5049   5.954   6.696   0.306 -0.3706 -0.2105 -0.1675
 1695TIP3    H2 5050   5.909   6.836   0.343  0.0932  0.0235 -0.4828
 1696TIP3   OH2 5051   0.444   1.821   3.148  0.3555 -0.9128 -0.5351
 1696TIP3    H1 5052   0.446   1.731   3.116 -0.6485 -1.4321  0.8236
 1696TIP3    H2 5053   0.394   1.869   3.081  0.4745 -1.4503 -1.0170
 1697TIP3   OH2 5054   6.278   5.947   2.115 -0.1287  0.2372  0.1157
 1697TIP3    H1 5055   6.307   5.865   2.075  0.0672  0.4220 -0.1249
 1697TIP3    H2 5056   6.221   5.920   2.187 -2.2119 -0.0818 -1.5653
 1698TIP3   OH2 5057   1.990   2.490   2.948 -0.0470 -0.9747  0.4409
 1698TIP3    H1 5058   1.994   2.584   2.931 -1.1331 -0.9229  0.4475
 1698TIP3    H2 5059   2.029   2.480   3.035  1.0683 -0.6729 -0.0053
 1699TIP3   OH2 5060   2.584   6.253   3.510 -0.0414 -0.0230 -0.4519
 1699TIP3    H1 5061   2.575   6.203   3.591 -1.7799 -0.0579 -0.6244
 1699TIP3    H2 5062   2.614   6.339   3.538  0.8737 -0.4955  0.0620
 1700TIP3   OH2 5063   4.959   0.400   5.463 -0.0232  0.7616  0.3069
 1700TIP3    H1 5064   5.006   0.368   5.540  0.5687 -0.2299 -0.4412
 1700TIP3    H2 5065   5.017   0.466   5.425 -1.0954  2.5698  1.6613
 1701TIP3   OH2 5066   4.698   5.293   0.941 -0.2541 -0.0269  0.1399
 1701TIP3    H1 5067   4.743   5.295   1.025  0.2216  2.1623 -0.0977
 1701TIP3    H2 5068   4.745   5.227   0.890 -0.7203 -1.5732  1.6405
 1702TIP3   OH2 5069   0.277   2.299   0.850  0.0913 -0.0488 -0.4589
 1702TIP3    H1 5070   0.225   2.228   0.812 -0.8462  0.2385  0.2566
 1702TIP3    H2 5071   0.213   2.365   0.876  0.9622  1.1989 -1.3524
 1703TIP3   OH2 5072   5.000   0.117   1.681  0.3232 -0.7975  0.0726
 1703TIP3    H1 5073   5.089   0.114   1.714 -0.1610  0.2721  1.5594
 1703TIP3    H2 5074   4.950   0.161   1.749 -1.0922 -0.1802 -1.2948
 1704TIP3   OH2 5075   2.066   4.651   3.113  0.7922  0.2689 -0.0564
 1704TIP3    H1 5076   2.102   4.630   3.027  0.6882  1.1510 -0.3236
 1704TIP3    H2 5077   2.006   4.579   3.132  2.6396 -1.2194  0.3967
 1705TIP3   OH2 5078   2.681   0.436   1.326 -0.4053  0.0946 -0.5610
 1705TIP3    H1 5079   2.613   0.440   1.393  1.3706  0.6837  1.3248
 1705TIP3    H2 5080   2.729   0.518   1.337 -0.8286  0.8624 -3.5234
 1706TIP3   OH2 5081   2.445   2.450   0.886 -0.3929 -0.0348 -0.3181
 1706TIP3    H1 5082   2.461   2.472   0.794  1.2749 -0.3742 -0.1382
 1706TIP3    H2 5083   2.530   2.460   0.928 -1.2175  0.5579  1.3003
 1707TIP3   OH2 5084   1.099   4.579   4.626 -0.0105 -0.3152  0.0840
 1707TIP3    H1 5085   1.060   4.549   4.544  1.4817  2.1365 -1.6914
 1707TIP3    H2 5086   1.025   4.591   4.685 -1.4034 -0.3030 -1.5793
 1708TIP3   OH2 5087   0.046   3.763   4.911 -0.2641 -0.1693 -0.2522
 1708TIP3    H1 5088   0.063   3.703   4.839 -0.8896  1.0727 -1.4930
 1708TIP3    H2 5089  -0.039   3.736   4.945 -0.3241 -0.2885 -0.4943
 1709TIP3   OH2 5090   6.478   1.996   5.617  0.7039 -0.7158 -0.5359
 1709TIP3    H1 5091   6.490   1.959   5.704  1.1988 -1.0553 -0.7390
 1709TIP3    H2 5092   6.463   2.089   5.632  0.5151 -0.8174 -0.0747
 1710TIP3   OH2 5093   1.579   0.559   4.090  0.4051  0.1840 -0.5400
 1710TIP3    H1 5094   1.574   0.647   4.054 -1.5914  0.3307 -0.0062
 1710TIP3    H2 5095   1.529   0.563   4.171 -0.0573 -1.5037 -0.6890
 1711TIP3   OH2 5096   0.618   4.116   4.015 -0.1173  0.1099 -0.6906
 1711TIP3    H1 5097   0.588   4.205   4.000 -0.5481 -0.1992 -1.7697
 1711TIP3    H2 5098   0.711   4.117   3.993 -0.1146  0.3001 -0.6680
 1712TIP3   OH2 5099   1.470   0.083   2.591 -0.2885 -0.4365 -0.2046
 1712TIP3    H1 5100   1.464  -0.009   2.563  2.7776 -0.6395 -0.4802
 1712TIP3    H2 5101   1.525   0.125   2.525  1.6975  0.6239  1.9981
 1713TIP3   OH2 5102   2.865   4.443   2.930 -0.9832 -0.5416  0.4213
 1713TIP3    H1 5103   2.891   4.370   2.986 -0.4826 -0.4701  0.2839
 1713TIP3    H2 5104   2.929   4.444   2.859 -0.4885  0.5310  0.8515
 1714TIP3   OH2 5105   0.066   4.768   5.311 -0.3109 -0.0787  0.0065
 1714TIP3    H1 5106   0.012   4.833   5.266  1.3729 -0.1991 -2.3583
 1714TIP3    H2 5107   0.012   4.689   5.312 -0.7925  0.2298 -0.8885
 1715TIP3   OH2 5108   1.179   2.387   2.173  0.5435 -1.1262  0.0006
 1715TIP3    H1 5109   1.145   2.467   2.212  4.0722  0.4827  0.1030
 1715TIP3    H2 5110   1.159   2.319   2.238  0.6812  0.3526  1.6842
 1716TIP3   OH2 5111   5.429   3.219   3.828  0.4773 -0.7390  0.6784
 1716TIP3    H1 5112   5.515   3.183   3.805  0.9152 -0.4084  1.7371
 1716TIP3    H2 5113   5.447   3.279   3.900 -0.4746  0.3090  0.0659
 1717TIP3   OH2 5114   3.161   1.209   2.662  0.6305  0.3606  0.0045
 1717TIP3    H1 5115   3.113   1.291   2.650  1.0669  0.4630 -1.1591
 1717TIP3    H2 5116   3.252   1.236   2.673  0.7287  0.0539 -0.0605
 1718TIP3   OH2 5117   3.494   6.095   0.555 -0.3043  0.1529  0.5231
 1718TIP3    H1 5118   3.522   6.043   0.631 -0.3810  0.2390  0.6102
 1718TIP3    H2 5119   3.478   6.030   0.486 -4.0739 -0.4000  1.6801
 1719TIP3   OH2 5120   3.193   1.339   0.686  0.0194  0.3469 -0.4944
 1719TIP3    H1 5121   3.117   1.356   0.742  0.5638  0.0444  0.3461
 1719TIP3    H2 5122   3.244   1.273   0.734 -0.8117 -1.9163 -2.5125
 1720TIP3   OH2 5123   2.367   0.958   1.130 -0.0004 -0.3935 -0.5749
 1720TIP3    H1 5124   2.326   0.876   1.102 -0.0729 -0.3155 -0.6949
 1720TIP3    H2 5125   2.401   0.939   1.218 -1.0124 -0.2079 -0.1360
 1721TIP3   OH2 5126   4.295   1.407   2.275 -0.0898  0.2125  0.0103
 1721TIP3    H1 5127   4.221   1.469   2.277 -0.2854 -0.0293  1.1615
 1721TIP3    H2 5128   4.361   1.451   2.222 -0.5220  1.0794  0.1603
 1722TIP3   OH2 5129   6.540   0.195   4.870 -0.7253 -0.0266 -0.1782
 1722TIP3    H1 5130   6.486   0.213   4.947  0.3071  0.1931  0.5048
 1722TIP3    H2 5131   6.503   0.251   4.802 -1.6207 -0.1892  0.1572
 1723TIP3   OH2 5132   0.407   5.613   5.264  0.1900  0.1184 -0.3041
 1723TIP3    H1 5133   0.487   5.568   5.288  0.5719  0.1609 -1.4385
 1723TIP3    H2 5134   0.417   5.633   5.171 -0.8067  0.8042 -0.2879
 1724TIP3   OH2 5135   6.044   1.938   3.748  0.2199 -0.8735  0.1206
 1724TIP3    H1 5136   6.019   1.912   3.836  0.5419  0.1206  0.5261
 1724TIP3    H2 5137   5.965   1.979   3.712  0.7459  0.9133  0.8584
 1725TIP3   OH2 5138   6.374   4.578   1.227 -0.6874 -0.2526 -0.2547
 1725TIP3    H1 5139   6.457   4.625   1.221 -0.9338  0.2702  0.3428
 1725TIP3    H2 5140   6.378   4.530   1.309 -0.4752 -1.2319 -0.8191
 1726TIP3   OH2 5141   2.423   5.667   0.610 -0.3525 -0.0030  0.0022
 1726TIP3    H1 5142   2.435   5.719   0.689 -0.6330  0.5892 -0.3381
 1726TIP3    H2 5143   2.510   5.666   0.568 -0.1725 -0.4268  0.3748
 1727TIP3   OH2 5144   0.729   5.963   4.680 -0.1844 -0.0542  0.1684
 1727TIP3    H1 5145   0.768   5.935   4.597  1.5312 -0.2914  0.9950
 1727TIP3    H2 5146   0.720   6.058   4.671  0.9362  0.0592  0.0613
 1728TIP3   OH2 5147   0.450   0.831   3.911 -0.2752  0.2792  0.3081
 1728TIP3    H1 5148   0.512   0.873   3.853  0.3237  1.3669  1.6745
 1728TIP3    H2 5149   0.396   0.903   3.945  0.6682  0.0098  2.5805
 1729TIP3   OH2 5150   0.173   6.473   5.527  0.0787 -0.0606 -0.0102
 1729TIP3    H1 5151   0.111   6.408   5.559  0.7450 -0.0844  1.2807
 1729TIP3    H2 5152   0.119   6.550   5.506 -0.4858 -0.3898  0.2269
 1730TIP3   OH2 5153   1.413   5.856   5.571  0.0675 -0.0146  0.0581
 1730TIP3    H1 5154   1.451   5.769   5.582  0.5129 -0.2082 -2.4045
 1730TIP3    H2 5155   1.459   5.910   5.635  0.7467 -1.3194  0.7142
 1731TIP3   OH2 5156   2.750   3.705   0.335  0.0183  0.3134  0.1789
 1731TIP3    H1 5157   2.773   3.663   0.252  2.1127  0.1757  0.7580
 1731TIP3    H2 5158   2.694   3.778   0.311 -0.3508 -0.4082 -1.2320
 1732TIP3   OH2 5159   4.644   2.698   1.467 -0.6269 -0.0162  0.3640
 1732TIP3    H1 5160   4.604   2.729   1.548  0.0417 -0.2577  0.7993
 1732TIP3    H2 5161   4.736   2.721   1.475 -0.4183 -0.6779 -0.0157
 1733TIP3   OH2 5162   3.089   3.665   1.326 -0.4972  0.0853 -0.0071
 1733TIP3    H1 5163   3.105   3.722   1.251 -0.6317 -1.4116 -1.2379
 1733TIP3    H2 5164   3.016   3.705   1.372 -0.5817  0.9037 -0.8331
 1734TIP3   OH2 5165   0.100   3.376   2.588 -0.0586  0.3258  0.0442
 1734TIP3    H1 5166   0.100   3.468   2.613 -2.8102  0.1044  1.3362
 1734TIP3    H2 5167   0.017   3.364   2.541  0.4042 -1.3932 -0.4044
 1735TIP3   OH2 5168   1.052   1.199   1.824  0.3773 -0.4920  0.7720
 1735TIP3    H1 5169   1.112   1.266   1.791 -0.3936 -0.5567 -0.8813
 1735TIP3    H2 5170   1.108   1.132   1.862  1.2337  0.3543  1.0222
 1736TIP3   OH2 5171   6.998   2.353   5.240  0.0092  0.1974 -0.1431
 1736TIP3    H1 5172   6.981   2.295   5.314  1.5932  2.0512  1.8094
 1736TIP3    H2 5173   6.979   2.441   5.273 -1.0764  0.9709 -2.5819
 1737TIP3   OH2 5174   4.158   2.643   4.296  0.2178  0.2039  1.3841
 1737TIP3    H1 5175   4.145   2.548   4.285 -0.6595  0.3051  1.4237
 1737TIP3    H2 5176   4.248   2.659   4.267 -0.2183 -0.3710 -0.4208
 1738TIP3   OH2 5177   5.500   2.622   0.214  0.3482 -0.0683 -0.5106
 1738TIP3    H1 5178   5.595   2.625   0.206  0.3929 -1.4844 -0.6648
 1738TIP3    H2 5179   5.483   2.633   0.308  0.6750 -0.1543 -0.4415
 1739TIP3   OH2 5180   6.802   5.954   3.647  0.3457 -0.2190 -0.3927
 1739TIP3    H1 5181   6.831   5.991   3.564  0.6314  1.6419  0.4861
 1739TIP3    H2 5182   6.865   5.884   3.666  0.5501 -0.3473 -1.4913
 1740TIP3   OH2 5183   0.620   0.116   3.132  0.1707 -0.0506 -0.1877
 1740TIP3    H1 5184   0.579   0.111   3.046 -0.5579  1.3552  0.0370
 1740TIP3    H2 5185   0.689   0.181   3.122 -0.4627  0.7553  0.4643
 1741TIP3   OH2 5186   2.532   4.297   0.547 -0.1976  0.0357  0.5151
 1741TIP3    H1 5187   2.565   4.277   0.635  1.0156 -0.5864 -0.0582
 1741TIP3    H2 5188   2.441   4.323   0.561 -0.5535 -1.6794  1.8004
 1742TIP3   OH2 5189   2.853   5.763   5.047 -0.3213 -0.0458  0.4669
 1742TIP3    H1 5190   2.947   5.756   5.062  0.0640 -0.3257 -1.6692
 1742TIP3    H2 5191   2.840   5.855   5.023 -0.0022 -0.6347 -2.2766
 1743TIP3   OH2 5192   1.738   0.760   3.354 -0.2015  0.4216  0.3947
 1743TIP3    H1 5193   1.692   0.678   3.336 -0.0686 -0.0305  1.9551
 1743TIP3    H2 5194   1.825   0.733   3.382  0.3218  1.1741 -0.4907
 1744TIP3   OH2 5195   2.131   0.986   0.509  0.1356 -0.0600  0.3581
 1744TIP3    H1 5196   2.051   0.937   0.492 -1.5579  3.2919 -2.5213
 1744TIP3    H2 5197   2.106   1.050   0.576  0.3846  0.9667 -0.5093
 1745TIP3   OH2 5198   2.474   1.384   1.779  0.2339 -0.3724  0.6018
 1745TIP3    H1 5199   2.398   1.378   1.721  1.5168  0.1546 -1.2446
 1745TIP3    H2 5200   2.455   1.325   1.851 -1.0996 -1.7368 -0.7956
 1746TIP3   OH2 5201   0.866   3.356   0.742  0.1195 -0.1301 -0.3397
 1746TIP3    H1 5202   0.787   3.407   0.759  0.1861  0.7066 -2.2815
 1746TIP3    H2 5203   0.852   3.319   0.655  1.2015 -1.2991 -0.0527
 1747TIP3   OH2 5204   2.425   0.746   4.073 -0.3142 -0.4644  0.4759
 1747TIP3    H1 5205   2.470   0.665   4.098  0.1942 -0.2919  0.1420
 1747TIP3    H2 5206   2.402   0.734   3.981 -2.3932 -1.1913  1.0475
 1748TIP3   OH2 5207   5.832   5.133   0.744 -0.1710 -0.2638  0.0315
 1748TIP3    H1 5208   5.770   5.124   0.817  1.4073  0.3279  1.4984
 1748TIP3    H2 5209   5.853   5.043   0.720 -0.5342 -0.4698  0.4564
 1749TIP3   OH2 5210   3.364   1.850   5.289  0.6385  0.6537 -0.1998
 1749TIP3    H1 5211   3.380   1.794   5.212 -0.0634 -0.1203  0.1973
 1749TIP3    H2 5212   3.400   1.800   5.362 -1.3111  0.0190  0.3635
 1750TIP3   OH2 5213   2.868   6.229   1.880  1.0199 -0.5655 -0.1442
 1750TIP3    H1 5214   2.825   6.208   1.797  2.0599  0.3108 -0.9401
 1750TIP3    H2 5215   2.848   6.155   1.938  0.2365 -1.1654 -1.1561
 1751TIP3   OH2 5216   2.239   6.651   1.489 -0.6908 -0.0700 -0.2031
 1751TIP3    H1 5217   2.326   6.674   1.521 -0.5506  0.3180 -0.8347
 1751TIP3    H2 5218   2.242   6.671   1.395 -1.1293 -1.0305 -0.4397
 1752TIP3   OH2 5219   4.992   5.345   0.820 -0.7014 -0.3378 -0.6633
 1752TIP3    H1 5220   4.966   5.393   0.899 -2.3835  0.2564 -1.5369
 1752TIP3    H2 5221   5.088   5.340   0.826 -0.7665 -0.0760  1.2636
 1753TIP3   OH2 5222   5.329   5.238   2.467  0.1898 -0.3932  0.0168
 1753TIP3    H1 5223   5.263   5.270   2.406 -0.1277 -0.7323  0.1814
 1753TIP3    H2 5224   5.391   5.189   2.413 -0.2562 -0.9538  0.0042
 1754TIP3   OH2 5225   1.367   4.163   3.113 -0.3920  0.0299 -0.3196
 1754TIP3    H1 5226   1.335   4.249   3.140  0.2063 -0.2424  1.3878
 1754TIP3    H2 5227   1.355   4.161   3.018 -1.2836  1.6230 -0.2671
 1755TIP3   OH2 5228   4.109   0.010   5.630 -0.7190  0.5035  0.1026
 1755TIP3    H1 5229   4.033   0.058   5.596 -0.5717  0.0795 -0.8790
 1755TIP3    H2 5230   4.180   0.074   5.631 -0.5348  0.3486 -1.1554
 1756TIP3   OH2 5231   6.213   0.775   3.881  0.3095  0.5988 -0.6096
 1756TIP3    H1 5232   6.282   0.840   3.868  1.6271 -0.6177  0.0312
 1756TIP3    H2 5233   6.135   0.826   3.904  1.3031  1.9415 -0.1252
 1757TIP3   OH2 5234   3.516   6.428   2.457 -0.1488 -0.4112 -0.7677
 1757TIP3    H1 5235   3.569   6.388   2.527 -0.1524  0.9082  0.0215
 1757TIP3    H2 5236   3.460   6.491   2.503 -0.0231  0.6181 -1.9833
 1758TIP3   OH2 5237   4.161   2.746   0.022  0.2714  0.5535 -0.2685
 1758TIP3    H1 5238   4.141   2.835  -0.005  1.5424  0.7723 -0.5597
 1758TIP3    H2 5239   4.105   2.730   0.098 -1.7458  0.7039 -1.6514
 1759TIP3   OH2 5240   5.872   5.222   4.738  0.0990 -0.2564  0.4540
 1759TIP3    H1 5241   5.849   5.303   4.784  0.4879  0.9361 -1.3344
 1759TIP3    H2 5242   5.832   5.153   4.791 -1.3179  1.1747  1.3867
 1760TIP3   OH2 5243   0.679   6.367   3.542  0.4160 -0.1218  0.0103
 1760TIP3    H1 5244   0.742   6.334   3.478  0.3825  1.2822 -0.7949
 1760TIP3    H2 5245   0.732   6.420   3.602  0.3153 -0.7239  0.6397
 1761TIP3   OH2 5246   2.993   5.945   4.002  0.1172 -0.0251 -0.0024
 1761TIP3    H1 5247   2.947   5.946   3.918  0.6239  0.7532 -0.2907
 1761TIP3    H2 5248   3.086   5.950   3.978  0.2762  0.0163  0.6013
 1762TIP3   OH2 5249   1.470   5.662   1.205  0.0297  0.6077  0.8387
 1762TIP3    H1 5250   1.507   5.672   1.117  0.0908 -0.2218  0.7604
 1762TIP3    H2 5251   1.547   5.664   1.263  0.4713 -2.7002  0.5599
 1763TIP3   OH2 5252   3.401   3.037   4.683  0.0971 -0.0053 -0.6514
 1763TIP3    H1 5253   3.487   3.070   4.710  0.4282 -1.1663 -0.2461
 1763TIP3    H2 5254   3.339   3.094   4.728  0.6507 -0.9035  1.3279
 1764TIP3   OH2 5255   1.801   2.258   2.063 -0.2917 -0.4682  0.6523
 1764TIP3    H1 5256   1.846   2.298   2.137 -0.6979 -0.7689  1.0611
 1764TIP3    H2 5257   1.722   2.219   2.100  0.1189 -1.7074  0.2772
 1765TIP3   OH2 5258   1.954   2.328   2.281 -0.5179  0.2749  0.4985
 1765TIP3    H1 5259   2.042   2.303   2.253 -0.3956  1.5639 -0.3868
 1765TIP3    H2 5260   1.950   2.304   2.373 -0.1061 -2.0055 -0.0275
 1766TIP3   OH2 5261   5.108   2.742   0.213 -0.0765 -0.5083 -0.8411
 1766TIP3    H1 5262   5.016   2.732   0.238  0.7122 -1.7003  2.0641
 1766TIP3    H2 5263   5.126   2.666   0.158 -0.5203 -1.0060 -0.3166
 1767TIP3   OH2 5264   3.714   1.313   4.620  0.2100  0.2551 -0.3255
 1767TIP3    H1 5265   3.808   1.333   4.613  0.2374  2.2895  3.2392
 1767TIP3    H2 5266   3.678   1.388   4.667 -3.2026 -0.6559 -1.2576
 1768TIP3   OH2 5267   0.223   6.359   5.166  0.3193 -0.3831 -0.3985
 1768TIP3    H1 5268   0.236   6.451   5.187  1.5688 -0.1711 -1.9406
 1768TIP3    H2 5269   0.255   6.312   5.243 -1.5952  0.4352  0.9889
 1769TIP3   OH2 5270   1.989   0.803   5.204 -0.4617  0.2313 -0.2908
 1769TIP3    H1 5271   1.909   0.751   5.197  0.0605 -0.6125 -0.1459
 1769TIP3    H2 5272   1.969   0.869   5.269 -0.7048 -0.6210  0.5216
 1770TIP3   OH2 5273   5.597   4.243   5.067 -0.0838  0.0215 -0.3816
 1770TIP3    H1 5274   5.680   4.291   5.070 -0.8158  1.3861 -1.2100
 1770TIP3    H2 5275   5.530   4.310   5.064 -1.4563 -0.9842  3.0777
 1771TIP3   OH2 5276   2.159   0.814   4.398  0.1141  0.0822  0.3875
 1771TIP3    H1 5277   2.223   0.819   4.326 -0.8743  0.7749 -0.4725
 1771TIP3    H2 5278   2.126   0.725   4.394 -0.0724  0.1732 -0.1435
 1772TIP3   OH2 5279   0.251   0.014   0.196 -0.2983  0.0580  0.0435
 1772TIP3    H1 5280   0.271   0.103   0.226 -1.6108  0.3843  0.0349
 1772TIP3    H2 5281   0.321  -0.040   0.231 -0.3366  0.8484  1.4249
 1773TIP3   OH2 5282   0.388   0.560   4.529  0.1016 -0.3554 -0.2629
 1773TIP3    H1 5283   0.342   0.545   4.446  0.1235  0.3746 -0.4128
 1773TIP3    H2 5284   0.456   0.492   4.531 -2.2013 -2.7999  0.9218
 1774TIP3   OH2 5285   4.312   4.858   3.170  0.4761 -0.0699  0.1142
 1774TIP3    H1 5286   4.297   4.943   3.211  0.7213  0.2029 -0.3500
 1774TIP3    H2 5287   4.299   4.875   3.076  1.4684 -0.3214 -0.0792
 1775TIP3   OH2 5288   6.897   6.222   4.701  0.0118  0.5122  0.1409
 1775TIP3    H1 5289   6.922   6.304   4.661 -1.3903 -0.0817 -2.1300
 1775TIP3    H2 5290   6.805   6.234   4.726  0.1662  0.0502  0.9834
 1776TIP3   OH2 5291   6.881   4.072   3.562  0.4281 -0.2800  0.6584
 1776TIP3    H1 5292   6.815   4.118   3.509  1.0678  1.0340  0.9441
 1776TIP3    H2 5293   6.947   4.043   3.500 -0.2547 -1.3558  0.4051
 1777TIP3   OH2 5294   1.006   3.363   4.958  1.0051  0.0573  0.5196
 1777TIP3    H1 5295   0.980   3.455   4.948  1.8187  0.1913 -0.6064
 1777TIP3    H2 5296   1.100   3.367   4.979  1.4026 -0.5297 -1.0364
 1778TIP3   OH2 5297   4.401   3.655   0.441 -0.1241 -0.1250 -0.1578
 1778TIP3    H1 5298   4.312   3.677   0.471  0.4528  0.9386  0.9152
 1778TIP3    H2 5299   4.430   3.586   0.501 -0.1300 -0.2715 -0.3248
 1779TIP3   OH2 5300   1.820   2.422   0.546  0.3891  0.2908  0.7426
 1779TIP3    H1 5301   1.805   2.497   0.603 -1.6584  0.3526  0.1879
 1779TIP3    H2 5302   1.735   2.402   0.509  0.7818 -2.4925  1.0589
 1780TIP3   OH2 5303   1.834   0.960   3.653 -0.5354  0.7305 -0.3485
 1780TIP3    H1 5304   1.862   0.936   3.741 -2.4793  1.3074  0.4794
 1780TIP3    H2 5305   1.905   0.931   3.596  1.0928  0.9836  1.4718
 1781TIP3   OH2 5306   1.457   4.220   5.668 -0.0595 -0.3156  0.2913
 1781TIP3    H1 5307   1.382   4.265   5.707  0.4555  1.2136 -0.4089
 1781TIP3    H2 5308   1.517   4.290   5.642  1.0669 -1.4410 -0.2930
 1782TIP3   OH2 5309   2.538   1.981   4.187  0.7113 -0.0876 -0.0600
 1782TIP3    H1 5310   2.598   1.964   4.114 -0.2013  0.6112 -1.0152
 1782TIP3    H2 5311   2.489   2.059   4.160 -0.8334 -0.8065  0.5319
 1783TIP3   OH2 5312   4.994   6.466   3.706  0.7480 -0.0579  0.0409
 1783TIP3    H1 5313   5.034   6.481   3.620  0.6230 -0.4841 -0.0943
 1783TIP3    H2 5314   5.038   6.388   3.739  0.9376  0.2217  0.4524
 1784TIP3   OH2 5315   3.587   4.042   5.005 -0.8798  0.3699  0.4277
 1784TIP3    H1 5316   3.533   3.999   4.939 -0.3960 -1.7515  1.3350
 1784TIP3    H2 5317   3.527   4.099   5.053 -1.5487  0.7459 -0.8184
 1785TIP3   OH2 5318   0.370   4.073   5.818 -0.4782 -0.3489  0.3410
 1785TIP3    H1 5319   0.274   4.077   5.821 -0.5689 -2.1282  1.0611
 1785TIP3    H2 5320   0.396   4.057   5.908  0.5980  1.1480  0.3237
 1786TIP3   OH2 5321   4.805   2.494   2.285 -0.1149  0.0977  0.3357
 1786TIP3    H1 5322   4.755   2.451   2.355 -0.4535 -0.3939 -0.2004
 1786TIP3    H2 5323   4.757   2.576   2.269 -2.1706 -1.3897 -1.7566
 1787TIP3   OH2 5324   6.158   4.568   1.060 -0.0033  0.9282 -0.6902
 1787TIP3    H1 5325   6.246   4.557   1.095  0.0493  0.4061 -0.9799
 1787TIP3    H2 5326   6.105   4.504   1.108 -1.0166  3.6118  2.1286
 1788TIP3   OH2 5327   0.913   2.034   0.917  0.0463 -0.2452  0.2260
 1788TIP3    H1 5328   0.948   1.946   0.931  0.2579 -0.2494 -0.3347
 1788TIP3    H2 5329   0.980   2.080   0.867 -0.3029  0.0652  0.0370
 1789TIP3   OH2 5330   0.579   3.638   3.246  0.1899 -0.1287  0.4946
 1789TIP3    H1 5331   0.619   3.714   3.203  0.2864 -1.5658 -2.1391
 1789TIP3    H2 5332   0.488   3.663   3.258 -0.3876 -0.3574 -2.6012
 1790TIP3   OH2 5333   2.631   3.955   2.721 -0.0814  0.6258  0.0522
 1790TIP3    H1 5334   2.634   4.028   2.660  2.5798  0.4271 -0.1671
 1790TIP3    H2 5335   2.692   3.891   2.685 -0.2039 -0.4927  1.7075
 1791TIP3   OH2 5336   6.727   3.402   1.203  0.4051  0.1496  0.1188
 1791TIP3    H1 5337   6.662   3.333   1.190  0.0341  0.5087  0.0690
 1791TIP3    H2 5338   6.715   3.460   1.128  1.3777 -0.2498 -0.3646
 1792TIP3   OH2 5339   5.878   3.376   3.044  0.2149 -0.4411 -0.3154
 1792TIP3    H1 5340   5.851   3.286   3.059  0.9954 -0.3839  1.7910
 1792TIP3    H2 5341   5.963   3.384   3.087 -0.0849  1.4210  0.0441
 1793TIP3   OH2 5342   1.994   5.142   0.283  0.3730 -0.6350  0.6387
 1793TIP3    H1 5343   2.029   5.179   0.202  1.5982 -0.1834  1.3569
 1793TIP3    H2 5344   1.901   5.127   0.264  0.5781 -0.2924 -0.7532
 1794TIP3   OH2 5345   1.554   1.965   0.286 -0.1247  0.4982 -0.4803
 1794TIP3    H1 5346   1.552   2.029   0.358  2.5916 -1.2266  1.3637
 1794TIP3    H2 5347   1.486   1.902   0.308  0.0474  0.5009  0.0925
 1795TIP3   OH2 5348   4.630   1.752   2.965 -0.2901 -0.5048  0.0485
 1795TIP3    H1 5349   4.659   1.747   3.056  0.1644  0.1175 -0.0569
 1795TIP3    H2 5350   4.706   1.722   2.914 -0.2889 -0.1658 -0.1554
 1796TIP3   OH2 5351   4.427   6.199   1.830  0.3821  0.4980 -0.2984
 1796TIP3    H1 5352   4.462   6.136   1.894  1.3837  0.2621 -1.0479
 1796TIP3    H2 5353   4.467   6.173   1.747 -1.0053  0.7153 -1.0640
 1797TIP3   OH2 5354   3.554   3.457   2.023 -0.0223 -0.1938 -0.0540
 1797TIP3    H1 5355   3.584   3.393   1.958  2.1084  1.1703 -0.5019
 1797TIP3    H2 5356   3.482   3.503   1.980 -0.2937 -0.9619 -0.4558
 1798TIP3   OH2 5357   0.666   3.779   5.280  0.8241  0.7418  0.1755
 1798TIP3    H1 5358   0.734   3.730   5.233 -0.7735 -0.2395 -1.2202
 1798TIP3    H2 5359   0.649   3.728   5.359  1.1180  0.5636  0.1237
 1799TIP3   OH2 5360   0.237   3.540   0.507 -0.1930  0.6266  0.0315
 1799TIP3    H1 5361   0.216   3.623   0.464 -1.5028  0.5833  0.5503
 1799TIP3    H2 5362   0.211   3.473   0.445  1.7731  0.5572 -0.8073
 1800TIP3   OH2 5363   1.440   5.622   1.538  0.3093  0.5014  0.6025
 1800TIP3    H1 5364   1.350   5.649   1.556  0.5301  0.5462  1.7178
 1800TIP3    H2 5365   1.489   5.703   1.531  0.3915  0.4620  0.7185
 1801TIP3   OH2 5366   1.291   0.113   5.181 -0.0541 -0.4206  0.3290
 1801TIP3    H1 5367   1.381   0.110   5.148  0.2620  0.4398  1.0598
 1801TIP3    H2 5368   1.301   0.122   5.276 -0.8939  0.5224  0.3405
 1802TIP3   OH2 5369   2.316   3.886   1.714  0.5215 -0.5129 -0.3542
 1802TIP3    H1 5370   2.401   3.885   1.669  0.3048  0.6359 -0.8243
 1802TIP3    H2 5371   2.252   3.864   1.645  0.4233 -1.3152 -0.0149
 1803TIP3   OH2 5372   4.329   3.047   2.137  0.6551  0.1092 -0.5365
 1803TIP3    H1 5373   4.345   3.074   2.047  0.2653  0.1007 -0.6095
 1803TIP3    H2 5374   4.380   3.109   2.190 -0.2012  0.9841 -0.7083
 1804TIP3   OH2 5375   5.035   6.745   1.761  0.3027  0.5076 -0.0511
 1804TIP3    H1 5376   5.096   6.688   1.716  0.5051  1.5740 -1.2040
 1804TIP3    H2 5377   5.090   6.801   1.816  0.2263  0.4357  0.0978
 1805TIP3   OH2 5378   5.034   4.019   2.875  0.1159 -0.1431 -0.0658
 1805TIP3    H1 5379   5.073   4.094   2.830  0.2441  0.1234  0.4834
 1805TIP3    H2 5380   4.946   4.012   2.838  0.0584  0.3538 -0.0324
 1806TIP3   OH2 5381   4.170   5.910   1.087 -0.2028  0.1625 -0.3619
 1806TIP3    H1 5382   4.196   5.966   1.161 -0.6204 -0.1894  0.0607
 1806TIP3    H2 5383   4.201   5.956   1.010  0.9314  0.1611  0.0767
 1807TIP3   OH2 5384   1.436   6.332   3.288 -0.0212  0.1658 -0.4348
 1807TIP3    H1 5385   1.511   6.294   3.334  0.3777  3.0378  1.6254
 1807TIP3    H2 5386   1.475   6.383   3.217  0.1421  2.0114  0.8977
 1808TIP3   OH2 5387   2.539   3.523   1.996  0.2460 -0.6684  0.0559
 1808TIP3    H1 5388   2.510   3.480   2.077 -1.8755 -1.8291 -1.2326
 1808TIP3    H2 5389   2.479   3.597   1.986  0.4270 -0.5990 -0.5120
 1809TIP3   OH2 5390   0.173   0.685   5.188 -0.2916  0.4091  0.2807
 1809TIP3    H1 5391   0.255   0.650   5.222 -0.5439 -0.2037  0.2642
 1809TIP3    H2 5392   0.114   0.610   5.184 -0.9642  0.9083  0.6189
 1810TIP3   OH2 5393   5.631   1.335   4.904 -0.2064 -0.2198 -0.5413
 1810TIP3    H1 5394   5.633   1.268   4.836 -0.2246  0.2484 -1.0122
 1810TIP3    H2 5395   5.566   1.304   4.966 -0.5887 -0.3959 -1.0187
 1811TIP3   OH2 5396   6.014   6.738   4.862  0.2296 -0.3502  0.3386
 1811TIP3    H1 5397   6.023   6.832   4.871 -0.2216 -0.2713  0.0134
 1811TIP3    H2 5398   6.039   6.719   4.772  1.8056 -0.7482  0.8315
 1812TIP3   OH2 5399   5.322   4.374   3.839  0.5930 -0.0725 -0.2182
 1812TIP3    H1 5400   5.301   4.375   3.932  1.9966 -0.4393  0.1248
 1812TIP3    H2 5401   5.252   4.324   3.798  0.5610 -0.8736  0.8045
 1813TIP3   OH2 5402   2.534   6.175   4.524  0.0048 -0.0513 -0.1212
 1813TIP3    H1 5403   2.475   6.236   4.480  0.8198  0.8051 -0.0596
 1813TIP3    H2 5404   2.621   6.214   4.514  0.4240 -0.7157  0.7658
 1814TIP3   OH2 5405   2.099   4.866   3.713 -0.0965  0.8909  0.0705
 1814TIP3    H1 5406   2.043   4.828   3.781 -1.5859  1.6664 -0.6591
 1814TIP3    H2 5407   2.040   4.879   3.639  1.2878  0.8960 -1.0690
 1815TIP3   OH2 5408   3.134   1.752   5.562 -0.0295 -0.4087 -0.3706
 1815TIP3    H1 5409   3.060   1.704   5.525 -0.2951  0.1469 -0.5825
 1815TIP3    H2 5410   3.097   1.838   5.584  0.5368 -0.1578 -0.4008
 1816TIP3   OH2 5411   6.289   4.236   2.742 -0.2787 -0.1888 -0.0301
 1816TIP3    H1 5412   6.269   4.143   2.751 -1.2801 -0.0909 -0.9474
 1816TIP3    H2 5413   6.307   4.248   2.649  1.0760  0.3223  0.2779
 1817TIP3   OH2 5414   4.073   0.505   3.534 -0.5567 -0.1620  0.0305
 1817TIP3    H1 5415   4.114   0.425   3.501 -0.3964 -0.1263  0.1467
 1817TIP3    H2 5416   4.138   0.573   3.521  0.1444 -0.4236  1.9051
 1818TIP3   OH2 5417   5.040   3.002   2.909 -0.6477  0.7485  0.0598
 1818TIP3    H1 5418   5.039   2.908   2.891 -1.9156  0.6779  0.3931
 1818TIP3    H2 5419   5.022   3.008   3.003 -0.4512  1.3195  0.0641
 1819TIP3   OH2 5420   0.327   4.724   2.513  0.6601  0.1408  0.5548
 1819TIP3    H1 5421   0.410   4.684   2.487  0.6093  0.3964 -0.0124
 1819TIP3    H2 5422   0.282   4.655   2.562 -0.2835 -1.2521 -2.0549
 1820TIP3   OH2 5423   7.140   0.977   1.995  0.0650  0.1276  0.4455
 1820TIP3    H1 5424   7.201   0.956   1.924 -0.2473 -2.8074  0.9187
 1820TIP3    H2 5425   7.184   0.947   2.074 -0.7156  0.8577  1.1755
 1821TIP3   OH2 5426   6.434   5.391   3.170  0.2816  0.1478  0.5802
 1821TIP3    H1 5427   6.342   5.413   3.154  0.3050  0.4501  0.8430
 1821TIP3    H2 5428   6.474   5.389   3.083 -0.1652 -0.8903  0.3772
 1822TIP3   OH2 5429   5.180   4.109   3.277 -0.8320 -0.6339  0.0437
 1822TIP3    H1 5430   5.258   4.160   3.253 -0.9337 -0.0480  0.9348
 1822TIP3    H2 5431   5.213   4.019   3.286 -0.1664 -0.3242  0.8258
 1823TIP3   OH2 5432   2.679   3.594   0.993  0.0778 -0.2117 -0.2207
 1823TIP3    H1 5433   2.652   3.512   1.036 -0.3217  0.7190  1.3932
 1823TIP3    H2 5434   2.774   3.598   1.007  0.1069 -0.4084 -0.3480
 1824TIP3   OH2 5435   2.583   1.565   4.273  0.3362  0.7522 -0.3375
 1824TIP3    H1 5436   2.677   1.580   4.261  0.5312  1.7181  1.8725
 1824TIP3    H2 5437   2.576   1.524   4.359 -1.0423 -2.9193 -2.0052
 1825TIP3   OH2 5438   3.927   1.285   5.338 -0.1257 -0.1755 -0.3090
 1825TIP3    H1 5439   4.010   1.334   5.334 -0.2762  0.1332  0.2526
 1825TIP3    H2 5440   3.865   1.347   5.377 -1.4141  0.6719 -3.4178
 1826TIP3   OH2 5441   4.021   3.445   5.727 -0.1160 -0.4375  0.4494
 1826TIP3    H1 5442   3.947   3.480   5.678  0.5660 -0.3030 -0.5199
 1826TIP3    H2 5443   4.090   3.511   5.716  0.2970 -0.7787  0.9421
 1827TIP3   OH2 5444   1.605   2.274   3.323 -0.3607  0.1011  0.5159
 1827TIP3    H1 5445   1.654   2.306   3.399 -0.3249 -0.7502  0.8699
 1827TIP3    H2 5446   1.524   2.240   3.361 -0.9679  0.9599  0.0021
 1828TIP3   OH2 5447   4.245   6.803   1.596  0.1733  0.8476  0.1312
 1828TIP3    H1 5448   4.219   6.720   1.637  2.1579  0.6910  1.1989
 1828TIP3    H2 5449   4.175   6.821   1.533 -1.2674 -0.6550  1.2024
 1829TIP3   OH2 5450   5.277   1.151   2.787 -0.0384  0.1634 -0.2595
 1829TIP3    H1 5451   5.244   1.068   2.821  0.0968  0.0662 -0.3674
 1829TIP3    H2 5452   5.298   1.202   2.866 -1.6106  0.7088 -0.1613
 1830TIP3   OH2 5453   3.740   3.093   3.867  0.4421  0.2918  0.5080
 1830TIP3    H1 5454   3.648   3.078   3.887  0.6252  0.0295  1.1977
 1830TIP3    H2 5455   3.787   3.059   3.944  1.1379  0.0060 -0.0363
 1831TIP3   OH2 5456   0.945   0.605   1.230  1.1381 -0.0812  0.0391
 1831TIP3    H1 5457   1.031   0.613   1.190  1.1734  0.4085  0.2052
 1831TIP3    H2 5458   0.889   0.661   1.177  0.4361 -2.0074 -1.3816
 1832TIP3   OH2 5459   5.995   2.345   5.894 -0.5974 -0.2267 -0.5088
 1832TIP3    H1 5460   5.903   2.344   5.869 -0.1591  1.7992 -2.6294
 1832TIP3    H2 5461   6.027   2.258   5.871 -1.2687  0.1326 -3.0982
 1833TIP3   OH2 5462   0.653   3.640   2.073 -0.1686  0.0305  0.7005
 1833TIP3    H1 5463   0.601   3.713   2.106 -2.5433 -0.7572 -1.0379
 1833TIP3    H2 5464   0.654   3.577   2.144 -0.4575  0.5912  1.2113
 1834TIP3   OH2 5465   5.312   6.020   4.163  0.1778 -0.2208 -0.0263
 1834TIP3    H1 5466   5.386   6.053   4.214  0.0267 -0.2136  0.1900
 1834TIP3    H2 5467   5.325   5.925   4.162  0.7406 -0.1381 -0.8494
 1835TIP3   OH2 5468   6.504   3.256   3.647 -0.5461  0.2554  0.5482
 1835TIP3    H1 5469   6.564   3.331   3.653  0.4809 -0.6108  2.0818
 1835TIP3    H2 5470   6.541   3.192   3.709 -2.5287 -0.7082  0.8034
 1836TIP3   OH2 5471   4.548   5.844   0.671  0.8510 -0.1924  0.0205
 1836TIP3    H1 5472   4.496   5.764   0.661  1.2745 -0.2997 -1.5475
 1836TIP3    H2 5473   4.494   5.901   0.725 -0.9300 -0.3195 -1.5137
 1837TIP3   OH2 5474   2.906   6.223   5.105 -0.3585 -0.1955  0.2484
 1837TIP3    H1 5475   2.933   6.314   5.094 -0.3500 -0.2445 -0.1594
 1837TIP3    H2 5476   2.983   6.172   5.080 -0.8701 -0.3415 -1.1155
 1838TIP3   OH2 5477   5.670   3.178   1.414  0.1539  0.2641  0.3604
 1838TIP3    H1 5478   5.696   3.102   1.363 -0.1289  0.5024 -0.1498
 1838TIP3    H2 5479   5.576   3.188   1.397  0.1959  0.7448  0.3937
 1839TIP3   OH2 5480   5.277   1.525   4.754 -0.2809 -0.2093  0.6311
 1839TIP3    H1 5481   5.284   1.520   4.849  0.6768 -2.2226  0.5212
 1839TIP3    H2 5482   5.201   1.471   4.732 -0.1049 -0.2956  0.2210
 1840TIP3   OH2 5483   3.797   3.117   3.193  0.0593 -0.2771 -0.5196
 1840TIP3    H1 5484   3.716   3.104   3.144  0.5401 -0.7557 -1.2020
 1840TIP3    H2 5485   3.801   3.211   3.209 -0.6608 -0.2576 -0.4169
 1841TIP3   OH2 5486   0.417   3.669   1.665  0.6913  0.0166 -0.5296
 1841TIP3    H1 5487   0.457   3.615   1.597  0.6461  0.3077 -0.7909
 1841TIP3    H2 5488   0.403   3.609   1.738 -0.7872 -0.6979 -1.3462
 1842TIP3   OH2 5489   0.555   4.769   1.554 -0.5313 -0.6006 -0.0043
 1842TIP3    H1 5490   0.597   4.684   1.565  2.2772  0.2525 -2.6843
 1842TIP3    H2 5491   0.614   4.831   1.596 -1.4480  0.2649  0.0563
 1843TIP3   OH2 5492   5.476   5.562   4.776  0.4198 -0.3616  0.8638
 1843TIP3    H1 5493   5.428   5.523   4.849  0.5423  0.5512  1.4385
 1843TIP3    H2 5494   5.506   5.647   4.809 -1.8324  1.3032 -1.1062
 1844TIP3   OH2 5495   1.622   0.507   0.177 -0.1574  0.3787 -0.3983
 1844TIP3    H1 5496   1.642   0.499   0.084 -2.0316  2.3582 -1.0551
 1844TIP3    H2 5497   1.550   0.445   0.192  0.3078 -0.1218 -0.1682
 1845TIP3   OH2 5498   3.668   1.650   0.705  0.0425 -0.3062  0.4571
 1845TIP3    H1 5499   3.651   1.680   0.793 -0.0598 -0.4702  0.4945
 1845TIP3    H2 5500   3.622   1.712   0.648 -0.4849 -0.6095  0.5466
 1846TIP3   OH2 5501   2.465   1.132   1.933  0.5730  0.1811  0.0481
 1846TIP3    H1 5502   2.463   1.159   2.025 -0.6904 -1.1368  0.4428
 1846TIP3    H2 5503   2.376   1.104   1.914  0.7924  0.4726 -1.6196
 1847TIP3   OH2 5504   3.247   3.423   1.399 -0.4265 -0.4967 -0.4183
 1847TIP3    H1 5505   3.213   3.494   1.345  0.3533 -1.4160 -2.1868
 1847TIP3    H2 5506   3.170   3.388   1.444 -0.5331  3.0808  2.6478
 1848TIP3   OH2 5507   5.867   2.174   0.651  0.2453  0.3035  0.5790
 1848TIP3    H1 5508   5.910   2.092   0.675 -2.0157 -0.6798  1.5351
 1848TIP3    H2 5509   5.833   2.158   0.563  1.0421  0.7521  0.1844
 1849TIP3   OH2 5510   0.500   5.379   0.534  0.4255 -0.3272 -0.2430
 1849TIP3    H1 5511   0.465   5.464   0.560  0.9016 -0.0724 -0.4218
 1849TIP3    H2 5512   0.449   5.315   0.584  1.1682  0.1309  1.1518
 1850TIP3   OH2 5513   4.141   1.258   0.757  0.0962 -0.2458  0.2499
 1850TIP3    H1 5514   4.107   1.183   0.805 -0.4780 -0.0817  0.1150
 1850TIP3    H2 5515   4.102   1.250   0.670  0.4134 -0.0541  0.0887
 1851TIP3   OH2 5516   4.792   3.073   2.258  0.5225 -0.3899  0.8391
 1851TIP3    H1 5517   4.818   3.002   2.200 -1.3309 -0.6049  0.1796
 1851TIP3    H2 5518   4.763   3.029   2.338  0.4091 -0.2987  0.8484
 1852TIP3   OH2 5519   5.383   5.796   5.278 -0.4404  0.2717 -0.1457
 1852TIP3    H1 5520   5.306   5.852   5.286 -0.4187  0.3806 -0.6474
 1852TIP3    H2 5521   5.435   5.816   5.356  0.2879  2.0748 -1.0275
 1853TIP3   OH2 5522   4.441   0.594   1.231  0.7017 -0.6395 -0.0152
 1853TIP3    H1 5523   4.516   0.601   1.291  0.5735  0.8766  0.0067
 1853TIP3    H2 5524   4.403   0.682   1.230  0.8736 -0.5423 -2.5737
 1854TIP3   OH2 5525   6.530   6.237   2.501 -0.4742 -0.2220  0.1129
 1854TIP3    H1 5526   6.611   6.286   2.517 -0.5077 -0.3379  0.6709
 1854TIP3    H2 5527   6.460   6.296   2.529 -0.6233  0.1095 -0.9309
 1855TIP3   OH2 5528   0.289   3.601   5.378 -0.1219  0.2341  0.5892
 1855TIP3    H1 5529   0.298   3.624   5.286  0.6891 -0.3890  0.5009
 1855TIP3    H2 5530   0.264   3.508   5.377  2.0272 -0.4104  1.0035
 1856TIP3   OH2 5531   6.771   4.628   1.740 -0.0890 -0.2133  0.4229
 1856TIP3    H1 5532   6.866   4.644   1.740 -0.0505 -0.3603  1.5193
 1856TIP3    H2 5533   6.740   4.671   1.660  1.1908 -1.9868 -1.1158
 1857TIP3   OH2 5534   2.714   5.611   1.122  0.3913 -0.4987 -0.5139
 1857TIP3    H1 5535   2.625   5.583   1.099  0.5602 -1.9153  0.4436
 1857TIP3    H2 5536   2.771   5.550   1.075  0.7909 -1.2446  0.8959
 1858TIP3   OH2 5537   6.298   6.283   2.716 -0.4207  0.3628  0.7229
 1858TIP3    H1 5538   6.235   6.323   2.776 -0.1599 -0.6844  1.7417
 1858TIP3    H2 5539   6.246   6.256   2.641 -1.3200 -0.9276  1.7596
 1859TIP3   OH2 5540   4.619   2.537   3.707  0.2867  0.0542  0.1142
 1859TIP3    H1 5541   4.632   2.632   3.715  2.9718 -0.2920  0.7006
 1859TIP3    H2 5542   4.665   2.513   3.627 -0.0318 -0.8116  0.1807
 1860TIP3   OH2 5543   3.928   5.824   0.223  0.4072 -0.5219  0.0079
 1860TIP3    H1 5544   3.971   5.894   0.176  2.9033 -0.7915  1.7083
 1860TIP3    H2 5545   3.986   5.749   0.215 -0.5735 -1.4340  0.9706
 1861TIP3   OH2 5546   6.284   5.651   5.175 -0.0767 -0.2434  0.7270
 1861TIP3    H1 5547   6.354   5.709   5.147 -0.1932 -0.4526 -0.0231
 1861TIP3    H2 5548   6.206   5.706   5.175 -0.1660 -0.3551  0.1298
 1862TIP3   OH2 5549   5.237   4.123   4.548 -0.0792 -0.0846 -0.0901
 1862TIP3    H1 5550   5.262   4.073   4.625 -0.9074 -0.6894 -0.1948
 1862TIP3    H2 5551   5.192   4.200   4.583 -0.1771 -0.2013  0.0422
 1863TIP3   OH2 5552   3.378   1.067   4.705  0.8289 -0.3466 -0.0874
 1863TIP3    H1 5553   3.322   1.050   4.781  1.3551 -0.6653  0.2372
 1863TIP3    H2 5554   3.462   1.092   4.743  1.4692 -1.7376 -0.5583
 1864TIP3   OH2 5555   4.970   3.815   2.110  0.1091  0.6245 -0.4357
 1864TIP3    H1 5556   4.977   3.794   2.016 -1.5689 -0.8239 -0.2992
 1864TIP3    H2 5557   4.944   3.732   2.151  4.8467  0.0282  2.0214
 1865TIP3   OH2 5558   5.491   0.157   5.167  0.7116 -0.1771 -0.0172
 1865TIP3    H1 5559   5.479   0.246   5.199  0.6320  0.6561 -2.2062
 1865TIP3    H2 5560   5.404   0.118   5.169  0.6592 -0.0430  0.4534
 1866TIP3   OH2 5561   4.819   0.448   2.339 -0.3989 -0.0718  0.1157
 1866TIP3    H1 5562   4.791   0.408   2.421  0.3235  1.4603  1.1540
 1866TIP3    H2 5563   4.739   0.487   2.303 -1.2520 -2.7572 -1.2159
 1867TIP3   OH2 5564   0.154   2.863   0.696 -1.0276 -0.3293  0.7151
 1867TIP3    H1 5565   0.058   2.862   0.706 -0.7826  0.4966  4.9694
 1867TIP3    H2 5566   0.186   2.814   0.772  1.9817  0.7872  0.2907
 1868TIP3   OH2 5567   0.948   4.367   0.384  0.2785  0.2435  0.0374
 1868TIP3    H1 5568   0.968   4.279   0.354 -0.0563  0.3000 -0.3628
 1868TIP3    H2 5569   0.934   4.418   0.304  0.6351  0.7028  0.2591
 1869TIP3   OH2 5570   2.441   0.005   3.264  0.6596  0.6464 -0.1916
 1869TIP3    H1 5571   2.355   0.030   3.230 -0.5904  2.3489  3.5870
 1869TIP3    H2 5572   2.490   0.088   3.266  0.9280  0.4751  1.2472
 1870TIP3   OH2 5573   5.411   1.985   0.788  0.1339  0.3888  0.3786
 1870TIP3    H1 5574   5.491   1.938   0.809  0.0935  0.2699  0.2663
 1870TIP3    H2 5575   5.403   1.976   0.693  1.4333  2.6376 -0.0424
 1871TIP3   OH2 5576   3.286   4.707   0.326 -0.2341  0.0977 -0.0364
 1871TIP3    H1 5577   3.372   4.745   0.345  0.2939  0.2744 -2.3818
 1871TIP3    H2 5578   3.284   4.700   0.230 -2.0224 -1.8270  0.0567
 1872TIP3   OH2 5579   0.087   6.319   1.364 -0.3287 -0.0375 -0.4520
 1872TIP3    H1 5580   0.110   6.369   1.285  0.2913 -0.7356 -0.7270
 1872TIP3    H2 5581   0.142   6.241   1.360  1.3411  0.9181  1.7852
 1873TIP3   OH2 5582   4.550   5.394   0.708  0.7205 -0.3235  0.6000
 1873TIP3    H1 5583   4.613   5.365   0.774  0.0315  0.6058  1.6865
 1873TIP3    H2 5584   4.604   5.434   0.640  1.4239 -1.1754  0.6307
 1874TIP3   OH2 5585   1.264   3.110   0.050 -0.2751 -0.7068 -0.0399
 1874TIP3    H1 5586   1.346   3.095   0.098  0.3357 -2.1534 -1.4499
 1874TIP3    H2 5587   1.275   3.061  -0.031 -2.3752 -0.5483 -0.4583
 1875TIP3   OH2 5588   5.703   4.390   4.362 -0.6339 -0.2741  0.0726
 1875TIP3    H1 5589   5.621   4.403   4.409 -0.7333 -1.7950  0.3559
 1875TIP3    H2 5590   5.697   4.302   4.325  0.4270 -0.0032 -0.8122
 1876TIP3   OH2 5591   1.468   5.931   1.005  0.0283 -0.5563  0.1017
 1876TIP3    H1 5592   1.396   5.974   0.959  1.2411  0.4809 -0.8836
 1876TIP3    H2 5593   1.457   5.958   1.096 -1.2131 -0.9859  0.1101
 1877TIP3   OH2 5594   0.178   2.692   1.622  0.4527  0.0876 -0.0768
 1877TIP3    H1 5595   0.197   2.783   1.597 -0.2103  0.6278  1.2587
 1877TIP3    H2 5596   0.220   2.639   1.554 -1.4116  1.4215 -2.4363
 1878TIP3   OH2 5597   4.172   6.291   5.483  0.4883 -0.2162  0.2620
 1878TIP3    H1 5598   4.194   6.352   5.413 -2.1527  1.1181  0.4639
 1878TIP3    H2 5599   4.164   6.206   5.439  0.6118  0.2595 -0.7089
 1879TIP3   OH2 5600   0.035   0.442   5.161 -0.4626 -0.1668  0.2728
 1879TIP3    H1 5601   0.050   0.394   5.080 -2.6974  0.4121 -0.5809
 1879TIP3    H2 5602  -0.051   0.411   5.192 -0.5827  1.0874  1.2969
 1880TIP3   OH2 5603   2.878   3.734   5.104 -0.5604 -0.3941 -0.1126
 1880TIP3    H1 5604   2.826   3.719   5.025 -0.3877  0.0170 -0.3046
 1880TIP3    H2 5605   2.892   3.829   5.107 -0.2000 -0.4516  0.1800
 1881TIP3   OH2 5606   7.077   3.991   0.354  0.0864 -0.2580  0.1760
 1881TIP3    H1 5607   6.987   3.976   0.384 -0.4039  2.0635  0.0985
 1881TIP3    H2 5608   7.067   4.015   0.262  0.5100  1.9384  0.6462
 1882TIP3   OH2 5609   2.775   6.320   4.566 -0.0157  0.5059  0.0933
 1882TIP3    H1 5610   2.764   6.409   4.598  2.0697  1.1034 -0.6746
 1882TIP3    H2 5611   2.802   6.270   4.644  0.6005  0.9620  0.1828
 1883TIP3   OH2 5612   4.413   0.092   0.839 -0.3209 -0.5652  0.5987
 1883TIP3    H1 5613   4.435   0.002   0.863 -1.6096 -0.8520  0.8076
 1883TIP3    H2 5614   4.341   0.083   0.776 -0.3806  0.3197  0.5203
 1884TIP3   OH2 5615   3.262   2.743   4.114  0.0030 -0.0124 -0.0611
 1884TIP3    H1 5616   3.258   2.797   4.035 -0.6656 -1.0221 -0.7495
 1884TIP3    H2 5617   3.270   2.653   4.081 -2.6621 -0.6995  0.9151
 1885TIP3   OH2 5618   6.986   4.299   3.308  0.1646 -0.2232  0.5449
 1885TIP3    H1 5619   6.979   4.203   3.308  1.0184 -0.2945  0.4108
 1885TIP3    H2 5620   7.080   4.316   3.304  0.0746  0.6221  1.5888
 1886TIP3   OH2 5621   5.238   1.760   1.995  0.0760 -0.1742  0.0067
 1886TIP3    H1 5622   5.215   1.822   1.925 -0.1672 -0.6618 -0.3533
 1886TIP3    H2 5623   5.274   1.815   2.065 -0.3593  0.3983 -0.2106
 1887TIP3   OH2 5624   0.632   2.131   3.051  0.4458  0.0553 -0.8861
 1887TIP3    H1 5625   0.712   2.178   3.028  0.5463  0.2335 -0.1924
 1887TIP3    H2 5626   0.585   2.121   2.968  0.7328  0.7996 -1.1423
 1888TIP3   OH2 5627   1.092   4.397   3.665  0.0621 -0.3935 -0.2179
 1888TIP3    H1 5628   1.113   4.480   3.622  0.5691 -0.6293 -0.4383
 1888TIP3    H2 5629   1.021   4.360   3.612 -0.3239  0.0029  0.0168
 1889TIP3   OH2 5630   2.079   5.867   2.094 -0.7026  0.0211  0.5287
 1889TIP3    H1 5631   2.076   5.818   2.177 -1.0078 -0.8695 -0.0040
 1889TIP3    H2 5632   2.060   5.802   2.027 -0.4408  0.7399 -0.2527
 1890TIP3   OH2 5633   5.443   4.482   4.448  0.1341  0.1888  0.1230
 1890TIP3    H1 5634   5.363   4.502   4.401  0.1187  1.3346  0.6013
 1890TIP3    H2 5635   5.414   4.455   4.535  0.1759 -1.6635 -0.3954
 1891TIP3   OH2 5636   5.316   0.471   2.157  0.0996 -0.1657  0.2952
 1891TIP3    H1 5637   5.409   0.484   2.139  0.7525 -2.5625  1.5464
 1891TIP3    H2 5638   5.275   0.467   2.070  1.4720 -0.8684 -0.3545
 1892TIP3   OH2 5639   4.330   6.342   0.318  0.3612  0.6638  0.0025
 1892TIP3    H1 5640   4.384   6.275   0.275  0.0349 -1.4355  2.6053
 1892TIP3    H2 5641   4.243   6.330   0.281  0.2046 -0.6981  0.7852
 1893TIP3   OH2 5642   0.315   2.929   3.037 -0.1631 -0.9951  0.4894
 1893TIP3    H1 5643   0.395   2.880   3.016 -0.1165 -0.0693 -1.8162
 1893TIP3    H2 5644   0.334   2.973   3.119  2.3444  0.4113 -0.7110
 1894TIP3   OH2 5645   6.008   6.450   1.389 -0.5023 -0.7815  0.0569
 1894TIP3    H1 5646   5.951   6.523   1.411 -1.5562 -1.4548 -0.3676
 1894TIP3    H2 5647   6.095   6.489   1.382 -0.8618  0.2316  0.9057
 1895TIP3   OH2 5648   5.944   5.696   0.247 -0.4158 -0.2329 -0.1422
 1895TIP3    H1 5649   5.988   5.661   0.325  0.4529 -0.3874 -0.6951
 1895TIP3    H2 5650   5.891   5.769   0.281  0.7658  0.3820  0.4543
 1896TIP3   OH2 5651   0.164   1.250   3.379  0.2341 -0.1315  0.1738
 1896TIP3    H1 5652   0.151   1.331   3.429 -0.2087 -0.3240  0.3747
 1896TIP3    H2 5653   0.259   1.242   3.372  0.3546  2.2116 -2.7858
 1897TIP3   OH2 5654   0.078   1.782   3.009 -0.8769  0.1798  0.5456
 1897TIP3    H1 5655   0.045   1.692   2.999 -0.6208  0.0534  0.8373
 1897TIP3    H2 5656   0.070   1.800   3.103 -0.0170  0.1097  0.6399
 1898TIP3   OH2 5657   2.930   1.053   0.597 -0.2830 -0.0039  0.4812
 1898TIP3    H1 5658   2.974   1.023   0.677 -1.4868 -0.5558  0.9583
 1898TIP3    H2 5659   2.927   0.976   0.541 -1.2331 -0.1607  0.7302
 1899TIP3   OH2 5660   3.203   5.242   0.925 -0.2739  0.1907  0.6782
 1899TIP3    H1 5661   3.202   5.258   1.020 -1.3038  1.2234  0.5206
 1899TIP3    H2 5662   3.249   5.159   0.915 -1.1093 -0.4952  2.1792
 1900TIP3   OH2 5663   7.197   5.413   0.248  0.1151  0.0106  0.2548
 1900TIP3    H1 5664   7.140   5.406   0.324  0.4700 -1.7914  0.3990
 1900TIP3    H2 5665   7.150   5.366   0.178  1.5505 -1.9666  0.5121
 1901TIP3   OH2 5666   1.559   5.999   3.549  0.0336  0.5577 -0.4924
 1901TIP3    H1 5667   1.550   6.080   3.598  0.0304  0.3267 -0.1090
 1901TIP3    H2 5668   1.651   5.998   3.521  0.4191  0.0120  0.7192
 1902TIP3   OH2 5669   0.147   4.384   3.006  0.2848  0.0113 -0.5142
 1902TIP3    H1 5670   0.235   4.346   3.001  1.1078  1.8974 -1.8791
 1902TIP3    H2 5671   0.103   4.351   2.927  0.4674  0.6051 -0.8723
 1903TIP3   OH2 5672   2.020   1.618   1.074  0.2633 -0.1260 -0.4123
 1903TIP3    H1 5673   2.086   1.552   1.055  0.1311 -0.2949 -0.2931
 1903TIP3    H2 5674   2.054   1.665   1.149 -0.0097 -0.5828  0.0077
 1904TIP3   OH2 5675   4.874   4.739   1.251  0.7275  0.4572 -0.5635
 1904TIP3    H1 5676   4.881   4.831   1.275  0.7749  0.1985  0.4621
 1904TIP3    H2 5677   4.894   4.692   1.331 -1.4992 -0.4376 -0.4663
 1905TIP3   OH2 5678   1.990   4.561   2.066 -0.0856  0.1181  0.5280
 1905TIP3    H1 5679   2.081   4.534   2.074 -0.6775 -1.5015  2.6341
 1905TIP3    H2 5680   1.994   4.654   2.045  2.0163 -0.3285 -1.4460
 1906TIP3   OH2 5681   4.003   0.706   2.722  0.4143  0.5380 -0.0330
 1906TIP3    H1 5682   4.013   0.769   2.652  0.2685  0.2133 -0.3469
 1906TIP3    H2 5683   4.091   0.670   2.734  0.3588  0.2995 -0.3292
 1907TIP3   OH2 5684   5.963   2.406   4.708  0.0555  0.9407  0.2088
 1907TIP3    H1 5685   5.886   2.427   4.762 -0.1422 -0.1209  0.3745
 1907TIP3    H2 5686   5.975   2.483   4.652  0.0814  1.9353  1.5526
 1908TIP3   OH2 5687   5.779   4.932   5.156 -0.7875  0.5584  0.1250
 1908TIP3    H1 5688   5.860   4.978   5.180 -1.5255  1.4426  1.0386
 1908TIP3    H2 5689   5.788   4.846   5.195  0.4570  0.0049 -1.2790
 1909TIP3   OH2 5690   6.579   3.977   5.903 -0.1410 -0.3806 -0.1594
 1909TIP3    H1 5691   6.513   4.010   5.842 -0.0520  2.0430  0.9570
 1909TIP3    H2 5692   6.659   3.971   5.851 -0.7518 -1.4752 -1.0308
 1910TIP3   OH2 5693   7.138   3.572   3.282 -0.2233  0.3715  0.3665
 1910TIP3    H1 5694   7.127   3.579   3.377 -1.8645  0.0989  0.2228
 1910TIP3    H2 5695   7.110   3.483   3.261  0.6087  0.2622 -0.3233
 1911TIP3   OH2 5696   6.528   5.992   3.735  0.1094 -0.0281 -0.4445
 1911TIP3    H1 5697   6.586   6.000   3.660 -2.0590 -0.4652 -2.2683
 1911TIP3    H2 5698   6.548   5.907   3.772  1.1072  0.1305 -0.6055
 1912TIP3   OH2 5699   7.075   0.075   2.827  0.0845  0.1156 -0.4977
 1912TIP3    H1 5700   7.063   0.079   2.732 -1.5090  0.5406 -0.3110
 1912TIP3    H2 5701   7.110   0.160   2.851 -0.5357  0.4011 -0.5889
 1913TIP3   OH2 5702   2.501   0.125   1.927 -0.9060  0.2669  0.2344
 1913TIP3    H1 5703   2.520   0.035   1.955  0.4713  0.3813 -0.2547
 1913TIP3    H2 5704   2.406   0.129   1.922 -0.9803 -1.7742 -1.6170
 1914TIP3   OH2 5705   3.763   1.281   3.990 -0.0479  0.1505 -0.3552
 1914TIP3    H1 5706   3.685   1.334   3.970 -0.8864 -1.1290 -0.5838
 1914TIP3    H2 5707   3.781   1.299   4.082 -1.8415 -1.0279  0.2859
 1915TIP3   OH2 5708   3.977   4.921   5.265  0.1758 -0.5035 -0.0565
 1915TIP3    H1 5709   4.070   4.896   5.262  0.7372  1.3547  0.2216
 1915TIP3    H2 5710   3.952   4.913   5.357  0.3877  0.0029  0.0511
 1916TIP3   OH2 5711   4.321   1.925   4.916 -0.3244  0.5545 -0.3669
 1916TIP3    H1 5712   4.294   1.940   5.007 -0.4866 -0.9849 -0.1459
 1916TIP3    H2 5713   4.238   1.918   4.868 -0.3114 -1.1314 -0.1937
 1917TIP3   OH2 5714   2.554   6.034   2.649 -0.5996  0.0813  0.9017
 1917TIP3    H1 5715   2.582   6.044   2.558  0.1495 -3.2190  0.6448
 1917TIP3    H2 5716   2.458   6.025   2.644 -0.6435  0.7329  0.5503
 1918TIP3   OH2 5717   2.094   1.074   4.488 -0.0001  0.0837  0.0553
 1918TIP3    H1 5718   2.127   0.989   4.461  1.7164  0.7500 -0.0506
 1918TIP3    H2 5719   2.029   1.097   4.421 -1.2960 -1.5878  0.6771
 1919TIP3   OH2 5720   1.751   2.192   4.261  0.4009  0.0410 -0.4571
 1919TIP3    H1 5721   1.722   2.107   4.293  1.2153  0.1027  0.5152
 1919TIP3    H2 5722   1.835   2.174   4.217  0.8608  0.4128  0.2550
 1920TIP3   OH2 5723   2.329   1.251   5.616  0.8098 -0.0892 -0.1101
 1920TIP3    H1 5724   2.270   1.322   5.591  0.0694 -0.2781  1.0355
 1920TIP3    H2 5725   2.392   1.292   5.675  1.1093 -0.1419 -0.3903
 1921TIP3   OH2 5726   5.449   2.210   0.287  0.7112 -0.6310  0.1329
 1921TIP3    H1 5727   5.495   2.292   0.266 -0.9667  0.0216 -1.2195
 1921TIP3    H2 5728   5.414   2.180   0.203 -1.4914 -0.9647  1.0998
 1922TIP3   OH2 5729   3.062   0.520   4.832 -0.0967  0.0169 -0.0094
 1922TIP3    H1 5730   3.045   0.539   4.740  0.4056  0.2843 -0.0514
 1922TIP3    H2 5731   3.029   0.597   4.879 -0.2254 -0.0578  0.0230
 1923TIP3   OH2 5732   5.990   2.802   0.105  0.0601 -0.4088 -0.3104
 1923TIP3    H1 5733   6.024   2.863   0.040  1.1526 -1.6334 -0.9405
 1923TIP3    H2 5734   5.905   2.837   0.129  0.1521  0.7123 -1.5290
 1924TIP3   OH2 5735   5.435   1.187   3.334 -0.5249  0.2594  0.5014
 1924TIP3    H1 5736   5.365   1.171   3.271  2.0481 -1.1952 -2.2205
 1924TIP3    H2 5737   5.495   1.245   3.288  0.7820  0.3202  2.2054
 1925TIP3   OH2 5738   4.144   4.228   4.956  0.4068  0.0763 -0.3662
 1925TIP3    H1 5739   4.144   4.316   4.992  1.7370 -0.1616  0.2439
 1925TIP3    H2 5740   4.156   4.241   4.862  0.2586  0.5484 -0.3237
 1926TIP3   OH2 5741   4.663   0.096   3.445 -0.2287 -0.3077  0.0906
 1926TIP3    H1 5742   4.646   0.132   3.532 -1.0041 -3.1820  1.2569
 1926TIP3    H2 5743   4.708   0.013   3.462  0.1030 -0.6990 -2.3093
 1927TIP3   OH2 5744   6.740   5.957   2.033 -0.0553 -0.0657 -1.0539
 1927TIP3    H1 5745   6.741   5.910   1.950 -0.6628 -1.2579 -0.4120
 1927TIP3    H2 5746   6.785   6.039   2.015  0.9149 -0.8350 -2.2440
 1928TIP3   OH2 5747   0.907   2.149   4.138 -0.5416 -0.2789 -0.1201
 1928TIP3    H1 5748   0.919   2.064   4.180 -0.0199  0.3077  0.9621
 1928TIP3    H2 5749   0.864   2.129   4.054 -2.1500 -1.4393  0.9223
 1929TIP3   OH2 5750   5.872   4.373   3.577  0.6839 -0.5009  0.3384
 1929TIP3    H1 5751   5.872   4.383   3.482  0.7299  1.1799  0.4792
 1929TIP3    H2 5752   5.965   4.371   3.601  0.7341  1.2993  0.4884
 1930TIP3   OH2 5753   3.969   6.669   2.535  0.0372  0.0545  0.2503
 1930TIP3    H1 5754   4.061   6.687   2.553  0.2932 -0.4254 -0.5563
 1930TIP3    H2 5755   3.967   6.636   2.445 -0.8924 -0.1738  0.3396
 1931TIP3   OH2 5756   2.263   4.570   0.149 -0.1659  0.2980 -0.1482
 1931TIP3    H1 5757   2.335   4.631   0.163  0.8671 -0.7523 -0.6708
 1931TIP3    H2 5758   2.191   4.624   0.116  0.9506  1.1513 -1.3105
 1932TIP3   OH2 5759   0.422   2.607   1.827 -0.5748  0.3218  0.1571
 1932TIP3    H1 5760   0.372   2.532   1.858 -0.2081 -0.0472 -0.1334
 1932TIP3    H2 5761   0.363   2.652   1.766 -1.5259  1.3904  1.7908
 1933TIP3   OH2 5762   0.777   2.853   1.079  0.0819  0.1252 -0.2223
 1933TIP3    H1 5763   0.731   2.769   1.082  1.2375 -0.7649 -3.2820
 1933TIP3    H2 5764   0.845   2.845   1.146  0.2175 -1.4199 -0.5056
 1934TIP3   OH2 5765   6.630   5.965   4.065 -0.2241 -0.2031  0.5177
 1934TIP3    H1 5766   6.687   5.960   4.142 -1.4291  1.6855  1.6373
 1934TIP3    H2 5767   6.574   5.888   4.072 -0.0306 -0.2844  1.3020
 1935TIP3   OH2 5768   0.593   5.355   4.796  0.7415  0.2823  0.0114
 1935TIP3    H1 5769   0.612   5.277   4.848 -0.2831  0.4004  0.5963
 1935TIP3    H2 5770   0.504   5.380   4.822  0.6355  1.0031 -0.9777
 1936TIP3   OH2 5771   5.555   6.555   1.501 -0.3270  0.1911  0.1273
 1936TIP3    H1 5772   5.475   6.534   1.549  0.3526 -0.6729  0.9119
 1936TIP3    H2 5773   5.600   6.471   1.492  0.7431  0.7528  0.1497
 1937TIP3   OH2 5774   7.040   5.959   2.872  0.0111  0.2818 -0.3206
 1937TIP3    H1 5775   6.997   5.917   2.798  1.5527  0.3682 -1.2978
 1937TIP3    H2 5776   7.131   5.931   2.867  0.0511 -0.2499  1.9464
 1938TIP3   OH2 5777   6.137   1.984   0.907  0.4348 -0.2683 -0.5342
 1938TIP3    H1 5778   6.203   2.009   0.971  0.3879 -2.9732  0.6890
 1938TIP3    H2 5779   6.072   2.054   0.911  1.0149  0.2093  1.5092
 1939TIP3   OH2 5780   6.259   0.706   5.832 -0.3120 -0.1209  0.0095
 1939TIP3    H1 5781   6.197   0.634   5.843 -0.5583 -0.0407 -0.7728
 1939TIP3    H2 5782   6.345   0.664   5.832 -0.4532 -0.4118 -0.4115
 1940TIP3   OH2 5783   1.767   2.879   1.773  0.0887 -0.1772 -0.1835
 1940TIP3    H1 5784   1.861   2.862   1.775  0.2104  0.5192  0.2033
 1940TIP3    H2 5785   1.735   2.841   1.855  0.3625  1.3704  0.6867
 1941TIP3   OH2 5786   1.208   0.484   1.884  0.0550 -0.5880 -0.2790
 1941TIP3    H1 5787   1.200   0.437   1.966 -0.7995  0.9252  0.5424
 1941TIP3    H2 5788   1.300   0.513   1.882 -0.8149  3.1715  2.4344
 1942TIP3   OH2 5789   2.158   1.814   1.525 -0.0373 -0.2358 -0.7349
 1942TIP3    H1 5790   2.083   1.871   1.542  1.2894  1.5665 -0.5785
 1942TIP3    H2 5791   2.204   1.810   1.608  0.7132 -0.2724 -1.1436
 1943TIP3   OH2 5792   6.348   2.084   0.143 -0.1407  0.2061  0.3674
 1943TIP3    H1 5793   6.361   2.173   0.111 -0.4408 -0.1851 -0.8887
 1943TIP3    H2 5794   6.257   2.064   0.123  0.3550 -0.9643 -0.9555
 1944TIP3   OH2 5795   2.129   3.617   0.759  0.4111  0.1817 -0.0699
 1944TIP3    H1 5796   2.117   3.553   0.689  3.1823  0.8619 -1.3433
 1944TIP3    H2 5797   2.075   3.691   0.733  2.0991  0.8086 -2.1697
 1945TIP3   OH2 5798   2.303   0.859   5.545  0.5354 -0.0084 -0.0931
 1945TIP3    H1 5799   2.286   0.773   5.507  1.0285 -0.0927 -0.1333
 1945TIP3    H2 5800   2.395   0.855   5.573 -0.4766 -1.0027  3.7674
 1946TIP3   OH2 5801   1.592   1.881   3.727  0.4803  0.4701 -0.2429
 1946TIP3    H1 5802   1.596   1.824   3.650 -0.9517  0.3240 -0.2405
 1946TIP3    H2 5803   1.554   1.826   3.795  1.7482  0.5967  0.6034
 1947TIP3   OH2 5804   2.846   5.392   0.108 -0.1082 -0.0559 -0.4615
 1947TIP3    H1 5805   2.817   5.433   0.026 -0.9365  0.3738  0.0358
 1947TIP3    H2 5806   2.856   5.466   0.169  1.0851 -0.3023 -0.3288
 1948TIP3   OH2 5807   0.961   5.213   0.131 -0.0188  0.6153 -0.2699
 1948TIP3    H1 5808   0.947   5.165   0.213  0.2621 -1.4316 -1.3482
 1948TIP3    H2 5809   0.916   5.161   0.064  1.1823  1.2867 -1.6738
 1949TIP3   OH2 5810   0.310   1.489   0.257 -0.1675  0.5010 -0.3291
 1949TIP3    H1 5811   0.246   1.517   0.191 -0.9477  1.3783  0.7682
 1949TIP3    H2 5812   0.287   1.538   0.335  0.9222 -0.3092  0.5321
 1950TIP3   OH2 5813   4.393   4.092   4.956 -0.2512  0.2387  0.1434
 1950TIP3    H1 5814   4.437   4.135   4.882  0.2540  2.0952  1.4235
 1950TIP3    H2 5815   4.301   4.114   4.945 -0.0515  1.3996  0.5516
 1951TIP3   OH2 5816   4.935   5.250   5.184  0.2545  0.2959 -0.0636
 1951TIP3    H1 5817   4.900   5.167   5.216 -0.9873  0.1786 -1.6103
 1951TIP3    H2 5818   5.004   5.225   5.122  0.2895  0.4254 -0.0782
 1952TIP3   OH2 5819   3.371   6.246   4.530 -0.5680  0.1878 -0.1659
 1952TIP3    H1 5820   3.407   6.160   4.551 -0.5275  0.4109  0.7356
 1952TIP3    H2 5821   3.395   6.301   4.605 -1.5691  0.6975 -0.2006
 1953TIP3   OH2 5822   5.358   0.794   5.761 -0.0473  0.0702  0.5235
 1953TIP3    H1 5823   5.416   0.735   5.713  0.3730  1.1133 -0.2946
 1953TIP3    H2 5824   5.355   0.758   5.850  0.6146 -0.8681  0.1793
 1954TIP3   OH2 5825   6.168   0.236   1.888  0.5060  0.0650 -0.0492
 1954TIP3    H1 5826   6.101   0.291   1.929  1.0917  0.1351  0.8370
 1954TIP3    H2 5827   6.126   0.151   1.878  0.0578  0.2933 -0.1486
 1955TIP3   OH2 5828   5.294   2.211   0.587  0.5636  0.3535 -0.5676
 1955TIP3    H1 5829   5.251   2.133   0.620  0.3285  0.0173 -1.6217
 1955TIP3    H2 5830   5.329   2.255   0.665  1.0759 -1.0133 -0.0027
 1956TIP3   OH2 5831   3.853   4.223   0.595 -0.0219  0.0785  0.1385
 1956TIP3    H1 5832   3.822   4.306   0.559 -1.3249 -0.8482 -0.9950
 1956TIP3    H2 5833   3.916   4.248   0.663  0.3280  1.9539 -0.8134
 1957TIP3   OH2 5834   4.027   6.450   1.920  0.2328  0.1161 -0.2416
 1957TIP3    H1 5835   4.027   6.391   1.844 -0.6524 -0.7289  0.3825
 1957TIP3    H2 5836   4.119   6.450   1.950  0.2805 -0.8765 -0.3286
 1958TIP3   OH2 5837   1.755   0.466   1.153  0.2148 -0.4805 -0.2037
 1958TIP3    H1 5838   1.688   0.442   1.088  0.1984 -2.1634  0.3871
 1958TIP3    H2 5839   1.730   0.555   1.181 -1.7237 -1.0029 -0.0870
 1959TIP3   OH2 5840   5.769   4.102   2.961  0.6373  0.0051  0.0945
 1959TIP3    H1 5841   5.761   4.027   3.019  0.0452  0.9074  1.2174
 1959TIP3    H2 5842   5.834   4.159   3.003  0.2583  0.6329 -0.1436
 1960TIP3   OH2 5843   5.932   5.916   0.047 -0.4482 -0.1765  0.2609
 1960TIP3    H1 5844   5.883   5.896  -0.032 -0.8627  0.0440  0.4583
 1960TIP3    H2 5845   5.949   5.831   0.087  0.5174 -0.3538 -0.5039
 1961TIP3   OH2 5846   5.631   2.765   3.324  0.3735 -0.5412  0.4010
 1961TIP3    H1 5847   5.551   2.717   3.348 -1.3435  2.4199  1.1279
 1961TIP3    H2 5848   5.640   2.752   3.230 -1.9908  0.3424 -0.0123
 1962TIP3   OH2 5849   6.356   5.171   3.967  0.5357  0.4567  0.0552
 1962TIP3    H1 5850   6.447   5.198   3.956  0.7198 -0.3295 -0.4252
 1962TIP3    H2 5851   6.359   5.104   4.036  0.0331  1.8657  1.5197
 1963TIP3   OH2 5852   4.240   0.006   1.236 -0.1419  0.4987 -0.4535
 1963TIP3    H1 5853   4.223   0.040   1.324 -0.3425  0.4149 -0.4606
 1963TIP3    H2 5854   4.197   0.067   1.177 -0.1298  0.4748 -0.4871
 1964TIP3   OH2 5855   3.761   4.767   4.178 -0.0691 -0.1997 -0.7856
 1964TIP3    H1 5856   3.670   4.771   4.208  0.3508 -0.1499  0.5509
 1964TIP3    H2 5857   3.788   4.858   4.171  0.6257 -0.1993  1.3016
 1965TIP3   OH2 5858   5.615   3.315   1.856  0.4200 -1.0110 -0.2108
 1965TIP3    H1 5859   5.546   3.305   1.922 -0.8392  1.1952 -1.1015
 1965TIP3    H2 5860   5.585   3.264   1.781  0.8767 -1.8605  0.1644
 1966TIP3   OH2 5861   1.172   2.511   3.704  0.7264  0.0212 -0.1125
 1966TIP3    H1 5862   1.109   2.456   3.751  0.9212 -1.4566 -1.4945
 1966TIP3    H2 5863   1.143   2.600   3.720 -0.8078 -0.5665  0.5482
 1967TIP3   OH2 5864   3.743   5.529   0.044  0.4289 -0.0262 -0.1512
 1967TIP3    H1 5865   3.782   5.541  -0.043 -0.8618 -2.3252 -1.1515
 1967TIP3    H2 5866   3.649   5.527   0.027  0.0342  1.3457  1.6133
 1968TIP3   OH2 5867   1.496   2.723   1.227  0.2860  0.0574 -0.5034
 1968TIP3    H1 5868   1.583   2.752   1.201  0.7022  1.2838  1.9728
 1968TIP3    H2 5869   1.448   2.712   1.144  1.1615  4.5862 -1.8737
 1969TIP3   OH2 5870   1.794   2.257   0.257  0.1759 -0.8153  0.4192
 1969TIP3    H1 5871   1.885   2.286   0.269  0.1921 -0.5117 -0.3691
 1969TIP3    H2 5872   1.741   2.330   0.290  0.2120 -0.9828  0.8576
 1970TIP3   OH2 5873   5.306   2.338   5.343  0.1627  0.2879 -0.2041
 1970TIP3    H1 5874   5.331   2.281   5.271 -0.8084  0.4248 -0.6587
 1970TIP3    H2 5875   5.344   2.423   5.321 -0.2537  0.3656 -0.6289
 1971TIP3   OH2 5876   6.614   5.055   1.735 -0.4618  0.2867 -0.1983
 1971TIP3    H1 5877   6.668   5.132   1.720 -1.4666  0.6226 -2.3892
 1971TIP3    H2 5878   6.621   5.039   1.830  0.9276  2.1580  0.0686
 1972TIP3   OH2 5879   4.965   2.456   1.823  0.4579 -0.4934  0.1820
 1972TIP3    H1 5880   4.912   2.432   1.747  0.3229 -0.1049  0.1500
 1972TIP3    H2 5881   5.055   2.439   1.795  0.3180 -1.8900  0.5027
 1973TIP3   OH2 5882   0.557   1.241   4.705 -0.2728  0.1442 -0.5119
 1973TIP3    H1 5883   0.541   1.163   4.652  3.4009  0.4202 -2.3318
 1973TIP3    H2 5884   0.490   1.303   4.677 -2.7590 -1.9804  0.3848
 1974TIP3   OH2 5885   6.499   1.783   2.606  0.2429 -0.3306  0.2973
 1974TIP3    H1 5886   6.552   1.817   2.679  0.3475  2.0101 -0.7838
 1974TIP3    H2 5887   6.428   1.735   2.649  0.4811  0.6963  1.9578
 1975TIP3   OH2 5888   1.067   0.622   4.494  0.1912  0.1679  0.1877
 1975TIP3    H1 5889   0.994   0.584   4.445  0.8725 -2.3072  0.9322
 1975TIP3    H2 5890   1.025   0.676   4.561 -0.9152 -0.1030 -0.2564
 1976TIP3   OH2 5891   1.219   6.233   3.411 -0.0995 -0.1612  0.4987
 1976TIP3    H1 5892   1.218   6.232   3.507  1.7444 -0.0993  0.5456
 1976TIP3    H2 5893   1.303   6.271   3.388 -0.5955  0.0025 -1.1625
 1977TIP3   OH2 5894   6.213   2.686   4.945  0.7261  0.6402 -0.2654
 1977TIP3    H1 5895   6.183   2.685   5.036  2.4734 -2.5312  0.4238
 1977TIP3    H2 5896   6.309   2.682   4.952  0.9089  0.8689 -2.2556
 1978TIP3   OH2 5897   3.692   0.232   4.072 -0.5499 -0.4599 -0.4161
 1978TIP3    H1 5898   3.645   0.311   4.100 -1.7575 -0.0654 -3.2063
 1978TIP3    H2 5899   3.773   0.232   4.123  0.0960  3.2885 -1.1871
 1979TIP3   OH2 5900   0.446   2.854   3.745  0.1996 -0.2657 -0.2497
 1979TIP3    H1 5901   0.441   2.785   3.811 -0.8920 -1.2143 -1.2811
 1979TIP3    H2 5902   0.540   2.868   3.731  0.4317 -1.3970  0.1099
 1980TIP3   OH2 5903   3.705   5.964   5.197  0.0253  0.8493 -0.6263
 1980TIP3    H1 5904   3.736   6.005   5.116  1.0041 -0.7948 -1.1248
 1980TIP3    H2 5905   3.774   5.901   5.219  0.5214  2.2668  2.3029
 1981TIP3   OH2 5906   1.876   0.643   4.114 -0.1442 -0.1114  0.0502
 1981TIP3    H1 5907   1.786   0.625   4.142 -0.4742  1.5454  0.1758
 1981TIP3    H2 5908   1.929   0.625   4.192 -0.5898  0.6088  0.5332
 1982TIP3   OH2 5909   4.294   0.488   5.748 -0.0981  0.5832 -0.5147
 1982TIP3    H1 5910   4.267   0.551   5.814 -0.4063  1.6591 -1.6167
 1982TIP3    H2 5911   4.378   0.521   5.716  0.3352 -0.2463 -0.2689
 1983TIP3   OH2 5912   2.829   6.374   3.783 -0.0677  0.2389 -0.2832
 1983TIP3    H1 5913   2.816   6.439   3.852 -0.4384  1.0354 -1.0772
 1983TIP3    H2 5914   2.844   6.292   3.830 -0.4610  0.7278  0.7398
 1984TIP3   OH2 5915   0.198   5.950   0.258 -0.0907  0.2028  0.4404
 1984TIP3    H1 5916   0.110   5.965   0.224 -0.3742  2.0105  1.7897
 1984TIP3    H2 5917   0.184   5.925   0.350  0.7845  0.8738  0.7715
 1985TIP3   OH2 5918   5.422   5.302   3.379  0.3943 -0.2015  0.1595
 1985TIP3    H1 5919   5.348   5.315   3.320 -1.4914 -0.5718  2.2835
 1985TIP3    H2 5920   5.456   5.215   3.356  0.0740 -0.0989 -0.7440
 1986TIP3   OH2 5921   4.885   5.224   3.899  0.5256  0.2046 -0.0609
 1986TIP3    H1 5922   4.977   5.224   3.925  0.7613 -1.0344 -0.8302
 1986TIP3    H2 5923   4.869   5.313   3.867  1.6363  0.2680 -0.4786
 1987TIP3   OH2 5924   6.641   5.239   3.798 -0.2237  0.3753  0.3917
 1987TIP3    H1 5925   6.644   5.147   3.771  2.9592  0.7274 -0.8779
 1987TIP3    H2 5926   6.567   5.276   3.750 -0.2804 -1.0729 -0.7105
 1988TIP3   OH2 5927   3.841   6.277   1.729  1.0728  0.5325  0.1006
 1988TIP3    H1 5928   3.918   6.232   1.765  1.3764  0.9689  0.0134
 1988TIP3    H2 5929   3.805   6.216   1.665  0.1167 -0.5532  1.6257
 1989TIP3   OH2 5930   2.365   4.697   4.126  0.0541 -0.4895  0.1314
 1989TIP3    H1 5931   2.417   4.616   4.123 -0.0981 -0.5689 -0.7723
 1989TIP3    H2 5932   2.396   4.748   4.051  0.8513  0.7538  1.2519
 1990TIP3   OH2 5933   4.329   3.483   3.446  0.5227 -0.4505  0.2417
 1990TIP3    H1 5934   4.361   3.504   3.533  0.3435 -0.9711  0.4378
 1990TIP3    H2 5935   4.274   3.406   3.459 -2.0447  1.2454  0.1809
 1991TIP3   OH2 5936   6.883   4.216   5.089  0.0445  0.3185 -0.5827
 1991TIP3    H1 5937   6.792   4.228   5.064  0.2840  2.1811 -0.6532
 1991TIP3    H2 5938   6.882   4.218   5.185  0.0747  1.0170 -0.5907
 1992TIP3   OH2 5939   1.797   1.502   5.578 -0.0983  0.2993 -0.4399
 1992TIP3    H1 5940   1.854   1.490   5.502 -2.2644 -1.5459 -1.9140
 1992TIP3    H2 5941   1.802   1.419   5.625 -0.6311  0.5578  0.0867
 1993TIP3   OH2 5942   6.147   0.443   4.426 -0.0936  0.2491  0.4718
 1993TIP3    H1 5943   6.228   0.469   4.469 -0.6173  0.1707  1.5446
 1993TIP3    H2 5944   6.096   0.524   4.419 -0.5288  0.0405  1.1619
 1994TIP3   OH2 5945   0.789   5.770   5.048 -0.4116 -0.2770  0.0324
 1994TIP3    H1 5946   0.758   5.745   5.135 -1.2656  0.4400 -0.0581
 1994TIP3    H2 5947   0.717   5.819   5.010  0.4327  0.5162 -0.5910
 1995TIP3   OH2 5948   2.596   6.388   0.917  0.5562  0.1653 -0.2328
 1995TIP3    H1 5949   2.583   6.454   0.985 -0.2832 -1.3235  1.1197
 1995TIP3    H2 5950   2.607   6.306   0.965  4.4153 -0.3645 -1.7232
 1996TIP3   OH2 5951   6.370   5.002   0.391  0.7356  0.3575  0.2833
 1996TIP3    H1 5952   6.446   5.043   0.350  0.2411  0.1965 -0.8313
 1996TIP3    H2 5953   6.403   4.920   0.428  1.0707  0.1962 -0.3621
 1997TIP3   OH2 5954   7.038   4.987   5.293 -0.3797 -0.1318 -0.3219
 1997TIP3    H1 5955   7.021   5.029   5.209  0.5177 -0.1297 -0.5135
 1997TIP3    H2 5956   6.956   4.944   5.315 -0.2376 -1.2889 -1.8711
 1998TIP3   OH2 5957   3.745   5.770   4.389  0.7396 -0.7397  0.3800
 1998TIP3    H1 5958   3.793   5.841   4.347  2.0746 -1.5157  0.5539
 1998TIP3    H2 5959   3.657   5.776   4.351  0.8707  0.8567  0.2368
 1999TIP3   OH2 5960   4.942   4.635   0.614  0.0171  0.0588 -0.6468
 1999TIP3    H1 5961   4.970   4.576   0.683 -0.7084 -0.1247 -0.5033
 1999TIP3    H2 5962   4.984   4.600   0.535  0.2326 -0.1771 -0.4324
 2000TIP3   OH2 5963   4.328   5.599   2.265 -0.5319 -0.3628  0.2539
 2000TIP3    H1 5964   4.362   5.623   2.179  1.5468  0.2157  1.1538
 2000TIP3    H2 5965   4.239   5.632   2.266 -0.0707  1.0497 -1.1059
 2001TIP3   OH2 5966   3.222   5.411   1.764 -0.0178  0.6736 -0.0377
 2001TIP3    H1 5967   3.184   5.399   1.850 -0.1415  0.8696 -0.0646
 2001TIP3    H2 5968   3.312   5.377   1.772  0.0094  0.7993  0.1973
 2002TIP3   OH2 5969   2.449   1.789   4.863  0.1290  0.2146  0.0245
 2002TIP3    H1 5970   2.542   1.772   4.875  0.1943  0.6357  0.1415
 2002TIP3    H2 5971   2.435   1.875   4.903 -0.2250  0.3399 -0.3603
 2003TIP3   OH2 5972   0.859   3.607   4.932 -0.1656 -0.0425  0.1376
 2003TIP3    H1 5973   0.915   3.684   4.930  0.9714 -0.7693  1.7909
 2003TIP3    H2 5974   0.812   3.609   4.849  1.6695  1.0686 -0.9274
 2004TIP3   OH2 5975   0.908   0.915   4.050 -0.3228  0.3665 -0.4760
 2004TIP3    H1 5976   0.859   0.992   4.080  0.0364 -0.2186  1.7436
 2004TIP3    H2 5977   0.982   0.952   4.002 -1.0203  1.3475 -0.8362
 2005TIP3   OH2 5978   0.677   4.572   5.790  0.0120  0.7349  0.2082
 2005TIP3    H1 5979   0.710   4.503   5.848 -1.2326  0.7541  0.9833
 2005TIP3    H2 5980   0.664   4.529   5.706 -1.1841 -0.1367  0.7982
 2006TIP3   OH2 5981   6.642   0.226   1.738  0.1768 -0.1324  0.1464
 2006TIP3    H1 5982   6.609   0.142   1.707  0.2420 -0.1646  0.1651
 2006TIP3    H2 5983   6.567   0.285   1.730 -0.1468 -0.4157  1.0620
 2007TIP3   OH2 5984   4.110   1.614   2.844 -0.2390 -0.1622 -0.4413
 2007TIP3    H1 5985   4.167   1.687   2.819 -2.2062  1.3902 -0.6368
 2007TIP3    H2 5986   4.103   1.561   2.765 -1.2611  1.1870 -1.3020
 2008TIP3   OH2 5987   6.191   0.234   2.563 -0.4955  0.1152  0.1273
 2008TIP3    H1 5988   6.227   0.147   2.580  0.8184  0.0501 -2.4197
 2008TIP3    H2 5989   6.257   0.294   2.597  0.2644  0.0245 -1.1050
 2009TIP3   OH2 5990   2.310   3.369   5.424  0.1140  0.3622  0.5677
 2009TIP3    H1 5991   2.389   3.382   5.372  0.2609  0.9875  0.9379
 2009TIP3    H2 5992   2.338   3.381   5.514 -0.4673  0.9204  0.6815
 2010TIP3   OH2 5993   1.049   1.213   3.607  0.2977  0.0578 -0.4148
 2010TIP3    H1 5994   0.961   1.210   3.645 -0.3584 -0.2913 -1.8575
 2010TIP3    H2 5995   1.105   1.246   3.677 -0.9603  0.1655  0.5787
 2011TIP3   OH2 5996   0.300   4.610   4.775  0.1804  0.4406 -0.5074
 2011TIP3    H1 5997   0.247   4.637   4.851  0.0296  1.7067 -1.0518
 2011TIP3    H2 5998   0.361   4.546   4.811 -2.0031 -1.4869  0.0734
 2012TIP3   OH2 5999   0.541   3.902   1.746  0.0390  0.2936  0.3827
 2012TIP3    H1 6000   0.527   3.814   1.710  3.3643  0.6224 -2.2013
 2012TIP3    H2 6001   0.600   3.888   1.820 -0.6860  0.2600  0.9646
 2013TIP3   OH2 6002   7.008   5.892   5.842 -0.1440 -0.3941 -0.2587
 2013TIP3    H1 6003   6.928   5.841   5.853 -0.4359  0.2516  0.8285
 2013TIP3    H2 6004   6.986   5.978   5.876  0.9843 -0.1832 -0.0235
 2014TIP3   OH2 6005   3.480   2.448   1.027 -0.1380 -0.3419  0.1098
 2014TIP3    H1 6006   3.474   2.544   1.024  0.8308 -0.2968 -1.0597
 2014TIP3    H2 6007   3.392   2.420   1.051 -1.6322  0.7060 -3.4042
 2015TIP3   OH2 6008   4.197   5.086   2.982 -0.2231  0.1292 -0.3894
 2015TIP3    H1 6009   4.113   5.112   3.021  0.0062 -0.5803  0.6071
 2015TIP3    H2 6010   4.241   5.169   2.963 -1.7457  0.5798 -2.3376
 2016TIP3   OH2 6011   4.871   3.571   2.288 -0.6312  0.1078 -0.2630
 2016TIP3    H1 6012   4.821   3.629   2.345 -1.8278 -1.3421  0.2126
 2016TIP3    H2 6013   4.845   3.482   2.314  1.4741 -0.6852 -0.6663
 2017TIP3   OH2 6014   1.053   3.127   2.287  0.2409  0.4371 -0.6277
 2017TIP3    H1 6015   1.070   3.039   2.320 -0.6579  0.4130 -0.1954
 2017TIP3    H2 6016   1.055   3.118   2.192 -0.9976 -0.3131 -0.6050
 2018TIP3   OH2 6017   6.767   1.815   1.043  0.3350  0.0058  0.0623
 2018TIP3    H1 6018   6.828   1.861   0.985  0.2546 -0.0868 -0.0931
 2018TIP3    H2 6019   6.824   1.778   1.111  0.7481 -1.9575 -1.2589
 2019TIP3   OH2 6020   0.476   6.080   1.599  0.1989  0.2670  0.2043
 2019TIP3    H1 6021   0.554   6.127   1.629  1.1236 -1.6021  0.8442
 2019TIP3    H2 6022   0.486   5.992   1.634 -1.7276 -0.2931 -0.5538
 2020TIP3   OH2 6023   5.728   0.784   0.475 -0.6137 -0.3163  0.4402
 2020TIP3    H1 6024   5.652   0.737   0.442 -2.2224  0.9158  2.2020
 2020TIP3    H2 6025   5.754   0.735   0.554 -0.3660 -0.0149  0.5500
 2021TIP3   OH2 6026   0.446   1.313   5.630  0.1459 -0.4955  0.4230
 2021TIP3    H1 6027   0.396   1.284   5.706 -1.5121  0.5089 -0.2378
 2021TIP3    H2 6028   0.421   1.253   5.561  0.0699 -0.1628  0.1597
 2022TIP3   OH2 6029   7.111   5.459   0.768  0.6683 -0.3865 -0.1697
 2022TIP3    H1 6030   7.083   5.526   0.831  0.5802 -0.0288 -0.5869
 2022TIP3    H2 6031   7.196   5.430   0.801 -0.2810 -1.6630  1.2437
 2023TIP3   OH2 6032   4.073   5.581   1.737  0.1455  0.1613 -0.2372
 2023TIP3    H1 6033   4.087   5.493   1.702 -0.4983  0.5284 -1.4657
 2023TIP3    H2 6034   4.050   5.567   1.829 -0.0485 -0.9633 -0.4413
 2024TIP3   OH2 6035   4.711   0.201   3.023 -0.9580  0.2570  0.6293
 2024TIP3    H1 6036   4.626   0.158   3.019  0.1479 -2.1972  1.5730
 2024TIP3    H2 6037   4.704   0.262   3.097 -1.0722 -2.0781  2.6845
 2025TIP3   OH2 6038   6.588   3.060   0.957  0.3111 -0.4022 -0.5017
 2025TIP3    H1 6039   6.520   2.994   0.939  0.3891 -0.7369  0.3821
 2025TIP3    H2 6040   6.567   3.132   0.897 -1.5635  0.0141  0.5484
 2026TIP3   OH2 6041   1.206   2.777   1.541 -0.2422  0.0288  0.0943
 2026TIP3    H1 6042   1.126   2.785   1.490  0.2509  3.0548 -0.3678
 2026TIP3    H2 6043   1.180   2.730   1.620 -2.3130  0.4071 -0.3219
 2027TIP3   OH2 6044   4.736   6.524   0.168 -0.2010 -0.4281  0.9785
 2027TIP3    H1 6045   4.689   6.475   0.236 -0.5149  1.5525  2.2993
 2027TIP3    H2 6046   4.735   6.615   0.200  0.0283  0.5135 -1.4907
 2028TIP3   OH2 6047   3.427   2.360   2.458 -0.4732 -0.7401 -0.3040
 2028TIP3    H1 6048   3.345   2.345   2.412 -0.4689 -2.1976  0.1101
 2028TIP3    H2 6049   3.491   2.307   2.412 -0.0885 -0.8050  0.2938
 2029TIP3   OH2 6050   6.540   1.160   0.741 -0.4403  0.4870  0.1158
 2029TIP3    H1 6051   6.496   1.220   0.680  0.7249 -0.5817 -1.8839
 2029TIP3    H2 6052   6.553   1.212   0.821 -0.9057  2.3689 -0.9675
 2030TIP3   OH2 6053   6.217   0.644   5.047 -0.2150 -0.2259 -0.4368
 2030TIP3    H1 6054   6.219   0.635   5.143  0.9731 -0.6379 -0.4858
 2030TIP3    H2 6055   6.151   0.580   5.019 -0.7484  0.0652  0.1162
 2031TIP3   OH2 6056   6.872   2.665   4.141  0.1235 -0.4794 -0.1162
 2031TIP3    H1 6057   6.840   2.754   4.156  2.5100  0.0613  2.6033
 2031TIP3    H2 6058   6.950   2.676   4.086 -0.0927 -0.9962 -0.5346
 2032TIP3   OH2 6059   1.189   1.886   4.233  0.4102  0.0995  0.2017
 2032TIP3    H1 6060   1.122   1.829   4.195 -0.3941  0.1729  1.4572
 2032TIP3    H2 6061   1.195   1.959   4.171  0.4262 -0.6400 -0.6879
 2033TIP3   OH2 6062   1.633   3.922   1.944  0.3287 -0.0624 -0.2316
 2033TIP3    H1 6063   1.604   4.004   1.983 -0.2502  0.2556 -1.2817
 2033TIP3    H2 6064   1.590   3.853   1.994 -0.9391  0.3536 -0.7283
 2034TIP3   OH2 6065   6.958   3.696   4.602 -0.1033 -0.2174 -0.2303
 2034TIP3    H1 6066   6.979   3.773   4.548  0.2291 -0.3477 -0.2860
 2034TIP3    H2 6067   6.865   3.708   4.625  0.1094  0.5163  0.2777
 2035TIP3   OH2 6068   4.471   5.300   1.618  0.5897 -0.1971  0.1634
 2035TIP3    H1 6069   4.512   5.219   1.589 -0.8878 -1.1587  0.6046
 2035TIP3    H2 6070   4.389   5.305   1.568  0.8651  1.2908 -0.1987
 2036TIP3   OH2 6071   4.723   5.109   3.649 -0.0061  0.1081 -0.3281
 2036TIP3    H1 6072   4.755   5.021   3.671  1.3621  0.4572 -0.8555
 2036TIP3    H2 6073   4.706   5.149   3.734  1.0025 -0.0841 -0.0186
 2037TIP3   OH2 6074   1.640   6.360   5.706 -0.0752 -0.4282 -0.0751
 2037TIP3    H1 6075   1.620   6.439   5.655  1.8974  0.8949  1.0635
 2037TIP3    H2 6076   1.604   6.378   5.793  1.2417 -0.2961  0.4748
 2038TIP3   OH2 6077   2.799   1.097   1.956 -0.8139 -0.3134  0.0132
 2038TIP3    H1 6078   2.762   1.084   2.043  0.1275  0.4667  0.5475
 2038TIP3    H2 6079   2.743   1.046   1.898 -0.8459 -1.6992  1.2091
 2039TIP3   OH2 6080   6.683   5.479   5.320 -0.2135  0.4238 -0.0487
 2039TIP3    H1 6081   6.660   5.390   5.344 -0.3333  0.7171  0.9375
 2039TIP3    H2 6082   6.600   5.521   5.296  0.0678 -0.3435 -2.7421
 2040TIP3   OH2 6083   2.105   0.333   1.524  0.0656 -0.3414 -0.1470
 2040TIP3    H1 6084   2.180   0.275   1.518  1.0045  0.9370 -1.4970
 2040TIP3    H2 6085   2.075   0.343   1.434 -0.5877  0.5933  0.1572
 2041TIP3   OH2 6086   5.749   3.673   3.464 -0.3723  0.1107  0.0827
 2041TIP3    H1 6087   5.754   3.593   3.516 -0.3478 -1.1204 -1.7053
 2041TIP3    H2 6088   5.817   3.662   3.397 -0.1390  1.8024  0.0099
 2042TIP3   OH2 6089   3.425   4.570   3.559  0.2404 -0.4171 -0.9491
 2042TIP3    H1 6090   3.389   4.497   3.609  0.9206 -0.5697 -0.6696
 2042TIP3    H2 6091   3.348   4.623   3.535  0.0022  0.7866  2.0033
 2043TIP3   OH2 6092   3.612   4.889   2.134  0.0405 -0.1680 -0.5395
 2043TIP3    H1 6093   3.526   4.849   2.150  0.8609 -2.0710 -0.6495
 2043TIP3    H2 6094   3.675   4.820   2.153  1.6621  1.5738  0.8610
 2044TIP3   OH2 6095   1.830   4.532   4.603  0.4168  0.0990 -0.3191
 2044TIP3    H1 6096   1.850   4.603   4.664 -3.2050  0.4794  0.6244
 2044TIP3    H2 6097   1.791   4.464   4.657 -0.8785 -0.4458 -1.8669
 2045TIP3   OH2 6098   2.799   2.468   0.422 -0.5040 -0.1204 -0.0494
 2045TIP3    H1 6099   2.851   2.417   0.360  0.6539 -1.3049  1.8128
 2045TIP3    H2 6100   2.764   2.403   0.483 -1.0377  1.0669  0.9499
 2046TIP3   OH2 6101   1.611   3.851   5.764 -0.1397  0.5212  0.6777
 2046TIP3    H1 6102   1.611   3.759   5.790 -0.1493  0.3817  0.1847
 2046TIP3    H2 6103   1.703   3.871   5.746 -0.4434 -0.3124 -2.4019
 2047TIP3   OH2 6104   5.254   1.221   1.280 -0.2078 -0.1328 -0.1643
 2047TIP3    H1 6105   5.320   1.167   1.236  0.7475  0.2441  0.7767
 2047TIP3    H2 6106   5.264   1.200   1.373 -1.1374  0.2554  0.0371
 2048TIP3   OH2 6107   5.316   3.855   5.554 -0.2224 -0.1610 -0.8111
 2048TIP3    H1 6108   5.364   3.832   5.634  0.4308  0.7698 -0.9193
 2048TIP3    H2 6109   5.249   3.916   5.584 -1.1964 -1.2485 -0.7033
 2049TIP3   OH2 6110   6.736   0.834   0.165  0.2273 -0.0860  1.0477
 2049TIP3    H1 6111   6.785   0.908   0.202  1.2500  0.3046 -0.9385
 2049TIP3    H2 6112   6.769   0.758   0.214  1.2990  0.4318  1.1752
 2050TIP3   OH2 6113   3.856   6.492   2.822  0.5320 -0.2277  0.0299
 2050TIP3    H1 6114   3.894   6.444   2.896  0.2076  0.4657  0.6543
 2050TIP3    H2 6115   3.916   6.473   2.749 -0.4999 -2.9768 -0.2259
 2051TIP3   OH2 6116   4.243   0.821   2.960 -0.6146 -0.2450 -0.3477
 2051TIP3    H1 6117   4.280   0.873   2.889 -2.1797  0.3588 -0.7509
 2051TIP3    H2 6118   4.241   0.732   2.926  1.1684 -0.4589 -0.0119
 2052TIP3   OH2 6119   3.900   0.629   2.969 -0.3442  0.0676  0.2632
 2052TIP3    H1 6120   3.944   0.571   3.030 -0.1841 -0.0619  0.0263
 2052TIP3    H2 6121   3.958   0.632   2.893  0.2638  1.4991  0.7453
 2053TIP3   OH2 6122   3.682   3.891   2.092  0.1261  0.1009  0.3091
 2053TIP3    H1 6123   3.638   3.887   2.007 -0.8754  1.0027  0.7687
 2053TIP3    H2 6124   3.715   3.802   2.105  1.0775  0.1442 -1.3990
 2054TIP3   OH2 6125   6.834   5.463   1.210  0.2048  0.0326 -0.2522
 2054TIP3    H1 6126   6.869   5.414   1.136 -0.9875 -1.5524  0.1791
 2054TIP3    H2 6127   6.739   5.452   1.203  0.0335  0.5573  1.0389
 2055TIP3   OH2 6128   2.520   2.536   2.737 -0.0231  0.7659 -0.4822
 2055TIP3    H1 6129   2.522   2.475   2.664  0.7026  0.0613  0.1163
 2055TIP3    H2 6130   2.449   2.505   2.793 -1.7051  2.2551 -1.6477
 2056TIP3   OH2 6131   3.296   3.200   1.212  0.3205  0.3126 -0.2487
 2056TIP3    H1 6132   3.279   3.253   1.290 -0.4797  0.0390 -0.2254
 2056TIP3    H2 6133   3.317   3.264   1.144  0.2626  0.6059  0.0053
 2057TIP3   OH2 6134   3.536   6.557   3.304  0.4835 -0.3728  0.4020
 2057TIP3    H1 6135   3.581   6.505   3.237  0.1119  1.0217 -1.0051
 2057TIP3    H2 6136   3.520   6.496   3.376 -0.3754 -2.3476 -1.3567
 2058TIP3   OH2 6137   2.263   4.743   2.608 -0.0405 -0.3294 -0.0668
 2058TIP3    H1 6138   2.189   4.736   2.668 -0.3748  1.5556 -0.2009
 2058TIP3    H2 6139   2.238   4.812   2.547  1.2553 -0.6273 -0.9810
 2059TIP3   OH2 6140   4.407   4.184   0.210 -0.6866 -0.3085  0.4636
 2059TIP3    H1 6141   4.386   4.117   0.145  1.1745  0.3905 -0.9708
 2059TIP3    H2 6142   4.323   4.204   0.252 -1.4155 -2.9669  0.4496
 2060TIP3   OH2 6143   0.828   0.357   5.098  0.0635 -0.3823 -0.1158
 2060TIP3    H1 6144   0.907   0.411   5.107 -0.5923  0.4585  0.9022
 2060TIP3    H2 6145   0.818   0.314   5.182 -0.4921 -0.5823 -0.2770
 2061TIP3   OH2 6146   0.180   2.874   3.729  0.1943 -0.6928 -0.3787
 2061TIP3    H1 6147   0.168   2.813   3.802 -1.3410 -2.1925 -1.7960
 2061TIP3    H2 6148   0.275   2.873   3.712  0.5522 -0.4556  1.4224
 2062TIP3   OH2 6149   1.746   0.867   0.999 -0.1229  0.4402  0.4801
 2062TIP3    H1 6150   1.818   0.805   0.994 -0.3590  0.1720  0.3396
 2062TIP3    H2 6151   1.735   0.899   0.909 -0.2303  0.4180  0.4843
 2063TIP3   OH2 6152   2.593   4.151   3.725  0.0222  0.0770  0.8086
 2063TIP3    H1 6153   2.684   4.123   3.733  0.1947  0.4548  0.2279
 2063TIP3    H2 6154   2.596   4.225   3.665 -0.8184 -0.7406 -0.2830
 2064TIP3   OH2 6155   7.028   6.705   0.242 -0.2179  0.4260  0.1362
 2064TIP3    H1 6156   6.940   6.731   0.214 -0.1832 -1.8832 -2.5572
 2064TIP3    H2 6157   7.014   6.630   0.299 -0.0448 -0.6509 -1.1799
 2065TIP3   OH2 6158   4.570   4.457   2.003 -0.0996  0.3190  0.6173
 2065TIP3    H1 6159   4.559   4.363   1.988  0.4017 -0.0464  2.3686
 2065TIP3    H2 6160   4.628   4.464   2.078  0.1463  2.0528  0.3260
 2066TIP3   OH2 6161   4.599   2.100   5.429  0.1347 -0.2083  0.5341
 2066TIP3    H1 6162   4.546   2.177   5.453  1.4738  0.2072  2.4149
 2066TIP3    H2 6163   4.667   2.135   5.371  0.9397  0.1409  1.6490
 2067TIP3   OH2 6164   2.017   5.856   3.829 -0.2687  0.0036  0.2577
 2067TIP3    H1 6165   1.924   5.847   3.845 -0.7940  1.5265 -1.5917
 2067TIP3    H2 6166   2.038   5.788   3.765 -0.0680 -0.4463  0.7981
 2068TIP3   OH2 6167   2.614   4.094   5.354  0.4572  0.4268 -0.8386
 2068TIP3    H1 6168   2.604   4.185   5.328  0.2894  0.1741 -1.7173
 2068TIP3    H2 6169   2.708   4.077   5.346  0.5611  0.6663 -0.1544
 2069TIP3   OH2 6170   3.088   6.461   0.662 -0.7031  0.0519 -0.2666
 2069TIP3    H1 6171   3.039   6.479   0.582  1.0787 -1.0270 -1.6791
 2069TIP3    H2 6172   3.180   6.464   0.635 -0.0669 -0.9159  1.6192
 2070TIP3   OH2 6173   1.531   3.363   3.529  0.2303  0.6235  0.0836
 2070TIP3    H1 6174   1.573   3.339   3.447  0.6071  2.6301 -0.3678
 2070TIP3    H2 6175   1.507   3.456   3.518 -2.4386  0.1624  1.0968
 2071TIP3   OH2 6176   0.102   5.676   5.113  0.4121  0.4551  0.7201
 2071TIP3    H1 6177   0.182   5.687   5.061 -0.0016  0.4634  0.0827
 2071TIP3    H2 6178   0.131   5.689   5.204  1.7114 -2.3165  0.8123
 2072TIP3   OH2 6179   1.199   3.209   4.573  0.6609 -0.0638  0.1677
 2072TIP3    H1 6180   1.198   3.113   4.570 -0.1479 -0.0678  0.2859
 2072TIP3    H2 6181   1.287   3.231   4.604  0.3589 -0.8196  1.6541
 2073TIP3   OH2 6182   1.335   4.749   0.489 -0.3836  0.0051 -0.2763
 2073TIP3    H1 6183   1.286   4.669   0.509 -0.8759  0.8124  2.0269
 2073TIP3    H2 6184   1.299   4.815   0.547  1.4361  1.3947 -0.6159
 2074TIP3   OH2 6185   5.489   2.553   3.760  0.0625 -0.8329 -0.2545
 2074TIP3    H1 6186   5.530   2.481   3.808  0.4553 -0.5446 -0.1515
 2074TIP3    H2 6187   5.414   2.578   3.813 -0.1191 -1.2171 -0.3300
 2075TIP3   OH2 6188   0.289   3.606   3.297  0.3804 -0.3888  0.0174
 2075TIP3    H1 6189   0.247   3.678   3.344  0.5602  0.2102 -0.7235
 2075TIP3    H2 6190   0.226   3.534   3.302 -0.0167 -0.0229  0.3301
 2076TIP3   OH2 6191   2.177   4.310   1.843  0.1063 -0.0801  0.1381
 2076TIP3    H1 6192   2.192   4.403   1.856 -0.2602 -0.0381  0.3022
 2076TIP3    H2 6193   2.119   4.285   1.916  1.0212 -0.6567  0.6930
 2077TIP3   OH2 6194   1.956   3.238   5.554  0.2528  0.2068  0.2516
 2077TIP3    H1 6195   1.891   3.250   5.485 -1.5686  0.0474  1.8405
 2077TIP3    H2 6196   2.009   3.317   5.552 -0.1542  0.4678 -0.9276
 2078TIP3   OH2 6197   6.868   6.565   3.396 -0.3319 -0.3944  0.5451
 2078TIP3    H1 6198   6.852   6.654   3.363 -2.1074 -1.0456 -0.5258
 2078TIP3    H2 6199   6.960   6.548   3.376  0.0158  1.1486  0.6862
 2079TIP3   OH2 6200   3.839   3.748   3.761 -0.4916  0.6837 -0.0291
 2079TIP3    H1 6201   3.791   3.826   3.733 -0.7966  0.2660 -0.7072
 2079TIP3    H2 6202   3.867   3.707   3.680 -0.3319  0.0902  0.3217
 2080TIP3   OH2 6203   5.658   4.864   2.129 -0.3119 -0.0152  0.0025
 2080TIP3    H1 6204   5.577   4.837   2.173 -0.5816  0.0492 -0.4503
 2080TIP3    H2 6205   5.725   4.806   2.165 -0.3600  0.5990  1.1419
 2081TIP3   OH2 6206   3.341   2.507   5.745 -0.4735 -0.4815  0.0670
 2081TIP3    H1 6207   3.321   2.414   5.731 -2.3720 -0.1683  0.3858
 2081TIP3    H2 6208   3.274   2.537   5.806  0.2779  1.0452  0.1872
 2082TIP3   OH2 6209   3.421   1.859   4.062  0.3168  0.1075  0.3041
 2082TIP3    H1 6210   3.421   1.793   3.993 -0.1949  0.5585 -0.1352
 2082TIP3    H2 6211   3.335   1.851   4.103  1.1341 -1.1464  1.8655
 2083TIP3   OH2 6212   2.617   0.148   1.339  0.0677  0.2973 -0.4816
 2083TIP3    H1 6213   2.523   0.140   1.328 -0.1002 -0.6073  1.3226
 2083TIP3    H2 6214   2.632   0.240   1.359 -0.2186  0.7698 -2.2410
 2084TIP3   OH2 6215   6.759   5.138   3.518 -0.4638  0.4588  0.0168
 2084TIP3    H1 6216   6.764   5.107   3.428 -0.1737 -1.3394  0.6207
 2084TIP3    H2 6217   6.705   5.217   3.512 -1.1254 -0.0622 -1.6212
 2085TIP3   OH2 6218   7.144   1.290   2.017  0.0470 -0.1898  0.3655
 2085TIP3    H1 6219   7.220   1.255   1.970 -0.5023  0.8765 -1.4108
 2085TIP3    H2 6220   7.070   1.238   1.984 -0.1428 -0.6245  1.4221
 2086TIP3   OH2 6221   6.491   6.495   0.449  0.2290 -0.0659  0.3160
 2086TIP3    H1 6222   6.537   6.529   0.372  0.0044 -0.4427  0.0128
 2086TIP3    H2 6223   6.436   6.424   0.415  1.9363 -1.8947  1.1680
 2087TIP3   OH2 6224   4.245   6.537   4.368  0.0074 -0.1035  0.5023
 2087TIP3    H1 6225   4.207   6.537   4.456  0.2779 -0.3147  0.6208
 2087TIP3    H2 6226   4.230   6.625   4.335  0.7814  0.2778  1.1448
 2088TIP3   OH2 6227   2.791   4.801   0.215 -0.1703  0.1429  0.3119
 2088TIP3    H1 6228   2.822   4.738   0.150  1.4351  1.2214 -0.0250
 2088TIP3    H2 6229   2.863   4.808   0.278 -0.4067  1.4580  0.4618
 2089TIP3   OH2 6230   6.230   4.513   0.512  0.3204  0.3364 -0.5092
 2089TIP3    H1 6231   6.211   4.525   0.605  2.2283  2.5582 -0.3325
 2089TIP3    H2 6232   6.217   4.419   0.497 -0.2732 -0.0230  1.9173
 2090TIP3   OH2 6233   3.436   4.597   5.308  0.3319 -0.1616  0.5762
 2090TIP3    H1 6234   3.530   4.604   5.296  0.3527 -0.3674  0.6077
 2090TIP3    H2 6235   3.398   4.634   5.228  0.4654 -1.3281 -0.0474
 2091TIP3   OH2 6236   6.427   2.006   1.979  0.7292  0.0178 -0.8777
 2091TIP3    H1 6237   6.490   1.978   2.045  0.6409  0.2408 -0.6983
 2091TIP3    H2 6238   6.361   1.937   1.978  0.4158  0.3127 -0.3068
 2092TIP3   OH2 6239   6.050   5.222   0.598 -0.2672  0.5349 -0.3001
 2092TIP3    H1 6240   6.007   5.185   0.675  0.0580  0.5837 -0.0936
 2092TIP3    H2 6241   6.029   5.160   0.527  0.0739  0.0756 -0.0076
 2093TIP3   OH2 6242   1.015   1.926   4.504 -0.7622 -0.0669 -0.1434
 2093TIP3    H1 6243   1.071   1.851   4.483  0.3098  0.7810 -0.3980
 2093TIP3    H2 6244   0.993   1.914   4.596  0.7719  0.1433  0.2844
 2094TIP3   OH2 6245   2.740   1.586   2.608  0.1583 -0.4727  0.1870
 2094TIP3    H1 6246   2.791   1.527   2.663  0.5043  1.2561  1.8310
 2094TIP3    H2 6247   2.804   1.646   2.571 -0.4197  0.2613  0.3615
 2095TIP3   OH2 6248   4.116   6.442   3.897  0.3226 -0.2493 -0.4954
 2095TIP3    H1 6249   4.130   6.461   3.804  1.5646  2.3803  0.1422
 2095TIP3    H2 6250   4.204   6.440   3.934  0.0148 -3.3267  0.3783
 2096TIP3   OH2 6251   6.000   3.160   1.122  0.1760 -0.0834 -0.3902
 2096TIP3    H1 6252   5.939   3.097   1.160 -0.0431 -0.1040 -0.7813
 2096TIP3    H2 6253   5.968   3.175   1.034 -1.2868  2.4960  0.4638
 2097TIP3   OH2 6254   3.597   5.047   2.409  0.3787  0.1307  0.5492
 2097TIP3    H1 6255   3.621   4.955   2.420  0.4640  0.0174 -0.5422
 2097TIP3    H2 6256   3.678   5.090   2.381  0.1271  0.3798  0.1976
 2098TIP3   OH2 6257   0.332   6.426   4.409  0.1709  0.7105  0.6007
 2098TIP3    H1 6258   0.315   6.467   4.494  1.7945  1.8552  0.4105
 2098TIP3    H2 6259   0.423   6.397   4.413 -0.2495 -0.8076 -0.1429
 2099TIP3   OH2 6260   0.315   1.480   3.691 -0.0729 -0.3801 -0.0527
 2099TIP3    H1 6261   0.245   1.545   3.701 -0.4233 -0.6699 -0.6133
 2099TIP3    H2 6262   0.300   1.417   3.761  0.1834  0.0550  0.4053
 2100TIP3   OH2 6263   5.151   3.035   2.570 -0.1809 -0.0194 -0.2034
 2100TIP3    H1 6264   5.089   3.058   2.639  1.6606 -0.7023  1.7937
 2100TIP3    H2 6265   5.204   3.114   2.558 -0.5631  0.1355 -0.9592
 2101TIP3   OH2 6266   5.328   4.727   2.737  0.2532  0.5730  0.0052
 2101TIP3    H1 6267   5.256   4.789   2.748  0.9980  1.3541  0.6955
 2101TIP3    H2 6268   5.288   4.649   2.699 -1.0006  0.8747  0.6598
 2102TIP3   OH2 6269   4.511   2.847   2.544  0.5653 -0.3937  0.2309
 2102TIP3    H1 6270   4.495   2.800   2.462  0.8107 -0.7955  0.4086
 2102TIP3    H2 6271   4.424   2.862   2.581  0.3854  0.6293 -0.5557
 2103TIP3   OH2 6272   3.426   4.518   2.015  0.4034  0.3995 -0.2651
 2103TIP3    H1 6273   3.375   4.599   2.013 -0.8123 -0.3430 -0.3101
 2103TIP3    H2 6274   3.517   4.547   2.005  0.1746  1.8796  1.4556
 2104TIP3   OH2 6275   3.055   5.015   2.729  0.4667 -0.2260 -0.0165
 2104TIP3    H1 6276   3.070   5.090   2.787  0.5409 -0.5394  0.3721
 2104TIP3    H2 6277   2.984   4.966   2.770 -0.2281  0.1261 -0.7614
 2105TIP3   OH2 6278   2.831   4.520   3.978  0.5704 -1.0199 -0.3926
 2105TIP3    H1 6279   2.788   4.555   3.900 -0.9508 -1.5861  0.1536
 2105TIP3    H2 6280   2.801   4.576   4.049  1.7306 -0.6767 -0.1567
 2106TIP3   OH2 6281   4.810   2.830   2.129  0.5887  0.1885 -0.9904
 2106TIP3    H1 6282   4.780   2.826   2.038 -0.8009  1.3632 -0.6154
 2106TIP3    H2 6283   4.745   2.780   2.178  0.2349  1.1954 -0.4037
 2107TIP3   OH2 6284   6.391   3.534   0.997 -0.1114  0.0603  0.6545
 2107TIP3    H1 6285   6.329   3.537   1.069 -1.4225 -0.0847 -0.4404
 2107TIP3    H2 6286   6.377   3.449   0.955  1.0622 -0.1195  0.5763
 2108TIP3   OH2 6287   5.500   5.502   0.520 -0.5020  0.1013 -0.0578
 2108TIP3    H1 6288   5.521   5.427   0.464  2.7898  0.7746  0.0964
 2108TIP3    H2 6289   5.546   5.575   0.480  1.7572  0.6903  3.2105
 2109TIP3   OH2 6290   1.888   1.037   2.658  0.7333 -0.3484  0.0547
 2109TIP3    H1 6291   1.942   1.099   2.610  2.5580 -0.8316  1.3648
 2109TIP3    H2 6292   1.881   1.074   2.746  2.5245 -2.2761  1.0997
 2110TIP3   OH2 6293   3.807   0.145   4.729 -0.5045 -0.6767 -0.9926
 2110TIP3    H1 6294   3.808   0.067   4.673 -1.4793 -0.5963 -1.1295
 2110TIP3    H2 6295   3.798   0.111   4.818  1.2496 -0.8162 -0.8349
 2111TIP3   OH2 6296   0.207   5.827   1.138  0.4023  0.4514 -0.1260
 2111TIP3    H1 6297   0.141   5.759   1.153 -0.1647  0.4134 -2.3501
 2111TIP3    H2 6298   0.278   5.806   1.198 -0.7377 -0.7363  0.8597
 2112TIP3   OH2 6299   0.158   3.691   1.287 -0.4525  0.2935 -0.4820
 2112TIP3    H1 6300   0.239   3.645   1.309 -0.8860 -0.2724 -0.0296
 2112TIP3    H2 6301   0.136   3.661   1.199 -0.1415  0.5082 -0.6389
 2113TIP3   OH2 6302   5.777   4.454   1.314  0.5890  0.2691 -0.1846
 2113TIP3    H1 6303   5.765   4.463   1.408  0.7873  0.7403 -0.2049
 2113TIP3    H2 6304   5.863   4.492   1.297  0.5696  0.1525 -0.5526
 2114TIP3   OH2 6305   0.671   2.093   0.781  0.1188 -1.0300  0.0939
 2114TIP3    H1 6306   0.617   2.135   0.847  0.1274 -0.1621 -0.4388
 2114TIP3    H2 6307   0.744   2.055   0.830  0.1779 -0.3104  0.5738
 2115TIP3   OH2 6308   5.435   1.445   0.227 -0.2791 -0.1530  0.6138
 2115TIP3    H1 6309   5.422   1.355   0.197 -1.1084  0.7363 -1.9581
 2115TIP3    H2 6310   5.529   1.454   0.238 -0.1873 -1.3157  0.8521
 2116TIP3   OH2 6311   3.057   2.782   5.199 -0.4775 -0.2173 -0.1677
 2116TIP3    H1 6312   3.099   2.716   5.254  0.9110  0.5463 -0.2665
 2116TIP3    H2 6313   3.084   2.866   5.237 -0.1043  0.3162 -1.5200
 2117TIP3   OH2 6314   3.275   2.079   1.717  0.7684  0.5716  0.2330
 2117TIP3    H1 6315   3.314   1.993   1.732 -0.7249 -0.8197 -3.0342
 2117TIP3    H2 6316   3.224   2.095   1.796  2.2131 -0.8170  1.5383
 2118TIP3   OH2 6317   0.317   3.937   2.918  0.1752  0.4763  0.7335
 2118TIP3    H1 6318   0.341   3.938   2.825  0.4117 -0.0036  0.7854
 2118TIP3    H2 6319   0.299   3.845   2.937  1.7781  0.2884  1.5619
 2119TIP3   OH2 6320   3.141   1.357   3.164 -0.3150 -1.0050 -0.0612
 2119TIP3    H1 6321   3.199   1.431   3.149 -1.3306 -0.0711  0.5330
 2119TIP3    H2 6322   3.119   1.361   3.257  0.2359 -2.5288  0.1761
 2120TIP3   OH2 6323   6.802   0.119   0.039  0.0776  0.1162  0.1857
 2120TIP3    H1 6324   6.727   0.138   0.096 -1.6952 -3.9672 -0.4674
 2120TIP3    H2 6325   6.771   0.143  -0.048 -0.3595 -1.1865 -0.0310
 2121TIP3   OH2 6326   1.193   0.594   5.776 -0.4833 -0.1385  0.1444
 2121TIP3    H1 6327   1.233   0.681   5.768  1.0174 -0.9933 -4.3404
 2121TIP3    H2 6328   1.101   0.608   5.752 -0.5654  0.3616  0.7161
 2122TIP3   OH2 6329   2.988   5.260   5.429 -0.0390 -0.9861 -0.8534
 2122TIP3    H1 6330   2.988   5.248   5.334 -1.4906 -1.1437 -0.8580
 2122TIP3    H2 6331   3.080   5.268   5.452  0.4455 -2.4874 -2.0828
 2123TIP3   OH2 6332   2.931   3.335   1.189  0.2311 -0.1380  0.1929
 2123TIP3    H1 6333   2.996   3.300   1.250  0.1802  0.9442  0.8856
 2123TIP3    H2 6334   2.861   3.269   1.187  0.5488 -0.4948  0.7743
 2124TIP3   OH2 6335   1.266   0.851   2.624  0.0666  0.1555  0.0581
 2124TIP3    H1 6336   1.227   0.852   2.537  0.4267  0.6982 -0.1044
 2124TIP3    H2 6337   1.225   0.777   2.669 -1.3470  0.8884 -0.0039
 2125TIP3   OH2 6338   6.374   0.440   5.300  0.2756  0.3531 -0.2999
 2125TIP3    H1 6339   6.301   0.494   5.331  0.1540 -0.9946  1.9875
 2125TIP3    H2 6340   6.444   0.502   5.281 -0.5354  1.4662  0.2704
 2126TIP3   OH2 6341   7.201   5.287   3.501 -0.2031 -0.4927  0.3024
 2126TIP3    H1 6342   7.165   5.222   3.562 -0.8993 -0.6697 -0.2917
 2126TIP3    H2 6343   7.137   5.292   3.430  0.4142 -0.0077 -0.2307
 2127TIP3   OH2 6344   2.045   6.636   0.922  0.1795 -0.8164  0.4059
 2127TIP3    H1 6345   2.060   6.610   1.013  1.4365 -0.8775  0.2034
 2127TIP3    H2 6346   2.017   6.555   0.879  0.0404 -0.8954  0.6428
 2128TIP3   OH2 6347   2.180   2.564   2.631 -0.7413  0.0728 -0.0271
 2128TIP3    H1 6348   2.257   2.554   2.574 -0.6706  1.0434 -0.1103
 2128TIP3    H2 6349   2.133   2.638   2.595 -0.6143  0.8188  1.2692
 2129TIP3   OH2 6350   2.316   3.181   1.562  0.5882 -0.3411  0.4436
 2129TIP3    H1 6351   2.372   3.221   1.628 -0.3732 -0.6936  1.5061
 2129TIP3    H2 6352   2.235   3.160   1.609 -0.1087 -0.6244 -0.8456
 2130TIP3   OH2 6353   0.823   5.439   1.741 -0.2464  0.6787 -0.2322
 2130TIP3    H1 6354   0.892   5.498   1.770  1.0689 -1.0855  0.4233
 2130TIP3    H2 6355   0.863   5.352   1.742 -1.6138 -0.0897 -2.6909
 2131TIP3   OH2 6356   0.498   4.495   1.438 -0.6127  0.4491 -0.2566
 2131TIP3    H1 6357   0.457   4.507   1.353 -0.3295 -1.2704 -0.6792
 2131TIP3    H2 6358   0.591   4.515   1.423 -0.3360 -1.0580 -0.6881
 2132TIP3   OH2 6359   2.078   3.472   5.275  0.3965  0.0615 -0.6441
 2132TIP3    H1 6360   2.144   3.478   5.205  1.1143  1.4097  0.1119
 2132TIP3    H2 6361   2.129   3.460   5.354 -0.2992  0.4751 -0.1226
 2133TIP3   OH2 6362   1.470   3.005   2.497  0.5284  0.3253  0.0701
 2133TIP3    H1 6363   1.486   2.911   2.491 -0.8752  0.0104  0.8804
 2133TIP3    H2 6364   1.555   3.045   2.477  0.4477 -0.9538 -3.5678
 2134TIP3   OH2 6365   0.235   2.726   4.076 -0.2236  0.1303  0.0482
 2134TIP3    H1 6366   0.255   2.643   4.033  2.5390  0.3455  0.7131
 2134TIP3    H2 6367   0.148   2.714   4.113  0.4324 -2.8299  0.8867
 2135TIP3   OH2 6368   5.106   1.180   5.052  0.1885 -0.0602 -0.4648
 2135TIP3    H1 6369   5.062   1.105   5.013 -0.3133 -0.3088  0.5466
 2135TIP3    H2 6370   5.044   1.253   5.042  1.3260  0.6689 -2.9245
 2136TIP3   OH2 6371   3.022   3.177   4.083 -1.0253 -0.1775  0.3008
 2136TIP3    H1 6372   3.002   3.234   4.009 -1.7701 -0.0728  0.5778
 2136TIP3    H2 6373   2.952   3.112   4.084  1.1593 -2.8176 -1.6259
 2137TIP3   OH2 6374   5.393   6.483   3.574 -0.1701  0.1930  0.4412
 2137TIP3    H1 6375   5.482   6.469   3.541 -0.0607  1.9363 -0.0831
 2137TIP3    H2 6376   5.366   6.397   3.606  1.9790 -0.2266  1.3063
 2138TIP3   OH2 6377   5.133   2.696   1.925 -1.0143 -0.2014  0.2100
 2138TIP3    H1 6378   5.055   2.730   1.883 -1.0290 -2.0326 -1.3838
 2138TIP3    H2 6379   5.101   2.656   2.006 -1.3942  0.8954  0.6175
 2139TIP3   OH2 6380   1.087   1.498   4.593  0.3362 -0.0117  0.0080
 2139TIP3    H1 6381   1.103   1.580   4.547 -2.8090  0.6060 -0.2420
 2139TIP3    H2 6382   1.105   1.517   4.685  2.8024 -0.0758 -0.4160
 2140TIP3   OH2 6383   2.862   4.191   5.428 -0.0368 -0.1102  0.0105
 2140TIP3    H1 6384   2.951   4.185   5.394 -0.0684 -1.6350  0.1205
 2140TIP3    H2 6385   2.871   4.182   5.523 -0.3776 -1.5808 -0.0693
 2141TIP3   OH2 6386   0.080   3.297   4.752 -0.4105 -0.3853 -0.0551
 2141TIP3    H1 6387   0.077   3.386   4.717  0.7766 -0.8685 -1.5158
 2141TIP3    H2 6388  -0.008   3.282   4.786 -1.6005  0.2838 -2.5749
 2142TIP3   OH2 6389   2.409   0.576   2.731 -0.0004  0.2431 -0.3441
 2142TIP3    H1 6390   2.493   0.540   2.757  0.5753  0.8723 -1.2778
 2142TIP3    H2 6391   2.347   0.504   2.745  1.0628 -1.0459 -1.8826
 2143TIP3   OH2 6392   6.564   5.465   1.097 -0.0810  0.3819 -0.3685
 2143TIP3    H1 6393   6.577   5.546   1.049  1.1608  0.9472  0.8414
 2143TIP3    H2 6394   6.519   5.492   1.178  1.4713  0.0924  0.6261
 2144TIP3   OH2 6395   1.894   6.361   3.152 -0.6429  0.3116  0.0366
 2144TIP3    H1 6396   1.846   6.346   3.071  0.2343  1.0161 -0.6367
 2144TIP3    H2 6397   1.951   6.285   3.161 -0.4098  0.4451 -0.2670
 2145TIP3   OH2 6398   1.235   2.607   0.261  0.1017  0.1463 -0.2095
 2145TIP3    H1 6399   1.158   2.651   0.225  1.0392  1.4749 -0.6800
 2145TIP3    H2 6400   1.215   2.513   0.253 -2.0696  0.4129  1.0655
 2146TIP3   OH2 6401   6.366   6.050   0.187  0.0552 -0.0239 -0.0020
 2146TIP3    H1 6402   6.319   5.969   0.206  1.3052 -0.6903  0.3807
 2146TIP3    H2 6403   6.365   6.056   0.091 -1.0227  0.1243  0.0074
 2147TIP3   OH2 6404   2.955   2.532   2.689  0.0907 -0.5922  0.2785
 2147TIP3    H1 6405   3.040   2.494   2.670  0.7223  1.2636 -0.8940
 2147TIP3    H2 6406   2.945   2.523   2.784  3.2269  2.1924  1.0553
 2148TIP3   OH2 6407   0.248   2.295   3.179 -0.1410 -0.4376  0.6278
 2148TIP3    H1 6408   0.254   2.369   3.118  0.5304 -3.2959 -3.1073
 2148TIP3    H2 6409   0.156   2.267   3.174  0.2722 -1.6827 -0.4469
 2149TIP3   OH2 6410   5.654   3.878   1.593 -0.3662 -0.1360  0.1627
 2149TIP3    H1 6411   5.719   3.822   1.550 -0.2796 -1.0364  1.3985
 2149TIP3    H2 6412   5.579   3.821   1.608 -0.7920  0.4428  0.2458
 2150TIP3   OH2 6413   2.551   3.869   3.956  0.4566 -0.5632  0.4035
 2150TIP3    H1 6414   2.463   3.885   3.923  0.7881 -1.9090 -1.2948
 2150TIP3    H2 6415   2.604   3.941   3.922  0.2731 -0.5002  0.2540
 2151TIP3   OH2 6416   5.409   5.644   0.738 -0.4144  0.8988  0.3563
 2151TIP3    H1 6417   5.467   5.598   0.678  0.0042  0.9087  0.7493
 2151TIP3    H2 6418   5.322   5.610   0.718  0.0787 -1.5529  1.9720
 2152TIP3   OH2 6419   3.983   1.372   5.633 -0.3891  0.0667  0.6870
 2152TIP3    H1 6420   4.075   1.382   5.657 -0.5129  0.9025  0.8693
 2152TIP3    H2 6421   3.944   1.457   5.655 -0.9616  0.1228 -0.4781
 2153TIP3   OH2 6422   3.062   3.521   2.063  0.2302 -0.3359  0.3935
 2153TIP3    H1 6423   3.001   3.493   1.994 -0.2913  0.4869  0.5049
 2153TIP3    H2 6424   3.017   3.595   2.105  0.5603 -0.8055  1.5870
 2154TIP3   OH2 6425   3.968   5.839   5.145 -0.3325  0.2639 -0.3463
 2154TIP3    H1 6426   4.006   5.775   5.085  0.4957  1.0254 -0.6697
 2154TIP3    H2 6427   4.013   5.921   5.123 -0.2414  0.6289  1.1053
 2155TIP3   OH2 6428   5.987   6.350   5.269  0.2290 -0.4685  0.0224
 2155TIP3    H1 6429   5.902   6.362   5.311  1.9754  2.5576  3.2749
 2155TIP3    H2 6430   6.005   6.434   5.227  1.5071 -1.1727 -0.9342
 2156TIP3   OH2 6431   0.836   6.503   3.741 -0.4129  0.0666 -0.4245
 2156TIP3    H1 6432   0.928   6.491   3.764 -0.3399  0.2584 -0.6163
 2156TIP3    H2 6433   0.820   6.597   3.755 -0.4465  0.1282 -0.8659
 2157TIP3   OH2 6434   3.489   2.670   2.094  0.3454  0.1630 -0.1373
 2157TIP3    H1 6435   3.492   2.709   2.006  0.1339  1.2104  0.3039
 2157TIP3    H2 6436   3.417   2.607   2.089  0.4073  0.1301 -0.7543
 2158TIP3   OH2 6437   1.293   4.414   5.782 -0.5022 -0.0779  0.3611
 2158TIP3    H1 6438   1.329   4.447   5.864  0.2796  0.4653 -0.1823
 2158TIP3    H2 6439   1.201   4.443   5.782 -0.3743  0.3361  0.8232
 2159TIP3   OH2 6440   5.796   3.302   5.200  0.2830 -0.1153 -0.0345
 2159TIP3    H1 6441   5.817   3.391   5.173  1.7642 -0.3996  0.0905
 2159TIP3    H2 6442   5.874   3.250   5.177 -1.4122 -1.8669 -2.2848
 2160TIP3   OH2 6443   6.930   1.954   0.882 -0.0751 -0.6568  0.1894
 2160TIP3    H1 6444   6.975   2.039   0.881 -0.6467 -0.2196  2.7796
 2160TIP3    H2 6445   6.844   1.973   0.845 -0.7060  0.3145  1.9995
 2161TIP3   OH2 6446   4.980   3.152   3.777 -0.3534 -0.3499 -0.8087
 2161TIP3    H1 6447   4.997   3.058   3.767 -3.5088 -1.0055 -1.1939
 2161TIP3    H2 6448   4.924   3.175   3.702 -0.2843  1.6604 -0.3098
 2162TIP3   OH2 6449   7.138   1.947   5.871  0.5239  0.2062 -0.4046
 2162TIP3    H1 6450   7.203   1.987   5.813  1.1326  1.0346  0.8116
 2162TIP3    H2 6451   7.188   1.891   5.930  0.1407  0.7658  0.4785
 2163TIP3   OH2 6452   5.780   4.542   0.229  0.6259 -0.1766  0.0754
 2163TIP3    H1 6453   5.751   4.455   0.258  0.1619  0.1520  0.6228
 2163TIP3    H2 6454   5.868   4.551   0.265  0.9022 -0.6585 -0.4827
 2164TIP3   OH2 6455   6.893   6.667   0.611 -0.6294 -0.0115 -0.2288
 2164TIP3    H1 6456   6.852   6.641   0.529 -1.1996 -1.2443  0.4160
 2164TIP3    H2 6457   6.895   6.587   0.664  0.4066  0.5754  0.6837
 2165TIP3   OH2 6458   2.694   1.034   3.305 -0.0532  0.4706 -0.6624
 2165TIP3    H1 6459   2.715   1.073   3.220  0.5790  1.4215 -0.0806
 2165TIP3    H2 6460   2.755   1.074   3.366  1.0948 -1.8823 -0.1219
 2166TIP3   OH2 6461   7.091   1.446   0.299  0.3842  0.2036 -0.1790
 2166TIP3    H1 6462   7.031   1.476   0.368  1.6411  3.2890 -0.2821
 2166TIP3    H2 6463   7.158   1.397   0.345 -0.1894 -0.0377  0.4194
 2167TIP3   OH2 6464   0.613   1.115   1.505  0.2898 -0.0799  0.0277
 2167TIP3    H1 6465   0.619   1.210   1.494 -3.3683  0.2358 -0.7466
 2167TIP3    H2 6466   0.668   1.096   1.580  0.5326  2.7774  0.6998
 2168TIP3   OH2 6467   6.547   1.389   2.799 -0.2207 -0.4708  0.3218
 2168TIP3    H1 6468   6.506   1.470   2.770 -0.9981 -0.1589  2.1331
 2168TIP3    H2 6469   6.568   1.342   2.718  0.6532  1.6963 -0.7934
 2169TIP3   OH2 6470   5.009   1.131   0.035  0.3914 -0.2214 -0.3149
 2169TIP3    H1 6471   4.928   1.119   0.085  0.6762 -1.4244 -0.1055
 2169TIP3    H2 6472   5.073   1.160   0.099  0.1104  0.8404 -0.5016
 2170TIP3   OH2 6473   4.384   6.008   2.606  0.4446 -0.2893 -0.3381
 2170TIP3    H1 6474   4.452   6.075   2.616 -0.5833  0.8634 -0.6955
 2170TIP3    H2 6475   4.303   6.053   2.630 -0.0491 -2.0549  1.5285
 2171TIP3   OH2 6476   3.747   0.994   1.953  0.2600  0.2101  0.3113
 2171TIP3    H1 6477   3.803   0.963   1.882  0.2635  0.9096 -0.0035
 2171TIP3    H2 6478   3.747   1.089   1.943  1.0635  0.4007  1.8444
 2172TIP3   OH2 6479   4.190   3.258   1.325 -0.1040 -0.6070 -0.3909
 2172TIP3    H1 6480   4.178   3.176   1.372  2.1902 -2.8291 -3.2569
 2172TIP3    H2 6481   4.105   3.276   1.285 -1.3375 -0.0771  2.2439
 2173TIP3   OH2 6482   6.546   4.794   3.111  0.6036  0.3330 -0.1130
 2173TIP3    H1 6483   6.608   4.855   3.150 -0.7258  2.1937 -0.7856
 2173TIP3    H2 6484   6.484   4.849   3.063 -0.6120 -1.5553 -0.8452
 2174TIP3   OH2 6485   5.894   2.591   3.632 -0.3267 -0.4794 -0.2604
 2174TIP3    H1 6486   5.829   2.531   3.594 -0.7600 -0.2597  0.1254
 2174TIP3    H2 6487   5.968   2.535   3.654  0.3382 -0.4965 -2.2781
 2175TIP3   OH2 6488   2.190   5.565   3.413  0.5073  0.5884  0.0685
 2175TIP3    H1 6489   2.186   5.501   3.341  0.7082  1.0988 -0.4055
 2175TIP3    H2 6490   2.114   5.621   3.398  0.4433  0.5807  0.3695
 2176TIP3   OH2 6491   1.294   5.099   3.508  0.0706  0.1041 -0.5373
 2176TIP3    H1 6492   1.280   5.147   3.427 -2.1426  0.5237  0.0227
 2176TIP3    H2 6493   1.260   5.158   3.576 -1.3867 -1.6408  0.3093
 2177TIP3   OH2 6494   4.509   1.596   2.406 -0.2805  0.4546 -0.3884
 2177TIP3    H1 6495   4.558   1.514   2.400 -0.2448  0.1667  2.5044
 2177TIP3    H2 6496   4.571   1.663   2.376  1.0274 -0.1947  0.7804
 2178TIP3   OH2 6497   5.465   2.867   2.901  0.7033  0.4666  0.3161
 2178TIP3    H1 6498   5.429   2.866   2.990  0.8479 -1.6500  0.4059
 2178TIP3    H2 6499   5.520   2.945   2.898  0.8020  0.5153  2.1307
 2179TIP3   OH2 6500   1.345   0.171   4.653  0.0081 -0.2752 -0.4332
 2179TIP3    H1 6501   1.305   0.187   4.739  0.8666  1.5421 -0.3117
 2179TIP3    H2 6502   1.272   0.150   4.596 -0.5321 -2.0397  0.8227
 2180TIP3   OH2 6503   1.276   0.851   1.659 -0.0416 -0.4470 -1.0822
 2180TIP3    H1 6504   1.245   0.818   1.743  0.7131 -1.2655 -1.1135
 2180TIP3    H2 6505   1.197   0.859   1.606 -0.6576  1.0462  0.0100
 2181TIP3   OH2 6506   6.259   5.402   2.020 -0.3181 -0.0428  0.2005
 2181TIP3    H1 6507   6.300   5.426   2.103 -0.7099  0.0222  0.3810
 2181TIP3    H2 6508   6.191   5.469   2.008  0.0045  0.1796 -0.3728
 2182TIP3   OH2 6509   6.779   2.657   2.132  0.0856  0.1154 -0.0780
 2182TIP3    H1 6510   6.726   2.691   2.059  0.7039  2.3825  0.4691
 2182TIP3    H2 6511   6.869   2.667   2.102  0.2938 -0.9588  0.1731
 2183TIP3   OH2 6512   3.018   4.268   3.118 -0.3738  0.2087  0.2094
 2183TIP3    H1 6513   3.011   4.298   3.208  3.0160  0.8152  0.3644
 2183TIP3    H2 6514   3.021   4.172   3.125  0.4749  0.2736  0.8090
 2184TIP3   OH2 6515   2.166   5.422   0.841 -0.2775 -0.2490 -0.0516
 2184TIP3    H1 6516   2.195   5.505   0.880  2.0753 -0.6263 -0.8400
 2184TIP3    H2 6517   2.207   5.421   0.755 -0.6463 -2.0544 -0.2298
 2185TIP3   OH2 6518   6.808   5.438   0.413  0.0907 -0.4531 -0.5368
 2185TIP3    H1 6519   6.770   5.445   0.325 -1.6910  1.7029  0.3307
 2185TIP3    H2 6520   6.753   5.375   0.458 -0.9911  0.8193 -0.0350
 2186TIP3   OH2 6521   0.781   1.837   3.796  0.0276  0.2524 -0.2288
 2186TIP3    H1 6522   0.762   1.909   3.737 -0.9218  0.2956  0.1125
 2186TIP3    H2 6523   0.757   1.870   3.883 -0.7345 -0.5674 -0.1097
 2187TIP3   OH2 6524   3.987   3.993   4.580 -0.3293  0.2143 -0.3071
 2187TIP3    H1 6525   3.958   3.952   4.662  1.8043  0.1673  0.4894
 2187TIP3    H2 6526   3.914   3.981   4.520 -0.9676 -2.0592  0.8123
 2188TIP3   OH2 6527   3.843   2.696   5.292 -0.1970  1.0555  0.0013
 2188TIP3    H1 6528   3.798   2.641   5.356  0.4162 -0.5504 -0.9065
 2188TIP3    H2 6529   3.796   2.779   5.296 -1.1126  0.5213  1.4602
 2189TIP3   OH2 6530   1.664   5.003   4.467 -0.1011  0.2166  0.0115
 2189TIP3    H1 6531   1.650   4.963   4.553 -2.6140 -0.5441 -0.7002
 2189TIP3    H2 6532   1.601   5.075   4.463 -0.6100 -0.2839 -1.5211
 2190TIP3   OH2 6533   3.197   3.540   0.692  0.4632  0.7029  0.8157
 2190TIP3    H1 6534   3.291   3.552   0.679  0.8011 -0.1719  2.2231
 2190TIP3    H2 6535   3.187   3.446   0.707 -0.9454  0.4271 -1.4750
 2191TIP3   OH2 6536   0.387   4.546   1.192  0.1776 -0.1896 -0.3410
 2191TIP3    H1 6537   0.328   4.483   1.150  0.6782 -1.5850  0.9544
 2191TIP3    H2 6538   0.436   4.585   1.119  0.2312 -1.6980 -1.1456
 2192TIP3   OH2 6539   2.587   5.510   3.256 -0.2922 -0.4504 -0.1454
 2192TIP3    H1 6540   2.584   5.509   3.352  0.1953 -1.3335 -0.1240
 2192TIP3    H2 6541   2.680   5.512   3.235 -0.3209 -2.1001 -0.5755
 2193TIP3   OH2 6542   5.813   4.173   4.665  0.5461 -0.8736 -0.1119
 2193TIP3    H1 6543   5.856   4.135   4.588  1.3777 -2.6984  1.1906
 2193TIP3    H2 6544   5.720   4.165   4.647  0.7200 -0.9138 -1.0728
 2194TIP3   OH2 6545   6.758   0.970   2.721  0.1964  0.5423 -0.2063
 2194TIP3    H1 6546   6.838   0.920   2.704  0.7749  1.4406 -0.1957
 2194TIP3    H2 6547   6.701   0.909   2.768  0.3924 -0.4914 -1.2701
 2195TIP3   OH2 6548   6.434   5.471   4.026 -0.2724 -0.0849  0.9929
 2195TIP3    H1 6549   6.525   5.459   3.998 -0.7788  0.9760 -1.4351
 2195TIP3    H2 6550   6.431   5.440   4.116  2.5917  0.2725  1.2805
 2196TIP3   OH2 6551   4.798   5.533   1.511  0.4343 -0.4808  0.3303
 2196TIP3    H1 6552   4.721   5.548   1.566 -0.2128  2.2035 -1.1575
 2196TIP3    H2 6553   4.828   5.620   1.487  2.6299 -1.5078 -0.9695
 2197TIP3   OH2 6554   1.387   1.673   2.821  0.4268  0.6706  0.1921
 2197TIP3    H1 6555   1.354   1.621   2.747 -0.5824  0.7069  0.5976
 2197TIP3    H2 6556   1.308   1.710   2.861  0.9251  0.4035  1.4750
 2198TIP3   OH2 6557   4.659   1.557   1.385 -0.1463 -0.0443 -0.3043
 2198TIP3    H1 6558   4.668   1.646   1.352  0.9034  0.0761  0.2664
 2198TIP3    H2 6559   4.748   1.522   1.382 -0.2583 -0.4879  1.1019
 2199TIP3   OH2 6560   6.329   2.169   5.839  0.3121  0.6504  0.7451
 2199TIP3    H1 6561   6.322   2.261   5.862 -0.3548  0.9376 -0.5256
 2199TIP3    H2 6562   6.243   2.133   5.858  0.5212  0.3226  1.0828
 2200TIP3   OH2 6563   1.624   2.819   0.054 -0.5489  0.2900 -0.5735
 2200TIP3    H1 6564   1.544   2.790   0.009  0.0135  0.9412 -2.0695
 2200TIP3    H2 6565   1.592   2.882   0.119 -1.2921  0.3258 -0.9509
 2201TIP3   OH2 6566   5.959   4.624   5.851 -0.2096  0.6068  0.4278
 2201TIP3    H1 6567   5.889   4.563   5.871 -1.0651  1.0095 -1.1398
 2201TIP3    H2 6568   5.929   4.671   5.773  1.3807  1.4770  0.2799
 2202TIP3   OH2 6569   4.958   0.339   2.039 -0.4733 -0.0003  0.3675
 2202TIP3    H1 6570   4.960   0.432   2.061 -0.9650 -0.1600  1.1171
 2202TIP3    H2 6571   5.047   0.320   2.011 -0.3621  0.6888  0.2173
 2203TIP3   OH2 6572   0.537   6.331   1.862 -0.0886 -0.3700  0.0260
 2203TIP3    H1 6573   0.600   6.283   1.808  0.6985 -0.2549  0.8250
 2203TIP3    H2 6574   0.589   6.364   1.935 -1.0837 -0.2710  0.6956
 2204TIP3   OH2 6575   0.445   6.182   3.246 -0.3226  0.5590  0.0073
 2204TIP3    H1 6576   0.376   6.197   3.182 -0.8059  1.0619  0.6315
 2204TIP3    H2 6577   0.439   6.256   3.306 -0.2555 -0.1870  0.9649
 2205TIP3   OH2 6578   5.053   5.274   2.333 -0.4871  0.3950 -0.0750
 2205TIP3    H1 6579   5.074   5.364   2.307  0.2173  0.1869 -0.2586
 2205TIP3    H2 6580   5.008   5.284   2.417 -0.1183  0.9026  0.0729
 2206TIP3   OH2 6581   1.842   1.897   4.412  0.3047 -0.6434  0.2921
 2206TIP3    H1 6582   1.763   1.914   4.463 -1.2265 -1.5297 -1.6515
 2206TIP3    H2 6583   1.887   1.828   4.460 -1.0215 -1.3756  0.5320
 2207TIP3   OH2 6584   2.361   5.438   1.958  0.1831  0.2118  0.4937
 2207TIP3    H1 6585   2.292   5.390   1.913  1.0573  0.2573 -0.9659
 2207TIP3    H2 6586   2.378   5.514   1.902  2.5098 -0.6376 -0.0620
 2208TIP3   OH2 6587   2.706   1.689   1.559  0.7831 -0.0253 -0.9044
 2208TIP3    H1 6588   2.726   1.667   1.468  0.3441  0.7024 -1.1852
 2208TIP3    H2 6589   2.743   1.617   1.610  0.7717 -0.5917 -1.6810
 2209TIP3   OH2 6590   3.307   1.376   0.004  0.0731  0.0413  0.0900
 2209TIP3    H1 6591   3.331   1.391   0.095  0.2410 -0.6246  0.1601
 2209TIP3    H2 6592   3.373   1.423  -0.047 -0.8674  1.6640  0.3085
 2210TIP3   OH2 6593   0.690   1.308   5.074 -0.0901 -0.5600 -0.1463
 2210TIP3    H1 6594   0.744   1.312   4.996 -1.2253  0.0751 -0.9279
 2210TIP3    H2 6595   0.723   1.377   5.131  1.0393 -1.3218  0.1703
 2211TIP3   OH2 6596   6.909   2.511   4.367 -0.1302  0.5645  0.6094
 2211TIP3    H1 6597   6.975   2.450   4.333  0.7745  0.4944  2.3393
 2211TIP3    H2 6598   6.899   2.577   4.299  0.4056 -0.4040 -0.4357
 2212TIP3   OH2 6599   0.461   0.905   2.650 -0.1005  0.1226  0.0346
 2212TIP3    H1 6600   0.542   0.874   2.691  0.0354 -0.7561 -0.8493
 2212TIP3    H2 6601   0.432   0.830   2.597 -1.9817  0.0981  1.0562
 2213TIP3   OH2 6602   0.490   3.443   4.166  0.3714 -0.4564  0.2703
 2213TIP3    H1 6603   0.455   3.371   4.113  0.0338 -1.4047  1.7266
 2213TIP3    H2 6604   0.422   3.460   4.231  0.8000  0.6453  0.4513
 2214TIP3   OH2 6605   3.301   1.123   3.110  0.4691  1.2639 -0.4431
 2214TIP3    H1 6606   3.276   1.215   3.101  0.0480  0.9471 -5.3394
 2214TIP3    H2 6607   3.220   1.075   3.091  0.2980 -0.3665  3.4317
 2215TIP3   OH2 6608   1.812   0.718   5.410  0.0835  0.1162  0.1607
 2215TIP3    H1 6609   1.781   0.640   5.365 -0.5403  0.0928  0.6215
 2215TIP3    H2 6610   1.744   0.784   5.394  0.6553  0.6104 -0.3260
 2216TIP3   OH2 6611   3.272   6.820   2.263  0.0241 -0.3532 -0.1668
 2216TIP3    H1 6612   3.212   6.746   2.270 -0.4674 -0.1413 -1.7378
 2216TIP3    H2 6613   3.323   6.803   2.184  0.1769  0.7849 -0.3376
 2217TIP3   OH2 6614   6.322   0.248   3.348 -0.3784 -0.6362  0.2341
 2217TIP3    H1 6615   6.343   0.319   3.410  0.4471 -1.5061  0.9942
 2217TIP3    H2 6616   6.242   0.276   3.305 -1.7761 -0.5867  2.6970
 2218TIP3   OH2 6617   6.139   4.980   2.245 -0.0529 -0.0506  0.1351
 2218TIP3    H1 6618   6.212   5.041   2.238  0.5732 -0.7922  0.1296
 2218TIP3    H2 6619   6.174   4.896   2.217 -1.1649 -0.2310 -0.8014
 2219TIP3   OH2 6620   2.379   4.406   3.465 -0.4781  0.0982  0.4794
 2219TIP3    H1 6621   2.312   4.340   3.482 -0.0587 -0.1661  1.1809
 2219TIP3    H2 6622   2.362   4.437   3.376 -0.5572 -1.1026  0.0633
 2220TIP3   OH2 6623   4.354   4.472   3.964 -0.3669 -0.1750 -0.0169
 2220TIP3    H1 6624   4.332   4.548   4.017 -1.8598  0.4478 -1.4559
 2220TIP3    H2 6625   4.296   4.477   3.889  0.5299 -1.9397 -0.8966
 2221TIP3   OH2 6626   3.637   1.774   2.650 -0.4790  0.0795  0.0354
 2221TIP3    H1 6627   3.629   1.848   2.589 -1.7898 -0.3301 -0.3098
 2221TIP3    H2 6628   3.606   1.808   2.733  0.2434  0.3118  0.2159
 2222TIP3   OH2 6629   0.996   5.999   5.872 -0.2356  0.6138 -0.0193
 2222TIP3    H1 6630   0.974   6.092   5.879  0.3070  0.6384  1.7965
 2222TIP3    H2 6631   0.944   5.968   5.798 -2.2981  1.8332  0.8123
 2223TIP3   OH2 6632   2.627   5.345   0.506  0.6216 -0.2530  0.1425
 2223TIP3    H1 6633   2.640   5.433   0.541  1.9120 -0.7596  1.0282
 2223TIP3    H2 6634   2.588   5.296   0.578 -1.5028 -0.0786 -0.8242
 2224TIP3   OH2 6635   1.809   0.249   4.172  0.0358  0.8674  0.1441
 2224TIP3    H1 6636   1.798   0.200   4.253  0.2636  0.3067 -0.1627
 2224TIP3    H2 6637   1.720   0.263   4.140  0.0155 -0.5479 -0.4776
 2225TIP3   OH2 6638   2.487   1.230   2.199  0.1936 -0.6591  0.7377
 2225TIP3    H1 6639   2.562   1.285   2.224  1.1103 -1.0587 -0.9486
 2225TIP3    H2 6640   2.441   1.214   2.281  2.2124 -0.7570  1.9280
 2226TIP3   OH2 6641   0.849   3.546   2.864  0.1231  0.6259  0.1941
 2226TIP3    H1 6642   0.795   3.486   2.916  1.2403 -1.4193 -0.9037
 2226TIP3    H2 6643   0.788   3.585   2.802 -0.5549  0.3030  0.6417
 2227TIP3   OH2 6644   1.899   1.935   3.461  0.3263 -0.0026 -0.2315
 2227TIP3    H1 6645   1.942   1.893   3.535 -0.1607  0.7378  0.4914
 2227TIP3    H2 6646   1.894   2.028   3.486 -0.3385  0.1623 -0.9460
 2228TIP3   OH2 6647   1.778   3.610   4.914  0.0341  0.0386  0.3457
 2228TIP3    H1 6648   1.866   3.583   4.940  0.3762  0.5118 -0.2950
 2228TIP3    H2 6649   1.742   3.534   4.869  0.3507  0.0556  0.0596
 2229TIP3   OH2 6650   6.572   5.982   2.404 -0.1865  0.0980  0.0319
 2229TIP3    H1 6651   6.553   6.011   2.314  2.0371  1.4911 -0.0579
 2229TIP3    H2 6652   6.582   6.063   2.454  1.7316 -0.5493  0.8001
 2230TIP3   OH2 6653   4.234   4.862   0.875 -0.1539 -0.0098 -0.2804
 2230TIP3    H1 6654   4.323   4.884   0.849 -0.5535  1.3022 -0.6137
 2230TIP3    H2 6655   4.193   4.832   0.793  0.0520 -0.8897 -0.0691
 2231TIP3   OH2 6656   0.384   4.579   2.977  0.0972 -0.8710  0.0469
 2231TIP3    H1 6657   0.337   4.536   3.048  0.2782  0.0403  0.7371
 2231TIP3    H2 6658   0.407   4.665   3.012  1.5933 -0.9959 -0.5574
 2232TIP3   OH2 6659   2.901   5.658   5.508  0.5220 -0.2662  0.3811
 2232TIP3    H1 6660   2.834   5.634   5.571  0.7153  1.8666  1.4678
 2232TIP3    H2 6661   2.867   5.627   5.424 -1.3529 -0.1120  1.0421
 2233TIP3   OH2 6662   4.955   0.267   0.764 -0.2428  0.6390 -0.0691
 2233TIP3    H1 6663   4.892   0.339   0.765 -1.2802 -0.2512 -0.1686
 2233TIP3    H2 6664   4.917   0.202   0.705  0.1721 -0.4377  0.8141
 2234TIP3   OH2 6665   1.293   3.272   4.196  0.0977 -0.6985  0.1343
 2234TIP3    H1 6666   1.257   3.356   4.225 -0.6634 -0.8170 -0.4550
 2234TIP3    H2 6667   1.383   3.292   4.171  0.0680 -0.1537  0.4511
 2235TIP3   OH2 6668   4.372   0.589   0.234 -0.2077 -0.3245  0.1943
 2235TIP3    H1 6669   4.460   0.566   0.206 -0.1468  0.6451 -0.4546
 2235TIP3    H2 6670   4.318   0.514   0.208  0.1201 -0.1338 -1.1158
 2236TIP3   OH2 6671   1.258   2.049   1.857  0.1588 -0.0712 -0.3286
 2236TIP3    H1 6672   1.225   2.126   1.904 -0.0235 -0.6707  0.5671
 2236TIP3    H2 6673   1.297   1.994   1.925  0.3259 -0.7504 -0.9535
 2237TIP3   OH2 6674   5.275   5.222   1.461  0.2030  0.1639 -0.7609
 2237TIP3    H1 6675   5.210   5.282   1.424  0.2122 -0.5918 -2.0835
 2237TIP3    H2 6676   5.338   5.279   1.505 -0.8318  0.9691 -0.2884
 2238TIP3   OH2 6677   0.531   5.845   4.848 -0.1429 -0.0837  0.0186
 2238TIP3    H1 6678   0.458   5.902   4.823 -0.1971  0.0667  0.5095
 2238TIP3    H2 6679   0.608   5.886   4.808 -0.2285  0.1500  0.0923
 2239TIP3   OH2 6680   5.971   1.887   0.689 -0.3170  0.1611  0.4720
 2239TIP3    H1 6681   5.933   1.799   0.690  1.6578 -0.7488  0.1434
 2239TIP3    H2 6682   6.010   1.897   0.776  0.1580  0.3918  0.2340
 2240TIP3   OH2 6683   3.016   4.283   4.935  0.8421 -0.2623  0.0625
 2240TIP3    H1 6684   3.056   4.197   4.922  2.8972  0.5276  0.7119
 2240TIP3    H2 6685   3.024   4.327   4.850  2.6197  0.3404  0.4944
 2241TIP3   OH2 6686   4.499   3.446   0.101 -0.5778  0.0129 -0.3421
 2241TIP3    H1 6687   4.485   3.528   0.148  0.0957 -0.5049  0.8319
 2241TIP3    H2 6688   4.477   3.378   0.165 -2.2804 -0.7476 -1.6606
 2242TIP3   OH2 6689   0.297   0.669   0.245 -0.0917  0.3884  0.7950
 2242TIP3    H1 6690   0.377   0.622   0.268  1.0058  2.5560  1.6081
 2242TIP3    H2 6691   0.250   0.680   0.328  0.2154  1.6683  0.8143
 2243TIP3   OH2 6692   0.524   2.437   5.571 -0.4923 -0.0663  0.3637
 2243TIP3    H1 6693   0.482   2.450   5.656  0.9576  3.1563  0.7492
 2243TIP3    H2 6694   0.456   2.455   5.507 -1.1260 -0.6850  0.8502
 2244TIP3   OH2 6695   4.507   3.151   5.823  0.4937 -0.0548 -0.4603
 2244TIP3    H1 6696   4.512   3.093   5.747  0.9768 -2.0932  1.0660
 2244TIP3    H2 6697   4.546   3.101   5.894  0.4777  1.9797  1.0583
 2245TIP3   OH2 6698   6.932   0.486   1.603 -0.0205  0.5852  0.5608
 2245TIP3    H1 6699   6.851   0.510   1.647  0.4612  0.3680  1.6168
 2245TIP3    H2 6700   6.924   0.392   1.588  0.0822  0.5412  0.7765
 2246TIP3   OH2 6701   1.048   1.655   0.592 -0.2971  0.2808 -0.0816
 2246TIP3    H1 6702   0.964   1.674   0.633 -0.0576 -0.7096  0.9264
 2246TIP3    H2 6703   1.098   1.608   0.659  0.5111 -0.4447 -1.1463
 2247TIP3   OH2 6704   4.065   0.690   1.561  0.5251  0.0873  0.1241
 2247TIP3    H1 6705   4.009   0.746   1.509 -0.4766 -0.5757  0.4629
 2247TIP3    H2 6706   4.122   0.750   1.609 -0.1425  0.7828  0.0545
 2248TIP3   OH2 6707   3.728   0.885   1.553 -0.1124 -0.3772 -0.2581
 2248TIP3    H1 6708   3.759   0.842   1.632  0.6653 -0.1214 -0.4206
 2248TIP3    H2 6709   3.764   0.834   1.481 -1.7842 -1.3189 -0.4889
 2249TIP3   OH2 6710   1.052   0.715   3.250 -0.0591  0.1966 -0.0451
 2249TIP3    H1 6711   1.128   0.771   3.264  0.1418  0.5599 -2.2125
 2249TIP3    H2 6712   0.998   0.764   3.189 -2.7451  0.5408  2.3808
 2250TIP3   OH2 6713   5.275   3.721   0.506 -0.1891  0.5865 -0.0866
 2250TIP3    H1 6714   5.322   3.671   0.440 -3.4711 -2.9754 -0.1041
 2250TIP3    H2 6715   5.239   3.797   0.459 -1.7266 -1.3990 -2.3516
 2251TIP3   OH2 6716   6.991   6.454   2.694  0.1861 -0.5250  1.0780
 2251TIP3    H1 6717   6.980   6.396   2.770  2.2935 -0.0588  1.7935
 2251TIP3    H2 6718   7.052   6.521   2.724 -2.8259  2.7216  0.6030
 2252TIP3   OH2 6719   0.901   0.330   3.109  0.2567  0.2812  0.2045
 2252TIP3    H1 6720   0.943   0.244   3.103 -2.6350 -1.1433 -1.5823
 2252TIP3    H2 6721   0.845   0.324   3.187 -1.4059 -0.2484 -0.9752
 2253TIP3   OH2 6722   5.435   6.040   3.419  0.3453  0.3346  0.0886
 2253TIP3    H1 6723   5.438   5.991   3.336  2.0855 -0.3186  0.4889
 2253TIP3    H2 6724   5.366   5.997   3.469  0.2402 -0.1863 -0.4871
 2254TIP3   OH2 6725   6.396   6.364   5.265  0.0817  0.2579 -0.0258
 2254TIP3    H1 6726   6.483   6.400   5.248  0.0058  0.6543  0.3916
 2254TIP3    H2 6727   6.348   6.437   5.304  0.4136 -0.7134  2.3667
 2255TIP3   OH2 6728   0.208   3.884   4.671 -0.4143  0.5642 -0.7904
 2255TIP3    H1 6729   0.221   3.854   4.581 -1.1984 -0.7948 -0.4848
 2255TIP3    H2 6730   0.182   3.805   4.718 -1.0278  1.4611  0.4075
 2256TIP3   OH2 6731   1.417   1.179   5.078  0.7366 -0.2669  0.4759
 2256TIP3    H1 6732   1.462   1.261   5.055 -0.3381  0.0633 -0.5603
 2256TIP3    H2 6733   1.435   1.121   5.004  0.3837 -0.5145  0.5833
 2257TIP3   OH2 6734   0.821   5.595   2.984  0.4575  0.2217 -0.6765
 2257TIP3    H1 6735   0.725   5.597   2.986  0.3685 -1.8415  0.9012
 2257TIP3    H2 6736   0.841   5.525   2.921  0.9815  1.2419 -1.6734
 2258TIP3   OH2 6737   4.512   6.676   0.098  0.2701  0.0686 -0.0606
 2258TIP3    H1 6738   4.571   6.652   0.027  2.3081  0.5538  1.4030
 2258TIP3    H2 6739   4.499   6.770   0.088 -1.0141 -0.1701 -0.8860
 2259TIP3   OH2 6740   1.864   5.559   5.605  0.3117 -0.0617 -0.6539
 2259TIP3    H1 6741   1.810   5.533   5.531 -1.5973 -1.5398  1.1283
 2259TIP3    H2 6742   1.934   5.494   5.609 -0.0705 -0.4762 -0.6793
 2260TIP3   OH2 6743   5.053   0.495   2.450  0.2378  0.0638 -0.5219
 2260TIP3    H1 6744   4.979   0.522   2.395  1.2222  0.0584 -1.8987
 2260TIP3    H2 6745   5.058   0.400   2.439  0.4389  0.0616 -0.4146
 2261TIP3   OH2 6746   1.041   5.022   2.410  0.0096 -0.0571 -0.6828
 2261TIP3    H1 6747   1.100   4.997   2.339  1.2285 -0.9297  0.5817
 2261TIP3    H2 6748   1.098   5.033   2.486 -1.3229  0.2347  0.3069
 2262TIP3   OH2 6749   6.616   0.669   3.753 -0.4902  0.6706  0.4538
 2262TIP3    H1 6750   6.591   0.732   3.686 -1.9630 -0.8599 -0.4967
 2262TIP3    H2 6751   6.649   0.593   3.705 -1.9493 -0.6149  1.3618
 2263TIP3   OH2 6752   2.808   3.559   3.716  0.2675 -0.2903  0.3408
 2263TIP3    H1 6753   2.879   3.496   3.710  0.5267 -0.0061  0.3897
 2263TIP3    H2 6754   2.755   3.544   3.637 -0.2627 -1.2643  0.8554
 2264TIP3   OH2 6755   1.777   2.310   2.991 -0.3169  0.2703 -0.2857
 2264TIP3    H1 6756   1.833   2.377   2.954 -0.5677 -0.0921 -1.3603
 2264TIP3    H2 6757   1.837   2.251   3.037 -0.0498  0.9649  0.2639
 2265TIP3   OH2 6758   5.122   0.800   4.169  0.0510 -0.0895  0.0022
 2265TIP3    H1 6759   5.045   0.805   4.112 -0.7976  0.1268  1.1281
 2265TIP3    H2 6760   5.168   0.882   4.153  0.6965 -0.7202 -1.5345
 2266TIP3   OH2 6761   4.605   2.459   1.959 -0.4405 -0.5935  0.0620
 2266TIP3    H1 6762   4.690   2.420   1.982  0.2639  0.7076 -0.2495
 2266TIP3    H2 6763   4.558   2.462   2.042 -0.7305 -2.5177  0.0292
 2267TIP3   OH2 6764   1.491   6.579   0.155  0.2550 -0.1786 -0.4691
 2267TIP3    H1 6765   1.442   6.615   0.229  3.1251 -1.3857  2.2582
 2267TIP3    H2 6766   1.509   6.655   0.099  0.5155  1.4076  1.6438
 2268TIP3   OH2 6767   1.279   3.385   2.275 -0.6159  0.2781 -0.1320
 2268TIP3    H1 6768   1.359   3.437   2.280  0.6648 -1.5666 -0.1988
 2268TIP3    H2 6769   1.217   3.440   2.227  1.2193  1.0778 -1.7440
 2269TIP3   OH2 6770   3.113   1.622   1.027  0.0530 -0.4211  0.2337
 2269TIP3    H1 6771   3.027   1.664   1.023  0.2061 -0.0112  1.0081
 2269TIP3    H2 6772   3.174   1.689   0.995  0.1604 -0.4948  0.2821
 2270TIP3   OH2 6773   4.853   3.686   4.358 -0.9139 -0.0493 -0.6731
 2270TIP3    H1 6774   4.944   3.717   4.350  0.0296 -2.1490  0.8864
 2270TIP3    H2 6775   4.835   3.691   4.452 -2.3971  0.1898 -0.9516
 2271TIP3   OH2 6776   3.074   6.061   1.616 -0.2479  0.1839 -0.6504
 2271TIP3    H1 6777   3.144   6.100   1.563  1.1813  0.2174  1.1743
 2271TIP3    H2 6778   3.099   5.968   1.623  0.1301  0.3747  0.7456
 2272TIP3   OH2 6779   5.335   2.070   1.469 -0.5256  0.0829 -0.3974
 2272TIP3    H1 6780   5.276   2.076   1.544  0.4702  1.8203  0.3239
 2272TIP3    H2 6781   5.406   2.013   1.498  1.1414  2.6512  1.0465
 2273TIP3   OH2 6782   4.131   3.030   1.555  0.9406  0.3623  0.6310
 2273TIP3    H1 6783   4.065   3.015   1.623 -0.6000  2.4796 -0.2717
 2273TIP3    H2 6784   4.141   2.946   1.511 -2.1776  0.2107 -0.0094
 2274TIP3   OH2 6785   6.047   0.662   4.781  0.3141 -0.2843 -0.2581
 2274TIP3    H1 6786   6.086   0.621   4.704 -0.4506 -1.0828 -0.2348
 2274TIP3    H2 6787   6.052   0.756   4.764 -0.1285 -0.4599 -1.4246
 2275TIP3   OH2 6788   2.844   1.444   2.067  0.1516 -0.3289  0.1309
 2275TIP3    H1 6789   2.886   1.361   2.046  0.9173  0.3154 -1.0139
 2275TIP3    H2 6790   2.777   1.455   1.999 -0.6308 -0.4728  0.8652
 2276TIP3   OH2 6791   5.855   2.211   2.890 -0.2372 -0.0396 -0.1544
 2276TIP3    H1 6792   5.834   2.285   2.947 -0.7562  0.4384 -0.9558
 2276TIP3    H2 6793   5.770   2.173   2.867  0.0287 -1.0314  0.4222
 2277TIP3   OH2 6794   0.349   4.931   1.874  0.2468 -0.3105  0.0894
 2277TIP3    H1 6795   0.368   4.945   1.781 -0.2470 -0.2666 -0.0068
 2277TIP3    H2 6796   0.423   4.880   1.906  0.1584 -0.7927 -0.4574
 2278TIP3   OH2 6797   2.523   4.718   0.179  0.3352  0.5838 -0.1319
 2278TIP3    H1 6798   2.493   4.781   0.114  1.1490  1.8285  0.6639
 2278TIP3    H2 6799   2.617   4.732   0.185  1.0499 -2.5232 -1.8133
 2279TIP3   OH2 6800   0.623   5.361   5.745  0.2628  0.3201  0.7689
 2279TIP3    H1 6801   0.608   5.454   5.731 -0.0060  0.5399  2.3478
 2279TIP3    H2 6802   0.668   5.357   5.830 -0.0147 -1.0014  0.8684
 2280TIP3   OH2 6803  -0.001   5.101   2.164 -0.7558  0.1158 -0.0317
 2280TIP3    H1 6804   0.006   5.106   2.259  0.3971 -1.8826  0.0340
 2280TIP3    H2 6805   0.088   5.082   2.134 -0.9603  1.3959 -1.5865
 2281TIP3   OH2 6806   7.015   1.373   0.612  0.2095  0.1473 -0.0716
 2281TIP3    H1 6807   7.001   1.298   0.554 -1.7580 -0.0885  0.6437
 2281TIP3    H2 6808   6.970   1.445   0.570 -0.4317  0.1988  0.6788
 2282TIP3   OH2 6809   0.979   2.004   5.397 -0.0513  0.0655 -0.3755
 2282TIP3    H1 6810   0.949   2.094   5.388  0.8850  0.6070  1.4309
 2282TIP3    H2 6811   0.921   1.966   5.464  0.4879 -0.2196 -0.0653
 2283TIP3   OH2 6812   2.704   3.009   0.836  0.1551  0.4337 -0.1077
 2283TIP3    H1 6813   2.752   3.046   0.762  0.5669 -0.0062 -0.0624
 2283TIP3    H2 6814   2.631   3.069   0.849  0.9091  1.3263  0.0748
 2284TIP3   OH2 6815   6.808   4.452   1.061  0.0842 -0.2580 -0.0290
 2284TIP3    H1 6816   6.783   4.365   1.031 -1.0581  0.2039 -0.4696
 2284TIP3    H2 6817   6.727   4.491   1.093  0.8876  0.0273  1.8123
 2285TIP3   OH2 6818   5.848   1.647   5.634 -0.2231 -0.7687  0.2223
 2285TIP3    H1 6819   5.754   1.639   5.616 -0.1946 -0.2228 -0.1932
 2285TIP3    H2 6820   5.869   1.737   5.609  0.1326 -0.4440  1.6010
 2286TIP3   OH2 6821   3.777   3.441   4.847 -0.4866 -0.1014 -0.0064
 2286TIP3    H1 6822   3.793   3.459   4.755  0.8090  0.6748  0.3513
 2286TIP3    H2 6823   3.733   3.520   4.880 -0.8569 -0.3370  0.0768
 2287TIP3   OH2 6824   1.131   0.224   5.565  0.1483 -0.3699  0.9014
 2287TIP3    H1 6825   1.045   0.241   5.525  0.5211 -0.3192  0.0937
 2287TIP3    H2 6826   1.178   0.307   5.556  1.3342 -1.2085 -1.4118
 2288TIP3   OH2 6827   0.117   1.254   2.979  0.8070 -0.1386 -0.9860
 2288TIP3    H1 6828   0.212   1.242   2.971  1.1294  1.8932 -0.7963
 2288TIP3    H2 6829   0.089   1.283   2.892  0.7769  1.4782 -0.4690
 2289TIP3   OH2 6830   3.154   0.897   5.748 -0.5477  0.4676 -0.2067
 2289TIP3    H1 6831   3.131   0.945   5.669  1.2009 -0.2034 -1.1869
 2289TIP3    H2 6832   3.229   0.944   5.783  0.2542 -0.6595 -0.3624
 2290TIP3   OH2 6833   2.123   4.426   4.724 -0.4233  0.0298  0.4020
 2290TIP3    H1 6834   2.138   4.391   4.812  0.4386  1.1571  0.7308
 2290TIP3    H2 6835   2.060   4.497   4.737  0.7561  1.1210  0.3489
 2291TIP3   OH2 6836   5.839   2.951   3.754  0.6918  0.2655 -0.5828
 2291TIP3    H1 6837   5.923   2.955   3.798 -0.1375 -1.4714  1.3271
 2291TIP3    H2 6838   5.796   2.873   3.790 -1.5727  0.8542 -1.7719
 2292TIP3   OH2 6839   0.358   6.345   3.430 -0.7644 -0.2396 -0.8365
 2292TIP3    H1 6840   0.385   6.296   3.508  1.7697 -1.1020 -2.1526
 2292TIP3    H2 6841   0.404   6.429   3.437 -0.5969 -0.2858 -1.3464
 2293TIP3   OH2 6842   3.713   3.603   1.372 -0.1922 -0.3536  0.1369
 2293TIP3    H1 6843   3.674   3.644   1.449  1.4564  1.1316  0.2428
 2293TIP3    H2 6844   3.717   3.510   1.394 -1.6085 -0.2454  0.9869
 2294TIP3   OH2 6845   4.507   2.943   5.224 -0.8043  0.1396  0.0810
 2294TIP3    H1 6846   4.532   3.035   5.226 -1.4920  0.3343  0.2158
 2294TIP3    H2 6847   4.577   2.900   5.176 -0.3300  0.6862  0.2710
 2295TIP3   OH2 6848   1.676   3.344   0.529  0.8189 -0.1988  0.3707
 2295TIP3    H1 6849   1.742   3.380   0.590  1.1555 -1.0704  0.5359
 2295TIP3    H2 6850   1.714   3.262   0.499  0.3133 -0.1394 -0.4467
 2296TIP3   OH2 6851   6.025   2.440   4.430  0.1465 -0.1540  0.1112
 2296TIP3    H1 6852   6.047   2.449   4.338 -0.6687 -0.8153 -0.1601
 2296TIP3    H2 6853   5.963   2.511   4.447  0.3689  0.0256  0.1782
 2297TIP3   OH2 6854   2.243   0.224   0.757  0.5431 -0.6112  0.3915
 2297TIP3    H1 6855   2.246   0.232   0.662 -1.6873 -1.2288  0.2040
 2297TIP3    H2 6856   2.170   0.280   0.783  1.1143 -0.4604  1.7463
 2298TIP3   OH2 6857   1.017   0.314   5.850 -0.7850  0.3342 -0.4285
 2298TIP3    H1 6858   0.998   0.377   5.781  1.2588  2.5212  0.8227
 2298TIP3    H2 6859   1.102   0.276   5.826 -1.0661 -0.4737 -0.1826
 2299TIP3   OH2 6860   4.871   5.386   3.240  0.5806  0.3148 -0.1268
 2299TIP3    H1 6861   4.902   5.475   3.258  0.7414  0.3767 -0.6744
 2299TIP3    H2 6862   4.947   5.342   3.201 -0.0325  0.5079 -1.5955
 2300TIP3   OH2 6863   1.213   5.968   5.415 -0.3553  0.1821 -0.0515
 2300TIP3    H1 6864   1.275   5.939   5.481 -0.6858  0.2256  0.2788
 2300TIP3    H2 6865   1.186   5.888   5.370 -2.2783 -0.2414  1.7253
 2301TIP3   OH2 6866   6.897   6.684   2.881  0.1422  0.5691 -0.3444
 2301TIP3    H1 6867   6.980   6.653   2.916 -0.2700  1.0110  1.0876
 2301TIP3    H2 6868   6.832   6.619   2.911  0.0071 -0.0314 -1.8411
 2302TIP3   OH2 6869   0.365   4.058   0.451  0.3473 -0.2665  0.3422
 2302TIP3    H1 6870   0.384   4.151   0.438 -0.0168 -0.2242  0.1022
 2302TIP3    H2 6871   0.276   4.057   0.488  0.5242 -0.4976  0.7709
 2303TIP3   OH2 6872   1.031   1.970   3.527 -0.1311 -0.0135  0.7653
 2303TIP3    H1 6873   1.112   1.937   3.565 -0.6726 -1.5333  0.6835
 2303TIP3    H2 6874   0.963   1.911   3.562 -0.8048 -0.6529 -1.4897
 2304TIP3   OH2 6875   5.756   2.469   3.439 -0.2329  0.2493  0.2369
 2304TIP3    H1 6876   5.708   2.410   3.380 -0.1550 -0.5439  0.9516
 2304TIP3    H2 6877   5.741   2.556   3.402  0.2842 -0.2738 -1.2906
 2305TIP3   OH2 6878   1.304   5.470   5.914 -0.0286  0.2060 -0.1686
 2305TIP3    H1 6879   1.301   5.413   5.837  0.6979  0.3761 -0.3286
 2305TIP3    H2 6880   1.273   5.554   5.882  2.0772  0.8117 -0.7785
 2306TIP3   OH2 6881   5.204   2.292   2.892  0.7798  0.1321  0.1709
 2306TIP3    H1 6882   5.279   2.347   2.867  1.2694 -0.2970  0.6768
 2306TIP3    H2 6883   5.141   2.305   2.822  1.0239  1.0840  0.1116
 2307TIP3   OH2 6884   0.523   6.528   5.143  0.1641  0.0357 -0.3764
 2307TIP3    H1 6885   0.544   6.567   5.228 -2.0522 -3.1929  1.9097
 2307TIP3    H2 6886   0.432   6.552   5.127  0.2903 -0.1158 -1.4031
 2308TIP3   OH2 6887   5.491   1.012   0.882  0.2708 -0.5594 -0.1114
 2308TIP3    H1 6888   5.502   0.917   0.891  2.6985 -0.3170  0.3952
 2308TIP3    H2 6889   5.581   1.046   0.887 -0.4835  1.7118 -1.0379
 2309TIP3   OH2 6890   6.782   5.171   0.084 -0.2850 -0.1168  0.2592
 2309TIP3    H1 6891   6.724   5.128   0.021 -0.3119  1.5222 -0.8912
 2309TIP3    H2 6892   6.867   5.127   0.072 -0.2963  0.1417 -0.9272
 2310TIP3   OH2 6893   5.938   3.565   0.896 -0.1933  0.2580 -0.4014
 2310TIP3    H1 6894   5.940   3.481   0.850  0.9719 -0.1881  0.4054
 2310TIP3    H2 6895   5.950   3.542   0.988 -1.5769  1.1997  0.0360
 2311TIP3   OH2 6896   1.328   6.302   1.552  0.3448 -0.0187 -0.5843
 2311TIP3    H1 6897   1.254   6.262   1.598  2.0054 -0.6676  1.6759
 2311TIP3    H2 6898   1.342   6.386   1.595  1.5472 -0.3643 -0.2558
 2312TIP3   OH2 6899   0.245   0.481   4.315  0.5559  0.0762 -0.4326
 2312TIP3    H1 6900   0.278   0.478   4.225 -1.6432  0.3776 -1.3013
 2312TIP3    H2 6901   0.183   0.408   4.320 -0.5097  1.0212  0.3470
 2313TIP3   OH2 6902   5.408   4.180   1.251 -0.4586 -0.1414  0.0813
 2313TIP3    H1 6903   5.386   4.211   1.339  0.5637 -0.7392  0.5683
 2313TIP3    H2 6904   5.487   4.127   1.264 -0.6645 -0.7573 -1.1082
 2314TIP3   OH2 6905   2.779   4.388   2.359 -0.2381  0.2112 -0.1912
 2314TIP3    H1 6906   2.725   4.332   2.416 -1.5231  0.8722 -0.7256
 2314TIP3    H2 6907   2.811   4.457   2.417  0.1322 -0.2330  0.1491
 2315TIP3   OH2 6908   4.188   3.968   3.612 -0.3002  0.3158  0.1908
 2315TIP3    H1 6909   4.165   3.994   3.523  0.9379  0.5263 -0.0872
 2315TIP3    H2 6910   4.104   3.954   3.656 -0.9419 -0.9039 -1.3243
 2316TIP3   OH2 6911   5.375   1.492   3.383 -0.1733  0.0310  0.0006
 2316TIP3    H1 6912   5.430   1.516   3.308  1.6083  1.0432  1.5562
 2316TIP3    H2 6913   5.345   1.576   3.419  0.6133 -0.3160  1.5459
 2317TIP3   OH2 6914   6.570   0.570   5.603 -0.1764  0.5460  0.3824
 2317TIP3    H1 6915   6.602   0.645   5.654 -1.1094  0.2419  1.4612
 2317TIP3    H2 6916   6.503   0.531   5.658  0.9070 -1.6442  0.2405
 2318TIP3   OH2 6917   2.995   4.549   0.997 -0.1608  0.2574  0.0895
 2318TIP3    H1 6918   2.905   4.519   0.989 -0.0655 -0.0131  0.0411
 2318TIP3    H2 6919   3.035   4.491   1.062  0.2332 -0.2118 -0.5579
 2319TIP3   OH2 6920   4.418   5.338   4.222  0.2333  0.2451  0.5641
 2319TIP3    H1 6921   4.420   5.247   4.252 -1.8059 -0.1838 -0.4089
 2319TIP3    H2 6922   4.500   5.348   4.173  1.4411 -0.4107  2.3468
 2320TIP3   OH2 6923   3.745   3.061   5.651  0.0532 -0.6233  0.2499
 2320TIP3    H1 6924   3.666   3.021   5.688  0.1668 -0.7091  0.4033
 2320TIP3    H2 6925   3.723   3.153   5.641  0.3374 -0.4035  1.4432
 2321TIP3   OH2 6926   3.307   6.100   2.604 -0.1120  0.4703 -0.5566
 2321TIP3    H1 6927   3.240   6.163   2.578 -0.8158 -0.0975 -0.1412
 2321TIP3    H2 6928   3.355   6.083   2.523  1.3119  2.9112 -0.3446
 2322TIP3   OH2 6929   3.658   1.543   1.187  0.0931  0.0604 -0.3523
 2322TIP3    H1 6930   3.604   1.557   1.110  0.0672  1.6042 -0.0933
 2322TIP3    H2 6931   3.668   1.630   1.225  1.9305 -0.3267  0.1659
 2323TIP3   OH2 6932   3.937   1.873   4.530  0.2177  0.3466  0.0786
 2323TIP3    H1 6933   3.846   1.867   4.501  0.0402 -1.3643  0.8280
 2323TIP3    H2 6934   3.950   1.966   4.550 -0.8508  0.8976 -1.5419
 2324TIP3   OH2 6935   0.962   2.918   1.608 -0.4368 -0.1079  0.0812
 2324TIP3    H1 6936   0.902   2.860   1.564  0.8073  0.4375 -2.5297
 2324TIP3    H2 6937   0.938   3.006   1.578  0.4448  0.3014  0.5162
 2325TIP3   OH2 6938   2.749   6.557   4.011 -0.2634  0.0682 -0.4017
 2325TIP3    H1 6939   2.788   6.644   4.018 -0.5269  0.0961  1.1578
 2325TIP3    H2 6940   2.765   6.516   4.096  1.1490 -2.0028 -1.5852
 2326TIP3   OH2 6941   0.242   0.161   1.164  0.0957 -0.1759  0.0473
 2326TIP3    H1 6942   0.317   0.179   1.221  0.8605 -1.0949 -0.6118
 2326TIP3    H2 6943   0.228   0.066   1.172  0.2750 -0.3442 -1.3050
 2327TIP3   OH2 6944   1.598   3.826   2.545 -0.2722  0.1084  0.2208
 2327TIP3    H1 6945   1.602   3.831   2.640 -4.6242 -2.1451  0.7633
 2327TIP3    H2 6946   1.630   3.738   2.525  0.8922  0.6705 -0.5082
 2328TIP3   OH2 6947   6.821   2.644   1.807  0.1561 -0.4162  0.8406
 2328TIP3    H1 6948   6.742   2.689   1.778  0.1181 -0.6843  0.5285
 2328TIP3    H2 6949   6.851   2.595   1.730  0.2681 -0.8252  1.1449
 2329TIP3   OH2 6950   4.529   6.098   2.995 -0.2171  0.0698 -0.3918
 2329TIP3    H1 6951   4.484   6.019   3.026  0.4744 -0.6137 -1.0818
 2329TIP3    H2 6952   4.464   6.142   2.940 -0.6446  0.0449  0.0819
 2330TIP3   OH2 6953   3.748   4.488   0.908  0.2003 -0.0138  0.2784
 2330TIP3    H1 6954   3.829   4.484   0.858  0.3638 -0.9604  0.5911
 2330TIP3    H2 6955   3.679   4.466   0.845  0.2840 -0.0586  0.2027
 2331TIP3   OH2 6956   0.617   3.062   5.232 -0.5222  0.0436 -0.2479
 2331TIP3    H1 6957   0.660   3.094   5.153 -0.5626 -2.2540 -1.2736
 2331TIP3    H2 6958   0.588   3.141   5.277  2.8270  1.6175 -0.5643
 2332TIP3   OH2 6959   4.378   1.299   4.792 -0.5294  0.4515 -0.4336
 2332TIP3    H1 6960   4.297   1.343   4.816 -1.1417  0.0090 -1.6345
 2332TIP3    H2 6961   4.390   1.233   4.861 -0.5833  1.2435  0.3567
 2333TIP3   OH2 6962   6.170   5.095   1.244 -0.4242 -0.4904 -0.1909
 2333TIP3    H1 6963   6.076   5.109   1.234 -0.6121 -1.0877  0.6180
 2333TIP3    H2 6964   6.181   5.001   1.228  0.0713 -0.3811 -0.5035
 2334TIP3   OH2 6965   2.552   0.369   2.307  0.1222 -0.4955  0.8289
 2334TIP3    H1 6966   2.597   0.450   2.284 -0.6964 -0.0339  0.7862
 2334TIP3    H2 6967   2.581   0.350   2.397 -2.5061  1.9716  2.3777
 2335TIP3   OH2 6968   3.815   3.743   4.669 -0.0979  0.5655  0.1242
 2335TIP3    H1 6969   3.800   3.740   4.764  0.9870  1.5381  0.3490
 2335TIP3    H2 6970   3.733   3.776   4.633 -0.6543 -0.1712  0.6703
 2336TIP3   OH2 6971   0.656   2.667   3.585 -0.1591 -0.6104  0.2458
 2336TIP3    H1 6972   0.720   2.738   3.587 -0.5998 -0.1608  3.0805
 2336TIP3    H2 6973   0.692   2.603   3.523  1.2355  1.1676 -0.8647
 2337TIP3   OH2 6974   2.965   1.934   5.681  0.1291  0.4247 -0.3953
 2337TIP3    H1 6975   2.880   1.899   5.706 -0.4439  0.3136 -2.3072
 2337TIP3    H2 6976   3.007   1.959   5.763 -1.5246 -0.0269  0.6171
 2338TIP3   OH2 6977   1.247   2.631   4.202 -0.1928 -0.2815  0.1555
 2338TIP3    H1 6978   1.255   2.720   4.168  0.5823 -0.5880 -0.5196
 2338TIP3    H2 6979   1.337   2.607   4.226 -0.0907 -1.4544 -1.2212
 2339TIP3   OH2 6980   7.071   1.678   3.639 -0.3928  0.3185 -0.0869
 2339TIP3    H1 6981   7.075   1.633   3.723  0.5275  1.2905  0.4214
 2339TIP3    H2 6982   7.134   1.750   3.647 -0.6061  0.6967 -1.4527
 2340TIP3   OH2 6983   5.501   4.413   3.012 -0.3345 -0.5280  0.6065
 2340TIP3    H1 6984   5.555   4.483   3.049  0.8248 -0.1104 -1.7023
 2340TIP3    H2 6985   5.411   4.446   3.020  0.0728  0.5859  0.8364
 2341TIP3   OH2 6986   3.996   2.061   2.316 -0.4372 -0.1657  0.4401
 2341TIP3    H1 6987   4.091   2.055   2.326 -0.4891 -1.1174  0.4308
 2341TIP3    H2 6988   3.974   1.990   2.257 -0.9639  1.1382 -1.0017
 2342TIP3   OH2 6989   6.203   6.154   5.251  0.0231 -0.0608  0.0553
 2342TIP3    H1 6990   6.154   6.236   5.258  0.7531  0.3415  0.5761
 2342TIP3    H2 6991   6.291   6.176   5.283  0.2461 -1.0240  0.1239
 2343TIP3   OH2 6992   3.364   6.497   0.771 -0.2836 -0.5834  0.3849
 2343TIP3    H1 6993   3.396   6.582   0.741 -1.3171 -0.4076 -0.2582
 2343TIP3    H2 6994   3.417   6.434   0.722 -0.1212 -0.3073  0.2005
 2344TIP3   OH2 6995   3.819   5.881   3.496  0.6023  0.0842 -0.4552
 2344TIP3    H1 6996   3.723   5.871   3.491  0.3211  1.8167  0.6573
 2344TIP3    H2 6997   3.842   5.931   3.418  1.2358 -3.6143 -2.8971
 2345TIP3   OH2 6998   7.154   3.490   4.508  0.5947  0.0750 -0.1733
 2345TIP3    H1 6999   7.076   3.519   4.555  1.5529 -1.7784  2.8695
 2345TIP3    H2 7000   7.134   3.505   4.416 -3.5102 -0.7040  0.4103
 2346TIP3   OH2 7001   3.876   3.682   1.648  0.1376 -0.6055  0.0261
 2346TIP3    H1 7002   3.786   3.653   1.659  0.1064 -0.8726 -0.9128
 2346TIP3    H2 7003   3.876   3.772   1.681 -1.3680  0.7864 -3.3681
 2347TIP3   OH2 7004   1.864   0.625   1.682  0.0966 -0.0076 -0.1669
 2347TIP3    H1 7005   1.940   0.571   1.707  0.8207  1.9886  2.3028
 2347TIP3    H2 7006   1.831   0.659   1.765 -3.6709 -0.8640 -1.1364
 2348TIP3   OH2 7007   2.243   2.740   0.867 -0.4274 -0.5765  0.3379
 2348TIP3    H1 7008   2.312   2.755   0.803 -0.5944  1.2767  0.5272
 2348TIP3    H2 7009   2.164   2.724   0.814 -0.2903 -0.4478  0.0929
 2349TIP3   OH2 7010   3.556   0.063   3.395 -0.2456 -0.4225 -0.0582
 2349TIP3    H1 7011   3.602   0.095   3.317  1.5691  0.1109  1.1930
 2349TIP3    H2 7012   3.616  -0.000   3.434 -0.2807  0.7150  1.9436
 2350TIP3   OH2 7013   3.794   6.092   4.969 -0.3674 -0.4177 -0.5469
 2350TIP3    H1 7014   3.881   6.071   4.936  0.5743  0.8583  0.9717
 2350TIP3    H2 7015   3.775   6.179   4.933 -0.4565 -0.1490  0.1341
 2351TIP3   OH2 7016   1.782   0.137   3.032 -0.3956 -0.1414  0.6365
 2351TIP3    H1 7017   1.822   0.212   3.075  0.7353  0.1769 -0.8851
 2351TIP3    H2 7018   1.829   0.061   3.067  1.2578  0.1924 -0.7515
 2352TIP3   OH2 7019   2.941   0.269   1.982  0.2567  0.1757  0.1372
 2352TIP3    H1 7020   2.988   0.188   2.002  2.0556  0.6802 -1.7005
 2352TIP3    H2 7021   2.874   0.243   1.920 -0.5189 -0.1952  1.1003
 2353TIP3   OH2 7022   4.387   1.066   4.930  0.2513  0.1889  0.4189
 2353TIP3    H1 7023   4.371   0.982   4.887  2.0415  0.4810 -0.9439
 2353TIP3    H2 7024   4.435   1.043   5.010 -0.8121 -0.1762  0.9733
 2354TIP3   OH2 7025   2.796   1.170   3.095 -0.6385  0.4754 -0.0371
 2354TIP3    H1 7026   2.727   1.205   3.038 -0.6705 -0.8927 -0.8799
 2354TIP3    H2 7027   2.869   1.152   3.035 -0.5350 -0.6367  0.4176
 2355TIP3   OH2 7028   5.151   5.544   4.463 -0.3582 -0.2222 -0.2318
 2355TIP3    H1 7029   5.160   5.482   4.535  0.5286 -0.3384 -0.4224
 2355TIP3    H2 7030   5.184   5.627   4.498 -1.7516  0.2190  0.0955
 2356TIP3   OH2 7031   5.637   3.764   5.678  0.7148  0.2188  0.2605
 2356TIP3    H1 7032   5.659   3.724   5.594  3.3092  0.7590  0.5856
 2356TIP3    H2 7033   5.581   3.838   5.655  0.0804 -0.5750 -0.8223
 2357TIP3   OH2 7034   4.241   1.069   3.834  0.0120  0.1460 -0.3234
 2357TIP3    H1 7035   4.230   1.000   3.768  0.5184 -0.1167 -0.1348
 2357TIP3    H2 7036   4.298   1.134   3.793  0.4008 -0.0604 -0.1176
 2358TIP3   OH2 7037   2.568   5.968   3.983 -1.0269  0.0204 -0.3661
 2358TIP3    H1 7038   2.619   5.895   4.018 -0.5168  0.7419  0.4327
 2358TIP3    H2 7039   2.507   5.991   4.053 -0.3797  1.1182 -0.1504
 2359TIP3   OH2 7040   4.278   6.130   5.803 -0.3858  0.5538  0.4152
 2359TIP3    H1 7041   4.191   6.145   5.839 -1.6064  0.6034 -2.3522
 2359TIP3    H2 7042   4.290   6.199   5.738 -0.2611 -2.0388 -2.5435
 2360TIP3   OH2 7043   5.185   0.857   1.122 -0.1931  0.3419  0.1542
 2360TIP3    H1 7044   5.094   0.865   1.095 -0.3726 -1.4365  0.0824
 2360TIP3    H2 7045   5.192   0.768   1.157  1.7618  0.0345 -0.8609
 2361TIP3   OH2 7046   4.467   5.041   4.076 -0.6203 -0.3759  0.1828
 2361TIP3    H1 7047   4.488   5.096   4.000 -2.5994 -1.3775 -1.1911
 2361TIP3    H2 7048   4.548   5.037   4.126 -0.0937  2.9038 -0.1937
 2362TIP3   OH2 7049   3.352   2.978   5.623  0.2221 -0.0040  0.5058
 2362TIP3    H1 7050   3.266   2.939   5.612 -0.4504  1.2413  1.2075
 2362TIP3    H2 7051   3.413   2.906   5.606 -0.9122 -0.7091 -0.7763
 2363TIP3   OH2 7052   5.814   0.706   2.094 -0.1303 -0.5127  0.0322
 2363TIP3    H1 7053   5.855   0.622   2.115  0.4418 -0.3220 -0.2982
 2363TIP3    H2 7054   5.721   0.685   2.081 -0.0978 -0.9927  0.5364
 2364TIP3   OH2 7055   2.221   3.563   1.686  0.4673  0.5195 -0.1048
 2364TIP3    H1 7056   2.171   3.625   1.739 -0.0433  0.2595 -0.2730
 2364TIP3    H2 7057   2.158   3.530   1.622  0.8550  0.1737 -0.3147
 2365TIP3   OH2 7058   6.253   6.383   2.295  0.4394 -0.2318 -0.2630
 2365TIP3    H1 7059   6.290   6.303   2.256  1.9752  0.9743 -1.3957
 2365TIP3    H2 7060   6.304   6.454   2.257 -2.0101  1.4597 -0.5907
 2366TIP3   OH2 7061   0.152   4.839   3.106  0.1066  0.2578  0.1553
 2366TIP3    H1 7062   0.113   4.927   3.098  0.7159  0.4532 -0.7490
 2366TIP3    H2 7063   0.244   4.852   3.084 -0.0371 -0.8181 -1.1530
 2367TIP3   OH2 7064   0.983   1.830   3.271  0.1722 -0.2285  0.1529
 2367TIP3    H1 7065   0.980   1.908   3.326  0.6306 -0.4435  0.4902
 2367TIP3    H2 7066   0.973   1.757   3.333 -0.0271 -0.4462 -0.1338
 2368TIP3   OH2 7067   7.105   5.519   1.565  0.3208  0.0521 -0.2239
 2368TIP3    H1 7068   7.046   5.446   1.549  0.1309 -0.0306  0.7870
 2368TIP3    H2 7069   7.182   5.479   1.605  1.4372  0.0505 -2.2270
 2369TIP3   OH2 7070   2.323   1.185   0.127 -0.1769 -0.3584  0.0346
 2369TIP3    H1 7071   2.403   1.188   0.074  0.0683  1.8401  0.4307
 2369TIP3    H2 7072   2.353   1.151   0.212 -0.2277 -2.1448 -0.6229
 2370TIP3   OH2 7073   0.988   3.642   3.847 -0.0294  0.8151  0.3375
 2370TIP3    H1 7074   1.054   3.708   3.830 -0.6055  0.8816 -1.9981
 2370TIP3    H2 7075   0.942   3.631   3.763 -1.2541 -1.1016  1.1712
 2371TIP3   OH2 7076   6.967   0.174   3.167  0.1960 -0.0384 -0.2618
 2371TIP3    H1 7077   6.986   0.081   3.152  0.2865  0.0886 -0.9769
 2371TIP3    H2 7078   6.928   0.176   3.254  1.2838 -0.5986  0.2671
 2372TIP3   OH2 7079   0.038   4.638   0.941  0.1100 -0.2364  0.4296
 2372TIP3    H1 7080  -0.029   4.630   0.873 -0.2413 -0.4517  0.7974
 2372TIP3    H2 7081   0.042   4.552   0.981  0.4451 -0.1600  0.5644
 2373TIP3   OH2 7082   3.496   0.907   2.958 -0.1273  0.1732 -0.5874
 2373TIP3    H1 7083   3.574   0.893   3.012 -1.2300 -0.3839  0.9639
 2373TIP3    H2 7084   3.494   1.001   2.941  0.3371  0.3474  0.2594
 2374TIP3   OH2 7085   4.188   5.500   0.921  0.1130  0.2703  0.7704
 2374TIP3    H1 7086   4.226   5.557   0.855  0.2417  0.2706  0.8428
 2374TIP3    H2 7087   4.144   5.431   0.872  0.8294 -0.1388  0.6801
 2375TIP3   OH2 7088   4.564   1.892   1.446  0.1022  0.5393 -0.1590
 2375TIP3    H1 7089   4.547   1.986   1.451  1.3556  0.7920 -0.3135
 2375TIP3    H2 7090   4.516   1.864   1.368 -0.9523  0.8743  0.3446
 2376TIP3   OH2 7091   4.562   4.172   0.446 -0.3243  0.6496  0.7709
 2376TIP3    H1 7092   4.504   4.182   0.371  1.2310  0.1797 -0.5563
 2376TIP3    H2 7093   4.586   4.262   0.470 -1.6732  0.8623  1.4571
 2377TIP3   OH2 7094   1.211   4.067   2.889  0.0003  0.3025 -0.0226
 2377TIP3    H1 7095   1.253   4.075   2.803  0.5523  2.2449  0.3814
 2377TIP3    H2 7096   1.239   3.981   2.921  0.0584 -0.3173 -1.6183
 2378TIP3   OH2 7097   2.563   0.690   3.333 -0.0788 -0.0321  0.4907
 2378TIP3    H1 7098   2.489   0.752   3.333  0.1690  0.2880  1.5597
 2378TIP3    H2 7099   2.562   0.653   3.421  0.9836 -0.0835  0.4841
 2379TIP3   OH2 7100   0.517   5.693   2.975  0.0204 -0.5508  0.1754
 2379TIP3    H1 7101   0.508   5.672   2.882  1.2793 -0.9350  0.1261
 2379TIP3    H2 7102   0.468   5.775   2.985 -0.7985 -0.9138 -0.6461
 2380TIP3   OH2 7103   5.537   2.461   4.773  0.3267 -0.7058  0.4272
 2380TIP3    H1 7104   5.519   2.481   4.865 -3.5294 -1.4507  0.0127
 2380TIP3    H2 7105   5.514   2.369   4.764 -0.1995 -0.4230 -1.4428
 2381TIP3   OH2 7106   6.753   6.266   0.503 -0.3884 -0.4845  0.5060
 2381TIP3    H1 7107   6.814   6.194   0.518  1.8631  0.6630 -2.1291
 2381TIP3    H2 7108   6.711   6.244   0.420  0.2859  1.1060 -0.3105
 2382TIP3   OH2 7109   1.175   1.505   4.860  0.2814 -0.8372  0.2553
 2382TIP3    H1 7110   1.218   1.531   4.941 -0.7384  0.9262  0.2813
 2382TIP3    H2 7111   1.138   1.418   4.879 -0.8833 -0.0015  2.0694
 2383TIP3   OH2 7112   6.014   0.643   0.667 -0.1730  0.2940  0.2068
 2383TIP3    H1 7113   6.059   0.578   0.721 -0.9962 -0.2376  0.2846
 2383TIP3    H2 7114   6.043   0.727   0.700  1.1637 -0.0260 -0.1031
 2384TIP3   OH2 7115   4.756   3.668   2.728  0.1280  0.3964 -0.5072
 2384TIP3    H1 7116   4.834   3.613   2.715  0.0960 -0.0519  1.0056
 2384TIP3    H2 7117   4.773   3.714   2.810 -0.6976  1.2097 -0.7791
 2385TIP3   OH2 7118   1.521   4.147   3.364  0.8387  0.5182 -0.1565
 2385TIP3    H1 7119   1.466   4.151   3.443  0.8776  1.6807 -0.1761
 2385TIP3    H2 7120   1.459   4.153   3.291  0.3727 -4.0710 -0.4425
 2386TIP3   OH2 7121   4.921   4.504   2.099  0.2173 -0.1275 -0.3578
 2386TIP3    H1 7122   4.900   4.412   2.087 -0.2971 -0.0900  0.1875
 2386TIP3    H2 7123   4.860   4.534   2.166 -0.2113  0.8186 -1.1361
 2387TIP3   OH2 7124   6.174   5.584   3.607  0.1042  0.6515 -0.3840
 2387TIP3    H1 7125   6.103   5.636   3.643 -0.2456 -0.0201 -0.0877
 2387TIP3    H2 7126   6.191   5.623   3.521 -1.9198 -0.3236 -1.3079
 2388TIP3   OH2 7127   5.043   1.119   3.702 -0.2739 -0.0346 -0.0619
 2388TIP3    H1 7128   4.958   1.118   3.746  0.1860  0.8010  0.9170
 2388TIP3    H2 7129   5.023   1.110   3.609 -1.5602  1.7122 -0.0039
 2389TIP3   OH2 7130   2.746   0.715   1.319  0.1700  0.2240  0.3318
 2389TIP3    H1 7131   2.692   0.711   1.397 -0.7595 -1.8736 -0.3677
 2389TIP3    H2 7132   2.688   0.690   1.247  1.4226  0.4628 -0.8193
 2390TIP3   OH2 7133   0.671   4.479   0.800 -0.4634  0.2257 -0.5972
 2390TIP3    H1 7134   0.695   4.513   0.887  1.7129  1.5209 -1.6276
 2390TIP3    H2 7135   0.603   4.414   0.818  0.3904 -0.0421  2.1560
 2391TIP3   OH2 7136   4.478   4.736   3.826  0.3660 -0.0781  0.0236
 2391TIP3    H1 7137   4.465   4.793   3.751 -0.7079  2.4043  1.9327
 2391TIP3    H2 7138   4.393   4.734   3.870  1.3827  0.2054  2.1872
 2392TIP3   OH2 7139   1.374   2.688   0.958  0.1471 -0.2099 -0.2869
 2392TIP3    H1 7140   1.375   2.608   0.904  0.0869 -0.4593  0.0737
 2392TIP3    H2 7141   1.281   2.705   0.974  0.1835 -0.4938  0.2513
 2393TIP3   OH2 7142   1.579   5.860   2.389 -0.0815 -0.2993 -0.3274
 2393TIP3    H1 7143   1.587   5.773   2.350 -1.1805 -0.7100  0.3218
 2393TIP3    H2 7144   1.665   5.877   2.428 -0.4081 -1.9238  1.2066
 2394TIP3   OH2 7145   5.663   5.776   4.824 -0.4867  0.4975  0.8116
 2394TIP3    H1 7146   5.658   5.719   4.900 -2.3748  1.3441  1.3710
 2394TIP3    H2 7147   5.655   5.865   4.859  0.9386  1.0572 -0.1803
 2395TIP3   OH2 7148   6.541   2.323   4.859  0.4050 -0.3551 -0.7522
 2395TIP3    H1 7149   6.561   2.335   4.952 -1.0852  0.4097 -0.5001
 2395TIP3    H2 7150   6.531   2.411   4.824  2.4416 -0.5679 -2.0332
 2396TIP3   OH2 7151   2.025   6.697   1.835  0.3313 -0.2390 -0.4525
 2396TIP3    H1 7152   2.089   6.764   1.812 -0.0946  0.1854 -0.4099
 2396TIP3    H2 7153   1.976   6.734   1.908  1.3683 -1.3914  0.8945
 2397TIP3   OH2 7154   7.128   0.483   4.058 -0.4651 -0.2697  0.1637
 2397TIP3    H1 7155   7.137   0.405   4.113 -1.2875 -1.0345 -0.7463
 2397TIP3    H2 7156   7.059   0.535   4.100 -1.6850 -1.2506 -0.5517
 2398TIP3   OH2 7157   2.620   1.137   5.057 -0.5197 -0.0063 -0.5494
 2398TIP3    H1 7158   2.699   1.127   5.111 -1.5896  0.6485  1.2332
 2398TIP3    H2 7159   2.584   1.048   5.052  0.0297 -0.2135 -0.8996
 2399TIP3   OH2 7160   1.161   4.899   3.668  0.2904 -0.6494  0.2020
 2399TIP3    H1 7161   1.195   4.969   3.612  0.0968 -0.1638  0.6849
 2399TIP3    H2 7162   1.235   4.874   3.723  0.1411 -0.2504  0.5943
 2400TIP3   OH2 7163   4.959   1.181   0.427  0.1948  0.0666 -0.0132
 2400TIP3    H1 7164   5.028   1.248   0.426  0.7458 -0.5024 -0.8265
 2400TIP3    H2 7165   4.878   1.231   0.436  0.7206  0.7251  1.3341
 2401TIP3   OH2 7166   2.015   1.666   5.101  0.6573  0.6345 -0.6949
 2401TIP3    H1 7167   2.063   1.730   5.048  0.4113  1.1995 -0.2415
 2401TIP3    H2 7168   2.083   1.616   5.145  0.8394  1.6053  0.1500
 2402TIP3   OH2 7169   5.813   6.234   5.660 -0.0407 -0.0129 -1.1976
 2402TIP3    H1 7170   5.740   6.256   5.719 -1.0632  0.9007 -2.7428
 2402TIP3    H2 7171   5.785   6.266   5.575  2.0289 -0.0148 -1.9165
 2403TIP3   OH2 7172   2.334   3.482   3.344 -0.5846  0.2885 -0.3635
 2403TIP3    H1 7173   2.351   3.429   3.422 -1.0753  0.3286 -0.2205
 2403TIP3    H2 7174   2.415   3.480   3.294  0.8905  2.8826  1.6565
 2404TIP3   OH2 7175   6.890   1.481   3.456  0.2021  0.1728 -0.4673
 2404TIP3    H1 7176   6.900   1.386   3.451 -1.1019 -0.4896  4.1641
 2404TIP3    H2 7177   6.796   1.494   3.467  0.1005  2.3047 -2.9558
 2405TIP3   OH2 7178   3.454   4.492   0.028 -0.2411  0.1552  0.3470
 2405TIP3    H1 7179   3.528   4.432   0.021  1.8658  2.3993  1.6819
 2405TIP3    H2 7180   3.384   4.450  -0.023  1.8106 -2.2227 -0.7413
 2406TIP3   OH2 7181   5.464   5.014   0.259  0.6648 -0.1540  0.1439
 2406TIP3    H1 7182   5.402   4.956   0.216  0.4480  0.2071 -0.0442
 2406TIP3    H2 7183   5.549   4.970   0.252  0.0988 -1.7869  2.4521
 2407TIP3   OH2 7184   5.827   0.067   5.593  0.0191  0.4894  0.0235
 2407TIP3    H1 7185   5.814   0.102   5.505 -0.6009 -1.4167 -0.6915
 2407TIP3    H2 7186   5.841   0.145   5.648  0.1918  1.7346 -1.6937
 2408TIP3   OH2 7187   6.605   4.336   5.054 -0.7464 -0.2816  0.1199
 2408TIP3    H1 7188   6.611   4.428   5.031 -1.0024 -0.3129 -0.0747
 2408TIP3    H2 7189   6.595   4.335   5.149  1.1945 -0.1814  0.3609
 2409TIP3   OH2 7190   4.813   4.763   3.601 -0.2450  0.0859  0.1344
 2409TIP3    H1 7191   4.880   4.744   3.536  0.1158 -0.1971  0.5862
 2409TIP3    H2 7192   4.834   4.706   3.675 -0.4952  0.5938  0.6042
 2410TIP3   OH2 7193   6.237   1.584   1.010  0.5296  0.0195 -0.0586
 2410TIP3    H1 7194   6.298   1.637   1.060  0.7470  1.4110 -1.7133
 2410TIP3    H2 7195   6.278   1.498   1.005  1.4376  0.4187  0.4614
 2411TIP3   OH2 7196   2.443   0.501   1.016  0.5142  0.5703 -0.1321
 2411TIP3    H1 7197   2.438   0.468   0.926  0.2068 -0.2896  0.2015
 2411TIP3    H2 7198   2.402   0.434   1.070  1.7358  0.5197  0.8004
 2412TIP3   OH2 7199   6.572   6.613   3.405  0.0090  0.3384 -0.0495
 2412TIP3    H1 7200   6.542   6.533   3.448  0.5946 -0.8857 -1.8023
 2412TIP3    H2 7201   6.632   6.653   3.467 -0.2233 -0.6261  0.8212
 2413TIP3   OH2 7202   2.501   4.152   3.988 -0.4334 -0.0402  0.5373
 2413TIP3    H1 7203   2.547   4.216   4.041 -2.0198  1.4075  0.2481
 2413TIP3    H2 7204   2.522   4.175   3.898 -2.1177  1.0109  0.3766
 2414TIP3   OH2 7205   3.466   0.808   5.476  0.1140  0.0562  0.6653
 2414TIP3    H1 7206   3.558   0.799   5.500  0.9221  1.3778 -1.6766
 2414TIP3    H2 7207   3.443   0.897   5.503  0.1301  0.4421 -0.5592
 2415TIP3   OH2 7208   6.019   6.614   4.369 -0.1510  0.0771 -0.0088
 2415TIP3    H1 7209   6.025   6.519   4.370  1.1287  0.1434  0.0193
 2415TIP3    H2 7210   6.040   6.639   4.279  0.9391  0.3945  0.3189
 2416TIP3   OH2 7211   1.025   5.171   4.452  0.0158 -0.6061 -0.1191
 2416TIP3    H1 7212   0.954   5.107   4.456 -2.1722  1.6151 -0.8974
 2416TIP3    H2 7213   1.058   5.165   4.363 -2.3340  1.3692 -1.2342
 2417TIP3   OH2 7214   1.425   6.169   1.816 -0.1671 -0.1722  0.0314
 2417TIP3    H1 7215   1.419   6.259   1.784  0.3665 -0.0707  0.2222
 2417TIP3    H2 7216   1.436   6.178   1.911 -0.8830 -0.4575  0.1530
 2418TIP3   OH2 7217   1.248   0.257   2.177 -0.0025 -0.1610 -0.0091
 2418TIP3    H1 7218   1.291   0.273   2.261  0.2953  2.6488 -0.5721
 2418TIP3    H2 7219   1.317   0.221   2.121 -0.2859 -2.3561  0.9640
 2419TIP3   OH2 7220   3.283   2.380   3.073  0.5659 -0.5757  0.2289
 2419TIP3    H1 7221   3.211   2.319   3.057  1.7105 -2.4364  1.6660
 2419TIP3    H2 7222   3.359   2.323   3.090  2.2188  1.2943 -0.5296
 2420TIP3   OH2 7223   5.893   2.065   5.652  0.9062  0.0185 -0.1500
 2420TIP3    H1 7224   5.897   1.998   5.585  1.1423  0.2532 -0.3722
 2420TIP3    H2 7225   5.799   2.082   5.663  0.7739 -1.1186  0.6911
 2421TIP3   OH2 7226   3.007   4.463   4.421  0.2063 -0.0331 -0.0085
 2421TIP3    H1 7227   3.064   4.529   4.381  0.2910 -0.4950 -0.6521
 2421TIP3    H2 7228   3.018   4.385   4.367  0.7915 -0.8625  1.2690
 2422TIP3   OH2 7229   4.272   5.382   4.480 -0.3107  0.2126 -0.2981
 2422TIP3    H1 7230   4.309   5.382   4.392  0.4533 -0.6885  0.0192
 2422TIP3    H2 7231   4.337   5.426   4.534  0.0492 -0.8356  0.1460
 2423TIP3   OH2 7232   0.486   5.845   5.445  0.5490  0.5309 -0.0052
 2423TIP3    H1 7233   0.450   5.772   5.395  1.6695 -0.8973  1.1966
 2423TIP3    H2 7234   0.443   5.922   5.408 -1.7755 -0.8309 -0.3197
 2424TIP3   OH2 7235   4.066   2.912   3.572 -0.2673  0.1955 -0.3955
 2424TIP3    H1 7236   4.073   2.876   3.483 -0.8979 -0.2669 -0.2659
 2424TIP3    H2 7237   3.986   2.963   3.571 -1.0035 -0.9065  0.2714
 2425TIP3   OH2 7238   6.177   2.136   1.322  0.1454 -0.2850 -0.6176
 2425TIP3    H1 7239   6.180   2.049   1.282  0.3283 -0.0808 -1.0479
 2425TIP3    H2 7240   6.152   2.194   1.251 -1.5623 -0.1853  0.0011
 2426TIP3   OH2 7241   4.232   6.626   2.712  0.3064  0.3831  0.0187
 2426TIP3    H1 7242   4.306   6.572   2.685  0.8688  0.8057  0.7121
 2426TIP3    H2 7243   4.155   6.576   2.683  0.8471 -0.0932 -0.6360
 2427TIP3   OH2 7244   4.995   5.496   2.976  0.3829 -0.1911  0.4301
 2427TIP3    H1 7245   4.993   5.582   3.019  3.0187 -0.6633  1.7286
 2427TIP3    H2 7246   5.071   5.500   2.918 -0.4282 -1.1409 -0.7609
 2428TIP3   OH2 7247   5.928   6.452   4.642  0.0571  0.3118 -0.2876
 2428TIP3    H1 7248   5.918   6.393   4.716 -1.8658 -0.1383 -0.8735
 2428TIP3    H2 7249   5.996   6.514   4.670 -2.3674  1.7924  2.9578
 2429TIP3   OH2 7250   3.252   2.601   0.382 -0.1659 -0.1858  0.6376
 2429TIP3    H1 7251   3.294   2.517   0.397  0.3624  0.1279  0.9665
 2429TIP3    H2 7252   3.313   2.649   0.326 -1.5547 -0.8832 -1.6296
 2430TIP3   OH2 7253   2.500   6.384   4.231  0.3867 -0.0384  0.0173
 2430TIP3    H1 7254   2.446   6.430   4.167  0.5607  0.0750 -0.0483
 2430TIP3    H2 7255   2.449   6.387   4.312  0.1901 -0.1344 -0.1004
 2431TIP3   OH2 7256   2.377   4.002   0.044 -0.0967  0.4091 -0.3686
 2431TIP3    H1 7257   2.432   4.077   0.068  0.0450  0.1954 -0.0103
 2431TIP3    H2 7258   2.300   4.040   0.002  0.4929  0.7002 -1.2238
 2432TIP3   OH2 7259   7.068   1.911   3.294 -0.1022 -0.9502 -0.2361
 2432TIP3    H1 7260   7.012   1.836   3.308 -0.8826 -0.2467  0.5050
 2432TIP3    H2 7261   7.027   1.959   3.222  0.1207 -0.9688 -0.3782
 2433TIP3   OH2 7262   6.173   0.335   5.704  0.0901 -0.0362  0.2477
 2433TIP3    H1 7263   6.123   0.313   5.782  1.6736 -2.1979  0.7386
 2433TIP3    H2 7264   6.264   0.323   5.729  0.7198  0.5190 -1.5736
 2434TIP3   OH2 7265   3.082   0.425   3.003  0.7836  0.2744 -0.1122
 2434TIP3    H1 7266   3.102   0.518   3.005 -0.8298  0.6535  2.0964
 2434TIP3    H2 7267   3.069   0.405   2.910  2.8326  1.8190 -0.7898
 2435TIP3   OH2 7268   2.958   1.360   2.343 -0.1972  0.0758  0.7543
 2435TIP3    H1 7269   2.985   1.450   2.356 -1.7420  0.8456 -0.8700
 2435TIP3    H2 7270   2.991   1.337   2.256  1.2482 -1.3913  1.6269
 2436TIP3   OH2 7271   4.915   4.528   0.044 -0.0412  0.4186  0.1166
 2436TIP3    H1 7272   4.931   4.524  -0.051  0.5864 -0.3646  0.2452
 2436TIP3    H2 7273   4.984   4.585   0.077  2.0298 -2.1359  0.5352
 2437TIP3   OH2 7274   4.279   5.111   5.281  0.0758 -0.3620 -0.1229
 2437TIP3    H1 7275   4.295   5.020   5.304 -0.1873 -1.1518 -2.7748
 2437TIP3    H2 7276   4.364   5.154   5.292  0.4770 -1.1734  0.0050
 2438TIP3   OH2 7277   0.173   5.870   0.801  0.0305 -0.0369 -0.4581
 2438TIP3    H1 7278   0.234   5.879   0.874  0.5299 -1.3469 -0.6979
 2438TIP3    H2 7279   0.227   5.875   0.723 -0.8652  5.9154 -1.1705
 2439TIP3   OH2 7280   1.294   5.998   4.430 -0.0499 -0.8101  0.2862
 2439TIP3    H1 7281   1.288   5.930   4.363  0.7084 -0.8201  0.2202
 2439TIP3    H2 7282   1.383   5.991   4.464 -0.3617 -0.6848  1.1742
 2440TIP3   OH2 7283   3.522   1.162   2.853  0.3818 -0.2241  0.1113
 2440TIP3    H1 7284   3.478   1.246   2.839  1.4918  0.3257 -0.2538
 2440TIP3    H2 7285   3.615   1.185   2.858  0.6228 -1.3038  1.1044
 2441TIP3   OH2 7286   1.250   0.051   2.936  0.3772  0.2463  0.4552
 2441TIP3    H1 7287   1.252  -0.045   2.927 -0.7180  0.3352 -1.1184
 2441TIP3    H2 7288   1.339   0.074   2.963  0.7265 -1.1894  0.6477
 2442TIP3   OH2 7289   0.470   4.956   4.373 -0.0269  0.3881  0.2975
 2442TIP3    H1 7290   0.398   4.980   4.315 -0.5725  0.2529  0.9141
 2442TIP3    H2 7291   0.547   4.958   4.316 -0.4109  1.1854 -0.2250
 2443TIP3   OH2 7292   2.834   0.213   2.770 -0.0029  0.0018  0.0369
 2443TIP3    H1 7293   2.887   0.144   2.731  0.3234  0.3954 -0.2319
 2443TIP3    H2 7294   2.773   0.168   2.828 -0.4128 -0.5836 -0.8355
 2444TIP3   OH2 7295   1.425   0.409   3.050 -0.3442 -0.3491 -0.1322
 2444TIP3    H1 7296   1.333   0.400   3.074 -0.1668 -1.3562  0.2540
 2444TIP3    H2 7297   1.435   0.501   3.026 -0.7550  0.5513  2.7394
 2445TIP3   OH2 7298   2.596   2.616   5.281 -0.2163 -0.5351 -0.6946
 2445TIP3    H1 7299   2.554   2.629   5.365  0.7301 -0.0215 -0.2740
 2445TIP3    H2 7300   2.563   2.687   5.226  2.2322  1.7533  0.5251
 2446TIP3   OH2 7301   3.456   6.450   4.342 -0.6773  0.6873  0.1250
 2446TIP3    H1 7302   3.382   6.500   4.306  0.2674  1.1977 -1.2209
 2446TIP3    H2 7303   3.416   6.381   4.394 -2.1374  0.5200 -1.1427
 2447TIP3   OH2 7304   3.986   6.344   4.469 -0.0053 -0.0886 -0.2549
 2447TIP3    H1 7305   3.915   6.329   4.531  1.1041 -0.1797  1.0276
 2447TIP3    H2 7306   3.970   6.433   4.436 -0.0370  0.3644  0.9459
 2448TIP3   OH2 7307   4.276   3.447   4.684  0.5240  0.0993  0.4624
 2448TIP3    H1 7308   4.352   3.504   4.671  1.8446 -1.7959 -0.6843
 2448TIP3    H2 7309   4.275   3.391   4.607 -1.8099 -0.2449  0.6717
 2449TIP3   OH2 7310   6.027   4.342   2.791  0.2686 -0.3068  0.4168
 2449TIP3    H1 7311   6.010   4.271   2.853  0.4615  0.2753  1.1625
 2449TIP3    H2 7312   6.053   4.298   2.710  0.2961 -1.0840  0.8382
 2450TIP3   OH2 7313   4.185   4.660   3.313  0.6394  0.0592 -0.1446
 2450TIP3    H1 7314   4.134   4.724   3.362  0.1753  0.1821 -0.7751
 2450TIP3    H2 7315   4.234   4.712   3.250  1.3564 -0.0837  0.2896
 2451TIP3   OH2 7316   6.850   2.922   0.894  0.1092 -0.2247  0.0162
 2451TIP3    H1 7317   6.835   2.830   0.871 -1.7139  0.1578 -0.4551
 2451TIP3    H2 7318   6.764   2.963   0.888  0.9160  1.5696  0.0649
 2452TIP3   OH2 7319   5.334   5.606   0.253  0.0844 -0.0171 -0.4980
 2452TIP3    H1 7320   5.415   5.626   0.207  1.8037  0.9287  2.6943
 2452TIP3    H2 7321   5.297   5.692   0.275 -0.9630 -0.4510 -0.4766
 2453TIP3   OH2 7322   0.073   5.779   2.471 -0.0328 -0.1208  0.1822
 2453TIP3    H1 7323   0.048   5.846   2.534 -0.8696 -1.3735  1.2207
 2453TIP3    H2 7324   0.003   5.779   2.406  0.6757  0.9587 -0.6032
 2454TIP3   OH2 7325   1.348   4.279   0.172 -0.1255 -0.0599 -0.1425
 2454TIP3    H1 7326   1.364   4.192   0.134  0.1206 -0.6751  1.2993
 2454TIP3    H2 7327   1.430   4.326   0.161  0.4224 -0.7363  0.8788
 2455TIP3   OH2 7328   4.053   5.547   3.657 -0.0080 -1.4336 -0.1122
 2455TIP3    H1 7329   4.015   5.478   3.711  0.8195 -0.5408  1.7256
 2455TIP3    H2 7330   4.135   5.570   3.702 -0.7159  1.3711 -0.0873
 2456TIP3   OH2 7331   3.271   1.157   0.921  0.1338 -0.3839 -0.6025
 2456TIP3    H1 7332   3.182   1.152   0.957 -0.1637  1.5381 -0.9228
 2456TIP3    H2 7333   3.328   1.132   0.994 -0.6069  0.1810  0.1976
 2457TIP3   OH2 7334   5.489   4.046   5.317  0.2412 -0.6220 -0.6441
 2457TIP3    H1 7335   5.535   4.052   5.232  0.7712 -1.2707 -0.4119
 2457TIP3    H2 7336   5.449   3.959   5.316  1.1918 -1.0831  0.2333
 2458TIP3   OH2 7337   4.654   1.643   3.476 -0.3914  0.2017  0.4466
 2458TIP3    H1 7338   4.570   1.628   3.519 -0.3561  0.7120  0.6982
 2458TIP3    H2 7339   4.719   1.602   3.533 -0.6139 -1.7720 -0.6267
 2459TIP3   OH2 7340   1.184   0.888   5.065  0.1704  0.1755  0.0745
 2459TIP3    H1 7341   1.094   0.863   5.043  0.3103  0.4727 -0.9115
 2459TIP3    H2 7342   1.238   0.828   5.013  0.5182  1.2168 -0.8093
 2460TIP3   OH2 7343   2.073   6.685   3.870  0.1648 -0.0838 -0.3836
 2460TIP3    H1 7344   2.042   6.596   3.852  0.0049  0.4570 -3.3381
 2460TIP3    H2 7345   1.997   6.741   3.851  0.4936  0.7391  0.6629
 2461TIP3   OH2 7346   4.312   3.363   2.910  0.0950  0.2718  0.0459
 2461TIP3    H1 7347   4.394   3.366   2.960  0.6940 -0.2737 -0.8611
 2461TIP3    H2 7348   4.335   3.317   2.829 -1.5230 -1.5688  0.5538
 2462TIP3   OH2 7349   0.721   0.644   0.917  0.0560  0.3165 -0.4346
 2462TIP3    H1 7350   0.731   0.720   0.974 -0.7212  0.2545 -0.2059
 2462TIP3    H2 7351   0.701   0.680   0.831  0.1295  0.3751 -0.4279
 2463TIP3   OH2 7352   3.198   3.308   2.361 -0.2806  0.2280  0.2827
 2463TIP3    H1 7353   3.205   3.212   2.368  0.0531  0.3444  1.7220
 2463TIP3    H2 7354   3.289   3.338   2.352 -0.0614  0.5980  2.9838
 2464TIP3   OH2 7355   6.745   2.596   0.243 -0.1785 -0.4116 -0.0457
 2464TIP3    H1 7356   6.708   2.620   0.158  1.7111 -2.1037 -1.4235
 2464TIP3    H2 7357   6.823   2.545   0.223  0.6184 -0.4744  2.7288
 2465TIP3   OH2 7358   7.130   3.533   2.351 -0.1780  0.0962 -0.0533
 2465TIP3    H1 7359   7.088   3.567   2.272  2.8497  2.1734 -0.9720
 2465TIP3    H2 7360   7.073   3.562   2.422 -0.6038  2.4208 -1.2271
 2466TIP3   OH2 7361   1.595   4.648   5.870  0.3160  0.3275  0.0954
 2466TIP3    H1 7362   1.657   4.578   5.849 -0.6807 -0.3057 -0.8541
 2466TIP3    H2 7363   1.525   4.638   5.805  0.4431  2.6098 -0.4656
 2467TIP3   OH2 7364   3.203   3.598   0.088 -0.1094 -0.1628  0.1879
 2467TIP3    H1 7365   3.170   3.651   0.162 -0.8721  0.2822 -0.4541
 2467TIP3    H2 7366   3.269   3.654   0.047 -0.8912  0.3118 -0.4700
 2468TIP3   OH2 7367   2.037   5.805   4.777  0.2703  0.2818 -0.0631
 2468TIP3    H1 7368   2.089   5.785   4.698  1.3205 -0.5466  0.8126
 2468TIP3    H2 7369   2.095   5.784   4.850 -1.2223 -0.4015  0.9678
 2469TIP3   OH2 7370   4.095   3.080   3.256  0.2244 -0.2847 -0.5352
 2469TIP3    H1 7371   4.093   3.148   3.189  2.4628 -0.9248 -1.3300
 2469TIP3    H2 7372   4.006   3.043   3.256 -0.4675  1.3069 -1.4425
 2470TIP3   OH2 7373   5.078   1.831   3.047 -0.3270  0.6741  0.6697
 2470TIP3    H1 7374   5.101   1.752   2.999 -2.1816  0.6369 -0.2644
 2470TIP3    H2 7375   5.069   1.803   3.138 -1.9099 -0.4568  0.2127
 2471TIP3   OH2 7376   3.823   4.257   1.635  0.3883  0.3747  0.1913
 2471TIP3    H1 7377   3.767   4.257   1.713  2.2542  1.6718  1.6238
 2471TIP3    H2 7378   3.772   4.210   1.569 -1.8202  0.3658  1.7835
 2472TIP3   OH2 7379   5.725   5.369   2.515  0.1281  0.4882 -0.0093
 2472TIP3    H1 7380   5.795   5.371   2.580  0.1292 -1.1641  0.0917
 2472TIP3    H2 7381   5.765   5.325   2.439 -1.1389 -1.8561  0.5759
 2473TIP3   OH2 7382   0.086   4.054   5.615 -0.1507 -0.5691 -0.1019
 2473TIP3    H1 7383   0.127   4.093   5.538  0.9894 -0.4071  0.5712
 2473TIP3    H2 7384   0.069   4.129   5.673 -0.1148 -0.8007  0.2095
 2474TIP3   OH2 7385   3.954   1.178   1.715 -0.0737 -0.1389  0.0054
 2474TIP3    H1 7386   4.040   1.193   1.676  0.9781 -1.2044  1.7403
 2474TIP3    H2 7387   3.963   1.093   1.759 -1.9479 -0.1555  0.4294
 2475TIP3   OH2 7388   2.094   5.075   2.680 -0.1468  0.9384  0.7984
 2475TIP3    H1 7389   2.149   5.153   2.693  0.4974  0.5869  0.2065
 2475TIP3    H2 7390   2.124   5.038   2.597 -1.5019  0.9187  0.2980
 2476TIP3   OH2 7391   5.900   6.471   0.911 -0.0366 -0.5766 -0.2344
 2476TIP3    H1 7392   5.894   6.554   0.957 -1.9058 -1.3124  0.9472
 2476TIP3    H2 7393   5.993   6.447   0.918  0.2097  0.5906  0.8984
 2477TIP3   OH2 7394   0.353   1.207   0.182 -0.0162  0.1990  0.1166
 2477TIP3    H1 7395   0.447   1.206   0.198 -0.1407  1.0058  0.9968
 2477TIP3    H2 7396   0.333   1.298   0.159 -0.3665 -0.2609 -1.5528
 2478TIP3   OH2 7397   3.422   6.298   5.793 -0.4613 -0.1528  0.4712
 2478TIP3    H1 7398   3.447   6.353   5.719 -0.0239 -0.2232  0.5611
 2478TIP3    H2 7399   3.362   6.233   5.756 -1.2242  0.5629  0.4247
 2479TIP3   OH2 7400   6.338   1.828   0.749 -0.0746 -0.5262  0.5564
 2479TIP3    H1 7401   6.361   1.890   0.680  0.8382  1.0375  2.1862
 2479TIP3    H2 7402   6.261   1.867   0.791  0.2707 -0.6811  1.3498
 2480TIP3   OH2 7403   0.822   3.553   5.213  0.1861  0.1241  0.0246
 2480TIP3    H1 7404   0.900   3.500   5.229 -0.0695 -0.0471  0.7729
 2480TIP3    H2 7405   0.803   3.542   5.120 -0.6562 -2.2062  0.4158
 2481TIP3   OH2 7406   5.386   4.692   1.418 -0.4080 -0.3842 -0.1183
 2481TIP3    H1 7407   5.431   4.681   1.334 -0.8274  0.4943 -0.4631
 2481TIP3    H2 7408   5.409   4.780   1.447 -1.8373  0.0643 -0.2717
 2482TIP3   OH2 7409   0.022   1.436   5.151 -0.4588 -0.2371  0.3339
 2482TIP3    H1 7410   0.041   1.394   5.068 -2.0879 -0.2098 -0.0921
 2482TIP3    H2 7411   0.104   1.478   5.177  0.2524 -0.8181 -0.9144
 2483TIP3   OH2 7412   2.297   0.427   4.036  0.0719  0.0555  0.3135
 2483TIP3    H1 7413   2.337   0.372   3.969  0.4762  1.8362 -0.9846
 2483TIP3    H2 7414   2.340   0.402   4.117  0.5291 -1.2358 -0.3078
 2484TIP3   OH2 7415   2.518   6.082   3.283  0.0982  0.5309 -0.4074
 2484TIP3    H1 7416   2.560   6.153   3.331 -1.5378  1.6606 -0.5618
 2484TIP3    H2 7417   2.440   6.062   3.335  0.1946 -0.7158 -0.7201
 2485TIP3   OH2 7418   3.043   1.376   2.919  0.1989  0.2126 -0.0471
 2485TIP3    H1 7419   3.047   1.380   3.015  1.5277  0.0134 -0.0859
 2485TIP3    H2 7420   3.022   1.284   2.900 -0.0995  0.2593  0.0386
 2486TIP3   OH2 7421   0.387   4.375   2.379  0.1293 -0.0575  0.3019
 2486TIP3    H1 7422   0.321   4.428   2.424  0.5273  0.0913  0.7244
 2486TIP3    H2 7423   0.399   4.299   2.436  0.1936 -0.1717  0.1366
 2487TIP3   OH2 7424   5.523   0.664   1.693 -0.5425 -0.2792 -0.4682
 2487TIP3    H1 7425   5.512   0.741   1.749 -0.6563 -1.1590  0.7561
 2487TIP3    H2 7426   5.444   0.662   1.639 -0.6999  0.2705 -0.2687
 2488TIP3   OH2 7427   4.687   6.006   5.255  0.3891  0.1400  0.0478
 2488TIP3    H1 7428   4.662   6.008   5.163  3.9442 -4.1471 -1.3522
 2488TIP3    H2 7429   4.649   5.925   5.288  0.7111  0.6915  1.8908
 2489TIP3   OH2 7430   4.236   1.260   3.399  0.4969 -0.3568  0.1397
 2489TIP3    H1 7431   4.152   1.220   3.376  0.2013  0.5902 -0.4528
 2489TIP3    H2 7432   4.263   1.214   3.479 -0.5896 -0.6584  0.3504
 2490TIP3   OH2 7433   5.507   3.608   3.353 -0.2243  0.0545  0.1057
 2490TIP3    H1 7434   5.532   3.550   3.281  0.9052 -0.0929  0.5943
 2490TIP3    H2 7435   5.590   3.628   3.397 -0.7275  1.2836  0.5120
 2491TIP3   OH2 7436   6.624   5.662   0.912  0.1426  0.2073  0.4334
 2491TIP3    H1 7437   6.562   5.696   0.848  0.0353 -0.3857  0.2191
 2491TIP3    H2 7438   6.704   5.645   0.862  0.1584  0.0363  0.5156
 2492TIP3   OH2 7439   3.909   5.858   2.725 -0.5537  0.2887 -0.2516
 2492TIP3    H1 7440   3.849   5.799   2.770  0.0619 -0.2285 -0.0920
 2492TIP3    H2 7441   3.996   5.821   2.742 -0.1730  1.1611 -0.2729
 2493TIP3   OH2 7442   2.230   1.453   1.108  0.3616  0.9353  0.5109
 2493TIP3    H1 7443   2.281   1.388   1.059  1.0129  2.3545 -0.7940
 2493TIP3    H2 7444   2.283   1.472   1.185  1.2611  1.4820 -0.2144
 2494TIP3   OH2 7445   0.216   5.420   3.609 -0.0898 -0.0702  0.5082
 2494TIP3    H1 7446   0.255   5.350   3.660 -1.8970  0.2585  2.4617
 2494TIP3    H2 7447   0.139   5.380   3.568 -1.4171  0.7810  2.0252
 2495TIP3   OH2 7448   2.257   1.622   4.381 -0.1161 -0.2322 -0.0609
 2495TIP3    H1 7449   2.181   1.567   4.361  0.5037 -0.8895 -0.6522
 2495TIP3    H2 7450   2.301   1.577   4.454 -1.1463  0.9870  1.3679
 2496TIP3   OH2 7451   2.066   0.254   3.777 -0.9473  0.6359  0.5031
 2496TIP3    H1 7452   2.032   0.218   3.859 -1.5284  1.9995  0.8942
 2496TIP3    H2 7453   2.024   0.340   3.769 -1.4103  0.2736 -1.5765
 2497TIP3   OH2 7454   5.076   5.170   5.530 -0.3362 -0.2212  0.2855
 2497TIP3    H1 7455   5.131   5.099   5.563  0.0017 -1.2485 -2.1889
 2497TIP3    H2 7456   4.993   5.128   5.508  0.4986 -0.4666 -3.0615
 2498TIP3   OH2 7457   1.580   0.272   2.887  0.0669  0.1564 -0.1028
 2498TIP3    H1 7458   1.650   0.235   2.940 -0.2891  0.9395  0.9475
 2498TIP3    H2 7459   1.550   0.349   2.936  0.7930  1.8917 -2.2076
 2499TIP3   OH2 7460   4.507   2.164   1.483 -0.0727  0.0834  0.3581
 2499TIP3    H1 7461   4.500   2.234   1.547  0.4096 -0.6866  1.2724
 2499TIP3    H2 7462   4.537   2.207   1.403  2.1782  0.6499  1.4418
 2500TIP3   OH2 7463   4.543   4.648   2.601  0.6460  0.4164  0.6907
 2500TIP3    H1 7464   4.506   4.706   2.534  0.0405 -0.1599  0.5089
 2500TIP3    H2 7465   4.486   4.571   2.599 -0.6012  1.1863  3.2650
 2501TIP3   OH2 7466   5.520   2.864   1.760 -0.0623 -0.5486 -0.0722
 2501TIP3    H1 7467   5.526   2.840   1.853 -2.4781  0.0007  0.2803
 2501TIP3    H2 7468   5.451   2.807   1.725 -0.6067  0.6523 -1.0230
 2502TIP3   OH2 7469   6.898   4.990   0.318 -0.3408  0.1495  0.2869
 2502TIP3    H1 7470   6.965   4.935   0.277  1.0950  3.3445 -2.0097
 2502TIP3    H2 7471   6.941   5.024   0.397  0.1592  0.9353 -0.3218
 2503TIP3   OH2 7472   1.510   0.022   3.032  0.2810 -0.2530 -0.2847
 2503TIP3    H1 7473   1.546  -0.066   3.018  2.6406  0.4146  1.1752
 2503TIP3    H2 7474   1.561   0.078   2.974 -0.1957  0.3799 -0.0989
 2504TIP3   OH2 7475   4.425   0.265   1.082 -0.3964 -0.2302 -0.0823
 2504TIP3    H1 7476   4.397   0.176   1.060  0.5849 -0.4675 -0.4647
 2504TIP3    H2 7477   4.514   0.271   1.045 -0.3637  0.8265  0.1485
 2505TIP3   OH2 7478   6.497   5.245   3.388  0.0901  0.5270  0.4602
 2505TIP3    H1 7479   6.488   5.316   3.453 -2.2619 -0.1046  0.9163
 2505TIP3    H2 7480   6.473   5.286   3.305  0.1414  0.6026  0.4818
 2506TIP3   OH2 7481   5.533   0.685   2.577 -0.4913  0.2633 -0.2316
 2506TIP3    H1 7482   5.471   0.618   2.547  0.5330 -0.7848 -0.0574
 2506TIP3    H2 7483   5.517   0.693   2.671 -1.0282  0.7333 -0.3512
 2507TIP3   OH2 7484   0.979   5.407   2.649 -0.1862  0.6122  0.1797
 2507TIP3    H1 7485   0.995   5.386   2.741 -1.9667  0.1784  0.4220
 2507TIP3    H2 7486   0.890   5.443   2.647 -0.2448  0.4630 -1.3954
 2508TIP3   OH2 7487   0.327   6.695   2.226  0.1505 -0.0294  0.3915
 2508TIP3    H1 7488   0.335   6.605   2.193 -1.4372 -0.8111  1.9600
 2508TIP3    H2 7489   0.381   6.747   2.167  2.0747 -2.1666  0.1026
 2509TIP3   OH2 7490   3.758   6.730   3.397 -0.1626  0.2766 -0.2025
 2509TIP3    H1 7491   3.755   6.821   3.366 -0.5683  0.3014 -0.1006
 2509TIP3    H2 7492   3.695   6.684   3.342 -0.4617  0.2023  0.1915
 2510TIP3   OH2 7493   2.458   0.098   4.683  0.0893 -0.0012 -0.2323
 2510TIP3    H1 7494   2.523   0.098   4.612  0.4963 -2.1997  0.0784
 2510TIP3    H2 7495   2.500   0.146   4.754  0.2652  0.9490 -0.9566
 2511TIP3   OH2 7496   1.362   5.128   5.017 -0.2709 -0.6899 -0.1344
 2511TIP3    H1 7497   1.389   5.067   4.948 -0.7340 -1.2819  0.1962
 2511TIP3    H2 7498   1.272   5.103   5.037 -0.7982  0.7171 -0.6295
 2512TIP3   OH2 7499   6.189   6.074   1.214 -0.2413 -0.6470 -0.5529
 2512TIP3    H1 7500   6.119   6.130   1.181  0.4123  1.2677  1.0977
 2512TIP3    H2 7501   6.267   6.101   1.165  0.6076  1.8047  1.8222
 2513TIP3   OH2 7502   5.736   2.794   5.448  0.3342 -0.3385  0.0004
 2513TIP3    H1 7503   5.710   2.720   5.393  1.3202  0.2656 -1.3195
 2513TIP3    H2 7504   5.822   2.819   5.416  0.3429  0.9228  0.9188
 2514TIP3   OH2 7505   6.306   2.940   5.575 -0.4916 -0.3266  0.4843
 2514TIP3    H1 7506   6.239   2.929   5.643 -1.4106 -1.7058 -0.5912
 2514TIP3    H2 7507   6.373   2.995   5.616 -3.3939  3.3561  0.8492
 2515TIP3   OH2 7508   1.228   0.875   0.380  0.6823  0.0838  0.1897
 2515TIP3    H1 7509   1.294   0.811   0.408 -0.3642 -0.9969  0.2964
 2515TIP3    H2 7510   1.271   0.924   0.310  0.9780 -1.9577 -1.1727
 2516TIP3   OH2 7511   6.486   3.054   1.852 -0.3572 -0.3822  0.0044
 2516TIP3    H1 7512   6.564   3.104   1.877 -0.1707 -0.0295 -1.2532
 2516TIP3    H2 7513   6.464   3.085   1.765 -1.1710 -1.3842 -0.1629
 2517TIP3   OH2 7514   1.688   4.021   1.135 -0.2823 -0.2175 -0.0270
 2517TIP3    H1 7515   1.774   3.984   1.152 -0.5135 -0.2895  1.0507
 2517TIP3    H2 7516   1.661   4.060   1.218 -0.4443  1.6011 -0.8852
 2518TIP3   OH2 7517   3.285   5.755   0.223  0.0446 -0.1019  0.6222
 2518TIP3    H1 7518   3.368   5.781   0.264 -1.1241 -0.0897  3.1758
 2518TIP3    H2 7519   3.262   5.828   0.166  1.8551 -0.2046 -0.3267
 2519TIP3   OH2 7520   2.698   2.013   1.820  0.1779  0.3213 -0.7084
 2519TIP3    H1 7521   2.770   1.964   1.781 -2.1831 -1.3403 -3.4112
 2519TIP3    H2 7522   2.620   1.976   1.780 -2.2038  2.3054  1.7257
 2520TIP3   OH2 7523   5.913   0.540   5.747  0.3203 -0.2420 -0.7668
 2520TIP3    H1 7524   5.979   0.513   5.811  0.3753 -0.8308 -1.0649
 2520TIP3    H2 7525   5.841   0.576   5.799  1.7323  2.4588 -0.4711
 2521TIP3   OH2 7526   3.996   1.735   3.821  0.1275  0.2816 -0.4862
 2521TIP3    H1 7527   3.922   1.710   3.876 -0.0630 -0.6563 -1.1396
 2521TIP3    H2 7528   3.970   1.818   3.781 -0.9086 -0.4037 -1.2823
 2522TIP3   OH2 7529   1.191   2.753   2.058 -0.1821  0.4165  0.4531
 2522TIP3    H1 7530   1.228   2.693   2.122 -1.1195  1.1388  1.6957
 2522TIP3    H2 7531   1.261   2.817   2.042 -0.4299  1.0729  1.8713
 2523TIP3   OH2 7532   6.412   1.556   2.205  0.6936  0.4525  0.1891
 2523TIP3    H1 7533   6.352   1.482   2.217  0.3540  0.6928  0.0094
 2523TIP3    H2 7534   6.477   1.546   2.274 -0.5862  1.1903  1.5775
 2524TIP3   OH2 7535   3.617   5.028   0.741 -0.4273 -0.4152  0.4557
 2524TIP3    H1 7536   3.662   4.950   0.772 -0.3663 -0.8378 -0.6684
 2524TIP3    H2 7537   3.616   5.020   0.646 -0.7643  0.7641  0.3374
 2525TIP3   OH2 7538   7.067   2.273   4.688  0.4623  0.1379  0.6043
 2525TIP3    H1 7539   6.989   2.314   4.726 -0.5309  1.3026 -2.3697
 2525TIP3    H2 7540   7.038   2.186   4.661 -0.3438  0.9983 -1.6318
 2526TIP3   OH2 7541   1.180   3.391   0.987  0.4547  0.0538 -0.3562
 2526TIP3    H1 7542   1.180   3.472   1.037  1.3341  0.7168 -1.3941
 2526TIP3    H2 7543   1.207   3.416   0.899 -1.9276 -0.9080 -1.4799
 2527TIP3   OH2 7544   5.540   6.762   2.121  0.0402 -0.1417  0.2612
 2527TIP3    H1 7545   5.633   6.761   2.099  0.4588 -2.0301  1.8056
 2527TIP3    H2 7546   5.497   6.721   2.046  0.7359 -1.2397  0.4429
 2528TIP3   OH2 7547   5.256   3.714   1.221  0.1128  0.1446 -0.3318
 2528TIP3    H1 7548   5.176   3.666   1.199  0.4637 -0.2578 -0.7557
 2528TIP3    H2 7549   5.323   3.677   1.163  1.2207 -1.3448  1.7610
 2529TIP3   OH2 7550   5.842   0.867   1.851  0.1331 -1.2371 -0.1228
 2529TIP3    H1 7551   5.935   0.883   1.832  0.1865  0.9934  1.6726
 2529TIP3    H2 7552   5.842   0.820   1.934 -0.3750 -0.7845  0.1344
 2530TIP3   OH2 7553   2.758   5.491   2.360 -0.3059 -0.1868  0.3163
 2530TIP3    H1 7554   2.842   5.536   2.371 -0.7896  0.6664  0.6173
 2530TIP3    H2 7555   2.771   5.434   2.284  0.6745 -0.3879  0.6161
 2531TIP3   OH2 7556   4.664   0.317   1.340 -0.3600  0.0875  0.6301
 2531TIP3    H1 7557   4.751   0.277   1.343 -1.0080 -1.4930 -0.3715
 2531TIP3    H2 7558   4.681   0.411   1.339  1.4614 -0.1906 -1.3863
 2532TIP3   OH2 7559   0.732   2.918   3.808  0.1789 -0.4706  0.0897
 2532TIP3    H1 7560   0.739   3.013   3.809  0.8953 -0.5214  0.7789
 2532TIP3    H2 7561   0.772   2.890   3.890 -1.3148 -1.2833  0.5778
 2533TIP3   OH2 7562   6.164   4.364   0.031  0.7662 -0.3106 -0.0902
 2533TIP3    H1 7563   6.225   4.353   0.103  1.1508  1.6716 -0.0576
 2533TIP3    H2 7564   6.184   4.451  -0.005 -2.5843  0.8824  0.5326
 2534TIP3   OH2 7565   6.676   3.533   0.270 -1.0819  0.3523 -0.5276
 2534TIP3    H1 7566   6.696   3.544   0.363  0.8995  0.2951 -0.9081
 2534TIP3    H2 7567   6.719   3.607   0.227  2.6745 -2.3094 -1.9096
 2535TIP3   OH2 7568   4.839   1.910   5.394 -0.1122 -0.2950  0.0303
 2535TIP3    H1 7569   4.859   1.933   5.484  1.1441  0.4873 -0.4205
 2535TIP3    H2 7570   4.761   1.962   5.372  0.2861  0.4298  0.3028
 2536TIP3   OH2 7571   1.719   6.432   2.759  0.0631  0.5952 -0.0749
 2536TIP3    H1 7572   1.705   6.379   2.680  0.9817 -0.1345  0.2393
 2536TIP3    H2 7573   1.636   6.479   2.770 -1.3113 -1.7544  0.3870
 2537TIP3   OH2 7574   5.635   1.418   4.060 -0.1395 -0.3732 -0.3469
 2537TIP3    H1 7575   5.637   1.329   4.024 -2.9009 -0.6118 -0.0921
 2537TIP3    H2 7576   5.547   1.450   4.041  0.7101  2.2644 -0.2409
 2538TIP3   OH2 7577   1.950   3.927   1.972 -0.0469  0.3094 -0.2718
 2538TIP3    H1 7578   1.869   3.967   1.941 -0.0125 -0.5187 -1.5060
 2538TIP3    H2 7579   1.932   3.905   2.064 -1.7211 -1.0538 -0.8656
 2539TIP3   OH2 7580   2.772   1.619   4.711 -0.1016 -0.5078  0.4414
 2539TIP3    H1 7581   2.736   1.678   4.778  0.5578 -1.4060  1.6221
 2539TIP3    H2 7582   2.815   1.550   4.761 -2.2841 -2.9752 -0.8664
 2540TIP3   OH2 7583   7.088   2.832   0.752 -0.3688 -0.0583 -0.3920
 2540TIP3    H1 7584   7.111   2.756   0.697  1.1134  0.7369 -0.9410
 2540TIP3    H2 7585   6.993   2.830   0.757 -0.3811 -1.8028 -0.6167
 2541TIP3   OH2 7586   6.071   5.841   5.167  0.0092  0.0050  0.9730
 2541TIP3    H1 7587   5.978   5.824   5.175 -0.3910  0.4484 -1.8901
 2541TIP3    H2 7588   6.082   5.929   5.204 -1.0468  0.6517 -0.1694
 2542TIP3   OH2 7589   3.011   6.128   2.141  0.2407  0.1760  0.6907
 2542TIP3    H1 7590   3.086   6.083   2.103  1.0979 -0.1225  2.6268
 2542TIP3    H2 7591   2.935   6.078   2.109  1.0672 -1.6475  1.4002
 2543TIP3   OH2 7592   1.651   3.533   4.357 -0.2362 -0.0648 -0.1502
 2543TIP3    H1 7593   1.620   3.590   4.428 -0.7628 -0.8974  0.2987
 2543TIP3    H2 7594   1.607   3.567   4.279  2.2309  2.4627 -0.6284
 2544TIP3   OH2 7595   4.679   6.205   5.634 -0.0449  0.3216 -0.6537
 2544TIP3    H1 7596   4.681   6.130   5.693 -0.5211  0.3643 -0.5782
 2544TIP3    H2 7597   4.635   6.173   5.555  1.6222 -0.0614 -1.4551
 2545TIP3   OH2 7598   4.550   1.235   2.580 -0.3053  0.9626  0.2729
 2545TIP3    H1 7599   4.588   1.250   2.493 -1.4830 -1.0604 -0.6877
 2545TIP3    H2 7600   4.594   1.155   2.611 -0.8493  0.9204  0.9453
 2546TIP3   OH2 7601   2.710   3.641   5.286  0.7146  0.2138  0.8109
 2546TIP3    H1 7602   2.763   3.662   5.363  1.3836 -0.8146  0.6466
 2546TIP3    H2 7603   2.761   3.677   5.213  0.5529  0.3380  0.7584
 2547TIP3   OH2 7604   5.239   4.661   4.876  0.6583 -0.4891  0.0554
 2547TIP3    H1 7605   5.148   4.691   4.881  1.0063  0.4877  0.6465
 2547TIP3    H2 7606   5.291   4.741   4.878  1.5169 -0.9886 -1.2395
 2548TIP3   OH2 7607   0.294   2.740   5.612 -0.4000  0.8370 -0.2444
 2548TIP3    H1 7608   0.333   2.770   5.530  0.5770 -0.1604 -0.1790
 2548TIP3    H2 7609   0.214   2.695   5.585 -0.3566  0.9615 -0.5962
 2549TIP3   OH2 7610   6.714   2.527   0.530  0.5106 -0.2098 -0.9431
 2549TIP3    H1 7611   6.715   2.548   0.436  1.7621 -0.1955 -0.9446
 2549TIP3    H2 7612   6.674   2.604   0.571 -1.0897 -0.6821 -1.5464
 2550TIP3   OH2 7613   6.609   2.659   1.343 -0.4178 -0.4438 -0.1823
 2550TIP3    H1 7614   6.571   2.573   1.362 -1.9017  0.4400  1.0697
 2550TIP3    H2 7615   6.546   2.722   1.378 -0.2227  1.2436 -2.5970
 2551TIP3   OH2 7616   0.157   4.178   5.377  0.1690  0.1344 -0.5347
 2551TIP3    H1 7617   0.108   4.260   5.370  1.0273  0.5507 -2.1361
 2551TIP3    H2 7618   0.247   4.202   5.355  0.2398 -1.4049 -2.1257
 2552TIP3   OH2 7619   0.215   1.029   0.336 -0.0910 -0.5615  0.3882
 2552TIP3    H1 7620   0.134   1.019   0.286 -0.7824  1.6658  0.9916
 2552TIP3    H2 7621   0.274   1.075   0.277  1.3099 -3.2607 -0.5320
 2553TIP3   OH2 7622   2.877   4.608   4.759 -0.1899 -0.3024 -0.0587
 2553TIP3    H1 7623   2.787   4.599   4.790 -0.3194  2.0761  0.4185
 2553TIP3    H2 7624   2.893   4.702   4.755  2.2762 -0.6371 -0.1695
 2554TIP3   OH2 7625   2.364   5.668   3.203  0.3963  0.2011 -0.2386
 2554TIP3    H1 7626   2.311   5.597   3.168 -0.3393  0.5986  0.0487
 2554TIP3    H2 7627   2.441   5.625   3.240 -0.3585 -0.5066  0.5323
 2555TIP3   OH2 7628   4.712   0.258   4.175  0.6909 -0.1282 -0.3918
 2555TIP3    H1 7629   4.764   0.178   4.166  2.0377  0.6830 -0.0788
 2555TIP3    H2 7630   4.684   0.259   4.267  0.4648 -0.3609 -0.4580
 2556TIP3   OH2 7631   2.491   2.221   3.600  0.3063  0.6975 -0.2801
 2556TIP3    H1 7632   2.547   2.163   3.549  0.8947  0.8917  0.1272
 2556TIP3    H2 7633   2.402   2.193   3.580  0.4856  1.2000 -1.9382
 2557TIP3   OH2 7634   0.865   3.445   2.517 -0.4535 -1.2001 -0.0033
 2557TIP3    H1 7635   0.775   3.471   2.539 -1.2867 -2.7215 -1.3752
 2557TIP3    H2 7636   0.903   3.522   2.476  0.4405  1.0167  4.3239
 2558TIP3   OH2 7637   3.982   4.584   5.535 -0.0490 -0.4196 -0.1144
 2558TIP3    H1 7638   3.975   4.679   5.529  1.2941 -0.2663  0.4283
 2558TIP3    H2 7639   3.912   4.551   5.478 -0.8583  0.8739  0.0839
 2559TIP3   OH2 7640   1.552   5.546   1.838 -0.0352  0.1134 -0.0721
 2559TIP3    H1 7641   1.586   5.515   1.754 -1.3183  1.0926 -0.9968
 2559TIP3    H2 7642   1.465   5.505   1.845 -1.2225  2.3657 -0.7204
 2560TIP3   OH2 7643   5.936   0.269   1.649 -0.0244 -0.1109 -0.0784
 2560TIP3    H1 7644   5.966   0.345   1.699  0.2360  0.3576 -0.9248
 2560TIP3    H2 7645   5.920   0.201   1.715  3.0958 -0.4954  0.4625
 2561TIP3   OH2 7646   5.448   4.340   5.423 -1.1202 -0.2641  0.0897
 2561TIP3    H1 7647   5.393   4.351   5.345  0.5228 -1.2520 -1.2582
 2561TIP3    H2 7648   5.431   4.251   5.452  0.4815 -0.9555 -0.9645
 2562TIP3   OH2 7649   0.044   2.121   3.418 -0.1500  0.4545  0.3691
 2562TIP3    H1 7650   0.038   2.032   3.453  0.8362 -0.0613 -0.7129
 2562TIP3    H2 7651   0.098   2.168   3.481  1.6715 -0.4836 -0.4284
 2563TIP3   OH2 7652   0.462   2.720   2.851  0.0200  0.2911 -0.1801
 2563TIP3    H1 7653   0.525   2.780   2.811  1.1864 -0.2437  0.7869
 2563TIP3    H2 7654   0.495   2.633   2.830  1.0853 -0.0359  2.4222
 2564TIP3   OH2 7655   0.137   5.154   4.791  0.1821 -0.1100  0.2102
 2564TIP3    H1 7656   0.054   5.117   4.822  1.3290 -1.2036  2.2041
 2564TIP3    H2 7657   0.113   5.208   4.716 -2.1680 -1.3692 -0.0405
 2565TIP3   OH2 7658   1.829   4.529   0.536  0.2142 -0.1427 -0.1908
 2565TIP3    H1 7659   1.773   4.474   0.481  1.3457 -0.9228 -0.6046
 2565TIP3    H2 7660   1.907   4.543   0.483  1.1908 -0.6295  1.0810
 2566TIP3   OH2 7661   6.063   3.687   5.463 -0.3575 -0.6370 -0.2676
 2566TIP3    H1 7662   5.998   3.746   5.503  1.3448  0.3991  1.1581
 2566TIP3    H2 7663   6.022   3.601   5.466 -1.7015 -0.0069  0.5119
 2567TIP3   OH2 7664   4.692   2.337   1.163  0.1509 -0.2438 -0.3401
 2567TIP3    H1 7665   4.697   2.243   1.184 -1.0149  0.2158  2.4495
 2567TIP3    H2 7666   4.598   2.356   1.161  0.3341  0.6415 -2.2538
 2568TIP3   OH2 7667   5.266  -0.032   3.590 -0.2644  0.5456  0.6827
 2568TIP3    H1 7668   5.322   0.006   3.658  0.9026 -0.8251  0.5375
 2568TIP3    H2 7669   5.192   0.029   3.584  0.1708  1.3209  2.3447
 2569TIP3   OH2 7670   1.046   6.567   4.379  0.1443 -0.5074 -0.2006
 2569TIP3    H1 7671   1.050   6.474   4.401  2.8944 -0.5022 -0.2373
 2569TIP3    H2 7672   1.119   6.580   4.319 -0.5606  1.5696 -0.6825
 2570TIP3   OH2 7673   6.049   0.413   1.062 -0.2055 -0.0187 -0.1841
 2570TIP3    H1 7674   6.021   0.502   1.085  1.3026  0.8523 -1.4676
 2570TIP3    H2 7675   5.967   0.364   1.050 -1.0628  0.5866  2.5968
 2571TIP3   OH2 7676   2.634   1.143   4.240  0.1429 -0.0562  0.4513
 2571TIP3    H1 7677   2.700   1.203   4.206 -0.2031  0.3667  0.5155
 2571TIP3    H2 7678   2.618   1.173   4.329  0.0800 -0.3462  0.5400
 2572TIP3   OH2 7679   0.666   0.119   5.630  0.0113 -0.0247 -0.3365
 2572TIP3    H1 7680   0.711   0.109   5.714 -1.9629 -1.5946  0.6101
 2572TIP3    H2 7681   0.593   0.178   5.649  0.0903  0.3576 -1.1856
 2573TIP3   OH2 7682   4.957   3.145   1.195 -0.0705  0.4302  0.0054
 2573TIP3    H1 7683   4.898   3.217   1.214  0.7712  0.8770  1.0195
 2573TIP3    H2 7684   4.958   3.092   1.275 -0.0182 -0.2330 -0.4195
 2574TIP3   OH2 7685   1.117   5.348   4.954  0.0166  0.1899 -0.2049
 2574TIP3    H1 7686   1.062   5.275   4.923  1.5388 -0.5719 -1.2115
 2574TIP3    H2 7687   1.074   5.426   4.920 -0.2556 -0.4097 -1.2790
 2575TIP3   OH2 7688   5.202   6.515   4.691  0.1112  0.3552 -0.6538
 2575TIP3    H1 7689   5.295   6.498   4.676  0.6044  1.7587  0.5469
 2575TIP3    H2 7690   5.193   6.610   4.682 -1.1553  0.2747 -0.4676
 2576TIP3   OH2 7691   1.839   2.021   1.300  0.3347 -0.0709 -0.4439
 2576TIP3    H1 7692   1.791   2.077   1.361  0.9303 -0.5593  0.5131
 2576TIP3    H2 7693   1.897   2.080   1.253  1.6093  0.0552  1.1878
 2577TIP3   OH2 7694   3.178   4.626   3.834  0.2654 -0.6315 -0.2106
 2577TIP3    H1 7695   3.243   4.572   3.788  0.0389 -1.3308  0.2714
 2577TIP3    H2 7696   3.110   4.641   3.768  0.2407 -1.1023 -0.3009
 2578TIP3   OH2 7697   1.258   3.484   5.043  0.2853  0.0211 -0.5790
 2578TIP3    H1 7698   1.305   3.557   5.082  2.6948 -0.7477 -1.8680
 2578TIP3    H2 7699   1.321   3.443   4.984 -1.2733 -2.5022 -0.6591
 2579TIP3   OH2 7700   0.513   1.891   4.424 -0.0696  0.6593  0.2096
 2579TIP3    H1 7701   0.421   1.905   4.403 -0.3157 -0.5362  0.3767
 2579TIP3    H2 7702   0.524   1.931   4.510 -0.6081  0.2381  0.4822
 2580TIP3   OH2 7703   6.133   2.252   2.932 -0.5525 -0.4828  0.2629
 2580TIP3    H1 7704   6.168   2.282   2.848  0.9854 -1.9496  0.3268
 2580TIP3    H2 7705   6.040   2.235   2.914 -0.8841  1.6750 -0.4196
 2581TIP3   OH2 7706   4.191   3.687   4.062 -0.4388 -0.0245 -0.5299
 2581TIP3    H1 7707   4.177   3.625   4.134 -1.9856  0.0167 -0.7664
 2581TIP3    H2 7708   4.107   3.691   4.017  0.5641 -0.2451 -2.5239
 2582TIP3   OH2 7709   2.295   0.709   2.212  0.2760 -0.2377  0.4575
 2582TIP3    H1 7710   2.380   0.754   2.212  1.0390 -1.6157  1.8321
 2582TIP3    H2 7711   2.251   0.743   2.289 -0.8799  1.1878 -0.7596
 2583TIP3   OH2 7712   5.462   0.005   3.116 -0.2287  0.3404  0.1976
 2583TIP3    H1 7713   5.503   0.007   3.202 -1.0346 -0.4186  0.6106
 2583TIP3    H2 7714   5.379   0.053   3.127 -0.2149  0.4747 -0.2272
 2584TIP3   OH2 7715   2.074   5.308   4.552 -0.4629 -0.4178 -0.2883
 2584TIP3    H1 7716   1.986   5.340   4.572  0.0733  0.5849  0.5972
 2584TIP3    H2 7717   2.128   5.339   4.625  1.0516  0.8960 -1.8679
 2585TIP3   OH2 7718   0.411   6.611   1.830 -0.5254  0.1146 -0.1172
 2585TIP3    H1 7719   0.424   6.614   1.735 -1.1210  2.2567 -0.1797
 2585TIP3    H2 7720   0.418   6.518   1.852 -0.9069 -0.4923 -2.3248
 2586TIP3   OH2 7721   6.697   3.183   1.951 -0.1309 -0.4409  0.2224
 2586TIP3    H1 7722   6.781   3.136   1.953  3.0580  4.5406  0.8528
 2586TIP3    H2 7723   6.679   3.205   2.042 -0.6914  0.7698 -0.1649
 2587TIP3   OH2 7724   0.187   3.779   5.567 -0.1658 -0.1928 -0.8258
 2587TIP3    H1 7725   0.160   3.870   5.551  0.3828 -0.0153 -0.7406
 2587TIP3    H2 7726   0.252   3.761   5.499  2.2702  0.5910  1.1439
 2588TIP3   OH2 7727   4.625   3.726   0.236  0.4881  1.1531 -0.1138
 2588TIP3    H1 7728   4.659   3.794   0.294  0.0266  1.6377 -0.3969
 2588TIP3    H2 7729   4.547   3.694   0.280 -0.0164  1.7124 -0.5855
 2589TIP3   OH2 7730   7.040   1.172   0.417 -0.1464 -0.1838  0.1324
 2589TIP3    H1 7731   7.132   1.196   0.426  0.2758 -0.6296 -2.2742
 2589TIP3    H2 7732   7.039   1.077   0.432 -0.6888  0.1478  2.6614
 2590TIP3   OH2 7733   5.261   4.522   2.585 -0.5922  0.3091 -0.8758
 2590TIP3    H1 7734   5.332   4.491   2.530  0.4817  2.4585 -0.7943
 2590TIP3    H2 7735   5.197   4.558   2.524 -1.2758 -0.8932 -0.8995
 2591TIP3   OH2 7736   4.764   1.632   1.803 -0.4322 -0.4423  0.6118
 2591TIP3    H1 7737   4.859   1.627   1.816 -0.3339 -0.4663 -0.0903
 2591TIP3    H2 7738   4.752   1.704   1.743 -0.9239  0.0089  1.2434
 2592TIP3   OH2 7739   2.695   6.038   2.875 -0.3758 -0.0113 -0.4768
 2592TIP3    H1 7740   2.644   6.033   2.794  0.5030 -0.8280 -1.0046
 2592TIP3    H2 7741   2.750   6.115   2.864 -2.0590  1.3763  0.4611
 2593TIP3   OH2 7742   0.250   1.636   0.480 -0.2871  0.0739 -0.4912
 2593TIP3    H1 7743   0.165   1.680   0.480 -0.6358 -0.5642 -1.9604
 2593TIP3    H2 7744   0.314   1.706   0.466 -0.6975  0.3498 -0.9934
 2594TIP3   OH2 7745   6.760   2.128   3.978 -0.1007 -0.3352  0.2853
 2594TIP3    H1 7746   6.799   2.209   3.946 -0.9008 -0.0105  0.1297
 2594TIP3    H2 7747   6.737   2.145   4.069  0.5160 -0.6750  0.5136
 2595TIP3   OH2 7748   4.715   0.507   1.725  0.1361 -0.7214  0.3829
 2595TIP3    H1 7749   4.768   0.586   1.726 -0.3101 -0.4195  1.3234
 2595TIP3    H2 7750   4.640   0.528   1.669  1.7122 -1.6735 -2.2953
 2596TIP3   OH2 7751   1.990   3.957   3.422 -0.0781 -0.4672 -0.6336
 2596TIP3    H1 7752   1.915   3.897   3.433 -0.2320  0.1142  2.1716
 2596TIP3    H2 7753   2.056   3.924   3.484  1.1892  0.2716 -1.5563
 2597TIP3   OH2 7754   5.120   4.157   4.897  0.8437  0.2250 -1.3005
 2597TIP3    H1 7755   5.161   4.080   4.856  0.8302 -0.2988 -0.3602
 2597TIP3    H2 7756   5.028   4.151   4.873  0.1579 -1.8843  1.3534
 2598TIP3   OH2 7757   6.452   2.238   3.929  0.3116 -0.5611  0.6655
 2598TIP3    H1 7758   6.389   2.175   3.894  0.4667  0.0592 -0.7865
 2598TIP3    H2 7759   6.494   2.191   4.002 -1.9971 -0.8692  1.8821
 2599TIP3   OH2 7760   5.326   1.391   5.576  0.1271 -0.2713  0.6219
 2599TIP3    H1 7761   5.306   1.346   5.494  1.0109 -0.3295  0.4321
 2599TIP3    H2 7762   5.274   1.472   5.573 -0.5182 -0.6922  0.4106
 2600TIP3   OH2 7763   4.968   3.518   3.716 -0.6464  0.2442 -0.0777
 2600TIP3    H1 7764   4.896   3.554   3.766 -0.9216  0.8288 -0.8687
 2600TIP3    H2 7765   5.025   3.478   3.781 -1.1794  0.6499  0.6539
 2601TIP3   OH2 7766   3.015   1.493   5.262 -0.3346  0.3373 -0.4234
 2601TIP3    H1 7767   2.950   1.552   5.302 -0.7204 -0.1862 -0.2711
 2601TIP3    H2 7768   3.033   1.428   5.329 -0.7374 -0.3582 -0.9763
 2602TIP3   OH2 7769   4.906   0.851   3.197 -0.0663 -0.1143 -0.6429
 2602TIP3    H1 7770   4.936   0.868   3.108 -1.4921  0.2559 -1.0804
 2602TIP3    H2 7771   4.985   0.856   3.251  0.5881  1.2320 -1.6821
 2603TIP3   OH2 7772   5.741   2.368   4.261  0.0580 -0.1001 -0.3890
 2603TIP3    H1 7773   5.723   2.397   4.350  0.9124  1.0475 -0.5692
 2603TIP3    H2 7774   5.670   2.407   4.208 -0.7813 -1.2588 -0.1530
 2604TIP3   OH2 7775   4.575   0.494   3.617 -0.3248 -0.6761  0.1921
 2604TIP3    H1 7776   4.566   0.550   3.694 -0.8329  0.3611 -0.6013
 2604TIP3    H2 7777   4.622   0.547   3.554  2.0855 -2.2922  0.5068
 2605TIP3   OH2 7778   3.127   6.247   4.871 -0.2886 -0.5037  0.1894
 2605TIP3    H1 7779   3.191   6.252   4.941 -1.3601  2.0989  1.0992
 2605TIP3    H2 7780   3.158   6.308   4.805 -0.5101 -1.1759 -0.5556
 2606TIP3   OH2 7781   0.487   4.126   2.248  0.2881 -0.6874 -0.9725
 2606TIP3    H1 7782   0.578   4.139   2.221  0.6333 -1.7355 -0.4016
 2606TIP3    H2 7783   0.475   4.184   2.323  0.8546 -1.3786 -0.3332
 2607TIP3   OH2 7784   0.479   4.346   5.817  0.0726  0.2466  0.0301
 2607TIP3    H1 7785   0.496   4.362   5.910 -0.2083 -0.2327  0.1663
 2607TIP3    H2 7786   0.445   4.257   5.813  1.5037 -0.2971 -0.6987
 2608TIP3   OH2 7787   3.656   5.376   2.199  0.2397  0.3822 -0.1558
 2608TIP3    H1 7788   3.651   5.365   2.294  0.2064 -0.6925 -0.2678
 2608TIP3    H2 7789   3.706   5.300   2.169  1.0583  1.1945 -0.9135
 2609TIP3   OH2 7790   4.543   0.763   2.857  0.5216 -0.2766  0.4157
 2609TIP3    H1 7791   4.611   0.699   2.839  1.0083  0.2147  0.4780
 2609TIP3    H2 7792   4.489   0.723   2.925  0.9592 -0.5233  0.6188
 2610TIP3   OH2 7793   3.151   5.351   3.560 -0.4930 -0.3826 -0.0013
 2610TIP3    H1 7794   3.117   5.439   3.540 -0.7421 -0.7928 -1.5833
 2610TIP3    H2 7795   3.146   5.305   3.476 -1.5322 -2.3080  1.0509
 2611TIP3   OH2 7796   2.618   3.692   4.144 -0.1606  0.0881  0.4072
 2611TIP3    H1 7797   2.555   3.621   4.134 -1.9676  1.8022 -1.1981
 2611TIP3    H2 7798   2.596   3.754   4.074  2.4148  1.4562  0.6877
 2612TIP3   OH2 7799   6.513   3.691   4.914 -0.5227  0.6261  0.0619
 2612TIP3    H1 7800   6.500   3.643   4.831 -1.0756  0.3698  0.2880
 2612TIP3    H2 7801   6.595   3.657   4.949  0.2381  1.4502 -0.8588
 2613TIP3   OH2 7802   6.989   2.785   3.143 -0.1198  0.1379  0.6177
 2613TIP3    H1 7803   7.069   2.809   3.190 -1.2683  1.6650  1.9698
 2613TIP3    H2 7804   6.985   2.845   3.069 -0.2075  0.3522  0.7941
 2614TIP3   OH2 7805   3.658   6.753   1.001 -0.0145 -0.1144 -0.3718
 2614TIP3    H1 7806   3.697   6.686   0.945 -0.8414 -2.0652  1.2697
 2614TIP3    H2 7807   3.621   6.817   0.940  1.0238 -1.0018 -1.9963
 2615TIP3   OH2 7808   3.277   0.276   1.859  0.5061 -0.0215 -0.4998
 2615TIP3    H1 7809   3.319   0.312   1.938  1.7186 -0.8580 -0.7431
 2615TIP3    H2 7810   3.253   0.186   1.883  0.3377 -0.0856 -0.8954
 2616TIP3   OH2 7811   1.056   1.349   0.458  0.0222  0.5168 -0.5051
 2616TIP3    H1 7812   1.144   1.347   0.495 -0.3021  0.9469  0.3023
 2616TIP3    H2 7813   1.002   1.391   0.525 -1.2883 -1.8585  0.0147
 2617TIP3   OH2 7814   6.396   4.262   3.964 -0.1511 -0.4616 -0.0728
 2617TIP3    H1 7815   6.451   4.326   4.010 -2.0619  0.7805  0.5850
 2617TIP3    H2 7816   6.378   4.195   4.030 -0.2885 -0.3211  0.0332
 2618TIP3   OH2 7817   6.305   2.149   1.756 -0.1679  0.3860  0.2419
 2618TIP3    H1 7818   6.369   2.182   1.692 -0.1000 -1.6367 -0.7947
 2618TIP3    H2 7819   6.353   2.083   1.806 -1.2368 -0.6909 -0.1187
 2619TIP3   OH2 7820   6.993   2.873   4.292  0.5406 -0.1564 -0.1465
 2619TIP3    H1 7821   7.071   2.930   4.291 -0.5726  1.5272  1.5847
 2619TIP3    H2 7822   6.921   2.931   4.268 -0.1985 -1.7944 -2.1915
 2620TIP3   OH2 7823   4.343   6.172   1.018 -0.5785  0.2018 -0.0172
 2620TIP3    H1 7824   4.354   6.133   1.104 -0.9497  1.9334  0.8672
 2620TIP3    H2 7825   4.349   6.266   1.033  1.2880  0.5263 -2.1692
 2621TIP3   OH2 7826   5.915   1.519   1.524 -0.4813  0.1702 -0.0705
 2621TIP3    H1 7827   5.988   1.508   1.463 -0.1160  0.7712  0.2487
 2621TIP3    H2 7828   5.930   1.604   1.564 -2.1712  1.0072 -1.0944
 2622TIP3   OH2 7829   0.050   0.653   4.478  0.2148 -0.0531  0.5063
 2622TIP3    H1 7830   0.035   0.738   4.521 -2.5995  0.4166 -1.1681
 2622TIP3    H2 7831   0.118   0.671   4.413 -1.7311  1.5547 -1.2203
 2623TIP3   OH2 7832   1.751   5.723   3.892  0.2881 -0.0313 -0.1088
 2623TIP3    H1 7833   1.767   5.718   3.797  1.4321 -1.3611  0.1145
 2623TIP3    H2 7834   1.684   5.656   3.908 -0.6218  0.8578 -0.0872
 2624TIP3   OH2 7835   1.713   6.258   5.068 -0.2843 -0.1714  0.0849
 2624TIP3    H1 7836   1.707   6.299   5.154  0.8372  0.7723 -0.2724
 2624TIP3    H2 7837   1.738   6.167   5.086 -2.3489 -0.6432  0.8560
 2625TIP3   OH2 7838   2.309   0.522   1.864  0.3745  0.2070 -0.1053
 2625TIP3    H1 7839   2.363   0.584   1.814  0.1223  1.3668  0.9920
 2625TIP3    H2 7840   2.242   0.493   1.802  1.5527 -0.3490 -1.1459
 2626TIP3   OH2 7841   5.679   3.841   2.266 -0.1268 -0.3143  0.0216
 2626TIP3    H1 7842   5.667   3.755   2.225 -1.1811 -0.4008  0.4776
 2626TIP3    H2 7843   5.746   3.826   2.332  0.5216 -0.5141 -0.6652
 2627TIP3   OH2 7844   3.441   1.449   0.278 -0.0961 -0.1227 -0.3282
 2627TIP3    H1 7845   3.527   1.414   0.254 -0.8042 -2.2788  0.0602
 2627TIP3    H2 7846   3.389   1.372   0.301 -1.5269  1.2653  1.4424
 2628TIP3   OH2 7847   3.429   0.243   2.713 -0.2013 -0.2546  0.6079
 2628TIP3    H1 7848   3.386   0.328   2.720  2.3327  1.0716  1.4273
 2628TIP3    H2 7849   3.493   0.255   2.642  0.5025 -1.3318  1.0370
 2629TIP3   OH2 7850   2.559   4.689   3.390  0.1028  0.2307  0.3550
 2629TIP3    H1 7851   2.560   4.777   3.352  0.3962  0.3525  0.6394
 2629TIP3    H2 7852   2.501   4.697   3.466  1.8134  0.7345  1.6644
 2630TIP3   OH2 7853   2.326   5.140   0.506 -0.2092 -0.2427 -0.0742
 2630TIP3    H1 7854   2.372   5.067   0.548  0.4934  0.3619  0.2184
 2630TIP3    H2 7855   2.284   5.187   0.577  1.5051  1.1550  0.1004
 2631TIP3   OH2 7856   5.111   6.524   3.475 -0.3377 -0.4241 -0.0250
 2631TIP3    H1 7857   5.196   6.539   3.515 -0.9932  0.9958  0.9250
 2631TIP3    H2 7858   5.129   6.514   3.382  0.6988  1.9081 -0.1412
 2632TIP3   OH2 7859   2.705   6.599   2.196 -0.2724  0.1467  0.1412
 2632TIP3    H1 7860   2.718   6.634   2.284 -0.2178  0.1574  0.1289
 2632TIP3    H2 7861   2.679   6.508   2.209  0.9038 -0.2014  0.1326
 2633TIP3   OH2 7862   0.821   5.485   4.745 -0.0310  0.1034  0.0531
 2633TIP3    H1 7863   0.750   5.439   4.789 -0.2689  1.4475  1.1406
 2633TIP3    H2 7864   0.795   5.487   4.653 -1.2093  0.2039  0.3703
 2634TIP3   OH2 7865   6.838   5.450   5.093 -0.5111 -0.1044  0.3970
 2634TIP3    H1 7866   6.896   5.526   5.088 -1.0588  0.2183 -2.3885
 2634TIP3    H2 7867   6.788   5.464   5.174  1.0249  1.2313  1.1831
 2635TIP3   OH2 7868   3.806   5.070   1.509  0.0638 -0.5235  0.1345
 2635TIP3    H1 7869   3.723   5.064   1.557 -0.0643 -0.8634 -0.1251
 2635TIP3    H2 7870   3.802   4.998   1.446  0.7427 -0.8121  0.4074
 2636TIP3   OH2 7871   4.769   3.710   3.016  0.8395  0.0351  0.3103
 2636TIP3    H1 7872   4.723   3.729   3.098 -0.1601 -0.3906 -0.1366
 2636TIP3    H2 7873   4.796   3.619   3.025  3.3229  0.7976  1.3601
 2637TIP3   OH2 7874   3.292   3.762   5.060 -0.4323 -0.1312  0.0182
 2637TIP3    H1 7875   3.247   3.818   5.123  2.7880  2.1155  0.5771
 2637TIP3    H2 7876   3.282   3.807   4.976 -0.6726 -0.5761 -0.1993
 2638TIP3   OH2 7877   6.866   1.794   5.131  0.0075  0.3064  0.4135
 2638TIP3    H1 7878   6.956   1.811   5.160  0.2328 -0.2399  0.0453
 2638TIP3    H2 7879   6.869   1.810   5.037 -0.5455  1.3560  0.5617
 2639TIP3   OH2 7880   3.237   6.123   0.645 -0.5347 -0.5187  0.0193
 2639TIP3    H1 7881   3.331   6.113   0.657 -0.5251 -0.7916 -0.2717
 2639TIP3    H2 7882   3.229   6.165   0.559 -0.6904 -0.8253 -0.1182
 2640TIP3   OH2 7883   2.875   3.934   1.139 -0.0260  0.6233 -0.1793
 2640TIP3    H1 7884   2.859   3.902   1.228  0.9399  1.1811  0.2090
 2640TIP3    H2 7885   2.788   3.950   1.104 -0.6706 -3.3458 -0.7831
 2641TIP3   OH2 7886   3.928   2.048   4.768 -0.1107  0.5891  0.4266
 2641TIP3    H1 7887   3.908   2.031   4.860  0.2267  1.5269  0.6809
 2641TIP3    H2 7888   3.842   2.061   4.727 -0.2093  2.2175  1.0438
 2642TIP3   OH2 7889   0.202   4.837   0.832 -0.3284 -0.2262  0.2347
 2642TIP3    H1 7890   0.272   4.827   0.897 -0.8816 -0.2217  0.8412
 2642TIP3    H2 7891   0.141   4.766   0.851 -1.9275  1.4019  1.5742
 2643TIP3   OH2 7892   7.135   2.883   0.190  0.5762 -0.0819 -0.6348
 2643TIP3    H1 7893   7.050   2.850   0.220  0.9104  0.0558  0.4947
 2643TIP3    H2 7894   7.125   2.892   0.095 -0.9373  0.6960 -0.4246
 2644TIP3   OH2 7895   2.216   5.259   3.393 -0.0611 -0.1428  0.6756
 2644TIP3    H1 7896   2.128   5.251   3.356 -0.8387 -1.2686  2.6103
 2644TIP3    H2 7897   2.269   5.197   3.343 -0.7567 -0.6572  0.5671
 2645TIP3   OH2 7898   3.149   5.538   2.335  0.3179  0.1281  0.5969
 2645TIP3    H1 7899   3.179   5.595   2.405  2.1099 -0.2052  0.1421
 2645TIP3    H2 7900   3.061   5.571   2.313 -0.1424  0.4560  2.7113
 2646TIP3   OH2 7901   6.841   3.755   3.160  0.7167 -0.3969  0.2082
 2646TIP3    H1 7902   6.923   3.740   3.207 -0.1197 -0.5264  1.7155
 2646TIP3    H2 7903   6.815   3.668   3.128  1.7575 -0.1643 -1.3740
 2647TIP3   OH2 7904   4.074   3.720   2.276 -0.1411 -0.1058  0.4827
 2647TIP3    H1 7905   3.996   3.671   2.248  0.9169 -1.1976 -0.6606
 2647TIP3    H2 7906   4.070   3.717   2.372 -1.2854 -0.4970  0.4482
 2648TIP3   OH2 7907   2.324   0.984   4.233  0.5310 -0.1159 -0.0770
 2648TIP3    H1 7908   2.409   1.024   4.248 -0.2697  1.0952  1.5656
 2648TIP3    H2 7909   2.344   0.898   4.196  2.4103  0.4704 -0.5462
 2649TIP3   OH2 7910   4.148   2.647   3.957  0.0454  0.1368 -0.4309
 2649TIP3    H1 7911   4.224   2.706   3.956  0.0453  0.1845 -2.2877
 2649TIP3    H2 7912   4.074   2.703   3.979  0.4496  0.2112  0.7914
 2650TIP3   OH2 7913   0.400   4.328   0.420  0.1712  0.5882  0.1966
 2650TIP3    H1 7914   0.308   4.354   0.425  0.0074  1.4387 -3.8349
 2650TIP3    H2 7915   0.449   4.408   0.438  0.0920  0.5051  0.7968
 2651TIP3   OH2 7916   6.175   0.315   3.767 -0.3350  0.1920 -0.5941
 2651TIP3    H1 7917   6.087   0.287   3.740 -0.4612 -0.0527  0.0570
 2651TIP3    H2 7918   6.183   0.404   3.733 -0.8013  0.1835 -0.7339
 2652TIP3   OH2 7919   3.597   5.865   2.452  0.4636 -0.1862 -0.3542
 2652TIP3    H1 7920   3.667   5.922   2.422  0.2601  0.9365  1.2050
 2652TIP3    H2 7921   3.575   5.811   2.375  3.1727 -0.7646 -0.8151
 2653TIP3   OH2 7922   0.743   3.898   4.764  0.1324 -0.4162 -0.1362
 2653TIP3    H1 7923   0.696   3.869   4.686  0.4474  2.8119 -1.6999
 2653TIP3    H2 7924   0.675   3.922   4.826 -0.3744  1.7755 -1.4220
 2654TIP3   OH2 7925   0.783   5.466   0.558 -0.2045  0.2292  0.1677
 2654TIP3    H1 7926   0.700   5.422   0.545  0.0072  0.0037 -0.4382
 2654TIP3    H2 7927   0.759   5.553   0.592 -0.7035  0.3122 -0.3851
 2655TIP3   OH2 7928   5.122   1.641   3.516 -0.0033  0.5966  0.2631
 2655TIP3    H1 7929   5.097   1.700   3.588 -0.6293 -0.7340  1.1887
 2655TIP3    H2 7930   5.132   1.556   3.559  2.4783  0.3085 -0.7369
 2656TIP3   OH2 7931   5.922   6.716   1.030 -0.0247 -0.1375 -0.6811
 2656TIP3    H1 7932   6.005   6.700   0.985  0.7731  1.8394 -0.0453
 2656TIP3    H2 7933   5.896   6.804   1.003 -0.1371  0.6517  1.7169
 2657TIP3   OH2 7934   0.231   2.980   1.872 -0.6958  0.5322 -0.2748
 2657TIP3    H1 7935   0.284   2.984   1.952 -0.0867 -0.7698 -0.5857
 2657TIP3    H2 7936   0.181   3.062   1.872  0.5331  1.3186  0.5764
 2658TIP3   OH2 7937   0.378   0.111   1.920 -0.3578  0.5159  0.3317
 2658TIP3    H1 7938   0.343   0.137   2.006  0.0723  0.1753  0.6141
 2658TIP3    H2 7939   0.385   0.193   1.872  0.2922  0.8545  0.9632
 2659TIP3   OH2 7940   4.394   2.410   4.439 -0.4232  0.0884  0.2649
 2659TIP3    H1 7941   4.372   2.503   4.434  2.2673  0.9677  2.4670
 2659TIP3    H2 7942   4.463   2.398   4.374  0.7842  0.2236  1.4717
 2660TIP3   OH2 7943   3.853   1.957   3.499 -0.9546 -0.5640  0.6253
 2660TIP3    H1 7944   3.907   2.033   3.519  0.0683 -0.4872 -1.9621
 2660TIP3    H2 7945   3.909   1.882   3.520  0.4383 -0.4850 -2.3114
 2661TIP3   OH2 7946   2.242   4.973   2.456  0.1283 -0.2095  0.3752
 2661TIP3    H1 7947   2.180   4.921   2.405 -0.3137  0.2426  0.4366
 2661TIP3    H2 7948   2.289   5.025   2.390 -1.2847  1.2793  0.4693
 2662TIP3   OH2 7949   5.514   2.618   4.187 -0.0777  0.2557  0.5945
 2662TIP3    H1 7950   5.486   2.672   4.261  0.3191  0.2251  0.7668
 2662TIP3    H2 7951   5.437   2.564   4.167 -0.9063  1.7492 -0.3982
 2663TIP3   OH2 7952   1.482   2.961   0.966  0.0386  0.5509  0.1708
 2663TIP3    H1 7953   1.471   2.869   0.943 -0.6783  0.9665 -1.2561
 2663TIP3    H2 7954   1.392   2.993   0.980  0.2248  1.1899 -0.0516
 2664TIP3   OH2 7955   0.714   6.008   2.446  0.2328 -0.4258  0.3830
 2664TIP3    H1 7956   0.767   5.931   2.464  3.9341  1.7873 -0.0545
 2664TIP3    H2 7957   0.700   6.049   2.531 -1.9411 -1.5716  0.6476
 2665TIP3   OH2 7958   1.430   6.314   1.034  0.2775 -0.3856 -0.1897
 2665TIP3    H1 7959   1.484   6.274   1.102  0.1863  0.5329  0.4472
 2665TIP3    H2 7960   1.434   6.408   1.053 -0.1848 -0.1613 -1.1418
 2666TIP3   OH2 7961   0.185   2.497   3.681 -0.3999  0.3293 -0.2229
 2666TIP3    H1 7962   0.278   2.476   3.672 -0.8283 -1.4729 -0.9148
 2666TIP3    H2 7963   0.169   2.563   3.614  0.4952  1.1152  0.3183
 2667TIP3   OH2 7964   4.529   3.959   5.167 -0.0667 -0.1934 -1.0306
 2667TIP3    H1 7965   4.469   4.004   5.107  0.5423  2.8484  0.4391
 2667TIP3    H2 7966   4.539   4.020   5.240  2.8534 -1.6920 -0.0373
 2668TIP3   OH2 7967   6.938   3.295   5.352 -0.1802  0.2154 -0.1511
 2668TIP3    H1 7968   6.853   3.293   5.394 -0.3108  0.0106 -0.4225
 2668TIP3    H2 7969   6.921   3.266   5.262  0.2549 -0.2909 -0.0733
 2669TIP3   OH2 7970   7.079   0.090   3.711  0.0940  0.0220 -0.4119
 2669TIP3    H1 7971   7.158   0.124   3.751 -0.5545 -0.3347  1.2396
 2669TIP3    H2 7972   7.023   0.167   3.697  0.0420  0.0637  0.0287
 2670TIP3   OH2 7973   1.159   1.569   2.008  0.2439 -0.0118 -0.1039
 2670TIP3    H1 7974   1.225   1.524   2.060  0.1098  0.5310  0.5605
 2670TIP3    H2 7975   1.209   1.616   1.941  0.4745 -0.1510 -0.0299
 2671TIP3   OH2 7976   2.770   3.633   4.850  0.2177 -0.1028  0.4858
 2671TIP3    H1 7977   2.826   3.675   4.784 -1.5942 -0.8524 -1.6797
 2671TIP3    H2 7978   2.801   3.542   4.853  0.5050  0.0060  0.9416
 2672TIP3   OH2 7979   1.637   1.869   5.190  0.1061 -0.1927 -0.6814
 2672TIP3    H1 7980   1.655   1.799   5.127 -1.7110 -2.3935  1.0579
 2672TIP3    H2 7981   1.707   1.862   5.254 -0.7591 -1.3746  0.1847
 2673TIP3   OH2 7982   1.548   1.691   3.927  0.3047  0.0408  0.6198
 2673TIP3    H1 7983   1.529   1.651   4.012  0.3422  0.2842  0.7454
 2673TIP3    H2 7984   1.625   1.645   3.895  1.1975  0.9389  1.3996
 2674TIP3   OH2 7985   2.563   1.630   1.856 -0.2136  0.2915 -0.1809
 2674TIP3    H1 7986   2.580   1.689   1.783 -1.6073  1.6069  0.4997
 2674TIP3    H2 7987   2.504   1.564   1.821  0.3080  0.0468 -0.6114
 2675TIP3   OH2 7988   4.863   4.361   0.470  0.0403 -0.0608  0.1313
 2675TIP3    H1 7989   4.924   4.429   0.440  0.3062 -0.2442  0.2529
 2675TIP3    H2 7990   4.817   4.401   0.544  2.2055 -0.9534  2.0943
 2676TIP3   OH2 7991   2.166   2.491   3.149  0.3631  0.9137 -0.0064
 2676TIP3    H1 7992   2.227   2.547   3.197  1.4031 -0.6168  0.5230
 2676TIP3    H2 7993   2.165   2.409   3.197  1.0425 -0.5156 -2.2855
 2677TIP3   OH2 7994   4.438   4.476   3.354 -0.0678 -0.1899 -0.0065
 2677TIP3    H1 7995   4.506   4.542   3.370 -0.1558  0.4202 -1.9559
 2677TIP3    H2 7996   4.356   4.524   3.360 -0.2173 -0.4375 -0.0395
 2678TIP3   OH2 7997   2.576   5.944   5.721  0.5124  0.0877 -0.2262
 2678TIP3    H1 7998   2.504   5.935   5.783  1.0877  1.3088  0.6768
 2678TIP3    H2 7999   2.561   5.877   5.655 -2.1312  1.0908 -0.7470
 2679TIP3   OH2 8000   6.801   0.619   4.476 -0.0806  0.5876 -0.5240
 2679TIP3    H1 8001   6.786   0.611   4.570  3.5316 -0.5255  0.0966
 2679TIP3    H2 8002   6.828   0.710   4.464 -0.6747  0.7672 -0.5297
 2680TIP3   OH2 8003   5.755   3.861   3.636 -0.2227 -0.1276 -0.0117
 2680TIP3    H1 8004   5.674   3.912   3.640 -0.6323 -0.8457  1.2893
 2680TIP3    H2 8005   5.745   3.806   3.558  0.0062  1.3649 -1.1438
 2681TIP3   OH2 8006   4.249   3.481   4.259  0.6109 -1.4870  0.4731
 2681TIP3    H1 8007   4.298   3.430   4.323  3.1103 -1.0264 -0.9420
 2681TIP3    H2 8008   4.256   3.432   4.178  0.2993 -0.4810 -0.1871
 2682TIP3   OH2 8009   3.769   2.082   5.465  0.0505  0.0912 -0.1152
 2682TIP3    H1 8010   3.863   2.100   5.473  0.1522 -1.1006  2.0629
 2682TIP3    H2 8011   3.729   2.169   5.456  1.2603  0.6876  0.0472
 2683TIP3   OH2 8012   2.562   0.489   5.389  0.1875  0.1900  0.4550
 2683TIP3    H1 8013   2.587   0.399   5.413 -1.4451 -0.7074 -0.9155
 2683TIP3    H2 8014   2.486   0.509   5.444  0.2240  0.5083  0.3911
 2684TIP3   OH2 8015   6.141   0.253   0.712 -0.3410 -0.7808  0.7358
 2684TIP3    H1 8016   6.164   0.337   0.751  0.7655 -1.0656  0.7424
 2684TIP3    H2 8017   6.053   0.234   0.745 -1.1363  0.9573 -0.2964
 2685TIP3   OH2 8018   2.253   0.788   4.701 -0.2625 -0.1238  0.4248
 2685TIP3    H1 8019   2.170   0.812   4.661  0.7955  1.9988 -0.6160
 2685TIP3    H2 8020   2.295   0.729   4.638 -0.0190  0.5855 -0.0775
 2686TIP3   OH2 8021   7.089   0.364   5.893  0.1953  0.3939 -0.1574
 2686TIP3    H1 8022   7.058   0.361   5.802 -0.7143  0.6959  0.1338
 2686TIP3    H2 8023   7.133   0.448   5.901 -0.5372  0.7694 -0.0642
 2687TIP3   OH2 8024   6.762   3.328   4.577  0.0642 -0.4082  0.2791
 2687TIP3    H1 8025   6.800   3.356   4.660  0.8997  0.2602 -0.3052
 2687TIP3    H2 8026   6.823   3.263   4.543 -0.2839 -0.6925  0.1947
 2688TIP3   OH2 8027   6.791   4.341   4.050  0.8890 -0.4762 -0.1277
 2688TIP3    H1 8028   6.857   4.373   4.111  1.3747  0.8513 -1.2917
 2688TIP3    H2 8029   6.707   4.366   4.089  1.1942  0.4263 -0.0388
 2689TIP3   OH2 8030   1.113   3.336   0.038 -0.0712  0.3911 -0.3810
 2689TIP3    H1 8031   1.042   3.322  -0.026  0.1910  0.4722 -0.6894
 2689TIP3    H2 8032   1.166   3.257   0.031  0.3099  0.6729 -0.7159
 2690TIP3   OH2 8033   5.842   0.731   0.129  0.5215  0.6315 -0.3144
 2690TIP3    H1 8034   5.833   0.801   0.193  3.3141 -0.0931  1.0426
 2690TIP3    H2 8035   5.766   0.675   0.142 -0.3139  1.9166  0.4970
 2691TIP3   OH2 8036   0.087   2.273   5.229  0.0634  0.8075  0.2494
 2691TIP3    H1 8037   0.118   2.301   5.143  0.6077  0.7129  0.4121
 2691TIP3    H2 8038  -0.000   2.312   5.237 -0.3273  0.1601 -0.6730
 2692TIP3   OH2 8039   4.408   3.705   1.304  0.0519  0.2333  0.2815
 2692TIP3    H1 8040   4.366   3.732   1.223 -0.0649  0.7906  0.5224
 2692TIP3    H2 8041   4.494   3.748   1.302  0.1222  0.0980  0.3669
 2693TIP3   OH2 8042   1.391   0.308   0.070  0.0572  0.7818  0.4503
 2693TIP3    H1 8043   1.428   0.245   0.132 -0.5468  0.9758  1.0130
 2693TIP3    H2 8044   1.326   0.258   0.020  0.7603  0.5475 -0.2497
 2694TIP3   OH2 8045   3.325   4.439   5.630 -0.2233  0.5772  0.1411
 2694TIP3    H1 8046   3.319   4.515   5.572 -1.7145 -1.0884 -2.0660
 2694TIP3    H2 8047   3.315   4.364   5.572  1.9168 -1.4064  2.1141
 2695TIP3   OH2 8048   1.353   6.688   3.472 -0.2164 -0.4788 -0.1847
 2695TIP3    H1 8049   1.376   6.713   3.562 -0.6091 -1.6324  0.2624
 2695TIP3    H2 8050   1.421   6.625   3.446 -2.3709 -3.5550  0.9795
 2696TIP3   OH2 8051   2.229   0.500   2.440  0.5356 -0.3542  0.1046
 2696TIP3    H1 8052   2.313   0.513   2.396  1.2191  0.2434  1.5153
 2696TIP3    H2 8053   2.214   0.406   2.438 -0.3557 -0.2621 -2.9277
 2697TIP3   OH2 8054   1.511   0.644   2.438  0.3384  0.1243  0.3164
 2697TIP3    H1 8055   1.488   0.648   2.531  2.2636  0.2651  0.8245
 2697TIP3    H2 8056   1.604   0.623   2.437  0.5470  0.9234 -1.5619
 2698TIP3   OH2 8057   0.317   1.794   0.965  0.9162 -0.1850 -0.5119
 2698TIP3    H1 8058   0.230   1.756   0.950  0.4362  0.2870  0.8687
 2698TIP3    H2 8059   0.317   1.817   1.058  1.4702  2.4306 -1.0857
 2699TIP3   OH2 8060   1.054   4.532   3.202 -0.1650  0.6575 -0.3487
 2699TIP3    H1 8061   1.079   4.517   3.111 -0.9072 -2.8645 -0.1323
 2699TIP3    H2 8062   0.968   4.489   3.210 -0.1352  0.9249  1.9763
 2700TIP3   OH2 8063   2.018   2.779   4.520  0.5807 -0.2426  0.1632
 2700TIP3    H1 8064   2.098   2.747   4.561  0.7409 -0.9320 -0.6554
 2700TIP3    H2 8065   1.949   2.763   4.585  0.8700 -1.0542  0.2807
 2701TIP3   OH2 8066   2.344   6.435   1.158  0.1476  0.0240 -0.5488
 2701TIP3    H1 8067   2.315   6.352   1.197 -0.7647  1.4641  2.0483
 2701TIP3    H2 8068   2.435   6.443   1.185  0.1031  0.1019 -0.4256
 2702TIP3   OH2 8069   6.780   2.067   2.830  0.1649 -0.5682 -0.2901
 2702TIP3    H1 8070   6.852   2.075   2.893  0.4851 -0.6416 -0.6373
 2702TIP3    H2 8071   6.759   2.157   2.806 -2.6335 -0.2269  2.8350
 2703TIP3   OH2 8072   1.173   1.515   3.118 -0.1919  0.1335 -0.5350
 2703TIP3    H1 8073   1.084   1.525   3.152 -0.2395  0.2622 -0.6955
 2703TIP3    H2 8074   1.180   1.422   3.096  0.0960 -0.1114  0.5360
 2704TIP3   OH2 8075   5.655   5.795   4.320 -0.3362 -0.7185 -0.4132
 2704TIP3    H1 8076   5.628   5.709   4.286  0.6884 -1.4917  0.6490
 2704TIP3    H2 8077   5.610   5.802   4.404  0.8278 -0.9278  0.2352
 2705TIP3   OH2 8078   0.022   1.700   0.789  0.5196  0.0416  0.0071
 2705TIP3    H1 8079   0.002   1.608   0.771  0.3760  0.0476  0.1272
 2705TIP3    H2 8080   0.050   1.736   0.705  0.9294 -0.2007  0.0366
 2706TIP3   OH2 8081   5.968   5.606   4.950  0.2843  0.2390  0.1047
 2706TIP3    H1 8082   6.027   5.540   4.915  1.9647  0.5353  2.1698
 2706TIP3    H2 8083   6.011   5.689   4.931 -0.5155  0.5961 -0.1823
 2707TIP3   OH2 8084   6.810   3.328   4.192  0.1852  0.0490 -0.4673
 2707TIP3    H1 8085   6.764   3.404   4.229 -0.3619 -0.4154 -0.1661
 2707TIP3    H2 8086   6.856   3.362   4.116  0.0899  0.7210 -0.2328
 2708TIP3   OH2 8087   5.551   1.032   3.650 -0.0091 -0.6888  0.5311
 2708TIP3    H1 8088   5.499   0.996   3.721 -4.4239  1.5188 -1.2307
 2708TIP3    H2 8089   5.537   0.973   3.576 -0.8339  0.3736 -0.2018
 2709TIP3   OH2 8090   4.993   3.181   0.049  0.1005  0.2158  0.3250
 2709TIP3    H1 8091   4.922   3.199  -0.013 -0.0747 -0.9089  0.1733
 2709TIP3    H2 8092   5.056   3.129  -0.001  1.7076  2.2812  0.0689
 2710TIP3   OH2 8093   6.895   4.783   1.343 -0.2602  0.5784 -0.3227
 2710TIP3    H1 8094   6.886   4.794   1.248 -1.1758 -0.4690 -0.3810
 2710TIP3    H2 8095   6.979   4.740   1.354 -0.0654  0.8702 -0.6404
 2711TIP3   OH2 8096   1.679   3.601   5.784 -0.9795  0.6415  0.3651
 2711TIP3    H1 8097   1.679   3.594   5.689 -0.8134 -0.0421  0.4101
 2711TIP3    H2 8098   1.676   3.510   5.815 -1.2352  0.8614  1.0099
 2712TIP3   OH2 8099   4.114   3.552   1.639 -0.0522  0.8309  0.4710
 2712TIP3    H1 8100   4.040   3.605   1.669 -1.4089 -0.3657 -0.6267
 2712TIP3    H2 8101   4.103   3.546   1.544  1.3328  0.4159  0.3076
 2713TIP3   OH2 8102   6.473   0.413   3.762 -0.3192 -0.4414  0.0260
 2713TIP3    H1 8103   6.490   0.502   3.793  1.0548 -0.4241 -0.7255
 2713TIP3    H2 8104   6.511   0.357   3.829 -0.5088 -0.4645  0.1168
 2714TIP3   OH2 8105   7.075   4.897   2.062  0.1185 -0.1868 -0.3614
 2714TIP3    H1 8106   6.999   4.923   2.114  0.2211 -0.5924 -0.0040
 2714TIP3    H2 8107   7.138   4.968   2.074  0.1310 -0.2655  0.0505
 2715TIP3   OH2 8108   2.299   2.815   0.211 -0.3129  0.2210 -0.1701
 2715TIP3    H1 8109   2.275   2.890   0.157 -1.7269 -0.0969 -0.0295
 2715TIP3    H2 8110   2.350   2.759   0.153 -1.8392 -0.1331 -1.2511
 2716TIP3   OH2 8111   6.908   2.689   4.590  0.5009 -0.0462 -0.4609
 2716TIP3    H1 8112   6.904   2.639   4.509 -0.8190 -0.7533  0.0008
 2716TIP3    H2 8113   6.875   2.776   4.566  0.1691 -0.2358 -0.7005
 2717TIP3   OH2 8114   0.897   4.444   4.105 -0.3947  0.1775 -0.6297
 2717TIP3    H1 8115   0.968   4.381   4.117 -0.0242  1.0193  2.8238
 2717TIP3    H2 8116   0.928   4.503   4.036  2.0425  0.1324  0.3302
 2718TIP3   OH2 8117   3.316   2.456   3.660 -0.0903 -0.2702  0.1212
 2718TIP3    H1 8118   3.265   2.499   3.591 -0.8619  0.1318  0.9151
 2718TIP3    H2 8119   3.368   2.526   3.699 -0.6003 -0.2379  0.7632
 2719TIP3   OH2 8120   1.060   3.066   5.009  0.1654  0.4987 -0.4256
 2719TIP3    H1 8121   1.135   3.077   5.068  1.3880  0.2875 -1.8671
 2719TIP3    H2 8122   1.029   3.155   4.994  0.4481  0.6373 -0.2156
 2720TIP3   OH2 8123   3.349   3.092   2.681  0.1554  0.4658 -0.4832
 2720TIP3    H1 8124   3.381   3.180   2.698  1.6386 -0.3389  1.1330
 2720TIP3    H2 8125   3.257   3.094   2.710  1.1343  0.5943  3.0287
 2721TIP3   OH2 8126   6.616   3.374   1.693 -0.2606  0.5513 -0.1603
 2721TIP3    H1 8127   6.654   3.391   1.607 -1.8970  0.7982 -0.8624
 2721TIP3    H2 8128   6.691   3.345   1.746  0.6250 -0.5827 -1.9147
 2722TIP3   OH2 8129   1.437   3.258   5.656  0.0456  0.1276 -0.0595
 2722TIP3    H1 8130   1.377   3.322   5.693 -0.4378 -0.2536 -0.1709
 2722TIP3    H2 8131   1.390   3.221   5.582  0.0090 -0.8930  0.4534
 2723TIP3   OH2 8132   2.023   3.459   4.974 -0.0426 -0.0889 -0.1403
 2723TIP3    H1 8133   2.116   3.454   4.997  0.0777  0.4009 -0.5054
 2723TIP3    H2 8134   1.984   3.383   5.017  0.3941  0.1079  0.6246
 2724TIP3   OH2 8135   0.451   2.532   2.465  0.0915  0.0182 -0.0350
 2724TIP3    H1 8136   0.472   2.444   2.496  0.4486 -0.2015 -0.8572
 2724TIP3    H2 8137   0.522   2.587   2.496 -0.2382  0.0560  0.6554
 2725TIP3   OH2 8138   3.062   5.601   4.268 -0.0054  0.7012 -0.6861
 2725TIP3    H1 8139   2.989   5.569   4.214 -0.5776 -2.4801  1.6692
 2725TIP3    H2 8140   3.025   5.674   4.318 -1.0592  0.2325 -0.7566
 2726TIP3   OH2 8141   3.705   6.156   3.419 -0.4056  0.0359  0.3085
 2726TIP3    H1 8142   3.752   6.221   3.367  0.1198 -0.4497  0.1690
 2726TIP3    H2 8143   3.727   6.177   3.510 -1.5564  1.0675  0.3819
 2727TIP3   OH2 8144   3.172   2.552   3.454 -0.0124 -0.0478  0.2816
 2727TIP3    H1 8145   3.180   2.556   3.359 -0.6610  1.6153  0.2515
 2727TIP3    H2 8146   3.078   2.561   3.470  0.1346  0.1517  1.0802
 2728TIP3   OH2 8147   0.372   3.153   2.095 -0.0356  0.2587  0.2936
 2728TIP3    H1 8148   0.322   3.214   2.149  2.1230  3.0166 -0.6205
 2728TIP3    H2 8149   0.453   3.139   2.144  1.9301  2.7394 -1.9633
 2729TIP3   OH2 8150   5.627   1.211   5.259  0.0431 -0.5884 -0.6670
 2729TIP3    H1 8151   5.603   1.120   5.246 -1.0379 -0.7577  1.8317
 2729TIP3    H2 8152   5.682   1.210   5.338 -1.2852  1.0342  0.3558
 2730TIP3   OH2 8153   5.214   5.582   5.403  0.4053  0.2953  0.1070
 2730TIP3    H1 8154   5.260   5.500   5.382  0.1119  0.4212 -1.0848
 2730TIP3    H2 8155   5.128   5.554   5.434 -0.0638  0.1540 -1.2511
 2731TIP3   OH2 8156   6.182   5.222   3.739 -0.0942  1.0481  0.2367
 2731TIP3    H1 8157   6.218   5.197   3.824 -0.9828  1.3724  0.7284
 2731TIP3    H2 8158   6.247   5.280   3.701 -0.0618  1.5761  1.0767
 2732TIP3   OH2 8159   2.977   1.963   4.234  0.5369 -0.0735 -0.1607
 2732TIP3    H1 8160   2.935   2.045   4.260  0.5542 -0.0234 -0.2890
 2732TIP3    H2 8161   3.007   1.924   4.317  0.1401 -0.1663 -0.0619
 2733TIP3   OH2 8162   5.953   1.873   5.016 -0.1046  0.0851  0.1106
 2733TIP3    H1 8163   5.999   1.823   4.949 -0.1091  0.4394 -0.1551
 2733TIP3    H2 8164   5.888   1.812   5.051  0.0400 -0.1666 -0.0590
 2734TIP3   OH2 8165   2.800   5.296   2.068  0.2285 -0.8629  0.1305
 2734TIP3    H1 8166   2.743   5.279   1.993 -0.6962  0.5721  0.4751
 2734TIP3    H2 8167   2.807   5.212   2.113 -2.4856 -0.8968  0.6495
 2735TIP3   OH2 8168   5.326   0.133   0.607  0.3499  0.1566 -0.5363
 2735TIP3    H1 8169   5.275   0.069   0.558 -0.7465 -0.0720  0.8376
 2735TIP3    H2 8170   5.261   0.187   0.652  1.2835 -0.0205  1.1161
 2736TIP3   OH2 8171   1.302   4.997   5.394  0.6903  0.3386  0.2495
 2736TIP3    H1 8172   1.351   4.974   5.473  1.5466 -0.8728 -0.5981
 2736TIP3    H2 8173   1.251   5.074   5.419 -1.3644 -1.6715  2.9100
 2737TIP3   OH2 8174   1.089   1.837   0.369 -0.4702 -0.7996  0.0967
 2737TIP3    H1 8175   1.033   1.894   0.422  0.0387  1.3259 -1.5291
 2737TIP3    H2 8176   1.087   1.753   0.415 -3.0272 -0.1326  1.3989
 2738TIP3   OH2 8177   0.031   1.436   0.769  0.0325  0.0838  0.3235
 2738TIP3    H1 8178  -0.037   1.415   0.705  1.8187  1.9801 -2.4760
 2738TIP3    H2 8179   0.078   1.353   0.782 -1.9993 -0.9735  1.4319
 2739TIP3   OH2 8180   2.494   0.563   4.587 -0.0604  0.2839 -0.0493
 2739TIP3    H1 8181   2.478   0.541   4.679 -0.9393 -0.8032 -0.4373
 2739TIP3    H2 8182   2.417   0.530   4.541 -0.1366  1.7791 -1.0597
 2740TIP3   OH2 8183   3.025   3.454   4.304 -0.2016 -0.4453 -0.5109
 2740TIP3    H1 8184   3.095   3.493   4.252 -0.8603  1.3968 -0.1106
 2740TIP3    H2 8185   2.951   3.448   4.243 -0.3195 -0.3627 -0.3765
 2741TIP3   OH2 8186   3.679   5.643   0.705  0.4922  0.5037  0.5977
 2741TIP3    H1 8187   3.667   5.602   0.620  0.3879  2.3379 -0.3153
 2741TIP3    H2 8188   3.595   5.685   0.724  0.1588 -0.7471  2.1289
 2742TIP3   OH2 8189   2.848   1.273   1.445 -0.3349  0.3382 -0.6478
 2742TIP3    H1 8190   2.797   1.332   1.500  0.0634  0.6997 -0.6568
 2742TIP3    H2 8191   2.796   1.264   1.365 -0.8512 -0.0862 -0.2644
 2743TIP3   OH2 8192   1.335   6.536   1.702 -0.1786  0.5316  0.0849
 2743TIP3    H1 8193   1.377   6.622   1.698  0.7031  0.2522  1.9568
 2743TIP3    H2 8194   1.292   6.535   1.788  0.0224 -0.9595  0.2008
 2744TIP3   OH2 8195   0.904   5.997   5.298 -0.9088  0.3516 -0.6100
 2744TIP3    H1 8196   0.869   5.916   5.261 -0.4975 -0.3209  0.4222
 2744TIP3    H2 8197   0.995   6.000   5.269 -0.4387 -0.4345  0.6929
 2745TIP3   OH2 8198   4.152   1.495   4.859 -0.5714  0.7761 -0.3998
 2745TIP3    H1 8199   4.145   1.539   4.775 -2.0501 -0.1354 -0.7783
 2745TIP3    H2 8200   4.163   1.566   4.922  1.3704  1.4323 -1.4031
 2746TIP3   OH2 8201   0.960   4.101   1.581  0.2262 -0.0970  0.8462
 2746TIP3    H1 8202   0.868   4.116   1.603 -0.0677  2.9919 -1.7656
 2746TIP3    H2 8203   1.008   4.136   1.656 -0.6497 -0.9166  1.8400
 2747TIP3   OH2 8204   2.891   3.416   2.812 -0.0986 -0.4117 -0.3379
 2747TIP3    H1 8205   2.870   3.372   2.895  0.6736  2.5050  1.5790
 2747TIP3    H2 8206   2.983   3.439   2.820 -0.0722  0.1378 -1.9186
 2748TIP3   OH2 8207   6.270   4.288   2.464  0.0285  0.0566 -0.3529
 2748TIP3    H1 8208   6.264   4.319   2.373 -1.0212  0.2719 -0.2266
 2748TIP3    H2 8209   6.179   4.274   2.490  0.2794  0.5526  0.8641
 2749TIP3   OH2 8210   1.260   0.871   5.849 -0.3234 -0.0526  0.1787
 2749TIP3    H1 8211   1.330   0.936   5.843  0.4580 -0.9318 -0.5068
 2749TIP3    H2 8212   1.298   0.801   5.902 -0.8243 -0.3766  0.1093
 2750TIP3   OH2 8213   6.654   6.582   0.245  0.1363  0.6729 -0.6503
 2750TIP3    H1 8214   6.712   6.523   0.197 -2.1306 -1.8951 -0.4964
 2750TIP3    H2 8215   6.605   6.628   0.177  0.8052  1.2244 -0.7681
 2751TIP3   OH2 8216   3.609   1.830   3.336 -0.5191 -0.5982 -0.0617
 2751TIP3    H1 8217   3.686   1.883   3.360 -0.7812  0.6261 -1.7378
 2751TIP3    H2 8218   3.557   1.826   3.417  1.4123 -1.7206  1.1913
 2752TIP3   OH2 8219   2.297   3.914   2.498 -0.5361 -0.3914  0.3378
 2752TIP3    H1 8220   2.312   3.872   2.583 -0.0519  0.1002  0.5022
 2752TIP3    H2 8221   2.349   3.994   2.502 -0.8956 -0.1266 -0.2417
 2753TIP3   OH2 8222   3.780   2.081   5.798  0.6826 -0.0782 -0.2340
 2753TIP3    H1 8223   3.742   2.162   5.764 -1.0102 -1.0386 -0.7242
 2753TIP3    H2 8224   3.804   2.032   5.720 -3.5011 -2.4291 -0.3117
 2754TIP3   OH2 8225   3.947   2.457   4.599 -0.0840 -0.1148 -0.1277
 2754TIP3    H1 8226   3.942   2.406   4.518  1.3242  0.1026 -0.3806
 2754TIP3    H2 8227   3.974   2.545   4.570  1.5360 -0.3214  0.6377
 2755TIP3   OH2 8228   5.813   2.421   2.237 -0.1812  0.3468 -0.1859
 2755TIP3    H1 8229   5.868   2.382   2.304  0.3083  0.3124 -0.6042
 2755TIP3    H2 8230   5.733   2.447   2.283 -0.2116 -0.4763  0.2358
 2756TIP3   OH2 8231   1.082   2.489   4.553  0.0641 -0.2580 -0.2723
 2756TIP3    H1 8232   1.166   2.453   4.580  0.0929 -0.0081 -0.0209
 2756TIP3    H2 8233   1.064   2.448   4.469  0.8992  0.4324 -0.8004
 2757TIP3   OH2 8234   2.462   1.884   0.467  0.0320 -0.2645  0.5757
 2757TIP3    H1 8235   2.475   1.795   0.435  2.0171 -0.0270  0.5735
 2757TIP3    H2 8236   2.546   1.908   0.506 -0.7479  1.2860  1.4197
 2758TIP3   OH2 8237   3.128   5.025   0.432 -0.6774  0.0300 -0.1437
 2758TIP3    H1 8238   3.086   5.094   0.484 -0.8657 -0.9253  1.0201
 2758TIP3    H2 8239   3.184   5.072   0.371  2.4051  1.2326  3.2607
 2759TIP3   OH2 8240   0.888   3.800   0.777  0.1828  0.1944  0.2861
 2759TIP3    H1 8241   0.944   3.736   0.731 -0.7645 -0.0343 -0.5702
 2759TIP3    H2 8242   0.886   3.768   0.868 -1.4910 -1.9118 -0.4138
 2760TIP3   OH2 8243   3.251   3.896   4.621  0.2796  0.0920  0.0125
 2760TIP3    H1 8244   3.271   3.957   4.551 -0.5915  0.4813  0.0806
 2760TIP3    H2 8245   3.190   3.833   4.582  0.6745 -0.3561  0.1139
 2761TIP3   OH2 8246   4.285   1.178   2.115  0.0979  0.8302 -0.3480
 2761TIP3    H1 8247   4.376   1.147   2.115 -0.9739 -2.7896 -0.0948
 2761TIP3    H2 8248   4.279   1.232   2.194  1.8794  0.5344  0.0394
 2762TIP3   OH2 8249   4.682   5.624   3.341  0.0736 -0.1252 -0.4100
 2762TIP3    H1 8250   4.725   5.644   3.257  0.7332 -1.0159 -0.3053
 2762TIP3    H2 8251   4.754   5.622   3.404 -0.4716  0.9328  0.2636
 2763TIP3   OH2 8252   2.771   5.846   3.067  0.0667  0.2862 -0.2357
 2763TIP3    H1 8253   2.717   5.897   3.006 -0.6858 -0.6110 -0.3475
 2763TIP3    H2 8254   2.859   5.847   3.029  0.1137  1.6622 -0.1252
 2764TIP3   OH2 8255   4.890   2.669   2.650 -0.5170 -0.0523  0.0538
 2764TIP3    H1 8256   4.891   2.578   2.621  1.1442 -0.0048 -0.1278
 2764TIP3    H2 8257   4.955   2.673   2.721 -0.6781  0.9610  0.1664
 2765TIP3   OH2 8258   6.845   0.371   5.081  0.2083 -1.1778  0.7345
 2765TIP3    H1 8259   6.814   0.359   5.170 -0.4842  0.6001  0.7682
 2765TIP3    H2 8260   6.826   0.463   5.060  1.5372 -1.1905 -0.7828
 2766TIP3   OH2 8261   1.410   5.405   2.856 -0.4893 -0.1995 -0.4961
 2766TIP3    H1 8262   1.395   5.452   2.774 -0.6038  1.8024  0.6058
 2766TIP3    H2 8263   1.335   5.429   2.911  0.2985 -0.3428  0.6815
 2767TIP3   OH2 8264   1.371   4.883   1.071  0.2253  0.4283 -0.2775
 2767TIP3    H1 8265   1.426   4.805   1.073  0.0823  0.3391  0.4065
 2767TIP3    H2 8266   1.424   4.949   1.026  1.2498  0.6023  1.1451
 2768TIP3   OH2 8267   2.285   0.236   2.440  0.0310  0.2207  0.3108
 2768TIP3    H1 8268   2.369   0.211   2.401  0.2678  1.0736  0.2383
 2768TIP3    H2 8269   2.262   0.163   2.497  0.1874 -0.6022 -0.6440
 2769TIP3   OH2 8270   4.644   4.948   2.371  0.2978 -0.1982  0.9974
 2769TIP3    H1 8271   4.576   4.993   2.420  1.0631  1.0034  1.0271
 2769TIP3    H2 8272   4.677   5.015   2.310 -0.1699 -1.4504 -0.6800
 2770TIP3   OH2 8273   2.302   6.359   4.875  0.7010  0.7519  0.2759
 2770TIP3    H1 8274   2.366   6.339   4.807  1.0991 -1.8643  1.3027
 2770TIP3    H2 8275   2.220   6.322   4.842  0.2762  1.8112  0.1048
 2771TIP3   OH2 8276   3.236   5.683   4.563 -0.2571 -0.1688 -0.8979
 2771TIP3    H1 8277   3.144   5.677   4.538 -0.4714 -1.0962  0.0416
 2771TIP3    H2 8278   3.253   5.603   4.612  1.1199 -0.1195 -1.2518
 2772TIP3   OH2 8279   4.091   6.742   0.314 -0.3370  0.3498  0.4054
 2772TIP3    H1 8280   4.088   6.810   0.382  0.2000  0.5572  0.2256
 2772TIP3    H2 8281   4.182   6.713   0.312  0.5226  2.7030 -2.4783
 2773TIP3   OH2 8282   4.749   1.548   4.412  0.0691 -0.3316  0.5187
 2773TIP3    H1 8283   4.814   1.520   4.347 -0.9825  0.6317 -0.9897
 2773TIP3    H2 8284   4.690   1.473   4.421  0.4814 -0.6362  0.7237
 2774TIP3   OH2 8285   1.817   5.892   0.911 -0.3068 -0.0573  0.6815
 2774TIP3    H1 8286   1.725   5.916   0.915 -0.0305  2.5461 -3.1719
 2774TIP3    H2 8287   1.817   5.806   0.868 -0.9669  0.8649 -1.2592
 2775TIP3   OH2 8288   3.172   5.163   3.752 -0.1136 -0.2449 -0.2364
 2775TIP3    H1 8289   3.082   5.140   3.778  0.1160  0.2370  1.0778
 2775TIP3    H2 8290   3.160   5.215   3.672 -0.9350 -0.9454 -0.5918
 2776TIP3   OH2 8291   1.694   3.699   0.595 -0.0491  0.1810  0.0443
 2776TIP3    H1 8292   1.603   3.676   0.575  0.8949 -2.1393 -2.2717
 2776TIP3    H2 8293   1.720   3.635   0.662  0.5650 -0.8887 -1.1844
 2777TIP3   OH2 8294   0.312   4.897   4.937 -0.0408 -0.4619 -0.0383
 2777TIP3    H1 8295   0.257   4.825   4.970  0.4017 -0.3552  0.9859
 2777TIP3    H2 8296   0.262   4.976   4.958 -0.0026 -0.4171 -0.1179
 2778TIP3   OH2 8297   5.768   2.511   5.315 -0.1993 -0.2009 -0.1925
 2778TIP3    H1 8298   5.852   2.542   5.350 -0.1478 -1.2520  0.6265
 2778TIP3    H2 8299   5.754   2.426   5.355 -2.1255  0.3471  0.4043
 2779TIP3   OH2 8300   1.942   3.886   2.265 -0.4244 -0.4354  0.0002
 2779TIP3    H1 8301   2.002   3.832   2.317  0.6456  1.0852  0.4240
 2779TIP3    H2 8302   1.871   3.907   2.326  1.1059  1.8189  1.1562
 2780TIP3   OH2 8303   5.426   0.788   2.159  0.5108  0.3223  0.5611
 2780TIP3    H1 8304   5.473   0.709   2.189 -0.2413 -1.3421 -2.3027
 2780TIP3    H2 8305   5.409   0.836   2.240  2.4999 -1.5755  2.2835
 2781TIP3   OH2 8306   4.015   6.318   4.798  0.0687  0.6228  0.1650
 2781TIP3    H1 8307   3.921   6.299   4.799 -0.0070  1.0010  0.2610
 2781TIP3    H2 8308   4.051   6.254   4.737 -0.1481 -0.0122  0.6859
 2782TIP3   OH2 8309   0.983   2.366   4.292  0.4181  0.1878 -0.2916
 2782TIP3    H1 8310   0.941   2.451   4.293 -1.4595 -0.6831  0.0034
 2782TIP3    H2 8311   0.938   2.317   4.223  0.0822 -1.1766  0.8404
 2783TIP3   OH2 8312   2.375   1.201   3.638 -0.5588 -0.0828 -0.0075
 2783TIP3    H1 8313   2.403   1.120   3.594  0.0659 -0.9537  1.8545
 2783TIP3    H2 8314   2.449   1.260   3.627 -0.1663 -0.4968  0.3442
 2784TIP3   OH2 8315   1.669   0.768   4.660  0.0712 -0.1130 -0.2437
 2784TIP3    H1 8316   1.638   0.840   4.606 -2.3245 -0.5469  0.4310
 2784TIP3    H2 8317   1.729   0.719   4.603  2.3092  2.6936 -0.5027
 2785TIP3   OH2 8318   2.960   1.025   4.418  0.0266 -0.3619 -0.5974
 2785TIP3    H1 8319   2.873   0.999   4.449 -0.3629 -0.7209 -1.9399
 2785TIP3    H2 8320   2.964   1.119   4.437 -0.2541 -0.5417  0.3866
 2786TIP3   OH2 8321   7.043   5.303   4.385  0.3531  0.3793  0.4036
 2786TIP3    H1 8322   6.983   5.300   4.310 -0.2694  4.1928  0.5128
 2786TIP3    H2 8323   6.990   5.271   4.459  0.6802 -2.5167 -0.4975
 2787TIP3   OH2 8324   0.582   4.818   4.583  0.1563 -0.3966 -0.0319
 2787TIP3    H1 8325   0.637   4.764   4.527 -0.4218 -1.1957  0.1578
 2787TIP3    H2 8326   0.573   4.901   4.535 -0.2780 -1.0388 -1.0958
 2788TIP3   OH2 8327   1.240   5.833   0.737 -0.2249 -0.0493 -0.0527
 2788TIP3    H1 8328   1.256   5.752   0.689 -1.3758 -0.7081  0.6385
 2788TIP3    H2 8329   1.321   5.847   0.787 -0.1705 -1.0088  0.1525
 2789TIP3   OH2 8330   3.162   4.842   4.729 -0.8332 -0.2203  0.2669
 2789TIP3    H1 8331   3.174   4.814   4.638  0.2662 -0.3577  0.4358
 2789TIP3    H2 8332   3.244   4.885   4.752 -0.7418 -0.9811  1.4710
 2790TIP3   OH2 8333   2.895   0.390   0.193  0.1024  0.3758  0.0219
 2790TIP3    H1 8334   2.813   0.405   0.239 -0.1438 -1.9359  0.4953
 2790TIP3    H2 8335   2.953   0.353   0.260  1.6053  2.0511 -0.2754
 2791TIP3   OH2 8336   2.006   2.346   3.371 -0.5700 -0.9178  0.2572
 2791TIP3    H1 8337   2.009   2.296   3.452 -2.8584 -1.3359  0.1648
 2791TIP3    H2 8338   1.966   2.429   3.395 -0.4971 -0.7122 -0.3045
 2792TIP3   OH2 8339   4.314   1.162   4.093 -0.0334  0.2889  0.2008
 2792TIP3    H1 8340   4.295   1.101   4.022 -0.4560  1.1348 -0.4376
 2792TIP3    H2 8341   4.235   1.216   4.099 -0.1209  0.0420  1.5173
 2793TIP3   OH2 8342   7.117   3.905   3.981  0.2906 -1.0361 -0.2183
 2793TIP3    H1 8343   7.126   3.871   4.070 -1.9775 -1.6695 -0.1654
 2793TIP3    H2 8344   7.113   4.000   3.991  0.9418 -1.0504  0.2411
 2794TIP3   OH2 8345   2.320   3.455   2.186  0.0584  0.3477  0.2230
 2794TIP3    H1 8346   2.269   3.490   2.260 -0.1374  1.5071 -0.4411
 2794TIP3    H2 8347   2.264   3.468   2.110  0.4021 -0.5319 -0.1933
 2795TIP3   OH2 8348   1.887   1.251   5.734 -0.0632 -0.4261  0.3693
 2795TIP3    H1 8349   1.942   1.326   5.757  2.0678 -1.9765  0.5316
 2795TIP3    H2 8350   1.948   1.182   5.709 -1.9799 -0.9690 -3.6796
 2796TIP3   OH2 8351   4.582   3.275   4.638  0.0395  0.2014  0.0292
 2796TIP3    H1 8352   4.617   3.362   4.659 -2.3502  1.2725 -0.0562
 2796TIP3    H2 8353   4.540   3.287   4.553 -1.0281 -0.8102  0.3925
 2797TIP3   OH2 8354   1.819   5.560   0.318 -0.2652 -0.6185  0.2172
 2797TIP3    H1 8355   1.884   5.533   0.383  0.4744  0.4615 -0.0472
 2797TIP3    H2 8356   1.778   5.478   0.289 -1.9595 -1.0417  3.3648
 2798TIP3   OH2 8357   7.060   6.022   2.197  0.6001  0.0387 -0.1073
 2798TIP3    H1 8358   7.155   6.014   2.185  0.4490 -0.2897 -1.1843
 2798TIP3    H2 8359   7.024   6.007   2.110 -0.8165 -5.0991  1.0312
 2799TIP3   OH2 8360   2.732   4.587   1.900 -0.8898 -0.3130  0.2735
 2799TIP3    H1 8361   2.734   4.532   1.978  0.2388 -0.1140  0.3903
 2799TIP3    H2 8362   2.818   4.627   1.896 -0.8471 -0.4965 -1.1985
 2800TIP3   OH2 8363   2.169   2.762   0.447  0.3489 -0.1558  0.0420
 2800TIP3    H1 8364   2.200   2.793   0.362  0.2775 -1.0814 -0.3310
 2800TIP3    H2 8365   2.092   2.817   0.465 -1.3641 -1.7467 -1.8408
 2801TIP3   OH2 8366   6.511   4.429   5.687  0.8660  0.5683 -0.1686
 2801TIP3    H1 8367   6.481   4.476   5.609  1.6019  0.3199 -0.6144
 2801TIP3    H2 8368   6.443   4.445   5.752 -0.6982 -0.7236 -1.4003
 2802TIP3   OH2 8369   0.427   6.775   4.886  0.0520 -0.3812  0.4332
 2802TIP3    H1 8370   0.430   6.847   4.949 -1.3062 -0.5114  0.6734
 2802TIP3    H2 8371   0.516   6.739   4.886  0.8991  1.5904 -0.0660
 2803TIP3   OH2 8372   3.022   5.900   5.387 -0.1588 -0.1920  0.2506
 2803TIP3    H1 8373   2.933   5.869   5.404 -0.3834  0.7787  0.9210
 2803TIP3    H2 8374   3.032   5.977   5.444  0.7800  0.2633 -0.5014
 2804TIP3   OH2 8375   5.324   3.231   2.541 -0.1017  0.7266  0.3077
 2804TIP3    H1 8376   5.326   3.324   2.563  1.2959  0.7504  0.1245
 2804TIP3    H2 8377   5.413   3.210   2.514 -0.2408 -0.8310  0.9623
 2805TIP3   OH2 8378   6.854   1.400   3.821  0.2820  0.6268  0.1996
 2805TIP3    H1 8379   6.793   1.433   3.755  0.7786 -0.2667 -0.7419
 2805TIP3    H2 8380   6.802   1.337   3.872  0.5505 -0.6358 -1.0261
 2806TIP3   OH2 8381   6.534   5.713   2.666 -0.6807  0.1012  0.1132
 2806TIP3    H1 8382   6.530   5.647   2.735 -0.1049  0.9008  0.9280
 2806TIP3    H2 8383   6.488   5.789   2.703  0.2463  0.7788 -0.0988
 2807TIP3   OH2 8384   3.829   0.291   5.220 -0.3725  0.3327 -0.0069
 2807TIP3    H1 8385   3.812   0.358   5.286 -0.5694 -0.2433  0.5298
 2807TIP3    H2 8386   3.762   0.306   5.153  0.4319  1.5394 -0.5737
 2808TIP3   OH2 8387   6.963   3.307   3.617 -0.1573 -0.0384 -0.1359
 2808TIP3    H1 8388   6.901   3.245   3.654  0.4163 -1.1665 -1.0163
 2808TIP3    H2 8389   7.040   3.302   3.673 -0.5251  0.7594  0.4718
 2809TIP3   OH2 8390   4.696   5.560   0.540  0.3330 -0.4840 -0.2353
 2809TIP3    H1 8391   4.767   5.551   0.475  0.5012  3.1373 -0.7540
 2809TIP3    H2 8392   4.634   5.620   0.499 -0.7399  0.0464  2.0209
 2810TIP3   OH2 8393   5.925   6.328   1.751  0.0265  0.0933  0.1770
 2810TIP3    H1 8394   5.890   6.329   1.840 -1.7026  0.6761 -0.4781
 2810TIP3    H2 8395   5.913   6.238   1.721 -2.0092  0.5097 -0.4131
 2811TIP3   OH2 8396   6.210   2.474   0.279 -0.1272 -0.4428 -0.0937
 2811TIP3    H1 8397   6.303   2.489   0.261 -0.5996  0.4476 -2.1554
 2811TIP3    H2 8398   6.209   2.400   0.339  1.9377  0.2610  0.9138
 2812TIP3   OH2 8399   5.182   5.426   0.438  0.1188  0.4332 -0.3246
 2812TIP3    H1 8400   5.262   5.472   0.413  0.3179  0.8953  1.0535
 2812TIP3    H2 8401   5.168   5.450   0.530 -1.6764  0.4808 -0.5625
 2813TIP3   OH2 8402   0.237   1.523   1.084 -0.1163  0.4647 -0.1700
 2813TIP3    H1 8403   0.324   1.558   1.102  0.7733 -1.5975 -0.1852
 2813TIP3    H2 8404   0.211   1.480   1.165 -0.9981  0.7726 -0.2806
 2814TIP3   OH2 8405   0.003   4.664   5.646 -0.3478 -0.3344  0.1142
 2814TIP3    H1 8406  -0.033   4.715   5.719 -0.4281  0.2726 -0.3343
 2814TIP3    H2 8407   0.036   4.730   5.585  1.8455 -0.8681  0.6390
 2815TIP3   OH2 8408   6.731   3.739   2.349  0.0137 -0.1500 -0.1066
 2815TIP3    H1 8409   6.779   3.791   2.414  1.4733 -0.5196 -0.8368
 2815TIP3    H2 8410   6.712   3.657   2.395  0.8067 -0.3102 -0.0516
 2816TIP3   OH2 8411   4.620   6.670   3.508  0.1612  0.0397 -0.3143
 2816TIP3    H1 8412   4.686   6.626   3.454 -0.6949 -0.4420 -1.0006
 2816TIP3    H2 8413   4.669   6.734   3.558  1.1787 -0.4332 -0.6747
 2817TIP3   OH2 8414   1.623   6.409   0.585 -0.3297 -0.3309  0.1822
 2817TIP3    H1 8415   1.656   6.320   0.573 -2.5284 -1.5069  2.0711
 2817TIP3    H2 8416   1.700   6.460   0.611  1.3937 -1.0990 -2.8925
 2818TIP3   OH2 8417   3.076   0.813   1.943 -0.4355 -0.1445 -0.6087
 2818TIP3    H1 8418   3.026   0.864   1.879  0.3711  0.5161 -0.7353
 2818TIP3    H2 8419   3.086   0.727   1.903 -1.1743 -0.1751 -0.7284
 2819TIP3   OH2 8420   5.355   0.548   2.421 -0.4120  0.2198  0.2392
 2819TIP3    H1 8421   5.307   0.552   2.338  1.1402  1.1382 -0.6754
 2819TIP3    H2 8422   5.296   0.503   2.481 -1.0826 -1.6861 -1.7188
 2820TIP3   OH2 8423   6.404   0.036   1.416 -0.3419  0.5277  0.0638
 2820TIP3    H1 8424   6.361   0.038   1.331  0.6212 -1.1900 -0.5313
 2820TIP3    H2 8425   6.338   0.067   1.478 -2.2647 -1.4542 -0.8646
 2821TIP3   OH2 8426   6.733   0.815   2.446 -0.0328 -0.1010  0.8349
 2821TIP3    H1 8427   6.798   0.759   2.489  0.5436 -0.7084 -0.7727
 2821TIP3    H2 8428   6.775   0.844   2.365 -1.8288 -0.7246 -0.3820
 2822TIP3   OH2 8429   4.064   1.296   4.072  0.9854  0.1112 -0.1042
 2822TIP3    H1 8430   4.033   1.387   4.068  1.4256  0.3130  0.7253
 2822TIP3    H2 8431   4.011   1.250   4.008 -0.1156  0.7132  0.3377
 2823TIP3   OH2 8432   5.250   3.173   1.994  0.0443  0.4688  0.3521
 2823TIP3    H1 8433   5.260   3.153   2.087  0.4812 -1.0861  0.0013
 2823TIP3    H2 8434   5.189   3.247   1.991  0.7199  1.1105  1.9051
 2824TIP3   OH2 8435   6.669   1.738   1.444  0.3528 -0.2050  0.7096
 2824TIP3    H1 8436   6.757   1.701   1.431  1.1168  1.7981 -0.1895
 2824TIP3    H2 8437   6.614   1.661   1.461  1.9690 -1.7044 -0.3627
 2825TIP3   OH2 8438   2.911   4.438   0.197  0.1605  0.0942  0.2315
 2825TIP3    H1 8439   2.956   4.503   0.251  1.5565 -0.4691 -0.2024
 2825TIP3    H2 8440   2.823   4.432   0.234  0.3058  1.5169  0.8711
 2826TIP3   OH2 8441   3.192   3.548   4.709 -0.2067  0.4257  1.1400
 2826TIP3    H1 8442   3.146   3.469   4.680 -0.4447 -0.1906  3.0743
 2826TIP3    H2 8443   3.265   3.557   4.648 -2.6131  1.2754 -1.8861
 2827TIP3   OH2 8444   5.784   2.771   4.880  0.2740 -0.6116 -0.1006
 2827TIP3    H1 8445   5.706   2.748   4.830 -0.0130  1.4960 -0.7007
 2827TIP3    H2 8446   5.810   2.689   4.922 -2.4319 -1.3255  0.3751
 2828TIP3   OH2 8447   0.253   5.293   4.007 -0.5249  0.1808 -0.0778
 2828TIP3    H1 8448   0.196   5.292   4.084 -0.4389  0.3596 -0.0134
 2828TIP3    H2 8449   0.247   5.382   3.973 -2.3650 -0.4656 -1.6119
 2829TIP3   OH2 8450   4.990   3.248   3.271  0.0956  0.2289 -0.6375
 2829TIP3    H1 8451   5.060   3.265   3.208  0.7712 -0.9391 -0.2229
 2829TIP3    H2 8452   5.014   3.298   3.349 -0.5699  1.4055 -1.1513
 2830TIP3   OH2 8453   3.829   3.974   0.458 -0.1378 -0.2923  0.1784
 2830TIP3    H1 8454   3.924   3.965   0.463 -0.2488 -0.7914  2.1206
 2830TIP3    H2 8455   3.810   4.055   0.506 -0.6857  0.0146 -0.5338
 2831TIP3   OH2 8456   0.765   4.567   1.754  0.1461 -0.2973 -0.6891
 2831TIP3    H1 8457   0.820   4.500   1.795  1.3261  0.3050 -1.2266
 2831TIP3    H2 8458   0.677   4.549   1.787  0.8692 -0.4369  1.3540
 2832TIP3   OH2 8459   7.072   2.253   1.544 -0.4644  0.2568 -0.2159
 2832TIP3    H1 8460   7.120   2.294   1.472 -0.0669 -0.7124 -0.5180
 2832TIP3    H2 8461   7.117   2.283   1.623  1.6540 -1.7846 -0.5322
 2833TIP3   OH2 8462   0.271   1.612   2.864 -0.0913 -0.1758  0.3503
 2833TIP3    H1 8463   0.220   1.672   2.917 -0.4173 -0.5203  0.4305
 2833TIP3    H2 8464   0.322   1.668   2.806 -0.9201  0.1650 -0.0599
 2834TIP3   OH2 8465   3.555   2.458   1.283  0.1415  0.6939  0.6774
 2834TIP3    H1 8466   3.520   2.438   1.196  2.3749 -3.0123  0.3999
 2834TIP3    H2 8467   3.487   2.510   1.325 -0.8630  3.1178 -3.3620
 2835TIP3   OH2 8468   2.354   4.139   5.530  0.1087  0.3161  0.1257
 2835TIP3    H1 8469   2.347   4.051   5.493  2.2171  0.2375 -0.1958
 2835TIP3    H2 8470   2.421   4.131   5.599  2.3975  2.1518 -1.7186
 2836TIP3   OH2 8471   5.225   2.237   3.800  0.0170 -0.2739 -0.6354
 2836TIP3    H1 8472   5.153   2.283   3.757  1.0512  1.1529 -0.9106
 2836TIP3    H2 8473   5.190   2.214   3.887 -0.7232  0.5211 -0.7031
 2837TIP3   OH2 8474   6.699   0.099   1.284  0.3923  0.1206 -0.0354
 2837TIP3    H1 8475   6.748   0.048   1.348 -0.1160 -1.4954 -0.8686
 2837TIP3    H2 8476   6.662   0.172   1.334  1.2659 -0.2385  1.1747
 2838TIP3   OH2 8477   5.926   1.983   3.473 -0.1279  0.3428 -0.2133
 2838TIP3    H1 8478   5.976   1.902   3.467 -1.7132 -0.6247 -0.9876
 2838TIP3    H2 8479   5.836   1.957   3.456 -0.4244  2.6074 -2.7017
 2839TIP3   OH2 8480   2.188   4.139   2.836  0.8537  1.1041 -0.2432
 2839TIP3    H1 8481   2.243   4.062   2.831  0.2499  0.5462  1.2921
 2839TIP3    H2 8482   2.196   4.170   2.926 -0.8604  1.3471 -0.1286
 2840TIP3   OH2 8483   4.418   2.807   1.960  0.3427  0.0897 -0.6043
 2840TIP3    H1 8484   4.374   2.722   1.962 -2.7290  1.4859 -2.4189
 2840TIP3    H2 8485   4.414   2.837   2.051 -1.1140 -0.5329 -0.4251
 2841TIP3   OH2 8486   6.275   4.504   4.858 -0.6860  0.0271  0.2696
 2841TIP3    H1 8487   6.335   4.430   4.868 -1.3530 -0.7540 -1.1923
 2841TIP3    H2 8488   6.227   4.485   4.778 -1.0302  1.9601 -0.0228
 2842TIP3   OH2 8489   3.091   3.756   2.408  0.2617  0.2580  0.3865
 2842TIP3    H1 8490   3.153   3.692   2.373  0.8383 -0.2051  2.1120
 2842TIP3    H2 8491   3.070   3.723   2.496 -0.6877  1.6008  0.7014
 2843TIP3   OH2 8492   1.830   3.048   2.494 -0.0475  0.1084  0.5696
 2843TIP3    H1 8493   1.900   3.024   2.555 -0.5548 -1.2917  0.6292
 2843TIP3    H2 8494   1.834   2.982   2.425 -0.4231  0.8345 -0.1685
 2844TIP3   OH2 8495   2.522   5.511   2.515  0.1650 -0.4453 -0.3343
 2844TIP3    H1 8496   2.516   5.464   2.598  0.2370  1.6267  0.9222
 2844TIP3    H2 8497   2.600   5.476   2.473  0.8233 -0.7132  1.0477
 2845TIP3   OH2 8498   6.542   6.748   1.118 -0.7066  0.2952 -0.4856
 2845TIP3    H1 8499   6.477   6.707   1.174 -0.6262  0.4203 -0.2962
 2845TIP3    H2 8500   6.566   6.681   1.054 -0.5862  0.0511 -0.1887
 2846TIP3   OH2 8501   5.597   4.962   3.696 -0.2105 -0.1857  0.5834
 2846TIP3    H1 8502   5.642   4.878   3.698 -1.2631 -0.8673 -1.5565
 2846TIP3    H2 8503   5.665   5.025   3.673  0.1610 -0.8146 -0.0639
 2847TIP3   OH2 8504   0.345   4.307   2.108  0.5386  0.1495 -0.5763
 2847TIP3    H1 8505   0.344   4.365   2.185 -1.1022  0.4545 -0.7975
 2847TIP3    H2 8506   0.367   4.221   2.144  1.3016  0.5713  0.0059
 2848TIP3   OH2 8507   1.305   4.556   0.188 -0.1759 -0.2828 -0.3746
 2848TIP3    H1 8508   1.395   4.577   0.211 -0.6664  2.0043 -0.3143
 2848TIP3    H2 8509   1.290   4.602   0.106 -1.3471 -0.4853 -0.2870
 2849TIP3   OH2 8510   4.526   5.323   0.078  0.0294 -0.7479  0.5102
 2849TIP3    H1 8511   4.433   5.304   0.087 -0.0234 -0.7622 -0.0097
 2849TIP3    H2 8512   4.530   5.415   0.051  0.1454 -0.8404  0.2010
 2850TIP3   OH2 8513   2.177   5.501   1.513 -0.0505 -0.1781  1.0546
 2850TIP3    H1 8514   2.152   5.485   1.422  0.0986 -0.3338  1.0407
 2850TIP3    H2 8515   2.174   5.415   1.555 -1.4914  0.0952  1.5521
 2851TIP3   OH2 8516   1.096   6.482   1.516 -0.1760 -0.2936  0.3748
 2851TIP3    H1 8517   1.183   6.521   1.527  0.9200 -1.8745 -1.7788
 2851TIP3    H2 8518   1.073   6.450   1.603  1.2787  0.4126  1.0534
 2852TIP3   OH2 8519   1.831   5.226   1.443 -0.1121 -0.2623  0.4359
 2852TIP3    H1 8520   1.851   5.277   1.521 -0.0742  1.1715 -0.4630
 2852TIP3    H2 8521   1.899   5.159   1.440  1.0010  0.8111  0.6551
 2853TIP3   OH2 8522   2.802   2.394   4.584 -0.0570 -0.3011  0.5236
 2853TIP3    H1 8523   2.799   2.402   4.679 -0.0831 -0.3035  0.5228
 2853TIP3    H2 8524   2.733   2.331   4.563  0.1915 -0.5834  0.5374
 2854TIP3   OH2 8525   1.104   5.379   1.641 -0.0358  0.1694  0.3121
 2854TIP3    H1 8526   1.170   5.447   1.651 -0.2133  0.3963 -0.0273
 2854TIP3    H2 8527   1.128   5.333   1.560 -0.4275  0.4072  0.0567
 2855TIP3   OH2 8528   4.860   6.207   5.229  0.7571 -0.2690 -0.0546
 2855TIP3    H1 8529   4.815   6.133   5.270 -1.0052  0.5459 -0.4631
 2855TIP3    H2 8530   4.927   6.166   5.174 -0.6709 -1.6077 -0.8635
 2856TIP3   OH2 8531   5.634   4.171   1.713  0.1045 -0.3698 -0.2148
 2856TIP3    H1 8532   5.645   4.080   1.684 -1.2461 -0.9193  0.9132
 2856TIP3    H2 8533   5.723   4.199   1.735  0.5672 -1.3520 -0.7396
 2857TIP3   OH2 8534   3.826   0.731   5.300 -0.1709  0.1085 -0.2464
 2857TIP3    H1 8535   3.879   0.808   5.322 -1.2121  0.6016  0.6304
 2857TIP3    H2 8536   3.873   0.658   5.341  0.2852  0.4105 -0.2174
 2858TIP3   OH2 8537   3.865   2.620   1.908  0.6166  0.2760  0.3294
 2858TIP3    H1 8538   3.946   2.579   1.938  1.3339  1.1661 -0.3419
 2858TIP3    H2 8539   3.854   2.696   1.965 -0.0149 -0.1011  0.7272
 2859TIP3   OH2 8540   5.596   4.426   3.785  0.2847  0.7561  0.3328
 2859TIP3    H1 8541   5.594   4.385   3.699  0.8545  2.6378 -0.6296
 2859TIP3    H2 8542   5.504   4.434   3.810  0.1381 -2.6277  1.4171
 2860TIP3   OH2 8543   5.739   6.044   2.071  0.1725 -0.3887  0.0811
 2860TIP3    H1 8544   5.697   6.099   2.138  0.7138 -1.4591  1.3511
 2860TIP3    H2 8545   5.670   6.027   2.008 -0.2787  0.9035  0.1836
 2861TIP3   OH2 8546   4.245   2.762   1.537 -0.1061  0.6114  0.0207
 2861TIP3    H1 8547   4.335   2.795   1.546 -0.4001  1.2605  0.6372
 2861TIP3    H2 8548   4.255   2.667   1.539  0.7162  0.6452 -1.4234
 2862TIP3   OH2 8549   5.934   0.992   1.207 -0.0109 -0.3767  0.1083
 2862TIP3    H1 8550   5.846   0.955   1.221  0.7537 -3.2509 -1.7392
 2862TIP3    H2 8551   5.923   1.086   1.221 -2.9501 -0.8216  1.7535
 2863TIP3   OH2 8552   6.080   1.838   3.008 -0.3268 -0.6028  0.5010
 2863TIP3    H1 8553   6.028   1.860   2.931 -0.5744 -0.5876  0.6703
 2863TIP3    H2 8554   6.169   1.830   2.975 -0.0292  1.6711  0.5936
 2864TIP3   OH2 8555   3.784   6.534   1.734 -0.2838 -0.2089  0.4525
 2864TIP3    H1 8556   3.712   6.511   1.676  1.6493  1.3413 -2.8111
 2864TIP3    H2 8557   3.821   6.449   1.760 -0.7194 -0.9750 -1.2826
 2865TIP3   OH2 8558   4.546   5.671   2.384 -0.1364 -0.4680  0.4017
 2865TIP3    H1 8559   4.599   5.607   2.337  0.9613  1.3674 -0.9459
 2865TIP3    H2 8560   4.459   5.662   2.347  0.5130  0.3262 -1.4168
 2866TIP3   OH2 8561   6.534   0.301   2.883 -0.2018 -0.1437 -0.3900
 2866TIP3    H1 8562   6.479   0.315   2.805  0.3172  1.6916 -0.4798
 2866TIP3    H2 8563   6.621   0.281   2.847 -0.2229 -0.4566 -0.2681
 2867TIP3   OH2 8564   2.511   2.976   0.034 -0.0886 -0.0537 -0.0129
 2867TIP3    H1 8565   2.510   2.980  -0.062  0.4045 -1.1601 -0.0844
 2867TIP3    H2 8566   2.604   2.962   0.056 -0.3599 -1.1184  0.5376
 2868TIP3   OH2 8567   6.152   2.904   2.301  0.3133 -0.1506 -0.2625
 2868TIP3    H1 8568   6.196   2.916   2.217 -0.9541  2.1308 -0.7065
 2868TIP3    H2 8569   6.222   2.904   2.366  1.1215  2.3006 -1.0244
 2869TIP3   OH2 8570   6.508   5.366   2.220 -0.2207 -0.4844  0.1092
 2869TIP3    H1 8571   6.543   5.359   2.131 -1.5477  1.2404 -0.6138
 2869TIP3    H2 8572   6.582   5.394   2.273  0.5584 -1.4007 -0.4759
 2870TIP3   OH2 8573   1.717   2.508   2.243 -0.1273  0.0173 -0.1350
 2870TIP3    H1 8574   1.794   2.460   2.274  0.5866  0.7624 -0.6891
 2870TIP3    H2 8575   1.644   2.448   2.255  0.3724 -0.3290  1.3964
 2871TIP3   OH2 8576   0.857   0.656   2.070  0.2811  0.1025  0.5181
 2871TIP3    H1 8577   0.833   0.749   2.080  1.5439  0.4078  0.8406
 2871TIP3    H2 8578   0.822   0.614   2.148  1.2163  0.6398  1.2486
 2872TIP3   OH2 8579   5.114   2.114   4.025 -0.3553  0.0487 -0.3879
 2872TIP3    H1 8580   5.075   2.027   4.020  0.4152 -0.3876  0.8081
 2872TIP3    H2 8581   5.050   2.166   4.074 -3.1763  1.6150 -5.0414
 2873TIP3   OH2 8582   6.105   6.557   2.959  0.1003 -0.2427 -0.4219
 2873TIP3    H1 8583   6.186   6.553   3.008 -0.6060  0.5876  0.8601
 2873TIP3    H2 8584   6.058   6.477   2.981  1.3379 -1.6858 -2.6595
 2874TIP3   OH2 8585   1.266   3.828   2.982  0.3381 -0.0353 -0.1571
 2874TIP3    H1 8586   1.186   3.778   2.997  1.6153 -2.3206 -0.5777
 2874TIP3    H2 8587   1.329   3.764   2.951  2.4415  1.6458  0.4225
 2875TIP3   OH2 8588   1.119   6.002   4.092 -0.5224 -0.0269 -0.2548
 2875TIP3    H1 8589   1.069   5.924   4.071 -1.2941  0.6233 -0.8879
 2875TIP3    H2 8590   1.208   5.969   4.109 -0.8767 -1.0527 -0.3014
 2876TIP3   OH2 8591   2.405   3.062   2.014  0.1187  0.3707 -0.3578
 2876TIP3    H1 8592   2.333   3.002   1.997 -1.1397  1.9313 -0.7991
 2876TIP3    H2 8593   2.476   3.007   2.047 -0.9324 -1.3398 -0.8677
 2877TIP3   OH2 8594   0.901   2.517   1.474  0.2937  0.1126 -0.3197
 2877TIP3    H1 8595   0.856   2.476   1.401 -0.2805  1.8714 -0.9978
 2877TIP3    H2 8596   0.992   2.486   1.467 -0.4302 -2.3922  0.2759
 2878TIP3   OH2 8597   3.306   5.389   5.028  0.1876  0.3686 -0.3232
 2878TIP3    H1 8598   3.324   5.481   5.049 -1.2625  1.3576 -2.9813
 2878TIP3    H2 8599   3.338   5.378   4.939 -1.1703 -1.2256 -0.6559
 2879TIP3   OH2 8600   2.714   3.118   4.675 -0.2641  0.1539  0.2316
 2879TIP3    H1 8601   2.705   3.024   4.662  1.2465 -0.0250  0.3080
 2879TIP3    H2 8602   2.660   3.157   4.607 -0.4017 -0.7700 -0.2001
 2880TIP3   OH2 8603   3.761   6.190   5.803  0.2374  0.6671  0.4724
 2880TIP3    H1 8604   3.715   6.256   5.752  0.0378  0.7266  0.7245
 2880TIP3    H2 8605   3.715   6.108   5.785  0.8063  0.4969 -0.2467
 2881TIP3   OH2 8606   1.180   2.653   5.890 -0.0724  0.2892  0.1481
 2881TIP3    H1 8607   1.181   2.558   5.901 -1.2299  0.2856  0.3255
 2881TIP3    H2 8608   1.125   2.668   5.813  1.9507  0.7193 -1.2883
 2882TIP3   OH2 8609   2.424   1.693   2.641 -0.4877 -0.3050  0.1910
 2882TIP3    H1 8610   2.496   1.723   2.697 -0.7234  3.0242 -1.0671
 2882TIP3    H2 8611   2.345   1.729   2.683 -0.8933  0.2296 -0.9947
 2883TIP3   OH2 8612   0.873   6.730   2.604 -0.3774 -0.3808 -0.2238
 2883TIP3    H1 8613   0.931   6.788   2.553 -0.5201 -0.0878 -0.0520
 2883TIP3    H2 8614   0.899   6.642   2.577 -0.9204 -0.2206 -1.3309
 2884TIP3   OH2 8615   0.931   2.515   3.285  0.2616  0.4844 -0.2796
 2884TIP3    H1 8616   0.841   2.510   3.316 -0.2862  0.2618 -1.8189
 2884TIP3    H2 8617   0.966   2.595   3.323 -0.4850  0.4143  0.5719
 2885TIP3   OH2 8618   2.538   0.340   5.794 -0.1717  0.2673  0.0880
 2885TIP3    H1 8619   2.548   0.376   5.882 -1.3155  0.8534 -0.0054
 2885TIP3    H2 8620   2.590   0.398   5.739  1.3973 -0.7029  0.4924
 2886TIP3   OH2 8621   1.803   2.723   2.546 -0.2336 -0.4033  0.1966
 2886TIP3    H1 8622   1.793   2.641   2.499  0.9284  0.4389 -1.6570
 2886TIP3    H2 8623   1.896   2.725   2.570 -0.2243  0.3952  0.1297
 2887TIP3   OH2 8624   4.568   5.808   1.755  0.0611 -0.6384  0.4257
 2887TIP3    H1 8625   4.556   5.750   1.680  2.1123 -0.5919  0.0140
 2887TIP3    H2 8626   4.479   5.834   1.780 -0.6867 -1.0594 -1.6441
 2888TIP3   OH2 8627   5.668   0.626   2.867 -0.2635 -0.9106  0.1111
 2888TIP3    H1 8628   5.751   0.639   2.823 -0.0654 -1.3002  0.3670
 2888TIP3    H2 8629   5.664   0.532   2.887  0.2669 -0.5681  2.0954
 2889TIP3   OH2 8630   7.131   1.324   1.238 -0.3868 -0.3465 -0.3168
 2889TIP3    H1 8631   7.128   1.372   1.156  1.7814  0.6487  0.1139
 2889TIP3    H2 8632   7.067   1.254   1.227 -1.5055  0.8691 -2.0995
 2890TIP3   OH2 8633   6.415   0.946   3.863  0.0988 -0.1319 -0.2792
 2890TIP3    H1 8634   6.506   0.921   3.851  0.0376 -0.3844 -0.2228
 2890TIP3    H2 8635   6.419   1.026   3.915  0.2723 -0.4834  0.2669
 2891TIP3   OH2 8636   0.346   5.235   0.938  0.0347 -0.3253 -0.0662
 2891TIP3    H1 8637   0.341   5.164   1.001  0.7250  0.5474  0.9993
 2891TIP3    H2 8638   0.429   5.279   0.956 -0.1660  0.4916 -0.9870
 2892TIP3   OH2 8639   4.279   0.706   5.391  0.0331 -0.3308  0.5728
 2892TIP3    H1 8640   4.227   0.666   5.321  1.2142 -1.5314  0.3472
 2892TIP3    H2 8641   4.254   0.657   5.469 -0.6878  0.4771  0.8650
 2893TIP3   OH2 8642   1.024   4.132   4.597 -0.6527 -0.2473  0.7667
 2893TIP3    H1 8643   0.982   4.216   4.614 -2.2282 -0.9099  0.3758
 2893TIP3    H2 8644   1.076   4.114   4.676  1.0337  1.8110  0.1975
 2894TIP3   OH2 8645   4.315   6.356   2.375 -0.6581 -0.0183  0.2473
 2894TIP3    H1 8646   4.242   6.414   2.351 -0.7611  0.0582  0.7342
 2894TIP3    H2 8647   4.312   6.286   2.309 -0.9859  0.1401  0.0863
 2895TIP3   OH2 8648   4.645   0.801   3.171 -0.0513  0.3601  0.0512
 2895TIP3    H1 8649   4.734   0.827   3.196 -0.1659  1.2349 -0.4172
 2895TIP3    H2 8650   4.619   0.864   3.104 -0.0742 -1.3990 -1.6791
 2896TIP3   OH2 8651   5.771   5.160   0.194  0.0755 -0.0993 -0.2755
 2896TIP3    H1 8652   5.746   5.071   0.220  0.7741 -0.4038 -0.6232
 2896TIP3    H2 8653   5.762   5.161   0.099 -1.1514  0.5966 -0.1699
 2897TIP3   OH2 8654   6.859   5.796   3.959 -0.0918  0.2643 -0.6731
 2897TIP3    H1 8655   6.891   5.878   3.997 -1.4765  1.5272 -2.0472
 2897TIP3    H2 8656   6.908   5.727   4.004 -0.6367  1.6820  2.3620
 2898TIP3   OH2 8657   5.400   6.698   5.491  0.1116 -0.2145 -0.1563
 2898TIP3    H1 8658   5.313   6.727   5.463  0.0141 -0.0491  0.3136
 2898TIP3    H2 8659   5.439   6.775   5.533 -0.1042 -0.7109  0.9952
 2899TIP3   OH2 8660   7.150   3.563   3.590  0.2627 -0.3810 -0.8031
 2899TIP3    H1 8661   7.181   3.626   3.656  1.2122 -0.3349 -1.2748
 2899TIP3    H2 8662   7.157   3.478   3.633 -0.3725 -0.2435 -0.4023
 2900TIP3   OH2 8663   2.927   2.162   1.162 -0.0910 -0.0906 -0.4807
 2900TIP3    H1 8664   2.846   2.168   1.112 -0.4055 -0.0325  0.0316
 2900TIP3    H2 8665   2.906   2.105   1.236  0.6411 -0.9826 -0.9352
 2901TIP3   OH2 8666   5.822   5.147   4.251 -0.4674 -0.3854 -0.0459
 2901TIP3    H1 8667   5.746   5.095   4.278 -1.2500  1.2304  0.9783
 2901TIP3    H2 8668   5.855   5.186   4.332  1.8872 -1.5359 -0.3559
 2902TIP3   OH2 8669   0.738   2.029   0.381 -0.0302  0.2823  0.2834
 2902TIP3    H1 8670   0.822   2.009   0.423 -0.8900 -0.4075  1.7375
 2902TIP3    H2 8671   0.674   1.976   0.429 -1.2331  0.3734 -1.1596
 2903TIP3   OH2 8672   0.773   2.195   3.898  0.3992  0.2038 -0.5415
 2903TIP3    H1 8673   0.725   2.277   3.889  0.4118  0.4393  1.1081
 2903TIP3    H2 8674   0.747   2.143   3.822 -2.5845  0.2672  0.3056
 2904TIP3   OH2 8675   2.152   3.426   3.131  0.1188 -0.1583 -0.3035
 2904TIP3    H1 8676   2.108   3.488   3.074  0.8080 -0.2731 -0.9749
 2904TIP3    H2 8677   2.206   3.481   3.188 -1.6030  0.0607  1.2110
 2905TIP3   OH2 8678   3.130   5.647   5.304  0.0814 -0.0377 -0.4050
 2905TIP3    H1 8679   3.099   5.726   5.349  0.4984  1.0934 -1.9796
 2905TIP3    H2 8680   3.050   5.603   5.274 -0.1392  0.6026 -0.7934
 2906TIP3   OH2 8681   1.843   3.347   1.761 -0.4303  0.1040 -0.1732
 2906TIP3    H1 8682   1.924   3.317   1.803  2.1185  1.4204 -3.6585
 2906TIP3    H2 8683   1.816   3.273   1.706 -0.8282  0.1717 -0.0719
 2907TIP3   OH2 8684   6.793   1.384   4.760  0.1168  0.4624 -0.3372
 2907TIP3    H1 8685   6.848   1.414   4.832  1.0306 -2.4247  0.3072
 2907TIP3    H2 8686   6.718   1.343   4.802  0.3517 -0.7016 -0.9908
 2908TIP3   OH2 8687   3.238   1.699   5.816  0.4098  0.2321 -0.1225
 2908TIP3    H1 8688   3.187   1.722   5.738  0.4800 -0.0630 -0.2577
 2908TIP3    H2 8689   3.237   1.603   5.818 -1.6481  0.2246  1.5988
 2909TIP3   OH2 8690   3.035   5.336   1.581 -0.5351  0.1942  0.1293
 2909TIP3    H1 8691   3.068   5.248   1.568 -1.8339 -0.6493  2.0475
 2909TIP3    H2 8692   3.102   5.379   1.635 -0.4359 -0.0134  0.1724
 2910TIP3   OH2 8693   3.863   0.617   1.070 -0.2347 -0.5024 -1.0743
 2910TIP3    H1 8694   3.774   0.620   1.036 -0.3840 -1.0752 -0.7345
 2910TIP3    H2 8695   3.859   0.560   1.146  0.6047 -1.3293 -1.6190
 2911TIP3   OH2 8696   0.677   2.674   0.089  0.5606 -0.8331 -0.3925
 2911TIP3    H1 8697   0.599   2.712   0.129  1.4757  0.3928  0.2971
 2911TIP3    H2 8698   0.717   2.622   0.159  1.6358  0.5206  0.0512
 2912TIP3   OH2 8699   6.340   3.060   4.745  0.6117 -0.1080 -0.6391
 2912TIP3    H1 8700   6.394   3.137   4.728  0.8067  0.1264  0.8908
 2912TIP3    H2 8701   6.402   2.987   4.740  0.4676 -0.1746 -1.8711
 2913TIP3   OH2 8702   0.160   4.498   1.731 -0.3565 -0.4608 -0.3031
 2913TIP3    H1 8703   0.179   4.584   1.694  1.0995 -0.4498  0.4026
 2913TIP3    H2 8704   0.238   4.475   1.782 -0.3979 -2.5124 -1.0433
 2914TIP3   OH2 8705   6.276   5.567   4.274 -0.4453 -0.3621  0.7144
 2914TIP3    H1 8706   6.274   5.479   4.236  1.4598 -0.4183  0.6131
 2914TIP3    H2 8707   6.184   5.590   4.288 -1.0235 -1.9450 -0.2154
 2915TIP3   OH2 8708   5.170   5.503   3.476  0.0582 -0.2357 -0.1621
 2915TIP3    H1 8709   5.176   5.420   3.429 -2.0714 -0.1092 -0.7824
 2915TIP3    H2 8710   5.221   5.490   3.556  0.4210 -1.8467 -0.6276
 2916TIP3   OH2 8711   1.124   1.010   2.008 -0.2055  0.0587 -0.1121
 2916TIP3    H1 8712   1.151   0.923   1.980  0.7349 -0.7623  2.9282
 2916TIP3    H2 8713   1.049   0.995   2.065 -0.2646  1.2605  0.1640
 2917TIP3   OH2 8714   2.615   2.009   5.007  0.2508  0.0383 -0.0652
 2917TIP3    H1 8715   2.574   2.027   5.091 -0.5213 -1.5847 -0.0620
 2917TIP3    H2 8716   2.571   2.068   4.946 -1.9448 -1.4086  0.0027
 2918TIP3   OH2 8717   6.934   5.426   2.745  0.5117  0.1026  0.2113
 2918TIP3    H1 8718   6.932   5.470   2.830 -2.0562 -0.6667  0.6293
 2918TIP3    H2 8719   6.929   5.497   2.681 -2.6311  0.6027  0.8564
 2919TIP3   OH2 8720   1.607   6.716   0.590 -0.2465  0.1426  0.6105
 2919TIP3    H1 8721   1.661   6.677   0.522 -0.9869 -0.9471  0.6183
 2919TIP3    H2 8722   1.655   6.794   0.618  0.1886  0.4878 -0.9855
 2920TIP3   OH2 8723   3.495   6.353   0.512  0.5396 -0.2013  0.1992
 2920TIP3    H1 8724   3.586   6.371   0.488  0.3856 -0.5407 -0.6400
 2920TIP3    H2 8725   3.494   6.260   0.534  0.2337 -0.3740 -0.5411
 2921TIP3   OH2 8726   4.484   4.491   5.132  0.3987 -0.1136 -0.4633
 2921TIP3    H1 8727   4.478   4.586   5.125 -0.6777 -0.1993 -0.8255
 2921TIP3    H2 8728   4.545   4.465   5.062  0.4035  0.2744 -0.6016
 2922TIP3   OH2 8729   0.056   2.365   5.775  0.8199 -0.4479  0.5281
 2922TIP3    H1 8730   0.068   2.340   5.866  0.8538  1.6176  1.1395
 2922TIP3    H2 8731  -0.036   2.390   5.769 -0.4739 -4.6776 -1.1684
 2923TIP3   OH2 8732   5.285   3.739   5.196  0.1301 -0.2205 -0.4634
 2923TIP3    H1 8733   5.352   3.757   5.262  0.6113  0.3415 -1.0952
 2923TIP3    H2 8734   5.289   3.813   5.136  1.4841 -1.8739 -2.5798
 2924TIP3   OH2 8735   5.468   4.829   3.974  0.2897 -0.6164 -0.6492
 2924TIP3    H1 8736   5.487   4.774   3.898 -0.5687 -0.7925 -0.7552
 2924TIP3    H2 8737   5.492   4.917   3.947  1.1897 -0.8571 -0.6625
 2925TIP3   OH2 8738   1.668   5.092   4.143  0.0585 -0.0134 -0.5195
 2925TIP3    H1 8739   1.695   5.157   4.208  1.6587 -0.2687 -0.8848
 2925TIP3    H2 8740   1.681   5.008   4.186  0.5311 -0.1636 -0.9460
 2926TIP3   OH2 8741   5.602   3.037   4.883  0.1230 -0.5782 -0.1298
 2926TIP3    H1 8742   5.558   2.957   4.853  1.3681 -1.3216 -0.0118
 2926TIP3    H2 8743   5.567   3.052   4.971 -0.0405 -1.0458 -0.1114
 2927TIP3   OH2 8744   6.870   2.301   2.472 -0.4550 -0.2651  0.7303
 2927TIP3    H1 8745   6.937   2.369   2.459 -2.2369  1.9764  2.3631
 2927TIP3    H2 8746   6.920   2.221   2.487  1.9018  1.3525  2.2510
 2928TIP3   OH2 8747   3.715   1.251   1.830  0.2224 -0.7214  0.5290
 2928TIP3    H1 8748   3.787   1.226   1.772 -0.2946 -0.2472 -0.3405
 2928TIP3    H2 8749   3.637   1.250   1.774 -0.0887  1.0797  0.8771
 2929TIP3   OH2 8750   5.698   0.222   5.832  0.2708  0.4120  0.0373
 2929TIP3    H1 8751   5.605   0.211   5.810 -0.0146  0.8815  0.9348
 2929TIP3    H2 8752   5.705   0.314   5.860  0.8889  0.2322  0.4909
 2930TIP3   OH2 8753   6.267   3.210   2.471  0.3710 -0.5997 -0.2919
 2930TIP3    H1 8754   6.210   3.221   2.394 -0.4943 -1.3476  0.2283
 2930TIP3    H2 8755   6.264   3.117   2.490  2.2811 -0.7662 -0.6149
 2931TIP3   OH2 8756   5.711   3.469   4.723  0.0582 -0.2008  0.1009
 2931TIP3    H1 8757   5.676   3.434   4.804 -3.3264  1.6337 -0.3931
 2931TIP3    H2 8758   5.733   3.560   4.743 -0.0446  0.0409 -0.8156
 2932TIP3   OH2 8759   4.275   6.187   1.526  0.0285  0.1355 -0.0656
 2932TIP3    H1 8760   4.366   6.187   1.557 -0.1215  0.6606  0.3790
 2932TIP3    H2 8761   4.257   6.278   1.503 -0.3986  0.0372 -0.1308
 2933TIP3   OH2 8762   6.210   3.955   2.705  0.3230 -0.2567  0.1057
 2933TIP3    H1 8763   6.152   3.950   2.781 -1.8987 -1.0572 -1.5134
 2933TIP3    H2 8764   6.235   3.865   2.687  0.5080 -0.1188 -0.3402
 2934TIP3   OH2 8765   2.485   5.416   5.541 -0.4537  0.1183  0.1509
 2934TIP3    H1 8766   2.565   5.364   5.549 -1.5164 -1.5447  0.4449
 2934TIP3    H2 8767   2.462   5.438   5.632  0.3198  1.7065  0.0027
 2935TIP3   OH2 8768   2.796   0.910   4.179 -0.1736  0.6882  0.0019
 2935TIP3    H1 8769   2.851   0.910   4.257 -1.1324 -1.2284  0.7318
 2935TIP3    H2 8770   2.725   0.971   4.199 -0.5788 -0.0182  0.7816
 2936TIP3   OH2 8771   3.236   6.343   3.008  0.2382  0.4325 -0.7594
 2936TIP3    H1 8772   3.243   6.298   3.093  0.6562  1.6695 -0.1180
 2936TIP3    H2 8773   3.228   6.272   2.944 -2.0013 -0.5388  0.4558
 2937TIP3   OH2 8774   5.263   1.055   5.307 -0.1074  0.2709 -0.3369
 2937TIP3    H1 8775   5.218   1.140   5.305  0.7368  0.7081 -1.3810
 2937TIP3    H2 8776   5.334   1.067   5.370  0.3904  0.5447 -0.9426
 2938TIP3   OH2 8777   6.271   4.585   3.959 -0.3637 -1.1152  0.1424
 2938TIP3    H1 8778   6.275   4.679   3.944 -0.0686 -0.7494  2.1899
 2938TIP3    H2 8779   6.266   4.546   3.872  2.8512  0.6089 -0.9404
 2939TIP3   OH2 8780   2.767   5.593   1.394  0.2300  0.1401 -0.2000
 2939TIP3    H1 8781   2.762   5.654   1.321  0.5213  0.8357  0.3533
 2939TIP3    H2 8782   2.808   5.643   1.465 -1.4984 -0.0043  0.9597
 2940TIP3   OH2 8783   3.380   0.427   1.260  0.9353  0.3883 -0.7706
 2940TIP3    H1 8784   3.399   0.339   1.291 -0.5099  0.6832  1.1214
 2940TIP3    H2 8785   3.446   0.482   1.303 -1.4879  0.9005  2.7710
 2941TIP3   OH2 8786   2.340   2.285   3.332 -0.1640 -0.2069  0.1774
 2941TIP3    H1 8787   2.398   2.212   3.311  0.7803  0.0458  1.7141
 2941TIP3    H2 8788   2.291   2.256   3.408 -0.2830  0.4950  0.3778
 2942TIP3   OH2 8789   3.087   0.338   2.715 -0.0705  0.3959  0.3482
 2942TIP3    H1 8790   3.019   0.272   2.708  0.5327 -0.3215  1.0163
 2942TIP3    H2 8791   3.160   0.304   2.663  0.3866  0.3332  1.0132
 2943TIP3   OH2 8792   2.568   0.858   3.691 -0.1094  0.0301 -0.0617
 2943TIP3    H1 8793   2.635   0.791   3.701  1.2051  1.3529  0.3841
 2943TIP3    H2 8794   2.487   0.816   3.719  0.3249 -1.8857 -1.4643
 2944TIP3   OH2 8795   6.376   5.530   4.558  0.9554 -0.6540  0.1674
 2944TIP3    H1 8796   6.367   5.543   4.463 -2.5835  2.9040  0.7285
 2944TIP3    H2 8797   6.294   5.487   4.584  0.2797  1.5369  1.9197
 2945TIP3   OH2 8798   6.103   5.152   4.169  0.4945  0.5119  0.1720
 2945TIP3    H1 8799   6.085   5.059   4.166  1.3450  0.1925  2.4670
 2945TIP3    H2 8800   6.017   5.194   4.175  0.0966 -0.0634 -1.2068
 2946TIP3   OH2 8801   0.708   1.137   2.509  0.0381  0.2972 -0.3703
 2946TIP3    H1 8802   0.630   1.108   2.557 -0.3751 -2.3912 -2.3800
 2946TIP3    H2 8803   0.678   1.214   2.460 -0.8379  0.3232  0.1863
 2947TIP3   OH2 8804   5.073   1.998   4.664  0.4745 -0.1522  0.1985
 2947TIP3    H1 8805   5.032   1.913   4.680  0.6883 -0.2363  0.2986
 2947TIP3    H2 8806   5.001   2.055   4.637  0.3551 -0.4008 -0.0038
 2948TIP3   OH2 8807   3.606   5.688   5.039  0.8860 -0.0239 -0.1955
 2948TIP3    H1 8808   3.615   5.718   5.129 -0.2254 -1.7648  0.5436
 2948TIP3    H2 8809   3.514   5.662   5.031  0.4620  1.7417 -2.4071
 2949TIP3   OH2 8810   2.411   0.119   3.754  0.3692  0.3737  1.0029
 2949TIP3    H1 8811   2.347   0.060   3.793 -0.3647  0.4977  0.0183
 2949TIP3    H2 8812   2.448   0.070   3.681 -0.5879  1.2791 -0.1174
 2950TIP3   OH2 8813   1.396   1.928   2.081 -0.6626  0.0736  0.1336
 2950TIP3    H1 8814   1.432   1.840   2.083 -1.6697 -0.3423  0.5656
 2950TIP3    H2 8815   1.330   1.929   2.150  1.1424  1.9764  1.9451
 2951TIP3   OH2 8816   6.772   5.341   3.145  0.1105 -0.5048  0.4504
 2951TIP3    H1 8817   6.697   5.353   3.203  0.3779  0.5177  0.6024
 2951TIP3    H2 8818   6.753   5.260   3.098 -0.0587 -1.4107  2.0188
 2952TIP3   OH2 8819   6.086   2.315   5.537 -0.2943  0.1271 -0.2296
 2952TIP3    H1 8820   6.078   2.256   5.462 -0.9557  1.3301 -1.1510
 2952TIP3    H2 8821   6.013   2.292   5.594  0.2723 -0.8629  0.1301
 2953TIP3   OH2 8822   1.971   0.144   1.742  0.0041  0.3033 -0.5964
 2953TIP3    H1 8823   1.892   0.090   1.744  0.0419  0.2595  0.7441
 2953TIP3    H2 8824   1.955   0.208   1.672 -1.4607  0.6362  0.0107
 2954TIP3   OH2 8825   6.114   5.157   3.463  0.1667  0.1597  0.7176
 2954TIP3    H1 8826   6.119   5.143   3.557  2.5052 -0.0868  0.6152
 2954TIP3    H2 8827   6.022   5.177   3.446 -1.3116 -4.2298  2.3704
 2955TIP3   OH2 8828   1.470   3.996   0.709 -0.1539 -0.2095 -0.3675
 2955TIP3    H1 8829   1.545   3.980   0.652 -0.1125  0.2776 -0.4535
 2955TIP3    H2 8830   1.492   3.950   0.790  0.1779 -0.1821 -0.4398
 2956TIP3   OH2 8831   5.613   6.478   0.876 -0.0970 -0.0149  0.1653
 2956TIP3    H1 8832   5.637   6.570   0.891  0.1315 -0.0312 -0.0801
 2956TIP3    H2 8833   5.692   6.439   0.839  0.6927 -0.9537  2.6565
 2957TIP3   OH2 8834   4.275   0.143   4.263 -0.0939  0.5806 -0.4111
 2957TIP3    H1 8835   4.264   0.191   4.345  0.1844  0.3053 -0.2110
 2957TIP3    H2 8836   4.345   0.189   4.217  0.0225  0.4978 -0.3169
 2958TIP3   OH2 8837   3.585   3.324   5.629 -0.7761  0.3138 -0.1709
 2958TIP3    H1 8838   3.515   3.360   5.574 -1.5083 -1.1557 -0.2548
 2958TIP3    H2 8839   3.546   3.321   5.717 -0.2346  1.0064  0.0970
 2959TIP3   OH2 8840   1.906   4.556   5.082  0.3635 -0.1046 -0.4966
 2959TIP3    H1 8841   1.839   4.615   5.048 -0.6188 -0.5149  0.6700
 2959TIP3    H2 8842   1.913   4.487   5.016  0.4628  0.5283 -1.1602
 2960TIP3   OH2 8843   0.985   4.295   5.615 -0.0096  0.4610 -0.3417
 2960TIP3    H1 8844   0.976   4.311   5.708 -1.0578 -0.3803 -0.2843
 2960TIP3    H2 8845   1.005   4.201   5.608 -1.8505  0.0740 -1.0292
 2961TIP3   OH2 8846   1.926   5.557   4.574  0.0169 -0.0723 -0.1483
 2961TIP3    H1 8847   1.938   5.544   4.668 -0.4095  2.0248  0.2592
 2961TIP3    H2 8848   1.988   5.627   4.553 -1.3823  0.9562 -0.9664
 2962TIP3   OH2 8849   3.440   3.368   2.882 -0.2946 -0.4181 -0.4357
 2962TIP3    H1 8850   3.418   3.460   2.898  0.7142 -0.3830  0.9698
 2962TIP3    H2 8851   3.469   3.366   2.791 -2.2842  0.2325 -1.1375
 2963TIP3   OH2 8852   5.975   5.407   0.332  0.8204  0.7573 -0.4772
 2963TIP3    H1 8853   6.043   5.384   0.268  0.1723 -0.1459 -0.8763
 2963TIP3    H2 8854   5.989   5.345   0.404 -0.7952 -0.8328 -1.4526
 2964TIP3   OH2 8855   3.822   2.847   2.360 -0.3772  0.2079 -0.1374
 2964TIP3    H1 8856   3.797   2.757   2.383  0.7614  0.0913  0.7229
 2964TIP3    H2 8857   3.899   2.865   2.413  0.0837  1.3046 -1.1241
 2965TIP3   OH2 8858   5.580   6.328   4.808  0.4748 -0.3822 -0.1061
 2965TIP3    H1 8859   5.614   6.417   4.794  1.4767 -0.8937 -1.1158
 2965TIP3    H2 8860   5.522   6.313   4.734 -1.4110  0.1779  1.1801
 2966TIP3   OH2 8861   7.189   4.473   0.155  0.3412  0.1683  0.6720
 2966TIP3    H1 8862   7.253   4.486   0.085  0.0586  0.7442  0.5133
 2966TIP3    H2 8863   7.166   4.561   0.183 -0.4369 -0.0292  0.6760
 2967TIP3   OH2 8864   5.445   6.044   3.822 -0.7674  0.3328  0.2862
 2967TIP3    H1 8865   5.529   6.052   3.778 -0.1936  1.4206  1.5231
 2967TIP3    H2 8866   5.462   6.071   3.912 -2.4211  0.5148  0.5745
 2968TIP3   OH2 8867   2.999   5.881   2.575 -0.0238  0.4605  0.2662
 2968TIP3    H1 8868   2.914   5.839   2.567  0.2223 -0.5088  2.1237
 2968TIP3    H2 8869   2.988   5.966   2.534 -1.6204  0.0229 -0.2864
 2969TIP3   OH2 8870   4.525   5.458   3.701  0.0765  0.2979 -0.0187
 2969TIP3    H1 8871   4.601   5.451   3.644 -0.2739 -1.7631 -0.3060
 2969TIP3    H2 8872   4.557   5.503   3.779  1.6346 -0.7256 -0.0426
 2970TIP3   OH2 8873   5.473   1.363   5.831 -0.5294  0.3590 -0.6701
 2970TIP3    H1 8874   5.450   1.280   5.873 -0.9229  1.2798  1.0595
 2970TIP3    H2 8875   5.419   1.366   5.752 -1.9616 -0.1971  0.2387
 2971TIP3   OH2 8876   1.781   0.309   1.970  0.1955 -0.1707 -0.4371
 2971TIP3    H1 8877   1.725   0.294   1.894  0.1911 -1.6762 -0.1545
 2971TIP3    H2 8878   1.749   0.249   2.036 -0.3559  1.7111  1.1026
 2972TIP3   OH2 8879   4.741   6.549   4.327 -0.3758 -0.1746 -0.1993
 2972TIP3    H1 8880   4.702   6.566   4.412 -1.6560  1.6206 -1.0745
 2972TIP3    H2 8881   4.678   6.493   4.282  0.9082 -2.2277  0.4383
 2973TIP3   OH2 8882   2.709   5.879   3.345  0.1696  0.2800  0.7950
 2973TIP3    H1 8883   2.759   5.846   3.271  0.2536 -1.3280  1.5292
 2973TIP3    H2 8884   2.628   5.914   3.306 -0.3419 -1.6442  0.0144
 2974TIP3   OH2 8885   0.417   4.270   4.581  0.0153  0.3709  0.2898
 2974TIP3    H1 8886   0.411   4.174   4.572  1.1643  0.3630 -0.6113
 2974TIP3    H2 8887   0.451   4.284   4.669 -1.4812  0.0240  0.9592
 2975TIP3   OH2 8888   1.930   5.207   0.545  0.4778  0.2691 -0.0260
 2975TIP3    H1 8889   1.926   5.300   0.564  2.1102  0.1312  1.2573
 2975TIP3    H2 8890   1.990   5.200   0.470  2.5034  0.1320  1.5236
 2976TIP3   OH2 8891   5.784   5.453   4.800  0.1286  0.2466  0.2050
 2976TIP3    H1 8892   5.766   5.464   4.706 -2.7934  0.9990  0.7483
 2976TIP3    H2 8893   5.824   5.537   4.825  0.2423  0.3293 -0.2283
 2977TIP3   OH2 8894   1.061   0.691   2.286  0.3598 -0.5025  0.0112
 2977TIP3    H1 8895   1.136   0.748   2.305 -0.3988  0.4794  0.1180
 2977TIP3    H2 8896   1.018   0.731   2.210  0.7061 -1.8262 -0.9224
 2978TIP3   OH2 8897   3.897   4.643   1.724 -0.1631 -0.2329 -0.5155
 2978TIP3    H1 8898   3.952   4.567   1.742 -0.0988  0.6322  3.9529
 2978TIP3    H2 8899   3.935   4.683   1.646  1.0944 -3.5193 -1.7506
 2979TIP3   OH2 8900   5.682   6.254   2.332  0.3074  0.1415  0.2507
 2979TIP3    H1 8901   5.589   6.243   2.349 -0.2149 -0.2984 -2.3644
 2979TIP3    H2 8902   5.689   6.343   2.296  0.3843 -0.6927 -1.9916
 2980TIP3   OH2 8903   6.498   3.802   1.898 -0.3597  0.0150 -0.8361
 2980TIP3    H1 8904   6.544   3.885   1.911  1.7111 -1.2191  0.2466
 2980TIP3    H2 8905   6.529   3.746   1.969 -1.9046 -1.6157 -1.3794
 2981TIP3   OH2 8906   0.243   0.210   1.627 -0.5269  0.1966 -0.6782
 2981TIP3    H1 8907   0.158   0.196   1.669 -0.7737 -0.2022 -1.2831
 2981TIP3    H2 8908   0.297   0.253   1.693 -0.9827 -0.1805 -0.0596
 2982TIP3   OH2 8909   1.451   0.783   3.915 -0.1386 -0.1841  0.2382
 2982TIP3    H1 8910   1.389   0.805   3.845 -0.4310 -3.0358 -0.5479
 2982TIP3    H2 8911   1.426   0.839   3.988 -1.6987  0.8601 -1.0330
 2983TIP3   OH2 8912   1.743   4.110   3.632  0.0150  0.0865  0.1179
 2983TIP3    H1 8913   1.796   4.160   3.569  0.0999 -0.4819 -0.2753
 2983TIP3    H2 8914   1.730   4.170   3.705  0.3007  0.6070 -0.2466
 2984TIP3   OH2 8915   6.233   4.706   3.010  0.4952 -0.0680  0.3081
 2984TIP3    H1 8916   6.314   4.722   3.059  0.9582 -0.6644 -0.2456
 2984TIP3    H2 8917   6.208   4.617   3.033  1.3121 -0.7615 -1.3306
 2985TIP3   OH2 8918   7.017   5.810   3.707  0.3633 -0.0130  0.4292
 2985TIP3    H1 8919   7.064   5.731   3.681 -2.4553 -1.9602  0.7783
 2985TIP3    H2 8920   7.043   5.826   3.797 -0.2440 -1.5913  0.9112
 2986TIP3   OH2 8921   6.795   3.502   5.822 -0.1771  0.0302 -0.0266
 2986TIP3    H1 8922   6.831   3.415   5.804  2.2816  1.0982 -0.6178
 2986TIP3    H2 8923   6.755   3.529   5.740 -0.5166 -0.3476  0.0128
 2987TIP3   OH2 8924   0.995   6.200   0.624 -0.6115  0.0763 -0.3621
 2987TIP3    H1 8925   0.934   6.170   0.691 -2.7047 -2.2259 -3.0967
 2987TIP3    H2 8926   0.947   6.266   0.574  0.3415  0.5795 -0.6615
 2988TIP3   OH2 8927   4.578   3.230   3.910  0.4127  0.2837  0.2151
 2988TIP3    H1 8928   4.652   3.271   3.956  0.7051  0.7544 -0.6558
 2988TIP3    H2 8929   4.569   3.281   3.830  1.1606 -1.7025 -1.2094
 2989TIP3   OH2 8930   2.334   1.690   3.676  0.4413 -0.1726  0.5639
 2989TIP3    H1 8931   2.401   1.758   3.685  0.5228  0.0900 -1.5804
 2989TIP3    H2 8932   2.380   1.616   3.635 -0.5180 -0.0301 -0.8256
 2990TIP3   OH2 8933   4.188   4.636   5.294  0.0831 -0.4340 -0.3723
 2990TIP3    H1 8934   4.142   4.647   5.376  0.8749  1.4810 -0.1255
 2990TIP3    H2 8935   4.122   4.606   5.232 -0.4765 -2.1012  0.9747
 2991TIP3   OH2 8936   2.733   4.804   3.712  0.4275 -0.8648 -0.0612
 2991TIP3    H1 8937   2.732   4.872   3.644 -0.1124 -0.2809  0.5230
 2991TIP3    H2 8938   2.721   4.722   3.663  3.8188 -0.8961 -1.1071
 2992TIP3   OH2 8939   3.755   3.187   5.020  0.3776 -0.3811  0.7348
 2992TIP3    H1 8940   3.673   3.227   4.991  0.5634 -0.0942  0.6019
 2992TIP3    H2 8941   3.737   3.093   5.021 -0.6951 -0.2252  2.9334
 2993TIP3   OH2 8942   7.045   2.235   3.614 -0.3991  0.5719 -0.0301
 2993TIP3    H1 8943   7.030   2.307   3.674  0.2310  1.2373 -0.6454
 2993TIP3    H2 8944   7.128   2.197   3.643 -0.4006  0.5099 -0.1066
 2994TIP3   OH2 8945   2.840   3.128   0.057  0.6853  0.4151 -0.3546
 2994TIP3    H1 8946   2.855   3.069   0.131 -1.5254  0.3687  0.1431
 2994TIP3    H2 8947   2.809   3.209   0.098  0.5743  0.7932 -1.1736
 2995TIP3   OH2 8948   6.059   1.862   1.299 -0.2776 -0.2870 -0.2813
 2995TIP3    H1 8949   5.971   1.879   1.334  0.5032 -0.7762  2.0874
 2995TIP3    H2 8950   6.043   1.827   1.211 -2.3117  2.7293 -1.2883
 2996TIP3   OH2 8951   0.685   4.206   3.694 -0.3763  0.0432  0.6173
 2996TIP3    H1 8952   0.663   4.293   3.726  0.2545  0.5708 -0.3690
 2996TIP3    H2 8953   0.760   4.179   3.747 -2.3270 -1.1586  2.9693
 2997TIP3   OH2 8954   2.167   1.141   4.045  0.0679 -0.0836 -0.2075
 2997TIP3    H1 8955   2.150   1.231   4.074 -3.3247 -1.4073  2.7744
 2997TIP3    H2 8956   2.222   1.103   4.114 -0.5141 -0.8890 -0.1686
 2998TIP3   OH2 8957   1.421   2.128   5.440  0.1358 -0.4259  0.2852
 2998TIP3    H1 8958   1.389   2.039   5.450 -0.8728 -0.4429 -2.3508
 2998TIP3    H2 8959   1.348   2.176   5.402  1.7543  0.6523 -1.6209
 2999TIP3   OH2 8960   3.176   4.444   1.863  0.2152  0.2326  0.3629
 2999TIP3    H1 8961   3.268   4.433   1.887  0.2668  0.8731  0.4573
 2999TIP3    H2 8962   3.129   4.387   1.924  0.5118  0.2824  0.6425
 3000TIP3   OH2 8963   7.138   1.063   3.070 -0.3850 -0.3563  0.1780
 3000TIP3    H1 8964   7.189   1.143   3.058  0.4024 -0.7877  0.5996
 3000TIP3    H2 8965   7.084   1.057   2.991  1.3328 -0.7109 -1.0035
 3001TIP3   OH2 8966   0.203   0.375   0.575  0.1711 -0.2051  0.1568
 3001TIP3    H1 8967   0.244   0.405   0.656 -1.3904  0.1757  0.8375
 3001TIP3    H2 8968   0.271   0.389   0.508  1.2022  0.2294  1.2470
 3002TIP3   OH2 8969   6.083   2.698   4.707 -0.0323 -0.1607  0.5061
 3002TIP3    H1 8970   6.157   2.714   4.649  1.1899 -1.4543  1.6403
 3002TIP3    H2 8971   6.122   2.684   4.793 -1.6733  0.1087  1.3330
 3003TIP3   OH2 8972   1.707   3.750   1.415 -0.0889  0.5651  0.2072
 3003TIP3    H1 8973   1.735   3.676   1.468  1.1019  0.9373  0.1381
 3003TIP3    H2 8974   1.643   3.796   1.469 -1.2712 -0.8007  0.0271
 3004TIP3   OH2 8975   0.169   1.106   2.280 -0.0007  0.1366 -0.0491
 3004TIP3    H1 8976   0.250   1.055   2.281  0.0571  0.2369  0.4136
 3004TIP3    H2 8977   0.183   1.173   2.213  0.5693  0.5888  0.5120
 3005TIP3   OH2 8978   3.574   0.093   5.212 -0.2817 -0.4976 -0.2840
 3005TIP3    H1 8979   3.587   0.171   5.158  0.2357 -0.2457  0.1906
 3005TIP3    H2 8980   3.515   0.122   5.281  0.5596 -0.2888  0.3641
 3006TIP3   OH2 8981   1.257   5.415   5.202 -0.0908  0.1182  0.4702
 3006TIP3    H1 8982   1.299   5.494   5.171 -0.9491  0.2507 -0.4177
 3006TIP3    H2 8983   1.222   5.373   5.123 -2.3576  0.4668  1.2054
 3007TIP3   OH2 8984   0.676   5.185   0.851  0.1400 -0.4504 -0.0589
 3007TIP3    H1 8985   0.684   5.279   0.870  0.6113 -0.2994 -0.9219
 3007TIP3    H2 8986   0.762   5.161   0.816  0.6945 -1.6710  1.9995
 3008TIP3   OH2 8987   2.812   0.846   2.617  0.3233  0.4419  0.1383
 3008TIP3    H1 8988   2.785   0.785   2.686  0.4836  0.2772  0.0562
 3008TIP3    H2 8989   2.906   0.833   2.610  0.2785  0.3221 -0.2433
 3009TIP3   OH2 8990   7.037   4.957   1.598  0.3187 -0.1754 -0.0026
 3009TIP3    H1 8991   7.080   4.889   1.547  1.2045  0.8868 -0.7104
 3009TIP3    H2 8992   7.007   5.020   1.533 -0.4549  0.1426  0.6457
 3010TIP3   OH2 8993   2.582   5.017   5.382  0.2017 -0.4282 -0.8194
 3010TIP3    H1 8994   2.666   4.975   5.399  1.1930  0.7789 -2.4826
 3010TIP3    H2 8995   2.551   5.042   5.469 -0.6781 -4.7776  0.3570
 3011TIP3   OH2 8996   5.465   4.480   2.389 -0.1028 -0.3696 -0.3271
 3011TIP3    H1 8997   5.421   4.510   2.310 -0.7921 -1.7874 -0.5035
 3011TIP3    H2 8998   5.507   4.559   2.424  0.6977  0.1894 -2.3885
 3012TIP3   OH2 8999   2.704   1.216   1.214  0.1825  0.2715  0.3619
 3012TIP3    H1 9000   2.722   1.263   1.133  2.5364  2.2055  1.8420
 3012TIP3    H2 9001   2.734   1.127   1.198 -1.1337  0.1210 -1.4460
 3013TIP3   OH2 9002   5.910   2.696   4.495 -0.3171  0.3351 -0.3150
 3013TIP3    H1 9003   5.961   2.734   4.567 -0.5337  0.7739 -0.3867
 3013TIP3    H2 9004   5.957   2.723   4.416  1.2726 -2.0980 -0.3139
 3014TIP3   OH2 9005   0.636   4.781   2.640  0.4119  0.1009 -0.7724
 3014TIP3    H1 9006   0.660   4.707   2.585  1.5296 -0.1911  0.0682
 3014TIP3    H2 9007   0.693   4.852   2.609 -0.0218  0.3593 -0.9815
 3015TIP3   OH2 9008   3.449   1.750   2.090 -0.4965 -0.1432  0.0514
 3015TIP3    H1 9009   3.385   1.814   2.122 -0.4873 -0.1024 -0.0126
 3015TIP3    H2 9010   3.531   1.799   2.084 -0.6958  0.0913 -0.9217
 3016TIP3   OH2 9011   0.611   4.045   2.742 -0.0267 -0.0854  0.6978
 3016TIP3    H1 9012   0.670   4.010   2.675  0.4844  0.2173  0.9833
 3016TIP3    H2 9013   0.593   3.970   2.798 -0.8705 -0.4672 -0.0603
 3017TIP3   OH2 9014   6.181   6.087   0.619  0.1288 -0.0859  0.1216
 3017TIP3    H1 9015   6.189   6.052   0.708  2.3367  2.2301  0.9607
 3017TIP3    H2 9016   6.261   6.060   0.575 -0.4847 -0.3515 -0.8717
 3018TIP3   OH2 9017   2.114   0.941   2.223 -0.4376  0.5564 -0.1120
 3018TIP3    H1 9018   2.018   0.946   2.224 -0.3913  1.7470  0.2436
 3018TIP3    H2 9019   2.141   1.018   2.173  0.3233 -0.2816 -1.0369
 3019TIP3   OH2 9020   7.095   0.267   5.357 -0.5270 -0.1645 -0.3652
 3019TIP3    H1 9021   7.179   0.220   5.349 -0.2930 -0.2800  2.0489
 3019TIP3    H2 9022   7.030   0.197   5.365 -0.6417 -0.0655 -0.4338
 3020TIP3   OH2 9023   2.625   1.882   2.518  0.0470 -0.1687 -0.3807
 3020TIP3    H1 9024   2.596   1.792   2.531  0.6918 -0.3696 -0.2725
 3020TIP3    H2 9025   2.592   1.906   2.432 -2.1892  0.3363  0.5488
 3021TIP3   OH2 9026   6.099   1.562   4.238  0.0380  0.5858 -0.4729
 3021TIP3    H1 9027   6.085   1.598   4.326  0.5992 -1.5149  0.5407
 3021TIP3    H2 9028   6.017   1.516   4.218  0.2934  0.1740 -0.5836
 3022TIP3   OH2 9029   1.988   6.092   4.188 -0.2656  0.1104  0.2916
 3022TIP3    H1 9030   1.927   6.035   4.142  1.3152 -1.3681 -0.0866
 3022TIP3    H2 9031   1.938   6.173   4.205 -1.6614 -0.2407 -1.7805
 3023TIP3   OH2 9032   4.695   0.353   2.555 -0.2789  0.4577 -0.1145
 3023TIP3    H1 9033   4.779   0.335   2.597 -1.0612  0.3693  1.4920
 3023TIP3    H2 9034   4.649   0.410   2.617 -1.1540  1.0340 -1.2642
 3024TIP3   OH2 9035   5.087   4.497   3.632 -0.3444  0.1422 -0.1322
 3024TIP3    H1 9036   5.157   4.435   3.613 -0.0650  0.9570 -2.0083
 3024TIP3    H2 9037   5.014   4.469   3.576 -1.5314 -0.6238  1.6970
 3025TIP3   OH2 9038   2.585   2.680   1.936 -0.0227  0.4115  0.3080
 3025TIP3    H1 9039   2.500   2.719   1.955 -0.8544 -1.4124  0.5472
 3025TIP3    H2 9040   2.648   2.743   1.970 -1.3529  0.3710  3.1368
 3026TIP3   OH2 9041   3.504   5.345   2.916 -0.1556  0.0125 -0.1621
 3026TIP3    H1 9042   3.513   5.422   2.974  0.9056 -0.5280  0.4298
 3026TIP3    H2 9043   3.547   5.372   2.835  2.7484 -0.8340  0.9727
 3027TIP3   OH2 9044   0.372   2.080   5.493 -0.3699 -0.1221  0.1566
 3027TIP3    H1 9045   0.410   2.006   5.446  0.0277 -0.3606  0.8314
 3027TIP3    H2 9046   0.427   2.155   5.470 -0.3831 -0.1668 -0.0194
 3028TIP3   OH2 9047   2.072   1.770   0.699  0.1554 -0.2141 -0.0686
 3028TIP3    H1 9048   1.996   1.716   0.720  0.7147 -1.0028 -0.0266
 3028TIP3    H2 9049   2.103   1.802   0.784 -1.0763  1.4700 -0.1970
 3029TIP3   OH2 9050   1.761   6.186   0.563 -0.4015  0.4192 -0.1251
 3029TIP3    H1 9051   1.743   6.122   0.632  1.0339 -0.1315 -0.2445
 3029TIP3    H2 9052   1.749   6.137   0.482  2.5121 -0.2986 -0.2210
 3030TIP3   OH2 9053   0.573   5.299   3.545  0.0147  0.2306  0.5877
 3030TIP3    H1 9054   0.478   5.285   3.549  0.1545 -0.7285  0.6450
 3030TIP3    H2 9055   0.590   5.362   3.615 -0.6179  0.6480  0.3794
 3031TIP3   OH2 9056   2.564   5.022   2.782 -0.0053  0.0066  0.0276
 3031TIP3    H1 9057   2.553   5.115   2.802  0.3975 -0.3277  1.9733
 3031TIP3    H2 9058   2.598   5.021   2.692  0.5142  1.7531  0.1589
 3032TIP3   OH2 9059   5.843   1.953   1.004  0.1684 -0.0779  0.2373
 3032TIP3    H1 9060   5.907   1.883   1.017  2.0948  1.3911 -0.7855
 3032TIP3    H2 9061   5.895   2.034   1.003 -1.8509  1.2962  0.4493
 3033TIP3   OH2 9062   7.103   4.270   0.485  0.3557 -0.3621  0.1398
 3033TIP3    H1 9063   7.097   4.186   0.440 -3.2032 -0.3750  0.4040
 3033TIP3    H2 9064   7.086   4.250   0.577  1.0167  0.4893  0.4700
 3034TIP3   OH2 9065   3.842   0.528   5.683 -0.2481 -0.3128  0.1979
 3034TIP3    H1 9066   3.853   0.594   5.752  1.2585  0.0811 -0.3609
 3034TIP3    H2 9067   3.892   0.453   5.714 -1.2284 -0.8714  0.4306
 3035TIP3   OH2 9068   5.078   4.038   5.554 -0.0491 -0.4889 -0.2727
 3035TIP3    H1 9069   4.994   4.058   5.514 -0.2734  1.4816  1.0329
 3035TIP3    H2 9070   5.056   4.006   5.642  0.4980  2.0273  0.8847
 3036TIP3   OH2 9071   4.167   0.117   1.530  0.7271  0.4648 -0.2042
 3036TIP3    H1 9072   4.143   0.166   1.608  0.4445 -1.7275  1.1735
 3036TIP3    H2 9073   4.256   0.086   1.548 -0.5068 -2.8602  0.8692
 3037TIP3   OH2 9074   5.449   0.709   4.767 -0.3370  0.0515 -0.0627
 3037TIP3    H1 9075   5.544   0.704   4.762 -0.1980  0.2988  1.8848
 3037TIP3    H2 9076   5.419   0.627   4.727  0.7631 -0.7757  0.7355
 3038TIP3   OH2 9077   4.057   0.865   2.483 -0.0079  0.0904 -0.4306
 3038TIP3    H1 9078   4.126   0.825   2.430  0.7068 -1.1871  1.3480
 3038TIP3    H2 9079   3.975   0.831   2.446  0.4631 -0.5939 -0.8577
 3039TIP3   OH2 9080   1.727   1.960   0.814  0.0437  0.0714  0.3234
 3039TIP3    H1 9081   1.676   1.936   0.737  2.7140  0.2895 -1.6672
 3039TIP3    H2 9082   1.778   1.881   0.833 -0.4340  0.0928  1.7956
 3040TIP3   OH2 9083   3.092   6.660   1.308 -0.2539  0.3335 -0.0500
 3040TIP3    H1 9084   3.143   6.580   1.294  1.6507  1.4516  0.2848
 3040TIP3    H2 9085   3.032   6.663   1.233  0.9058 -0.4658 -1.0387
 3041TIP3   OH2 9086   3.482   1.367   4.253  0.1910  0.1274 -0.3111
 3041TIP3    H1 9087   3.428   1.444   4.272 -2.6659 -1.7898 -0.0584
 3041TIP3    H2 9088   3.499   1.372   4.159 -0.2555  0.9093 -0.3580
 3042TIP3   OH2 9089   3.238   0.960   2.853 -0.0828  0.1951 -0.4006
 3042TIP3    H1 9090   3.251   0.983   2.761  0.2893 -0.6734 -0.5693
 3042TIP3    H2 9091   3.323   0.928   2.882 -0.6159 -1.0831 -0.2141
 3043TIP3   OH2 9092   4.727   6.031   1.749 -0.1516 -0.0908  0.5184
 3043TIP3    H1 9093   4.642   5.990   1.767 -1.4947  2.1427 -0.1751
 3043TIP3    H2 9094   4.741   6.016   1.655  0.4958 -0.8942  0.7375
 3044TIP3   OH2 9095   1.652   0.284   3.485 -0.1035  0.5168  0.0761
 3044TIP3    H1 9096   1.608   0.282   3.570 -0.4303 -2.9136 -0.0214
 3044TIP3    H2 9097   1.736   0.242   3.500 -1.2449 -2.7646 -1.6456
 3045TIP3   OH2 9098   6.111   3.346   5.396 -0.5005  0.3793 -0.2624
 3045TIP3    H1 9099   6.104   3.416   5.331  0.0966  0.8862  0.2120
 3045TIP3    H2 9100   6.184   3.292   5.366  0.4409  1.1866  0.5039
 3046TIP3   OH2 9101   3.220   4.349   3.398 -0.0709  0.0187  0.6075
 3046TIP3    H1 9102   3.266   4.419   3.351  1.5796 -0.9091  0.7396
 3046TIP3    H2 9103   3.250   4.268   3.355 -0.6821 -0.6876  1.4751
 3047TIP3   OH2 9104   6.848   6.548   1.687 -0.1597  0.3992  0.2237
 3047TIP3    H1 9105   6.903   6.605   1.633  0.6182  1.9248  2.5048
 3047TIP3    H2 9106   6.827   6.600   1.764 -2.4620 -1.1780  0.7698
 3048TIP3   OH2 9107   4.013   6.117   2.439  0.0708 -0.2011 -0.0817
 3048TIP3    H1 9108   4.087   6.129   2.379  0.3608 -2.9931 -0.4051
 3048TIP3    H2 9109   3.942   6.169   2.401  0.7972 -0.4148 -1.7964
 3049TIP3   OH2 9110   2.013   2.805   3.341  0.3374 -0.3451 -0.3471
 3049TIP3    H1 9111   2.088   2.747   3.331 -0.1495 -0.7710 -1.6868
 3049TIP3    H2 9112   2.034   2.881   3.287  0.8743  0.6849  1.2213
 3050TIP3   OH2 9113   0.994   1.153   4.753  0.2534 -1.0348  0.2622
 3050TIP3    H1 9114   1.069   1.181   4.700 -0.2373 -1.9423 -0.9784
 3050TIP3    H2 9115   1.013   1.185   4.841  2.4621 -1.8719  0.1627
 3051TIP3   OH2 9116   5.742   4.158   1.246 -0.0039  0.2332 -0.2273
 3051TIP3    H1 9117   5.830   4.139   1.279 -0.4709  0.8001  1.4462
 3051TIP3    H2 9118   5.736   4.253   1.245 -0.7006  0.1980 -0.0250
 3052TIP3   OH2 9119   2.035   1.833   4.013  0.7580  0.8566 -0.3789
 3052TIP3    H1 9120   1.969   1.833   4.082  1.2976  2.3650  0.1756
 3052TIP3    H2 9121   1.994   1.881   3.941  0.9076  0.9785 -0.3827
 3053TIP3   OH2 9122   0.650   2.530   3.323  0.3290 -0.2658 -0.3013
 3053TIP3    H1 9123   0.618   2.605   3.274 -0.4678 -0.4220 -0.0371
 3053TIP3    H2 9124   0.579   2.466   3.319  1.0075 -1.0296 -0.5518
 3054TIP3   OH2 9125   1.114   1.052   3.895  0.3632  0.6732 -0.4602
 3054TIP3    H1 9126   1.171   0.993   3.846  0.6069  0.5114  0.0143
 3054TIP3    H2 9127   1.123   1.136   3.851  3.5765  1.5375  1.5002
 3055TIP3   OH2 9128   1.335   2.090   0.034  0.0606  0.0975  0.0390
 3055TIP3    H1 9129   1.243   2.075   0.055  0.4248  0.6304  2.2834
 3055TIP3    H2 9130   1.376   2.004   0.042 -0.4768 -0.5107 -2.7683
 3056TIP3   OH2 9131   2.209   3.175   4.616  0.1623 -0.1944  0.8050
 3056TIP3    H1 9132   2.263   3.097   4.603  1.1002  0.2740  1.7651
 3056TIP3    H2 9133   2.132   3.160   4.561 -0.2987 -2.3773  1.9181
 3057TIP3   OH2 9134   0.228   5.542   0.289  0.5232 -0.2114  0.0311
 3057TIP3    H1 9135   0.143   5.499   0.286  0.6549 -0.5434  0.8121
 3057TIP3    H2 9136   0.210   5.625   0.334  0.5599 -0.1666 -0.0386
 3058TIP3   OH2 9137   3.257   0.864   0.461  0.2465  0.6468 -0.4713
 3058TIP3    H1 9138   3.287   0.790   0.514 -0.7701  0.2979 -0.3577
 3058TIP3    H2 9139   3.237   0.932   0.525  1.0740  0.9979 -0.5688
 3059TIP3   OH2 9140   1.032   1.164   1.526 -0.4510  0.1893 -0.0909
 3059TIP3    H1 9141   1.034   1.157   1.621 -0.2454  0.1636 -0.0965
 3059TIP3    H2 9142   1.006   1.255   1.509 -1.0989  0.0218 -0.0133
 3060TIP3   OH2 9143   0.353   5.494   2.194 -0.0041 -0.3353 -0.2025
 3060TIP3    H1 9144   0.418   5.434   2.157 -2.2569 -3.0881 -0.0413
 3060TIP3    H2 9145   0.298   5.518   2.119  1.4669  2.5745 -0.4902
 3061TIP3   OH2 9146   5.486   1.919   4.537 -0.4451  0.2800  0.0389
 3061TIP3    H1 9147   5.484   1.848   4.601 -1.1997 -0.7113 -1.0379
 3061TIP3    H2 9148   5.473   1.998   4.588 -3.2573 -0.6418  0.9174
 3062TIP3   OH2 9149   4.978   2.509   0.753  0.2443  0.3470  0.3335
 3062TIP3    H1 9150   4.972   2.474   0.665 -3.0575  1.1822  0.0964
 3062TIP3    H2 9151   4.991   2.603   0.741  0.3438  0.3890  0.7457
 3063TIP3   OH2 9152   1.983   5.044   1.775 -0.1071  0.0955  0.3250
 3063TIP3    H1 9153   1.966   5.126   1.729  0.0069  1.9668  3.3526
 3063TIP3    H2 9154   1.900   4.996   1.769 -0.7967  1.2769  0.0843
 3064TIP3   OH2 9155   1.806   6.436   4.086  0.5719 -0.8674  0.3041
 3064TIP3    H1 9156   1.819   6.513   4.143  1.5650  0.0759 -1.1365
 3064TIP3    H2 9157   1.815   6.362   4.145 -1.1325  0.0852  1.8898
 3065TIP3   OH2 9158   3.968   5.210   1.340  0.3993  0.1471  0.3422
 3065TIP3    H1 9159   3.900   5.154   1.379 -0.5094 -0.0539 -1.4207
 3065TIP3    H2 9160   3.932   5.298   1.345  0.8894  0.3083  1.1742
 3066TIP3   OH2 9161   5.635   2.073   5.723 -0.0749  0.7992  0.5786
 3066TIP3    H1 9162   5.558   2.111   5.679 -0.7108  1.2841  2.0554
 3066TIP3    H2 9163   5.612   2.072   5.816  1.2971 -0.0526  0.9401
 3067TIP3   OH2 9164   2.882   6.644   3.365  0.4527 -0.6182 -0.2535
 3067TIP3    H1 9165   2.893   6.715   3.302 -0.6448  0.5565  0.7972
 3067TIP3    H2 9166   2.896   6.686   3.450 -1.5573 -1.2911  0.4754
 3068TIP3   OH2 9167   3.398   0.679   3.624 -0.2468 -0.0769 -0.2190
 3068TIP3    H1 9168   3.481   0.703   3.666  0.0212 -0.4359 -0.5441
 3068TIP3    H2 9169   3.387   0.586   3.644 -0.5685 -0.0313 -0.1846
 3069TIP3   OH2 9170   4.598   5.311   4.858  0.5816  0.2486  0.0165
 3069TIP3    H1 9171   4.617   5.220   4.882  0.5518 -0.1324 -1.2966
 3069TIP3    H2 9172   4.504   5.320   4.872  0.5091 -0.0571 -0.2663
 3070TIP3   OH2 9173   1.506   4.820   2.995  0.2957  0.2128 -0.0831
 3070TIP3    H1 9174   1.431   4.876   2.972 -0.2147 -0.7021 -0.7393
 3070TIP3    H2 9175   1.477   4.773   3.073 -1.0288 -2.2644 -1.9298
 3071TIP3   OH2 9176   1.077   2.202   0.437 -0.5551  0.1912 -0.1934
 3071TIP3    H1 9177   1.055   2.280   0.385 -0.1841  0.8057  0.5630
 3071TIP3    H2 9178   1.005   2.195   0.500 -0.6994 -0.2129 -0.3977
 3072TIP3   OH2 9179   4.439   0.049   1.551 -0.2399 -0.1241  0.0018
 3072TIP3    H1 9180   4.477   0.095   1.626 -1.2483  1.2489 -0.2874
 3072TIP3    H2 9181   4.491  -0.031   1.543  1.6796  1.0170  0.4441
 3073TIP3   OH2 9182   2.416   0.233   2.903 -0.1447 -0.3874  0.0023
 3073TIP3    H1 9183   2.329   0.260   2.931 -1.0310  0.2275 -3.0070
 3073TIP3    H2 9184   2.459   0.315   2.876  1.2489 -0.7369  1.0390
 3074TIP3   OH2 9185   6.340   6.714   1.288 -0.1131  0.2239  0.0874
 3074TIP3    H1 9186   6.306   6.678   1.370  0.2165  0.2258  0.2291
 3074TIP3    H2 9187   6.277   6.781   1.262 -0.6167 -0.3101 -0.0645
 3075TIP3   OH2 9188   0.715   1.727   1.478  0.1594  0.0620 -0.0087
 3075TIP3    H1 9189   0.643   1.675   1.515  0.9439 -0.8171  0.3421
 3075TIP3    H2 9190   0.685   1.817   1.484  0.2276 -0.0112  2.8203
 3076TIP3   OH2 9191   0.847   1.111   4.412  0.2221 -0.2366  0.1581
 3076TIP3    H1 9192   0.864   1.205   4.405  1.0136 -0.4260 -0.7740
 3076TIP3    H2 9193   0.934   1.072   4.421 -0.2196 -0.7409  2.9244
 3077TIP3   OH2 9194   1.959   2.719   2.175 -0.3657  0.0863 -0.9995
 3077TIP3    H1 9195   1.925   2.672   2.099 -3.0628 -1.6832  1.0854
 3077TIP3    H2 9196   1.908   2.685   2.249  1.4979  2.2945  1.5134
 3078TIP3   OH2 9197   3.606   6.670   1.340 -0.0621 -0.7736 -0.0391
 3078TIP3    H1 9198   3.607   6.616   1.419 -1.0290 -0.6853  0.0417
 3078TIP3    H2 9199   3.686   6.646   1.294  0.3008 -1.1379  0.7583
 3079TIP3   OH2 9200   5.554   0.372   3.436  0.1107 -0.7136 -0.9740
 3079TIP3    H1 9201   5.572   0.365   3.342 -0.5215 -1.0884 -1.0750
 3079TIP3    H2 9202   5.621   0.319   3.478  0.0150 -1.0623 -1.2576
 3080TIP3   OH2 9203   1.150   4.657   4.178  0.3263 -0.0469 -0.2703
 3080TIP3    H1 9204   1.222   4.717   4.198  0.9415 -0.4266 -1.2937
 3080TIP3    H2 9205   1.173   4.576   4.225 -0.0516  0.2129  0.3775
 3081TIP3   OH2 9206   6.978   0.052   2.566  0.0782  0.3842 -0.1700
 3081TIP3    H1 9207   6.897   0.059   2.616  0.1465 -0.2197  0.0318
 3081TIP3    H2 9208   6.986  -0.041   2.546  0.4111  0.5228 -0.7102
 3082TIP3   OH2 9209   5.705   0.072   5.344 -0.7856  0.8391  0.1440
 3082TIP3    H1 9210   5.770   0.050   5.278  0.7003  1.3094  1.4081
 3082TIP3    H2 9211   5.640   0.124   5.296  1.1847  2.7378 -0.6472
 3083TIP3   OH2 9212   2.539   5.697   5.621  0.2661 -0.1313  0.3426
 3083TIP3    H1 9213   2.613   5.660   5.670 -0.0731 -1.3124 -0.0217
 3083TIP3    H2 9214   2.556   5.672   5.531 -1.1284 -1.3475  0.3969
 3084TIP3   OH2 9215   3.123   5.445   4.637 -0.6523  0.3947 -0.1576
 3084TIP3    H1 9216   3.144   5.385   4.709  0.5905 -0.1080 -0.9062
 3084TIP3    H2 9217   3.151   5.398   4.558  0.5756  2.0390 -0.7423
 3085TIP3   OH2 9218   6.322   0.752   4.172  0.3706 -0.5619 -0.6934
 3085TIP3    H1 9219   6.265   0.828   4.159 -0.2717 -0.9565 -0.2582
 3085TIP3    H2 9220   6.409   0.789   4.185  0.1821  0.0649 -1.1629
 3086TIP3   OH2 9221   4.715   0.768   4.686  0.2013  0.2309 -0.8096
 3086TIP3    H1 9222   4.720   0.831   4.614 -1.8687  2.0788  0.5340
 3086TIP3    H2 9223   4.641   0.711   4.662  0.8001 -0.4462 -1.0752
 3087TIP3   OH2 9224   4.398   3.832   2.887 -0.4247 -0.1571 -0.5564
 3087TIP3    H1 9225   4.378   3.898   2.953 -1.5046 -0.4518 -0.5705
 3087TIP3    H2 9226   4.319   3.778   2.883 -0.2353 -0.3603 -1.8258
 3088TIP3   OH2 9227   6.305   0.340   1.170  0.2758 -0.2552  0.4778
 3088TIP3    H1 9228   6.245   0.396   1.121  0.3192 -0.2128  0.4733
 3088TIP3    H2 9229   6.249   0.270   1.206  0.5228 -1.4027 -1.2506
 3089TIP3   OH2 9230   0.575   3.544   0.774  0.0483 -0.2055  0.5171
 3089TIP3    H1 9231   0.511   3.476   0.754  0.3939 -0.3673 -0.0490
 3089TIP3    H2 9232   0.582   3.595   0.693  0.5846 -0.1507  0.5961
 3090TIP3   OH2 9233   1.491   0.543   4.577  0.5398  0.1363 -0.5109
 3090TIP3    H1 9234   1.540   0.610   4.625  0.3518 -2.6169  4.2306
 3090TIP3    H2 9235   1.551   0.468   4.572 -1.0216 -1.1836 -0.4132
 3091TIP3   OH2 9236   0.810   1.752   0.739  0.0490 -0.5548 -0.2071
 3091TIP3    H1 9237   0.729   1.797   0.713 -0.0168 -0.5440  0.0098
 3091TIP3    H2 9238   0.785   1.699   0.814 -0.0102 -1.4419 -0.8398
 3092TIP3   OH2 9239   1.714   0.353   5.635  0.1623  0.3088  0.2118
 3092TIP3    H1 9240   1.645   0.405   5.676 -0.3330 -0.9482  1.0313
 3092TIP3    H2 9241   1.763   0.316   5.708  0.4225 -0.4721 -0.3402
 3093TIP3   OH2 9242   6.000   3.508   4.827 -0.1328 -0.2634  0.5226
 3093TIP3    H1 9243   6.088   3.478   4.852 -0.1263 -1.3567 -0.7471
 3093TIP3    H2 9244   5.960   3.433   4.784 -0.6917  1.0388 -1.3568
 3094TIP3   OH2 9245   3.109   5.747   1.720  0.4012  0.1985  0.0579
 3094TIP3    H1 9246   3.158   5.689   1.661  1.0137 -0.0597  0.7957
 3094TIP3    H2 9247   3.023   5.754   1.680  0.5607 -0.5939 -0.4669
 3095TIP3   OH2 9248   1.437   4.641   0.757  0.2369  0.0983  0.3635
 3095TIP3    H1 9249   1.463   4.728   0.726  0.8786 -0.1283  0.2552
 3095TIP3    H2 9250   1.341   4.645   0.761  0.2185  0.5655 -0.3650
 3096TIP3   OH2 9251   4.969   3.547   0.488  0.7411  0.2307 -0.0924
 3096TIP3    H1 9252   4.960   3.625   0.544 -1.7020 -0.9333  1.3209
 3096TIP3    H2 9253   4.969   3.582   0.399 -0.8877  1.8681  0.4788
 3097TIP3   OH2 9254   1.752   0.038   4.355 -0.0425 -0.1666  0.1953
 3097TIP3    H1 9255   1.665  -0.001   4.346 -0.8992  1.3116  1.5569
 3097TIP3    H2 9256   1.808  -0.034   4.383 -1.0649 -0.9177  0.3524
 3098TIP3   OH2 9257   3.360   6.691   0.081 -0.3894 -0.0543  0.0523
 3098TIP3    H1 9258   3.374   6.785   0.070 -0.9705  0.0763  0.3815
 3098TIP3    H2 9259   3.339   6.681   0.174  0.1439 -0.5718  0.1229
 3099TIP3   OH2 9260   4.460   1.063   3.200 -0.5788  0.1946 -0.6602
 3099TIP3    H1 9261   4.532   1.059   3.137 -1.2905  1.2965 -1.5855
 3099TIP3    H2 9262   4.421   1.149   3.186  0.3363  1.2842  2.5456
 3100TIP3   OH2 9263   6.389   4.567   0.812  0.0798 -0.7684 -0.9580
 3100TIP3    H1 9264   6.411   4.646   0.862  1.7623 -1.1550 -1.0231
 3100TIP3    H2 9265   6.296   4.576   0.792 -0.3441  0.0071  1.1484
 3101TIP3   OH2 9266   5.830   4.697   2.237  0.3618  0.2312 -0.3268
 3101TIP3    H1 9267   5.838   4.612   2.280 -1.5498 -0.1000 -0.5153
 3101TIP3    H2 9268   5.858   4.681   2.146  0.0876 -0.1810 -0.3394
 3102TIP3   OH2 9269   3.180   3.293   4.544 -0.1732  0.0991  0.5267
 3102TIP3    H1 9270   3.178   3.357   4.473 -2.4835  0.3717  0.7686
 3102TIP3    H2 9271   3.127   3.220   4.513  1.5485 -1.3039  0.6864
 3103TIP3   OH2 9272   3.251   5.542   2.056 -0.1347  0.6982  0.1677
 3103TIP3    H1 9273   3.268   5.520   2.147 -2.1140  0.2359  0.4687
 3103TIP3    H2 9274   3.192   5.474   2.025  0.6465  0.7310 -1.5486
 3104TIP3   OH2 9275   5.068   1.239   5.364 -0.0344 -0.5854  0.4026
 3104TIP3    H1 9276   4.973   1.234   5.376 -0.1195 -0.6742 -0.2623
 3104TIP3    H2 9277   5.079   1.257   5.271  0.6084 -0.7937  0.4343
 3105TIP3   OH2 9278   4.771   6.674   1.702 -0.3500  0.1563 -0.8423
 3105TIP3    H1 9279   4.710   6.746   1.714 -1.3369 -0.6717 -0.7591
 3105TIP3    H2 9280   4.858   6.714   1.708 -0.8107  0.9627  1.7137
 3106TIP3   OH2 9281   1.723   6.297   3.627  0.4381  0.1701  0.5002
 3106TIP3    H1 9282   1.756   6.268   3.542  1.5791  0.0193  0.9769
 3106TIP3    H2 9283   1.711   6.392   3.616 -0.1490  0.0361 -0.0541
 3107TIP3   OH2 9284   0.732   6.563   1.638  0.3168  0.4134 -0.6847
 3107TIP3    H1 9285   0.672   6.488   1.648  2.1887 -1.2877 -1.5703
 3107TIP3    H2 9286   0.721   6.590   1.547 -2.7683  3.5212  0.3913
 3108TIP3   OH2 9287   2.487   3.950   4.602  0.4777  0.1153 -0.1496
 3108TIP3    H1 9288   2.486   4.045   4.617 -1.3018  0.3213 -1.2440
 3108TIP3    H2 9289   2.579   3.929   4.588  1.1434  1.3351  2.0084
 3109TIP3   OH2 9290   7.137   3.000   3.248  0.6650  0.3377  0.6607
 3109TIP3    H1 9291   7.131   3.082   3.298  1.4090  0.5347  0.4327
 3109TIP3    H2 9292   7.148   3.028   3.157 -2.4653  0.0028  0.0680
 3110TIP3   OH2 9293   3.346   5.837   3.381  0.4603  0.3809  0.2163
 3110TIP3    H1 9294   3.334   5.924   3.344 -1.0355  0.9953  2.0374
 3110TIP3    H2 9295   3.382   5.786   3.308 -0.8095  1.9106 -1.6018
 3111TIP3   OH2 9296   6.012   5.186   2.464 -0.1212  0.2044 -1.0051
 3111TIP3    H1 9297   6.095   5.220   2.497 -1.0437  0.7064  0.9492
 3111TIP3    H2 9298   6.033   5.100   2.428  1.2300  0.3334 -0.5662
 3112TIP3   OH2 9299   3.636   0.457   2.393  0.2175  0.2701  0.3366
 3112TIP3    H1 9300   3.701   0.498   2.451  0.3560  0.3049  0.1595
 3112TIP3    H2 9301   3.565   0.521   2.388  1.3177  1.4320 -1.5635
 3113TIP3   OH2 9302   0.152   0.630   4.044  0.0195 -0.2743 -0.2704
 3113TIP3    H1 9303   0.234   0.590   4.073 -0.4671  0.1823  1.8674
 3113TIP3    H2 9304   0.091   0.557   4.036  0.3353 -0.4833 -0.8421
 3114TIP3   OH2 9305   1.456   3.038   1.547  0.0771  0.0342 -0.4939
 3114TIP3    H1 9306   1.485   3.015   1.459  2.6763  0.8734  0.0625
 3114TIP3    H2 9307   1.452   2.955   1.595  1.0826 -0.1725 -0.7546
 3115TIP3   OH2 9308   4.182   2.373   1.707  0.0104  0.0771  0.4137
 3115TIP3    H1 9309   4.182   2.333   1.793  0.5154  0.3147  0.5287
 3115TIP3    H2 9310   4.115   2.325   1.658 -0.3620  0.0215  0.9680
 3116TIP3   OH2 9311   5.576   3.136   1.666 -0.2380  0.4848  0.2548
 3116TIP3    H1 9312   5.618   3.136   1.580 -0.2324  0.4928  0.2576
 3116TIP3    H2 9313   5.562   3.044   1.687  0.2482  0.4632  0.4862
 3117TIP3   OH2 9314   6.856   2.642   2.436 -0.2464 -0.1573  0.3342
 3117TIP3    H1 9315   6.876   2.736   2.444 -0.5506 -0.0802  0.2032
 3117TIP3    H2 9316   6.838   2.629   2.343  1.0247 -0.6005  0.1281
 3118TIP3   OH2 9317   6.199   6.131   5.654  0.1227  0.6390  0.1182
 3118TIP3    H1 9318   6.259   6.110   5.583  0.4726  0.3023  0.5079
 3118TIP3    H2 9319   6.122   6.076   5.638  1.8351 -2.7493  2.2897
 3119TIP3   OH2 9320   2.866   2.737   0.578 -0.3210  0.5336 -0.1566
 3119TIP3    H1 9321   2.920   2.735   0.500 -0.2310  0.4596 -0.0913
 3119TIP3    H2 9322   2.817   2.655   0.577 -1.1622  1.0254 -0.7371
 3120TIP3   OH2 9323   3.060   3.930   2.977  0.1822  0.5633  0.0232
 3120TIP3    H1 9324   3.108   3.897   3.053 -0.9855 -1.4666 -0.0516
 3120TIP3    H2 9325   2.969   3.905   2.993 -0.4442  1.9697 -1.0840
 3121TIP3   OH2 9326   0.492   1.180   1.878 -0.2474  0.4769  0.4656
 3121TIP3    H1 9327   0.587   1.175   1.892 -0.1575 -0.5008 -0.3908
 3121TIP3    H2 9328   0.462   1.246   1.941  0.6170 -1.0920  2.6353
 3122TIP3   OH2 9329   2.115   4.484   0.995  0.2688 -0.6363  0.4801
 3122TIP3    H1 9330   2.079   4.396   0.988 -0.1954 -0.4540  0.5174
 3122TIP3    H2 9331   2.084   4.529   0.917  0.5039 -0.5058  0.4613
 3123TIP3   OH2 9332   6.082   5.066   0.090 -0.2416  0.1819 -0.3107
 3123TIP3    H1 9333   6.118   5.154   0.080 -0.1986  0.0912 -0.9940
 3123TIP3    H2 9334   6.000   5.079   0.139 -0.3655  0.6295 -0.6307
 3124TIP3   OH2 9335   0.395   4.984   2.554  0.2367 -0.1111  0.1410
 3124TIP3    H1 9336   0.391   4.888   2.558 -1.0152 -0.0653  0.7537
 3124TIP3    H2 9337   0.449   5.009   2.629 -2.1122 -0.2616  2.0024
 3125TIP3   OH2 9338   5.838   2.319   1.970  0.0166 -0.1011  0.6333
 3125TIP3    H1 9339   5.816   2.308   2.062  0.1530  1.7982  0.9213
 3125TIP3    H2 9340   5.928   2.288   1.963  0.5436  1.2078  1.4755
 3126TIP3   OH2 9341   5.144   5.872   3.934  0.1098 -0.3879 -0.1204
 3126TIP3    H1 9342   5.168   5.964   3.947 -0.8333 -0.3405  1.4275
 3126TIP3    H2 9343   5.219   5.823   3.967  0.9569 -0.2140 -1.6665
 3127TIP3   OH2 9344   4.666   4.978   1.086 -0.9699  0.1367 -0.0123
 3127TIP3    H1 9345   4.705   5.020   1.162  1.0431 -2.6821  0.6881
 3127TIP3    H2 9346   4.706   5.021   1.011 -0.0077  0.4055  0.6359
 3128TIP3   OH2 9347   4.397   1.506   4.235  0.1019 -0.0022  0.6089
 3128TIP3    H1 9348   4.479   1.502   4.186 -0.0426 -1.3605  0.4363
 3128TIP3    H2 9349   4.340   1.561   4.181 -0.3963 -2.2776 -1.3664
 3129TIP3   OH2 9350   3.448   1.149   2.384  0.0418 -0.0874  0.0556
 3129TIP3    H1 9351   3.424   1.217   2.448 -1.0382 -0.8301  0.4537
 3129TIP3    H2 9352   3.526   1.108   2.422  0.2461  0.4154  0.1907
 3130TIP3   OH2 9353   6.635   1.159   3.617 -0.1990  0.1768 -0.0713
 3130TIP3    H1 9354   6.695   1.198   3.554 -0.4649 -0.2559 -0.6007
 3130TIP3    H2 9355   6.554   1.209   3.608  0.0741  0.7646  0.6465
 3131TIP3   OH2 9356   5.627   3.323   3.409  0.3069 -0.0436  0.3350
 3131TIP3    H1 9357   5.677   3.245   3.433 -1.1189 -0.7066  1.2922
 3131TIP3    H2 9358   5.656   3.343   3.320  1.5126 -0.9993  0.4853
 3132TIP3   OH2 9359   2.777   4.340   2.034 -0.6614  0.6782 -0.5818
 3132TIP3    H1 9360   2.872   4.339   2.032 -0.6400 -0.4521  0.1173
 3132TIP3    H2 9361   2.754   4.315   2.123 -1.6015 -1.0811 -1.2432
 3133TIP3   OH2 9362   2.260   6.384   3.414  1.2061  0.3281  0.2310
 3133TIP3    H1 9363   2.279   6.325   3.487  1.3591  2.1932  1.7675
 3133TIP3    H2 9364   2.326   6.453   3.420 -0.3752  1.9461  0.0000
 3134TIP3   OH2 9365   4.832   4.987   5.200 -0.2294 -0.1651 -0.2051
 3134TIP3    H1 9366   4.875   4.902   5.211 -0.4655 -0.5820 -2.2234
 3134TIP3    H2 9367   4.739   4.966   5.192 -0.4005  0.3897  0.2712
 3135TIP3   OH2 9368   6.854   6.267   1.434  0.0198 -0.0429  0.2058
 3135TIP3    H1 9369   6.861   6.357   1.467  0.1049 -0.6741  2.0165
 3135TIP3    H2 9370   6.837   6.277   1.340 -0.1996  1.8574  0.4118
 3136TIP3   OH2 9371   0.048   5.342   4.192 -0.4009  0.2757  0.5410
 3136TIP3    H1 9372  -0.013   5.322   4.263 -0.3476 -1.5024  0.1307
 3136TIP3    H2 9373   0.091   5.423   4.220 -0.3156 -0.4194  2.5958
 3137TIP3   OH2 9374   5.583   3.177   2.491  0.0817  0.6750  0.1276
 3137TIP3    H1 9375   5.599   3.132   2.409  0.6995  0.9465  0.0903
 3137TIP3    H2 9376   5.664   3.226   2.508  0.5364 -0.4899  1.6121
 3138TIP3   OH2 9377   3.483   1.939   0.737  0.4172  0.6740  0.5024
 3138TIP3    H1 9378   3.466   2.033   0.731 -0.7307  0.3777 -1.6717
 3138TIP3    H2 9379   3.399   1.898   0.720  0.9453 -0.7763  1.2052
 3139TIP3   OH2 9380   5.280   5.065   1.978  0.0163 -0.7442  0.1792
 3139TIP3    H1 9381   5.306   5.133   2.040 -0.1598 -2.0531  1.7838
 3139TIP3    H2 9382   5.362   5.030   1.944  0.1350 -0.3157  0.0315
 3140TIP3   OH2 9383   5.621   0.644   3.160  0.3574  0.4246 -0.1356
 3140TIP3    H1 9384   5.664   0.672   3.079  0.6033 -0.1451 -0.2074
 3140TIP3    H2 9385   5.554   0.582   3.132  1.9309 -1.5576  0.2319
 3141TIP3   OH2 9386   0.958   5.301   5.672 -0.0627  0.6046  0.5572
 3141TIP3    H1 9387   0.885   5.253   5.633 -0.2627  0.1801  1.4250
 3141TIP3    H2 9388   0.995   5.240   5.735  1.4757  0.5735 -0.3337
 3142TIP3   OH2 9389   2.540   0.608   1.748 -1.0676 -0.2026  0.3315
 3142TIP3    H1 9390   2.544   0.665   1.825  1.4862 -0.2936  0.3405
 3142TIP3    H2 9391   2.630   0.580   1.733 -1.7566 -1.6662 -1.6273
 3143TIP3   OH2 9392   3.694   4.510   1.918  0.7468  0.0923  0.4344
 3143TIP3    H1 9393   3.678   4.547   1.831 -0.1364 -0.4125  0.3701
 3143TIP3    H2 9394   3.785   4.481   1.915  0.5407 -0.4861 -0.5344
 3144TIP3   OH2 9395   0.114   2.082   5.404 -0.0038  0.8983  0.0390
 3144TIP3    H1 9396   0.201   2.100   5.439 -0.3744 -0.8469  2.0303
 3144TIP3    H2 9397   0.102   2.148   5.335  3.0703  0.8423 -0.6756
 3145TIP3   OH2 9398   5.941   0.390   1.977  0.0987  0.1867 -0.1210
 3145TIP3    H1 9399   5.890   0.312   1.998  0.0516 -0.2690 -1.8066
 3145TIP3    H2 9400   5.944   0.439   2.059  0.5990 -1.8338  1.1596
 3146TIP3   OH2 9401   0.163   6.234   3.094  0.1571  0.4090  0.0759
 3146TIP3    H1 9402   0.155   6.190   3.010 -0.0334 -2.3619  1.4433
 3146TIP3    H2 9403   0.192   6.323   3.072 -0.1475 -0.1349 -2.8816
 3147TIP3   OH2 9404   5.313   5.358   0.111  0.1522  0.6489  0.1313
 3147TIP3    H1 9405   5.303   5.431   0.172  1.2722  0.0246  1.1152
 3147TIP3    H2 9406   5.407   5.356   0.091 -0.2135  0.9960 -1.8598
 3148TIP3   OH2 9407   1.430   4.972   0.309 -0.1589 -0.3032 -0.0146
 3148TIP3    H1 9408   1.435   4.889   0.356  0.9439 -1.5876 -2.2046
 3148TIP3    H2 9409   1.501   5.025   0.346  0.7811 -1.3341 -0.2766
 3149TIP3   OH2 9410   4.273   3.513   2.033  0.2118 -0.1126  0.1544
 3149TIP3    H1 9411   4.229   3.569   1.970  0.1532  1.2196  1.3196
 3149TIP3    H2 9412   4.340   3.468   1.983  0.2401  0.9834 -0.8296
 3150TIP3   OH2 9413   0.655   2.814   5.289  0.0885 -0.0717  0.5633
 3150TIP3    H1 9414   0.644   2.772   5.203 -0.8268 -1.5720  1.3841
 3150TIP3    H2 9415   0.637   2.906   5.272 -1.9908 -0.6192 -0.5116
 3151TIP3   OH2 9416   5.958   2.176   3.262  0.3983  0.2833  0.4678
 3151TIP3    H1 9417   5.945   2.101   3.320 -2.5833  0.4169  0.1211
 3151TIP3    H2 9418   6.020   2.145   3.196 -0.7405 -1.9338  0.3395
 3152TIP3   OH2 9419   1.382   4.642   3.964 -0.2872  0.7028 -0.0194
 3152TIP3    H1 9420   1.415   4.660   4.052 -2.3103  2.0017  0.5330
 3152TIP3    H2 9421   1.371   4.547   3.961 -2.2877  0.7882  1.9821
 3153TIP3   OH2 9422   4.283   5.812   4.599 -0.0269  0.0974 -0.1889
 3153TIP3    H1 9423   4.212   5.762   4.559 -0.2119 -0.3651  0.6858
 3153TIP3    H2 9424   4.353   5.748   4.613  1.3165  0.8897 -2.6785
 3154TIP3   OH2 9425   0.067   6.650   2.000  0.0447  0.0530  0.2624
 3154TIP3    H1 9426  -0.015   6.611   2.029 -1.4187  1.4359 -1.7798
 3154TIP3    H2 9427   0.097   6.593   1.929 -0.6587  1.0456 -0.8676
 3155TIP3   OH2 9428   2.757   2.716   2.693  0.0570 -0.0369 -0.2715
 3155TIP3    H1 9429   2.683   2.680   2.742  0.3794  0.6319  0.7516
 3155TIP3    H2 9430   2.826   2.650   2.701 -1.1130 -1.8508 -3.3254
 3156TIP3   OH2 9431   0.709   1.709   2.281 -0.5125  0.4200 -0.1353
 3156TIP3    H1 9432   0.743   1.620   2.276  0.4015  0.7248  0.4315
 3156TIP3    H2 9433   0.637   1.705   2.344 -0.2151  0.1613  0.1886
 3157TIP3   OH2 9434   3.778   6.351   0.006  0.4012  0.2053  0.6359
 3157TIP3    H1 9435   3.752   6.414   0.074 -0.8580  0.3627  0.0415
 3157TIP3    H2 9436   3.696   6.329  -0.038  1.0443 -0.7431 -0.1201
 3158TIP3   OH2 9437   5.887   1.411   4.974 -0.1489  0.4237 -0.0262
 3158TIP3    H1 9438   5.798   1.384   4.952 -0.1069  0.6785 -0.5092
 3158TIP3    H2 9439   5.928   1.432   4.890  0.3036  0.5015  0.2103
 3159TIP3   OH2 9440   2.825   0.253   5.283  0.2445  0.2927 -0.0728
 3159TIP3    H1 9441   2.771   0.308   5.226 -0.6236 -0.4095  0.0516
 3159TIP3    H2 9442   2.768   0.233   5.358  0.2336 -1.4492 -0.5079
 3160TIP3   OH2 9443   6.218   1.416   4.879 -0.3115  0.6298 -0.1376
 3160TIP3    H1 9444   6.164   1.492   4.898  0.7704  1.4749 -0.3031
 3160TIP3    H2 9445   6.270   1.442   4.802 -0.4116 -0.5308 -0.6217
 3161TIP3   OH2 9446   4.214   6.709   3.356 -0.1564  0.0339 -0.3458
 3161TIP3    H1 9447   4.257   6.790   3.385 -0.8040  0.7524 -1.3373
 3161TIP3    H2 9448   4.141   6.698   3.418  0.6502 -0.4644  0.5294
 3162TIP3   OH2 9449   0.690   4.661   5.288 -0.3235  0.0688  0.1530
 3162TIP3    H1 9450   0.755   4.628   5.227 -1.9950 -0.7686 -1.2843
 3162TIP3    H2 9451   0.729   4.739   5.326  1.6591 -0.6538 -0.3063
 3163TIP3   OH2 9452   5.018   4.095   1.237  0.5810  0.5061 -0.1233
 3163TIP3    H1 9453   5.105   4.067   1.207 -0.1204 -1.6422 -0.3420
 3163TIP3    H2 9454   5.036   4.144   1.318  1.9542 -1.1053  0.6250
 3164TIP3   OH2 9455   3.861   4.258   5.520 -0.1301 -0.2185  0.5072
 3164TIP3    H1 9456   3.886   4.166   5.520  0.2716 -0.3524 -4.1244
 3164TIP3    H2 9457   3.944   4.305   5.533  0.5326 -0.6339 -1.7553
 3165TIP3   OH2 9458   1.716   4.251   4.520 -0.0839 -0.3422  0.5094
 3165TIP3    H1 9459   1.807   4.280   4.533 -0.3459  0.6029  0.3438
 3165TIP3    H2 9460   1.719   4.157   4.533  1.3547 -0.6766 -1.6224
 3166TIP3   OH2 9461   1.039   4.512   5.841 -0.1259 -0.4343 -0.6732
 3166TIP3    H1 9462   0.960   4.469   5.874 -0.8783  1.2949 -0.1321
 3166TIP3    H2 9463   1.011   4.601   5.819  1.5063 -0.0231 -1.2325
 3167TIP3   OH2 9464   3.238   5.586   1.547 -0.1597  0.3458 -0.2226
 3167TIP3    H1 9465   3.300   5.579   1.474 -0.9826 -0.4322 -0.8824
 3167TIP3    H2 9466   3.246   5.502   1.593  0.3069  0.8078  0.5584
 3168TIP3   OH2 9467   1.262   0.927   3.295 -0.1054 -0.2334 -0.1203
 3168TIP3    H1 9468   1.260   0.983   3.372  1.8766  1.0193 -0.9081
 3168TIP3    H2 9469   1.215   0.976   3.228  0.5872 -0.0328 -0.4700
 3169TIP3   OH2 9470   4.821   1.515   3.662  0.3054  0.0292 -0.0012
 3169TIP3    H1 9471   4.866   1.467   3.592  0.0607 -1.2486  0.6877
 3169TIP3    H2 9472   4.889   1.529   3.729 -0.0263 -0.9036  0.5475
 3170TIP3   OH2 9473   2.772   5.640   5.746  0.1120  0.3142  0.1733
 3170TIP3    H1 9474   2.826   5.564   5.765 -0.5125 -0.4693 -1.0798
 3170TIP3    H2 9475   2.812   5.711   5.796  0.6825 -0.8266  1.4004
 3171TIP3   OH2 9476   0.445   4.576   0.159  0.2280  0.2409  0.3501
 3171TIP3    H1 9477   0.522   4.531   0.193 -0.6182  0.2438  2.4221
 3171TIP3    H2 9478   0.417   4.634   0.230 -1.7121  0.1812 -0.3048
 3172TIP3   OH2 9479   6.875   2.669   0.802  0.8585  0.2007  0.4846
 3172TIP3    H1 9480   6.949   2.633   0.850  1.3905  0.2611 -0.2720
 3172TIP3    H2 9481   6.847   2.598   0.744 -0.0367 -0.0113  1.1546
 3173TIP3   OH2 9482   4.311   0.827   4.034 -0.1715 -0.2119  0.3889
 3173TIP3    H1 9483   4.221   0.824   4.068 -1.0334  1.3778 -1.6233
 3173TIP3    H2 9484   4.311   0.898   3.970  2.4220 -0.4835 -0.0126
 3174TIP3   OH2 9485   0.500   2.758   3.206 -0.6237 -0.3221 -0.0106
 3174TIP3    H1 9486   0.492   2.814   3.283 -1.2499  1.0835 -1.0699
 3174TIP3    H2 9487   0.561   2.805   3.148 -1.8116 -0.2940 -1.2799
 3175TIP3   OH2 9488   6.634   1.224   4.459 -0.2495 -0.9409  0.4560
 3175TIP3    H1 9489   6.609   1.258   4.545  1.5792 -0.2794  0.7615
 3175TIP3    H2 9490   6.582   1.144   4.449 -1.4107 -0.3656  1.6224
 3176TIP3   OH2 9491   0.439   6.095   5.260  0.7031  0.6533 -0.3651
 3176TIP3    H1 9492   0.361   6.069   5.211  0.5403 -1.4565  0.9056
 3176TIP3    H2 9493   0.411   6.170   5.312  0.1089  1.1605 -1.3742
 3177TIP3   OH2 9494   1.425   5.264   3.732 -0.7314 -0.0955  0.7639
 3177TIP3    H1 9495   1.431   5.215   3.650 -0.5434 -0.7132  1.1341
 3177TIP3    H2 9496   1.332   5.262   3.755 -1.0362  1.4766 -0.2516
 3178TIP3   OH2 9497   0.390   1.303   1.305  0.5472 -0.0612  0.0695
 3178TIP3    H1 9498   0.418   1.362   1.375 -0.1859  1.4432 -0.8531
 3178TIP3    H2 9499   0.407   1.351   1.224 -0.4955 -0.9217 -0.6985
 3179TIP3   OH2 9500   4.757   3.569   4.598  0.1306 -0.2365  0.2229
 3179TIP3    H1 9501   4.785   3.626   4.670 -0.1960  0.7870 -0.4242
 3179TIP3    H2 9502   4.661   3.571   4.602  0.1163 -0.5051  0.0125
 3180TIP3   OH2 9503   3.143   1.705   0.363 -0.2807 -0.1736  0.0500
 3180TIP3    H1 9504   3.068   1.764   0.369  1.1893  1.8600 -0.7064
 3180TIP3    H2 9505   3.114   1.635   0.305 -1.7212  0.3189  0.1336
 3181TIP3   OH2 9506   1.478   0.141   1.571  0.1781  0.3763 -0.1479
 3181TIP3    H1 9507   1.393   0.097   1.570 -0.4354  1.4474  1.1696
 3181TIP3    H2 9508   1.489   0.174   1.482 -1.2279  0.9999 -0.1124
 3182TIP3   OH2 9509   0.110   2.819   5.276 -0.0781  0.2646 -0.1682
 3182TIP3    H1 9510   0.199   2.805   5.309 -0.9401 -1.2024  1.7397
 3182TIP3    H2 9511   0.075   2.890   5.330 -0.3793  0.1915 -0.2644
 3183TIP3   OH2 9512   6.069   1.247   5.138  0.3252 -0.2692 -0.0315
 3183TIP3    H1 9513   6.043   1.309   5.070 -0.0338 -0.1120  0.2448
 3183TIP3    H2 9514   6.062   1.296   5.220  2.3310  0.0562  0.0003
 3184TIP3   OH2 9515   3.462   0.659   2.845 -0.3496  0.5702  0.3905
 3184TIP3    H1 9516   3.508   0.690   2.768  2.0010 -0.1464  1.4032
 3184TIP3    H2 9517   3.459   0.734   2.904 -2.1042  1.1050 -0.3270
 3185TIP3   OH2 9518   3.251   5.262   5.561 -0.7844  0.1255 -0.2801
 3185TIP3    H1 9519   3.315   5.300   5.622 -2.2102  2.1225  0.0892
 3185TIP3    H2 9520   3.277   5.170   5.553  0.7195  0.3044  1.6707
 3186TIP3   OH2 9521   4.507   3.141   5.503  0.4336  0.2218  0.1337
 3186TIP3    H1 9522   4.416   3.115   5.510 -0.2769  2.4842  0.1496
 3186TIP3    H2 9523   4.524   3.148   5.409  0.1590  1.0637  0.1344
 3187TIP3   OH2 9524   1.496   1.317   5.444  0.6620  0.1887  0.1888
 3187TIP3    H1 9525   1.502   1.262   5.366  0.7686 -0.1597  0.4422
 3187TIP3    H2 9526   1.513   1.405   5.412 -0.9962  0.3084 -0.4939
 3188TIP3   OH2 9527   3.709   2.023   0.188 -0.2374 -0.1114  0.7604
 3188TIP3    H1 9528   3.689   2.027   0.095 -0.6389 -0.0250  0.8471
 3188TIP3    H2 9529   3.687   2.110   0.221 -0.3404 -0.2208  0.9840
 3189TIP3   OH2 9530   2.039   1.246   3.342 -0.1757  0.3094 -0.5139
 3189TIP3    H1 9531   2.112   1.258   3.281  0.2077  0.0343 -0.1261
 3189TIP3    H2 9532   1.990   1.173   3.307 -0.0862  0.2964 -0.6143
 3190TIP3   OH2 9533   5.699   4.111   4.114  0.4446 -0.3612 -0.5164
 3190TIP3    H1 9534   5.615   4.070   4.093 -1.0820  2.5463 -0.6696
 3190TIP3    H2 9535   5.698   4.193   4.065  1.1314  2.0994  3.1788
 3191TIP3   OH2 9536   5.525   5.909   1.921  0.0042 -0.2240  0.0127
 3191TIP3    H1 9537   5.471   5.844   1.877  0.7132  0.2243 -1.5746
 3191TIP3    H2 9538   5.470   5.942   1.992  0.3859 -4.1105  2.3845
 3192TIP3   OH2 9539   6.910   5.352   3.733  0.4316  0.3425  0.2820
 3192TIP3    H1 9540   6.868   5.292   3.795  1.7629 -0.1866  0.6945
 3192TIP3    H2 9541   6.913   5.304   3.651 -0.4256  0.6691  0.0451
 3193TIP3   OH2 9542   2.439   6.286   1.556 -0.1699  0.1853 -0.4602
 3193TIP3    H1 9543   2.350   6.308   1.584  0.1090  0.5566  0.1486
 3193TIP3    H2 9544   2.496   6.338   1.612  0.4380 -0.0243 -0.8669
 3194TIP3   OH2 9545   1.704   5.647   1.335  0.0371 -0.1252 -0.5696
 3194TIP3    H1 9546   1.751   5.673   1.414 -2.2195  0.4410  0.6689
 3194TIP3    H2 9547   1.768   5.657   1.265  1.4740  1.5620  0.8794
 3195TIP3   OH2 9548   5.386   3.400   0.941  0.2403  0.4265 -0.3316
 3195TIP3    H1 9549   5.458   3.337   0.937  0.4947  0.7095 -0.2329
 3195TIP3    H2 9550   5.322   3.360   1.000  1.2479  1.1083  1.3075
 3196TIP3   OH2 9551   5.815   4.887   0.508  0.1687  0.3007 -0.1272
 3196TIP3    H1 9552   5.896   4.844   0.536 -0.1408 -1.2085 -1.4385
 3196TIP3    H2 9553   5.752   4.865   0.577  1.0468  2.2614  1.3865
 3197TIP3   OH2 9554   6.242   1.755   3.664  0.5090  0.2728 -0.2408
 3197TIP3    H1 9555   6.176   1.824   3.670  1.0539  0.7757  0.0978
 3197TIP3    H2 9556   6.240   1.712   3.750 -0.8672 -1.1298 -0.9235
 3198TIP3   OH2 9557   3.131   2.127   1.925  0.3125 -0.1609 -0.0325
 3198TIP3    H1 9558   3.206   2.173   1.963 -0.1085  0.0047  0.6160
 3198TIP3    H2 9559   3.076   2.104   2.001  0.1289 -1.0345 -0.4147
 3199TIP3   OH2 9560   5.842   3.737   4.080  0.5566  1.0990  0.1596
 3199TIP3    H1 9561   5.916   3.680   4.060  0.1577  0.7512 -0.3567
 3199TIP3    H2 9562   5.776   3.679   4.119 -0.6399  0.7546 -2.1849
 3200TIP3   OH2 9563   5.968   4.094   4.453 -0.3300 -0.1038 -0.3582
 3200TIP3    H1 9564   5.936   4.025   4.395  0.3779  0.5195 -1.5396
 3200TIP3    H2 9565   6.014   4.154   4.395 -0.3434  1.0108  0.7418
 3201TIP3   OH2 9566   2.591   5.619   5.041  0.2755 -0.0618  0.2595
 3201TIP3    H1 9567   2.661   5.684   5.028 -0.8844  1.2041  0.1130
 3201TIP3    H2 9568   2.625   5.540   4.999  2.0900  0.1679  1.1712
 3202TIP3   OH2 9569   6.033   4.351   1.212 -0.2359 -0.7727  0.6131
 3202TIP3    H1 9570   6.102   4.286   1.199  0.3549  0.1390 -1.3085
 3202TIP3    H2 9571   6.057   4.397   1.292 -0.1289 -2.2323  1.4497
 3203TIP3   OH2 9572   1.802   1.299   3.114 -0.0830  0.2348 -0.1970
 3203TIP3    H1 9573   1.898   1.302   3.116 -0.0077 -0.2009 -1.7612
 3203TIP3    H2 9574   1.775   1.343   3.194  1.4163  0.9928 -0.0743
 3204TIP3   OH2 9575   2.676   5.064   5.654 -0.0082  0.1437 -0.1684
 3204TIP3    H1 9576   2.721   4.983   5.678  0.1551  0.5347  0.9434
 3204TIP3    H2 9577   2.583   5.044   5.668  0.1349  0.6616  1.9249
 3205TIP3   OH2 9578   6.059   3.218   4.524  0.5054 -0.2420 -0.5781
 3205TIP3    H1 9579   6.068   3.190   4.615  0.5238 -0.7685 -0.7414
 3205TIP3    H2 9580   6.029   3.140   4.477 -1.8487  0.5835 -0.6109
 3206TIP3   OH2 9581   0.435   4.885   3.075  0.5197 -0.1442  0.3264
 3206TIP3    H1 9582   0.433   4.885   2.980  1.1634 -0.3901  0.3122
 3206TIP3    H2 9583   0.476   4.968   3.099 -0.4187  0.3053  0.4115
 3207TIP3   OH2 9584   5.461   5.339   2.804 -0.1868  0.1201  0.3669
 3207TIP3    H1 9585   5.502   5.394   2.737  1.2913 -0.6311  0.5946
 3207TIP3    H2 9586   5.477   5.249   2.773 -1.0522 -0.2091  0.8451
 3208TIP3   OH2 9587   0.101   4.041   0.536 -0.0789 -0.0216  0.0899
 3208TIP3    H1 9588   0.079   4.069   0.625 -0.7088  0.9099 -0.3461
 3208TIP3    H2 9589   0.017   4.037   0.490  0.5071  3.7272 -1.6414
 3209TIP3   OH2 9590   0.702   4.590   0.494  0.6312  0.5082 -0.2441
 3209TIP3    H1 9591   0.722   4.672   0.449  2.4894 -0.0211 -0.4619
 3209TIP3    H2 9592   0.786   4.560   0.528 -0.1869 -0.7826  0.7668
 3210TIP3   OH2 9593   6.211   2.638   3.832  1.1216 -0.1973  0.3008
 3210TIP3    H1 9594   6.174   2.558   3.794 -0.9976 -0.1984  2.1898
 3210TIP3    H2 9595   6.226   2.616   3.924  1.5695  1.2369  0.5923
 3211TIP3   OH2 9596   1.812   3.432   1.134 -0.0809  0.1802  0.5345
 3211TIP3    H1 9597   1.755   3.509   1.130  1.6262  1.5314  0.9160
 3211TIP3    H2 9598   1.753   3.357   1.124 -1.9958  1.4660  1.6587
 3212TIP3   OH2 9599   3.863   2.423   3.020  0.3524  0.0201  0.0956
 3212TIP3    H1 9600   3.891   2.347   2.969  2.0673  0.5004  0.2652
 3212TIP3    H2 9601   3.846   2.490   2.955 -0.1101 -0.1685  0.0144
 3213TIP3   OH2 9602   3.418   6.734   3.064  0.0337 -0.5746 -0.1120
 3213TIP3    H1 9603   3.497   6.767   3.108 -0.8677  0.4889  0.7621
 3213TIP3    H2 9604   3.437   6.642   3.048  1.0563 -0.5881  1.0128
 3214TIP3   OH2 9605   7.101   5.107   3.675  0.6453  0.3596  0.4755
 3214TIP3    H1 9606   7.107   5.028   3.620  0.1654  1.1282 -0.7285
 3214TIP3    H2 9607   7.048   5.080   3.750 -1.5587  0.1114 -1.0752
 3215TIP3   OH2 9608   3.917   5.924   5.828  0.3182  0.4408  0.0829
 3215TIP3    H1 9609   3.943   5.975   5.751  2.2163 -0.0592  0.3342
 3215TIP3    H2 9610   3.949   5.975   5.903  0.7287 -0.2748  0.4126
 3216TIP3   OH2 9611   1.534   2.718   2.508 -0.5466 -0.0523 -0.3939
 3216TIP3    H1 9612   1.502   2.650   2.568 -1.3636 -2.0577 -2.9399
 3216TIP3    H2 9613   1.628   2.724   2.528 -0.6759 -1.0971  0.6570
 3217TIP3   OH2 9614   3.323   5.936   3.809  0.3327 -0.4221 -0.0842
 3217TIP3    H1 9615   3.315   5.943   3.904 -0.6052 -1.5727 -0.0514
 3217TIP3    H2 9616   3.413   5.962   3.791  0.8046 -1.0306  1.2238
 3218TIP3   OH2 9617   3.761   2.780   3.794 -0.5177 -0.0390 -0.1330
 3218TIP3    H1 9618   3.854   2.790   3.814 -0.0628  2.4714 -2.7890
 3218TIP3    H2 9619   3.716   2.831   3.861  0.2597  1.0475 -0.4177
 3219TIP3   OH2 9620   6.180   6.487   3.487  0.3424  0.1242 -1.2156
 3219TIP3    H1 9621   6.267   6.527   3.495 -0.5691  2.2346 -1.3382
 3219TIP3    H2 9622   6.129   6.527   3.557 -0.4640 -1.4026 -0.8787
 3220TIP3   OH2 9623   0.677   0.945   2.848 -0.0083  0.3956 -0.1109
 3220TIP3    H1 9624   0.693   1.037   2.866  0.8836  0.0005  1.2888
 3220TIP3    H2 9625   0.647   0.909   2.932  3.5273 -1.3723  0.5958
 3221TIP3   OH2 9626   6.090   2.584   2.857 -0.4953  0.9615 -0.4169
 3221TIP3    H1 9627   6.067   2.515   2.795  0.8020 -0.8990  1.0799
 3221TIP3    H2 9628   6.020   2.582   2.922  0.2461  0.0436  0.3840
 3222TIP3   OH2 9629   1.698   3.194   0.109 -0.7081  0.1981  0.0508
 3222TIP3    H1 9630   1.634   3.169   0.175 -0.2771 -1.1223  0.0015
 3222TIP3    H2 9631   1.683   3.132   0.037  0.3047  0.1826 -0.1567
 3223TIP3   OH2 9632   6.646   5.767   3.531 -0.3520 -0.4288 -0.1763
 3223TIP3    H1 9633   6.680   5.685   3.567 -0.6706 -0.3898  0.2185
 3223TIP3    H2 9634   6.698   5.835   3.574  0.8935 -0.4576 -1.5485
 3224TIP3   OH2 9635   5.896   1.212   2.250 -0.0469 -0.1279 -0.2635
 3224TIP3    H1 9636   5.916   1.223   2.157 -1.0284  1.5294 -0.3141
 3224TIP3    H2 9637   5.826   1.147   2.251 -0.0470 -0.1383 -0.6820
 3225TIP3   OH2 9638   0.049   2.983   4.662  0.3617  0.4145 -0.4234
 3225TIP3    H1 9639   0.101   2.984   4.743 -2.8002 -1.0194  1.8361
 3225TIP3    H2 9640   0.008   2.897   4.661 -3.1905  1.9602 -1.1077
 3226TIP3   OH2 9641   6.557   3.856   5.482  0.3112  0.2787  0.5073
 3226TIP3    H1 9642   6.462   3.851   5.471  0.4566 -1.1003 -0.4134
 3226TIP3    H2 9643   6.573   3.947   5.507 -1.4179  0.0913  2.6322
 3227TIP3   OH2 9644   6.342   0.006   3.050 -0.0897  0.4672  0.3680
 3227TIP3    H1 9645   6.401  -0.053   3.003  0.6060  1.0945  0.4487
 3227TIP3    H2 9646   6.393   0.085   3.066 -0.3518  0.3486  2.0202
 3228TIP3   OH2 9647   3.488   6.264   1.685  0.1438  0.9533  0.1801
 3228TIP3    H1 9648   3.418   6.235   1.743  0.0915 -0.2668 -0.4633
 3228TIP3    H2 9649   3.564   6.213   1.710  0.5104  1.4753  0.1413
 3229TIP3   OH2 9650   5.586   3.136   5.149  0.0823 -0.1229 -0.1116
 3229TIP3    H1 9651   5.658   3.191   5.181 -1.1420  0.9062  1.0195
 3229TIP3    H2 9652   5.531   3.122   5.227 -1.4652 -0.0245 -1.1438
 3230TIP3   OH2 9653   6.411   4.568   5.460  0.2655 -0.4207 -0.7287
 3230TIP3    H1 9654   6.431   4.653   5.419 -0.2814 -0.4211 -1.0078
 3230TIP3    H2 9655   6.405   4.507   5.386  2.7460 -1.1570 -0.3861
 3231TIP3   OH2 9656   2.976   2.146   5.281  0.0937 -0.2716 -0.1940
 3231TIP3    H1 9657   2.993   2.177   5.371 -0.6662 -0.1075 -0.1025
 3231TIP3    H2 9658   2.884   2.167   5.265  0.2036 -0.3686 -0.9918
 3232TIP3   OH2 9659   5.660   1.054   4.868 -0.3598  0.3700  0.3968
 3232TIP3    H1 9660   5.595   0.993   4.901  0.1160  0.7104  2.0760
 3232TIP3    H2 9661   5.724   1.062   4.939  1.7200 -0.2072 -1.3050
 3233TIP3   OH2 9662   3.494   5.397   1.752 -0.0958 -0.1986 -0.0064
 3233TIP3    H1 9663   3.567   5.403   1.691  1.6444 -0.8150  1.9075
 3233TIP3    H2 9664   3.485   5.486   1.788 -0.5091 -0.0560 -0.4451
 3234TIP3   OH2 9665   7.020   0.140   2.245 -0.3892  0.2372 -0.0282
 3234TIP3    H1 9666   7.076   0.100   2.312 -0.9742 -0.5145  0.0277
 3234TIP3    H2 9667   7.074   0.209   2.207 -0.0809  0.7514  1.2908
 3235TIP3   OH2 9668   5.382   3.825   3.253 -0.5203  0.3516 -0.4258
 3235TIP3    H1 9669   5.314   3.810   3.187  0.6832  0.1614 -1.6905
 3235TIP3    H2 9670   5.413   3.737   3.276 -2.1652  0.2798  1.8400
 3236TIP3   OH2 9671   4.390   2.800   2.250 -0.0492  0.6810 -0.2690
 3236TIP3    H1 9672   4.354   2.884   2.222 -1.6745 -0.7535 -2.8553
 3236TIP3    H2 9673   4.314   2.743   2.261  1.0769 -0.8029  0.1380
 3237TIP3   OH2 9674   2.076   4.704   1.789 -0.1188 -0.9614 -0.3589
 3237TIP3    H1 9675   1.982   4.715   1.802 -0.0880 -0.5845 -0.4235
 3237TIP3    H2 9676   2.112   4.793   1.797  0.4066 -1.2740  0.9997
 3238TIP3   OH2 9677   2.969   1.711   2.592  0.3888 -0.0635 -0.0347
 3238TIP3    H1 9678   3.010   1.727   2.677 -2.1594 -0.7693  1.4536
 3238TIP3    H2 9679   3.041   1.717   2.529  2.7227 -1.1554  2.3131
 3239TIP3   OH2 9680   3.192   4.595   2.445 -0.4015 -0.0022 -0.0993
 3239TIP3    H1 9681   3.168   4.675   2.398 -1.4923  0.5342  1.2958
 3239TIP3    H2 9682   3.235   4.626   2.524 -0.4130 -0.8275  0.2362
 3240TIP3   OH2 9683   5.962   1.644   2.199 -0.1290 -0.7025  0.1593
 3240TIP3    H1 9684   5.925   1.711   2.143  0.6116 -0.8516 -0.5390
 3240TIP3    H2 9685   6.020   1.594   2.141 -0.1905 -1.5513  0.8053
 3241TIP3   OH2 9686   5.615   1.399   0.698  0.7914 -0.3460 -0.4392
 3241TIP3    H1 9687   5.639   1.362   0.783  1.4229 -0.6779 -0.7478
 3241TIP3    H2 9688   5.696   1.394   0.647  0.0064 -1.7392 -1.6188
 3242TIP3   OH2 9689   4.837   2.294   5.568 -0.1082  0.0970 -0.4285
 3242TIP3    H1 9690   4.772   2.363   5.574  0.3726  0.5084  0.2416
 3242TIP3    H2 9691   4.893   2.319   5.494  0.9318  1.2172  0.6882
 3243TIP3   OH2 9692   1.047   3.271   1.276  0.3291 -0.0338  0.8260
 3243TIP3    H1 9693   1.139   3.295   1.284  0.5974 -1.0746  1.0508
 3243TIP3    H2 9694   1.037   3.245   1.184 -0.1267  1.5235  0.4017
 3244TIP3   OH2 9695   5.203   1.239   0.205  0.1051 -0.1481 -0.3029
 3244TIP3    H1 9696   5.170   1.308   0.262  2.4030  0.6304  0.1932
 3244TIP3    H2 9697   5.253   1.181   0.263  3.7223  1.4433 -1.5336
 3245TIP3   OH2 9698   6.358   5.354   2.903  0.2288  0.0002 -0.2967
 3245TIP3    H1 9699   6.274   5.396   2.889 -0.1018 -0.9498 -1.1802
 3245TIP3    H2 9700   6.372   5.299   2.827  0.6773 -1.4727  0.8003
 3246TIP3   OH2 9701   6.880   3.510   3.463 -0.2795  0.5418 -0.2515
 3246TIP3    H1 9702   6.934   3.442   3.503 -0.8214  0.3969  0.2378
 3246TIP3    H2 9703   6.911   3.591   3.501 -0.7145  0.4156  0.3792
 3247TIP3   OH2 9704   2.820   2.837   4.270  0.2573 -0.2138 -0.1485
 3247TIP3    H1 9705   2.897   2.863   4.320  0.8243  0.4409 -1.3237
 3247TIP3    H2 9706   2.799   2.913   4.217  0.6868 -1.4025 -2.1259
 3248TIP3   OH2 9707   5.106   0.955   1.607 -0.0778 -0.4093 -0.5158
 3248TIP3    H1 9708   5.041   1.018   1.576  0.1077 -0.2390 -0.5602
 3248TIP3    H2 9709   5.185   0.974   1.556  0.2755 -0.0201  0.1573
 3249TIP3   OH2 9710   1.113   5.713   5.274 -0.3528 -0.5319  0.0205
 3249TIP3    H1 9711   1.032   5.689   5.319 -1.3895 -0.4943 -1.7723
 3249TIP3    H2 9712   1.090   5.789   5.221  1.7102  1.6043  1.9480
 3250TIP3   OH2 9713   3.779   1.047   4.296 -0.3028  0.0324  0.3315
 3250TIP3    H1 9714   3.817   1.133   4.278 -1.0337  0.0240 -1.3952
 3250TIP3    H2 9715   3.685   1.063   4.303 -0.4061 -0.5810  0.3936
 3251TIP3   OH2 9716   1.862   2.287   4.846 -0.1784  0.4022  0.3010
 3251TIP3    H1 9717   1.774   2.286   4.809 -0.0866 -4.0777 -0.3102
 3251TIP3    H2 9718   1.914   2.233   4.786  2.0601 -0.1527  2.5891
 3252TIP3   OH2 9719   0.288   4.504   2.717 -0.1101  0.0070 -0.9167
 3252TIP3    H1 9720   0.235   4.424   2.722  1.1570 -0.8638 -0.8513
 3252TIP3    H2 9721   0.243   4.566   2.775 -0.5735 -0.9873 -0.1753
 3253TIP3   OH2 9722   1.261   5.597   4.528 -0.1465 -0.3740 -0.1661
 3253TIP3    H1 9723   1.223   5.678   4.563  0.2251 -1.1807  2.3411
 3253TIP3    H2 9724   1.186   5.545   4.499 -0.5729 -0.0094  0.2722
 3254TIP3   OH2 9725   2.838   5.198   0.375  0.1879  0.0594  0.3545
 3254TIP3    H1 9726   2.758   5.212   0.426 -0.7632 -1.9166 -0.4938
 3254TIP3    H2 9727   2.906   5.244   0.425 -1.3207  1.2179  1.4597
 3255TIP3   OH2 9728   5.783   4.714   4.226 -0.9749  0.0029  0.0429
 3255TIP3    H1 9729   5.852   4.659   4.263  1.2396  1.1479 -2.0985
 3255TIP3    H2 9730   5.724   4.652   4.182 -0.0893 -0.8651  0.0461
 3256TIP3   OH2 9731   2.079   1.397   0.640 -0.5798 -0.5509  0.4476
 3256TIP3    H1 9732   2.043   1.460   0.577 -0.1669 -0.6011  0.1611
 3256TIP3    H2 9733   2.152   1.443   0.681  0.0694 -1.0298 -0.1521
 3257TIP3   OH2 9734   1.733   3.193   4.009 -0.3810  0.2732  0.2093
 3257TIP3    H1 9735   1.647   3.152   4.005 -0.0575 -0.5593  1.2547
 3257TIP3    H2 9736   1.791   3.125   4.046  0.9739  0.4162 -1.5218
 3258TIP3   OH2 9737   3.842   5.673   3.275 -0.3940  0.3085 -0.0267
 3258TIP3    H1 9738   3.850   5.740   3.343  0.1785  0.7317 -0.5012
 3258TIP3    H2 9739   3.844   5.590   3.324 -3.3844  0.6024  0.7904
 3259TIP3   OH2 9740   2.445   5.631   3.561  0.6275 -0.2424  0.4168
 3259TIP3    H1 9741   2.412   5.616   3.649  0.9223  0.0091  0.5710
 3259TIP3    H2 9742   2.367   5.630   3.505  0.4156 -0.1448  0.7104
 3260TIP3   OH2 9743   4.317   4.308   0.672 -0.1806 -0.4472 -0.3508
 3260TIP3    H1 9744   4.226   4.288   0.693 -0.1871 -1.5318 -1.3399
 3260TIP3    H2 9745   4.368   4.268   0.743 -0.4318 -0.4866 -0.1945
 3261TIP3   OH2 9746   1.806   5.909   4.103  0.2796  0.3884 -0.1277
 3261TIP3    H1 9747   1.733   5.889   4.161  0.1536  1.2853  0.0380
 3261TIP3    H2 9748   1.823   5.828   4.056 -0.1274 -0.1238  0.6030
 3262TIP3   OH2 9749   0.911   3.773   3.288 -1.0322 -0.2145  0.4593
 3262TIP3    H1 9750   0.911   3.862   3.321  1.4459 -0.2624  0.7420
 3262TIP3    H2 9751   0.964   3.777   3.209  0.1412 -1.6305  1.1375
 3263TIP3   OH2 9752   5.432   3.550   0.366  0.0524  1.1384  0.1700
 3263TIP3    H1 9753   5.413   3.484   0.300  0.0620  1.1950  0.1106
 3263TIP3    H2 9754   5.490   3.506   0.429 -1.7650  0.3450  1.3909
 3264TIP3   OH2 9755   0.661   1.378   1.572 -0.0274 -0.3919 -0.4890
 3264TIP3    H1 9756   0.589   1.441   1.568 -0.7875 -1.1556  0.6561
 3264TIP3    H2 9757   0.733   1.420   1.525 -0.0950  1.8923  1.2973
 3265TIP3   OH2 9758   5.157   6.636   2.951  0.2715  0.5000 -0.0830
 3265TIP3    H1 9759   5.153   6.726   2.984  2.2148  0.3476  0.7373
 3265TIP3    H2 9760   5.170   6.583   3.030 -1.8479 -0.6537 -0.4427
 3266TIP3   OH2 9761   7.155   4.820   4.993  0.5039 -0.9507  0.0176
 3266TIP3    H1 9762   7.123   4.909   4.983 -0.9804 -1.2258  1.6495
 3266TIP3    H2 9763   7.096   4.767   4.940 -0.0178 -1.1522  0.7663
 3267TIP3   OH2 9764   2.288   0.835   1.964 -0.3225 -0.1615  0.8231
 3267TIP3    H1 9765   2.241   0.778   2.026  0.6261 -2.4439 -0.4359
 3267TIP3    H2 9766   2.379   0.806   1.970 -0.0807  0.1403 -1.0027
 3268TIP3   OH2 9767   2.350   5.675   1.823  0.3740  0.3110  0.3797
 3268TIP3    H1 9768   2.356   5.746   1.887 -1.4461  0.0187  0.9298
 3268TIP3    H2 9769   2.277   5.699   1.767  1.3702  0.1063 -1.0598
 3269TIP3   OH2 9770   0.173   3.124   2.340  0.0323 -0.3526  0.1505
 3269TIP3    H1 9771   0.261   3.141   2.372  0.2795 -2.0616  0.4692
 3269TIP3    H2 9772   0.146   3.207   2.301  1.3050  0.5601  1.1026
 3270TIP3   OH2 9773   5.306   4.565   5.616 -0.1216 -0.5389 -0.3898
 3270TIP3    H1 9774   5.301   4.639   5.556  1.3993  0.2250  0.3880
 3270TIP3    H2 9775   5.354   4.498   5.568 -0.4938 -0.6124 -0.6680
 3271TIP3   OH2 9776   4.758   5.566   4.614 -0.1709  0.7021 -0.1986
 3271TIP3    H1 9777   4.734   5.541   4.703 -0.6230  2.0242  0.0727
 3271TIP3    H2 9778   4.844   5.608   4.623 -0.1378  0.6810 -0.4106
 3272TIP3   OH2 9779   5.075   6.102   1.180 -0.0145 -0.1700 -0.1502
 3272TIP3    H1 9780   5.058   6.024   1.128 -1.2378  0.3899 -0.6226
 3272TIP3    H2 9781   5.005   6.163   1.156  1.9324  1.7887 -1.1965
 3273TIP3   OH2 9782   3.167   4.094   1.048  0.1422 -0.5605 -0.0855
 3273TIP3    H1 9783   3.119   4.058   0.973  2.8546 -0.0566 -2.2468
 3273TIP3    H2 9784   3.196   4.017   1.097 -1.3034 -0.9100  0.2752
 3274TIP3   OH2 9785   4.632   6.281   3.202 -0.1081 -0.4798  0.0360
 3274TIP3    H1 9786   4.605   6.246   3.287 -3.0287  0.5176 -0.3568
 3274TIP3    H2 9787   4.621   6.208   3.142 -1.4503 -0.2913  0.0099
 3275TIP3   OH2 9788   0.278   1.249   2.530 -0.0408 -0.3345 -0.1251
 3275TIP3    H1 9789   0.214   1.196   2.483 -2.2603  1.0240  1.1696
 3275TIP3    H2 9790   0.290   1.203   2.614  1.3258 -0.9757 -0.6381
 3276TIP3   OH2 9791   5.930   6.165   0.485  0.3396 -0.2854  1.0139
 3276TIP3    H1 9792   5.993   6.168   0.556  2.1639 -0.0316 -0.5519
 3276TIP3    H2 9793   5.982   6.161   0.405 -1.6166 -2.7075 -0.2921
 3277TIP3   OH2 9794   4.546   4.452   0.584 -0.2057  0.0798  0.5077
 3277TIP3    H1 9795   4.598   4.472   0.661  0.5252 -0.9230  0.2987
 3277TIP3    H2 9796   4.469   4.406   0.618 -0.5417  0.8082  0.7433
 3278TIP3   OH2 9797   0.235   6.199   2.831  0.4428 -0.0425 -0.7210
 3278TIP3    H1 9798   0.228   6.219   2.738 -0.1489  0.1643 -0.6350
 3278TIP3    H2 9799   0.327   6.214   2.852  0.8285 -1.1607 -1.5125
 3279TIP3   OH2 9800   3.796   5.834   1.411  0.5225  0.0254 -0.4212
 3279TIP3    H1 9801   3.729   5.802   1.470  0.8552  0.7213  0.3560
 3279TIP3    H2 9802   3.879   5.804   1.449  0.7372  0.4304 -0.5551
 3280TIP3   OH2 9803   6.065   2.602   0.955  0.2837 -0.2955 -0.3262
 3280TIP3    H1 9804   6.007   2.670   0.989  0.3612 -1.0182  1.3277
 3280TIP3    H2 9805   6.110   2.644   0.882 -1.0284  0.8302 -0.5248
 3281TIP3   OH2 9806   0.703   5.236   4.346 -0.3354  0.3117  0.2078
 3281TIP3    H1 9807   0.632   5.258   4.406  0.2030 -2.4537  2.0730
 3281TIP3    H2 9808   0.700   5.141   4.339  2.2675  0.2117 -0.7933
 3282TIP3   OH2 9809   5.725   4.566   2.714  0.2924 -0.1819  0.0844
 3282TIP3    H1 9810   5.686   4.486   2.678 -1.3726  0.8223 -0.4597
 3282TIP3    H2 9811   5.796   4.587   2.653  2.1427 -2.3254  1.3743
 3283TIP3   OH2 9812   3.388   0.156   3.726 -0.3618 -0.7334  0.1702
 3283TIP3    H1 9813   3.475   0.186   3.753  0.0052 -0.5446 -1.1682
 3283TIP3    H2 9814   3.404   0.074   3.678 -0.8903 -0.5768 -0.2871
 3284TIP3   OH2 9815   2.151   2.515   1.045 -0.1780  0.2872 -0.0851
 3284TIP3    H1 9816   2.223   2.567   1.010  0.9468 -1.1086  0.0911
 3284TIP3    H2 9817   2.099   2.492   0.968 -1.5953  2.8822 -0.0236
 3285TIP3   OH2 9818   6.967   2.301   5.576 -0.5667  1.2150  0.7503
 3285TIP3    H1 9819   6.874   2.320   5.571 -0.3619  2.2452  0.6807
 3285TIP3    H2 9820   6.977   2.216   5.532 -1.1629  2.1524 -1.3189
 3286TIP3   OH2 9821   5.574   5.645   1.767 -0.4401  0.1320  0.2076
 3286TIP3    H1 9822   5.653   5.619   1.814 -0.6042  1.3534  1.2051
 3286TIP3    H2 9823   5.502   5.620   1.825 -0.6466  1.5951  0.6161
 3287TIP3   OH2 9824   0.641   2.138   4.875  0.0203  0.7193 -0.1966
 3287TIP3    H1 9825   0.708   2.131   4.943 -0.3263  2.0221  0.3164
 3287TIP3    H2 9826   0.560   2.111   4.918 -0.0615  0.7630 -0.3227
 3288TIP3   OH2 9827   5.301   1.467   3.093  0.1460  0.6788 -0.1244
 3288TIP3    H1 9828   5.388   1.426   3.099  0.2806  1.0843  0.9368
 3288TIP3    H2 9829   5.251   1.409   3.036  0.5744 -0.5501  0.7020
 3289TIP3   OH2 9830   0.925   5.773   1.628  0.0231 -0.4563  0.7121
 3289TIP3    H1 9831   0.915   5.868   1.637 -0.4876 -0.4707  0.3187
 3289TIP3    H2 9832   0.912   5.739   1.716  0.4683 -0.1456  0.9069
 3290TIP3   OH2 9833   1.817   3.880   4.055 -0.1590 -0.2317  0.2779
 3290TIP3    H1 9834   1.899   3.904   4.098 -0.5056 -0.7259  1.2488
 3290TIP3    H2 9835   1.750   3.891   4.123 -0.8657 -0.0559 -0.4352
 3291TIP3   OH2 9836   7.092   5.585   4.412 -0.2129  0.0873  0.5907
 3291TIP3    H1 9837   7.155   5.618   4.475  1.1961 -0.1330 -0.6449
 3291TIP3    H2 9838   7.109   5.491   4.407 -2.9833 -0.6547  2.7405
 3292TIP3   OH2 9839   4.862   1.536   2.180  0.0830 -0.0383  0.1669
 3292TIP3    H1 9840   4.819   1.474   2.238 -0.9071  2.0401  1.7741
 3292TIP3    H2 9841   4.833   1.622   2.211  0.7127  1.2292 -2.4818
 3293TIP3   OH2 9842   6.389   2.506   3.428  0.0043 -0.9435  0.7402
 3293TIP3    H1 9843   6.296   2.493   3.410 -0.1615 -0.7855  1.4321
 3293TIP3    H2 9844   6.415   2.428   3.476  0.5808 -1.6349 -0.6431
 3294TIP3   OH2 9845   5.219   5.160   2.711  0.0314 -0.1212  0.1642
 3294TIP3    H1 9846   5.278   5.091   2.740 -0.0708 -0.4988 -0.5046
 3294TIP3    H2 9847   5.264   5.201   2.637 -0.9003 -0.9916 -0.9312
 3295TIP3   OH2 9848   5.262   1.353   4.178  0.0010 -0.7449 -0.2059
 3295TIP3    H1 9849   5.297   1.266   4.195  2.0909 -0.4420 -2.3556
 3295TIP3    H2 9850   5.285   1.404   4.256  0.1967 -1.7046  0.3833
 3296TIP3   OH2 9851   2.797   2.862   5.198  0.0914  0.4129  0.2266
 3296TIP3    H1 9852   2.786   2.868   5.292  0.5227  2.8182  0.1982
 3296TIP3    H2 9853   2.890   2.839   5.186  0.1494  0.5636  0.3900
 3297TIP3   OH2 9854   2.819   5.866   3.787 -0.2417  0.3278  0.3224
 3297TIP3    H1 9855   2.743   5.839   3.735  1.0687  1.8024 -2.6003
 3297TIP3    H2 9856   2.855   5.941   3.739  2.8683 -0.0993  1.7675
 3298TIP3   OH2 9857   2.929   5.089   4.864 -0.2297  0.0596  0.0999
 3298TIP3    H1 9858   2.852   5.145   4.856 -1.2841 -1.3922 -0.3820
 3298TIP3    H2 9859   2.909   5.031   4.937  0.3559 -0.3984 -0.0977
 3299TIP3   OH2 9860   6.976   2.149   0.320  0.1200  0.4094  0.1390
 3299TIP3    H1 9861   6.981   2.147   0.416  0.6496  0.9538  0.1248
 3299TIP3    H2 9862   6.987   2.057   0.294 -3.7348 -0.4062  0.7532
 3300TIP3   OH2 9863   1.467   4.263   4.425  0.2808 -0.0689 -0.3088
 3300TIP3    H1 9864   1.420   4.191   4.466  0.7222 -0.3524 -0.2970
 3300TIP3    H2 9865   1.547   4.273   4.477  1.5877 -1.4068 -1.9442
 3301TIP3   OH2 9866   2.112   6.780   2.539 -0.8851  0.1949  0.2666
 3301TIP3    H1 9867   2.192   6.727   2.547 -0.2001  1.4246  2.2604
 3301TIP3    H2 9868   2.129   6.836   2.462 -0.1358 -0.0674  0.2311
 3302TIP3   OH2 9869   5.787   5.860   2.705  0.7280  0.5958 -0.1070
 3302TIP3    H1 9870   5.736   5.934   2.739  1.0870  0.5021  0.6493
 3302TIP3    H2 9871   5.844   5.899   2.639  3.7410  1.7858  2.9416
 3303TIP3   OH2 9872   2.198   3.530   2.453 -0.3683  0.5845 -0.4692
 3303TIP3    H1 9873   2.136   3.590   2.495 -1.2116  0.3814 -1.3749
 3303TIP3    H2 9874   2.237   3.481   2.525 -0.7791  1.1772  0.1659
 3304TIP3   OH2 9875   0.190   0.782   3.409  0.2458  0.0256  0.1535
 3304TIP3    H1 9876   0.126   0.766   3.479 -3.3038  3.0032 -2.0138
 3304TIP3    H2 9877   0.151   0.852   3.357  4.0222 -0.0098 -3.1983
 3305TIP3   OH2 9878   6.228   4.126   3.202  0.3698  0.8141 -0.4495
 3305TIP3    H1 9879   6.261   4.040   3.227  0.6559  1.2213  0.6263
 3305TIP3    H2 9880   6.285   4.155   3.131 -0.1108 -0.1361 -1.2450
 3306TIP3   OH2 9881   1.682   0.843   5.731 -0.3751 -0.0012  0.1142
 3306TIP3    H1 9882   1.725   0.907   5.673 -0.7545  0.7302  0.6234
 3306TIP3    H2 9883   1.754   0.789   5.764  0.2091  1.3257  1.1087
 3307TIP3   OH2 9884   2.586   2.318   4.093 -0.1520  0.4412 -0.6936
 3307TIP3    H1 9885   2.594   2.321   3.998  1.2319  2.0002 -0.5533
 3307TIP3    H2 9886   2.672   2.342   4.126 -0.2175 -1.3313  0.9924
 3308TIP3   OH2 9887   3.011   5.705   0.503  0.8479 -0.0607 -0.0213
 3308TIP3    H1 9888   2.984   5.775   0.444  1.6119  0.6052  0.3973
 3308TIP3    H2 9889   3.005   5.744   0.590 -0.2288 -1.0180  0.3604
 3309TIP3   OH2 9890   4.848   3.145   3.514 -0.0921 -0.0331 -0.2813
 3309TIP3    H1 9891   4.901   3.222   3.493 -1.0291  0.1761 -2.0708
 3309TIP3    H2 9892   4.757   3.177   3.510 -0.4675 -1.0878 -0.3977
 3310TIP3   OH2 9893   4.420   2.733   0.103 -0.4009  0.0272 -0.6196
 3310TIP3    H1 9894   4.329   2.716   0.077 -0.8756  0.0228  0.9444
 3310TIP3    H2 9895   4.437   2.671   0.174  0.5515  0.5858 -0.3348
 3311TIP3   OH2 9896   1.887   0.247   2.789  0.2370  0.1902  0.4255
 3311TIP3    H1 9897   1.853   0.217   2.873  0.6901  1.2984  1.0321
 3311TIP3    H2 9898   1.813   0.239   2.729  0.7465 -3.7834  0.0264
 3312TIP3   OH2 9899   1.043   1.805   0.971  0.1593 -0.1278  0.5473
 3312TIP3    H1 9900   1.131   1.782   1.001  1.3875  0.7815 -1.9979
 3312TIP3    H2 9901   1.009   1.725   0.932 -0.1722 -0.4760  1.5166
 3313TIP3   OH2 9902   4.885   2.064   1.804  0.4035 -0.4673 -0.4678
 3313TIP3    H1 9903   4.831   2.141   1.816  0.0121 -0.8722  0.4245
 3313TIP3    H2 9904   4.911   2.038   1.892  0.7582 -1.1966 -0.7740
 3314TIP3   OH2 9905   7.148   1.034   3.750  1.1254  0.1370  0.0129
 3314TIP3    H1 9906   7.072   1.013   3.804  0.2890  1.6639 -0.4896
 3314TIP3    H2 9907   7.168   0.953   3.703  0.9467 -0.7856  1.4717
 3315TIP3   OH2 9908   5.271   5.068   3.432  0.7025  0.6038  0.2056
 3315TIP3    H1 9909   5.209   5.106   3.369 -0.3517 -2.3339 -0.6958
 3315TIP3    H2 9910   5.215   5.030   3.500  1.4988 -1.2013 -0.0876
 3316TIP3   OH2 9911   0.760   3.914   0.534  0.2558  0.4262 -0.4986
 3316TIP3    H1 9912   0.835   3.883   0.585  0.5218 -0.2259 -1.2656
 3316TIP3    H2 9913   0.709   3.967   0.596  1.5895  1.2705 -0.0932
 3317TIP3   OH2 9914   5.275   5.996   1.394 -0.0741 -0.2438 -0.4678
 3317TIP3    H1 9915   5.200   6.040   1.354 -0.1865 -0.5941 -0.6479
 3317TIP3    H2 9916   5.351   6.048   1.366 -0.0034 -1.2709 -2.3288
 3318TIP3   OH2 9917   3.028   2.588   5.478 -0.5290 -0.1808  0.1615
 3318TIP3    H1 9918   3.105   2.533   5.464 -0.6275  0.1088 -1.8105
 3318TIP3    H2 9919   2.957   2.540   5.436 -1.1109  0.3019  0.5804
 3319TIP3   OH2 9920   3.335   2.277   2.052  0.4347  0.1243  0.1212
 3319TIP3    H1 9921   3.321   2.347   2.116 -1.3995  0.2098 -0.3353
 3319TIP3    H2 9922   3.350   2.323   1.969 -1.5847  0.0353 -0.3447
 3320TIP3   OH2 9923   5.806   1.624   4.441  0.6674  0.4604 -0.0041
 3320TIP3    H1 9924   5.762   1.705   4.417 -1.2606 -0.0836  1.4844
 3320TIP3    H2 9925   5.846   1.642   4.526 -2.2320 -0.8505  1.8081
 3321TIP3   OH2 9926   1.039   5.224   3.186 -0.0717  0.3469  0.3157
 3321TIP3    H1 9927   0.986   5.193   3.260 -2.2340  1.2857 -0.7479
 3321TIP3    H2 9928   1.027   5.157   3.119 -0.3660  0.8397 -0.1232
 3322TIP3   OH2 9929   4.649   4.076   1.210  0.3966  0.3719  0.6862
 3322TIP3    H1 9930   4.681   4.006   1.266 -0.4852 -0.5597  0.0797
 3322TIP3    H2 9931   4.553   4.072   1.219  0.1853 -0.1679 -1.2323
 3323TIP3   OH2 9932   2.164   2.148   1.457  0.2455 -0.4597 -0.2983
 3323TIP3    H1 9933   2.199   2.097   1.384 -1.4356 -2.7321  0.3324
 3323TIP3    H2 9934   2.223   2.129   1.530  0.6903  0.0455 -0.5229
 3324TIP3   OH2 9935   2.779   3.233   3.750  0.0520  0.2257 -0.4228
 3324TIP3    H1 9936   2.698   3.216   3.797 -1.0722  0.5508 -2.1675
 3324TIP3    H2 9937   2.788   3.159   3.689  0.0051  1.1664 -1.6049
 3325TIP3   OH2 9938   2.096   5.170   3.690 -0.0575 -0.4945 -0.0994
 3325TIP3    H1 9939   2.092   5.202   3.780 -0.3742  0.1163 -0.3222
 3325TIP3    H2 9940   2.151   5.234   3.645  0.6069 -1.1274 -0.2089
 3326TIP3   OH2 9941   6.381   5.804   4.108 -0.5030  0.5320  0.1402
 3326TIP3    H1 9942   6.370   5.810   4.013  0.9376  1.2575 -0.0157
 3326TIP3    H2 9943   6.377   5.711   4.128 -1.9495  0.4459 -0.4622
 3327TIP3   OH2 9944   3.454   3.030   3.234 -0.0432  0.0991 -0.4046
 3327TIP3    H1 9945   3.362   3.051   3.250 -0.4160 -1.3175 -0.5172
 3327TIP3    H2 9946   3.451   2.949   3.182  1.2666 -0.0668 -0.2490
 3328TIP3   OH2 9947   3.254   6.225   3.696  0.4632  0.0125 -0.0268
 3328TIP3    H1 9948   3.217   6.137   3.693  2.4459 -0.9412  1.1110
 3328TIP3    H2 9949   3.213   6.266   3.772  0.1227 -0.2332 -0.0778
 3329TIP3   OH2 9950   6.410   2.373   4.515  0.4491  0.7509  0.4579
 3329TIP3    H1 9951   6.489   2.403   4.470  2.3832 -0.3555  2.9069
 3329TIP3    H2 9952   6.393   2.440   4.581 -0.7395  1.0082 -0.0783
 3330TIP3   OH2 9953   3.030   0.911   5.118 -0.5485 -0.2944  0.8727
 3330TIP3    H1 9954   3.087   0.868   5.182 -0.7619  0.0552  1.3019
 3330TIP3    H2 9955   2.997   0.839   5.064 -0.5071 -0.6126  1.2657
 3331TIP3   OH2 9956   5.094   3.984   0.939  0.1075 -0.1945  0.0481
 3331TIP3    H1 9957   5.151   3.978   1.015 -0.2069 -0.9703  0.2370
 3331TIP3    H2 9958   5.075   4.077   0.930  0.8432 -0.0069  0.3962
 3332TIP3   OH2 9959   0.497   2.247   3.282 -0.0776 -0.0478  0.2536
 3332TIP3    H1 9960   0.408   2.276   3.263 -1.2879 -3.0164  0.8485
 3332TIP3    H2 9961   0.542   2.253   3.198 -0.3009  2.9358  0.2509
 3333TIP3   OH2 9962   3.271   0.210   3.098  0.3058 -1.1949  0.0811
 3333TIP3    H1 9963   3.304   0.126   3.068  2.5535 -0.3058 -0.1657
 3333TIP3    H2 9964   3.341   0.272   3.077 -1.5159  0.8583 -0.3314
 3334TIP3   OH2 9965   1.003   0.038   5.171  0.0428 -0.4058 -0.1763
 3334TIP3    H1 9966   1.054   0.078   5.101 -0.5445 -0.1779 -0.4882
 3334TIP3    H2 9967   1.033   0.082   5.251 -0.6258  0.7230 -0.5171
 3335TIP3   OH2 9968   5.270   2.789   1.251 -0.3021  0.0107 -0.6589
 3335TIP3    H1 9969   5.257   2.822   1.340 -1.5511 -0.1337 -0.7613
 3335TIP3    H2 9970   5.264   2.866   1.196  1.5931  0.2650 -0.5604
 3336TIP3   OH2 9971   5.684   1.096   3.921  0.3180  0.0038  0.4595
 3336TIP3    H1 9972   5.600   1.067   3.957 -1.1400  0.5159 -2.2686
 3336TIP3    H2 9973   5.750   1.057   3.979 -1.6920 -2.9563  1.0042
 3337TIP3   OH2 9974   2.308   5.040   5.285  0.2333 -0.3542 -1.1878
 3337TIP3    H1 9975   2.290   5.089   5.365 -0.2659  1.1888 -2.2025
 3337TIP3    H2 9976   2.403   5.026   5.286  0.4725  1.1271 -1.1149
 3338TIP3   OH2 9977   4.767   5.524   2.285  0.5316  0.3289 -0.1613
 3338TIP3    H1 9978   4.845   5.577   2.302  1.9784 -0.8000 -2.6853
 3338TIP3    H2 9979   4.776   5.496   2.194 -2.1556 -1.0228 -0.1258
 3339TIP3   OH2 9980   3.032   4.655   5.036 -0.2024  0.0170  0.2836
 3339TIP3    H1 9981   3.046   4.749   5.044 -1.7932  0.3459 -0.4294
 3339TIP3    H2 9982   3.044   4.637   4.943 -0.7829 -0.3114  0.2667
 3340TIP3   OH2 9983   4.580   6.262   4.770  0.2991  0.1222 -0.2996
 3340TIP3    H1 9984   4.532   6.341   4.796  1.6029  0.7652  0.2140
 3340TIP3    H2 9985   4.671   6.289   4.766  0.6439 -1.0695 -1.3123
 3341TIP3   OH2 9986   5.718   5.451   3.011  0.2735 -0.2602  0.4390
 3341TIP3    H1 9987   5.699   5.365   2.973 -0.0675  0.0324 -0.0720
 3341TIP3    H2 9988   5.708   5.511   2.937  0.2859  0.2433  0.8493
 3342TIP3   OH2 9989   1.649   0.170   5.016  0.4525  0.0566  0.1052
 3342TIP3    H1 9990   1.676   0.129   4.933 -0.0796 -1.2714  0.5607
 3342TIP3    H2 9991   1.725   0.222   5.042  0.7126  0.3225 -1.1018
 3343TIP3   OH2 9992   4.005   2.669   5.774  0.4216  0.2164  0.0962
 3343TIP3    H1 9993   4.063   2.600   5.743  0.6693  0.2017  0.5977
 3343TIP3    H2 9994   3.981   2.717   5.694 -0.3457 -0.8902 -0.3606
 3344TIP3   OH2 9995   0.711   0.425   2.939  0.0503 -0.1472  0.7940
 3344TIP3    H1 9996   0.754   0.450   2.857 -0.8951  0.2934  0.4235
 3344TIP3    H2 9997   0.782   0.391   2.993  0.4104 -2.4628 -0.9622
 3345TIP3   OH2 9998   6.025   2.444   1.635 -0.2860  0.5174 -0.3801
 3345TIP3    H1 9999   6.085   2.485   1.573  1.6275 -0.2569  0.8703
 3345TIP3    H210000   5.981   2.376   1.583  1.0050  0.1138 -0.9992
 3346TIP3   OH210001   6.195   4.744   5.625  0.6351 -0.2393  0.6257
 3346TIP3    H110002   6.261   4.785   5.568  0.7862 -0.6565  0.4954
 3346TIP3    H210003   6.151   4.680   5.568 -0.4025  0.5606  0.5028
 3347TIP3   OH210004   5.888   1.453   2.715  0.2455  0.3734 -0.0792
 3347TIP3    H110005   5.910   1.501   2.635  0.0435  0.1302 -0.2859
 3347TIP3    H210006   5.906   1.361   2.692  0.8087  0.3708  0.3708
 3348TIP3   OH210007   3.393   3.308   3.784  0.2640  0.2407  0.1885
 3348TIP3    H110008   3.404   3.403   3.774 -0.5107  0.2688 -0.5665
 3348TIP3    H210009   3.340   3.299   3.863 -0.0966  0.4738 -0.0216
 3349TIP3   OH210010   3.624   0.248   3.817 -0.1165 -0.0309 -0.1992
 3349TIP3    H110011   3.701   0.257   3.760  0.7600  1.7642  1.1591
 3349TIP3    H210012   3.661   0.245   3.906 -1.6221  1.5516  0.5326
 3350TIP3   OH210013   0.035   2.050   5.062 -0.3525 -0.2324 -0.2792
 3350TIP3    H110014   0.064   2.100   5.139 -0.4985 -0.7701  0.1319
 3350TIP3    H210015  -0.056   2.076   5.050 -0.2597  0.0344 -0.4218
 3351TIP3   OH210016   4.102   2.418   2.801 -0.1134 -0.3790 -0.6913
 3351TIP3    H110017   4.051   2.498   2.817  1.1784  0.1762  0.8569
 3351TIP3    H210018   4.184   2.431   2.849  0.6773 -2.0885 -1.4947
 3352TIP3   OH210019   6.930   6.385   2.293  0.2580  0.3643 -0.0159
 3352TIP3    H110020   6.937   6.453   2.360  0.4426 -0.7374  1.1119
 3352TIP3    H210021   6.943   6.431   2.210 -0.7223  1.8856  0.6370
 3353TIP3   OH210022   4.438   4.379   1.087 -0.2451 -0.0283  0.5247
 3353TIP3    H110023   4.529   4.391   1.061 -0.6681  0.2380 -0.9281
 3353TIP3    H210024   4.414   4.460   1.132  0.2189 -0.0928  0.8953
 3354TIP3   OH210025   4.856   3.713   4.796  0.0546  0.5717  0.3807
 3354TIP3    H110026   4.939   3.754   4.769  0.8507 -0.7602  0.6997
 3354TIP3    H210027   4.836   3.754   4.880  2.1244 -1.2616  1.9003
 3355TIP3   OH210028   4.666   3.084   1.962  0.1826 -0.1379 -0.3629
 3355TIP3    H110029   4.660   3.073   2.057  1.4942  1.1733 -0.0905
 3355TIP3    H210030   4.575   3.097   1.934 -0.2364 -0.7629  0.6727
 3356TIP3   OH210031   0.138   2.238   3.633  0.0025  0.5840 -0.0541
 3356TIP3    H110032   0.212   2.214   3.690 -0.4890  0.9706  0.7698
 3356TIP3    H210033   0.131   2.332   3.642 -2.4956  0.2763  2.3382
 3357TIP3   OH210034   3.954   5.391   3.937  0.2681  0.2313  0.0377
 3357TIP3    H110035   3.973   5.424   4.025  0.0319  3.4704 -1.0020
 3357TIP3    H210036   3.864   5.360   3.942  1.0631 -2.0725  1.5043
 3358TIP3   OH210037   6.695   5.081   5.077  0.2490  0.3263 -0.3494
 3358TIP3    H110038   6.623   5.135   5.110 -0.0050 -0.2660  0.0803
 3358TIP3    H210039   6.716   5.023   5.150 -0.0989 -0.7810 -1.1165
 3359TIP3   OH210040   2.024   4.705   2.738  0.4686  0.3320  0.1841
 3359TIP3    H110041   2.046   4.659   2.819 -2.9021 -0.5718  0.7323
 3359TIP3    H210042   1.975   4.641   2.686 -2.3768  2.4593 -0.0320
 3360TIP3   OH210043   6.809   1.214   3.415 -0.4902 -0.5311  0.2126
 3360TIP3    H110044   6.821   1.199   3.321  1.7800  2.4506 -0.1278
 3360TIP3    H210045   6.877   1.161   3.456 -0.1103 -0.2197 -0.0077
 3361TIP3   OH210046   0.390   5.581   0.726  0.2230  0.1457  0.4882
 3361TIP3    H110047   0.331   5.604   0.798 -0.5525  2.2814 -0.7629
 3361TIP3    H210048   0.344   5.606   0.647  1.3606 -1.4830 -0.7732
 3362TIP3   OH210049   1.723   4.847   3.272 -0.1740 -0.0837 -0.5222
 3362TIP3    H110050   1.772   4.821   3.351 -0.5325  1.6230  0.2940
 3362TIP3    H210051   1.647   4.894   3.306 -0.5909  0.2401 -1.8855
 3363TIP3   OH210052   3.909   1.517   3.004  0.2219  0.1904 -0.1485
 3363TIP3    H110053   3.863   1.598   3.027  1.0067  0.5069  0.3453
 3363TIP3    H210054   3.952   1.537   2.921 -1.5500 -0.5303 -1.3039
 3364TIP3   OH210055   6.473   1.567   0.489  0.0874 -0.3216 -0.0276
 3364TIP3    H110056   6.524   1.609   0.559 -0.1483  0.0816 -0.0991
 3364TIP3    H210057   6.447   1.639   0.432  0.2054 -0.6403 -0.4882
 3365TIP3   OH210058   4.780   6.210   0.585 -0.0061 -0.4739 -0.5127
 3365TIP3    H110059   4.830   6.210   0.667 -0.5373 -0.6419 -0.1800
 3365TIP3    H210060   4.689   6.223   0.613 -0.3206 -1.5130 -0.9928
 3366TIP3   OH210061   6.575   1.191   1.898 -0.0473  0.5395 -0.9987
 3366TIP3    H110062   6.617   1.272   1.927  0.7774 -0.5831  1.2062
 3366TIP3    H210063   6.481   1.211   1.900  0.0321  0.9736  1.3337
 3367TIP3   OH210064   3.735   2.791   1.071 -0.0511  0.1332 -0.4617
 3367TIP3    H110065   3.775   2.860   1.124  2.5226 -1.1931 -0.5421
 3367TIP3    H210066   3.758   2.710   1.116 -2.1422 -0.7897 -0.9268
 3368TIP3   OH210067   4.502   2.128   0.941  0.1889  0.2479 -0.1867
 3368TIP3    H110068   4.482   2.045   0.985  0.0481  1.4614  2.2464
 3368TIP3    H210069   4.592   2.147   0.965  0.4175  0.5101 -1.2327
 3369TIP3   OH210070   1.309   0.417   5.548 -0.3677  0.0410  0.0698
 3369TIP3    H110071   1.317   0.492   5.606 -0.4126  0.4932 -0.5014
 3369TIP3    H210072   1.299   0.454   5.460  3.0124 -0.5754 -0.7167
 3370TIP3   OH210073   2.049   0.071   2.611  0.5183  0.0175  0.7374
 3370TIP3    H110074   1.982   0.127   2.650  1.6032  0.5245  1.9723
 3370TIP3    H210075   2.023  -0.018   2.634  0.0142  0.1765  0.7878
 3371TIP3   OH210076   4.450   4.248   3.495  0.2770 -0.1208  0.2109
 3371TIP3    H110077   4.509   4.259   3.570  0.0159  0.9570  0.2711
 3371TIP3    H210078   4.464   4.326   3.441 -1.7137  0.6396  0.6792
 3372TIP3   OH210079   1.722   3.289   4.521 -0.5412  0.0603  0.0279
 3372TIP3    H110080   1.727   3.328   4.433  1.5688  0.9305  0.4737
 3372TIP3    H210081   1.737   3.196   4.507  0.0175  0.2247 -0.5297
 3373TIP3   OH210082   1.611   5.878   4.295  0.6670  0.0573 -0.2016
 3373TIP3    H110083   1.598   5.802   4.352  0.5198 -0.2632 -0.6610
 3373TIP3    H210084   1.524   5.898   4.262  0.5787  0.8869  0.4886
 3374TIP3   OH210085   1.443   1.095   3.819  0.5059 -0.0133  0.2927
 3374TIP3    H110086   1.487   1.045   3.887  0.1417  1.6193  1.8076
 3374TIP3    H210087   1.503   1.094   3.745  1.1840 -1.3340  0.8369
 3375TIP3   OH210088   1.877   3.587   3.951  0.1940  0.2346 -0.1982
 3375TIP3    H110089   1.972   3.576   3.950  0.1337 -0.3421 -0.0550
 3375TIP3    H210090   1.863   3.676   3.982  0.6995  0.4721 -0.6319
 3376TIP3   OH210091   1.871   6.011   5.865  0.7147 -0.3052 -0.3731
 3376TIP3    H110092   1.847   6.097   5.829 -0.5037 -0.7818 -0.7396
 3376TIP3    H210093   1.909   5.964   5.791  1.0778 -0.1948 -0.2559
 3377TIP3   OH210094   1.613   1.316   1.982 -0.1243  0.3366 -0.4075
 3377TIP3    H110095   1.618   1.381   1.912 -0.2342  2.2643  1.2701
 3377TIP3    H210096   1.520   1.296   1.990  0.0880 -1.6593 -2.2772
 3378TIP3   OH210097   5.806   0.026   4.253  0.2983 -0.0584 -0.1919
 3378TIP3    H110098   5.826   0.119   4.245 -0.5309  0.1280 -0.1211
 3378TIP3    H210099   5.879  -0.010   4.305  1.7292  0.1498 -1.9473
 3379TIP3   OH210100   4.303   1.816   2.796 -0.3478 -0.0904  0.1066
 3379TIP3    H110101   4.260   1.894   2.759  1.6362  0.8022 -0.5105
 3379TIP3    H210102   4.364   1.852   2.861  0.7838 -1.0855 -0.3740
 3380TIP3   OH210103   1.950   2.672   5.539  0.1226  0.1958 -0.5818
 3380TIP3    H110104   2.034   2.696   5.577 -0.3989  1.0216  0.0824
 3380TIP3    H210105   1.911   2.755   5.511 -0.2214 -0.2333 -1.4281
 3381TIP3   OH210106   3.661   4.785   2.471  0.0083  0.3680 -0.6362
 3381TIP3    H110107   3.720   4.713   2.450  1.6032  1.6468 -0.7798
 3381TIP3    H210108   3.592   4.780   2.405 -1.0401 -2.1830  0.5405
 3382TIP3   OH210109   6.404   5.159   2.719  0.4788  0.2213  0.1573
 3382TIP3    H110110   6.471   5.122   2.663 -0.0367  1.6955 -1.5175
 3382TIP3    H210111   6.348   5.085   2.742  3.1713 -1.2768  2.5228
 3383TIP3   OH210112   5.678   1.478   5.270  0.3517  0.2535 -0.4693
 3383TIP3    H110113   5.765   1.484   5.310  0.3365 -1.6577 -0.0621
 3383TIP3    H210114   5.672   1.388   5.238 -1.1375  0.6177 -1.3320
 3384TIP3   OH210115   7.179   3.259   1.573 -0.0028  0.2060 -0.2753
 3384TIP3    H110116   7.104   3.201   1.588 -1.2368  1.8406  0.1163
 3384TIP3    H210117   7.215   3.229   1.490 -0.3006 -1.4096  0.1304
 3385TIP3   OH210118   7.094   6.629   4.992 -0.1921  0.8648  0.2028
 3385TIP3    H110119   7.146   6.650   5.070  0.7902  2.0053 -0.7176
 3385TIP3    H210120   7.094   6.710   4.940 -1.0445  0.2153 -0.8723
 3386TIP3   OH210121   3.995   4.799   2.920 -0.0391 -0.4890 -0.4986
 3386TIP3    H110122   4.003   4.842   2.834 -0.1945  1.0777  0.2448
 3386TIP3    H210123   4.077   4.750   2.929  0.6532  0.5488 -0.9037
 3387TIP3   OH210124   3.101   5.303   0.501 -0.2699 -0.0973 -0.3736
 3387TIP3    H110125   3.170   5.285   0.565 -0.5455  2.1469  0.6541
 3387TIP3    H210126   3.128   5.385   0.459 -0.5700 -1.0244 -2.5388
 3388TIP3   OH210127   1.225   6.436   1.948 -0.0274 -0.0077  0.1866
 3388TIP3    H110128   1.185   6.353   1.975 -3.0120  0.0381 -3.2349
 3388TIP3    H210129   1.163   6.503   1.976  0.4981  0.6913 -0.2802
 3389TIP3   OH210130   5.297   5.036   3.771 -0.5962 -0.0792 -0.3577
 3389TIP3    H110131   5.381   4.996   3.752 -0.5759 -0.3142  0.2075
 3389TIP3    H210132   5.242   5.015   3.696  0.0416  0.6443 -1.0444
 3390TIP3   OH210133   7.144   4.055   3.448 -0.0948  0.2040  0.3399
 3390TIP3    H110134   7.224   4.004   3.437  0.2828 -0.0243  3.2304
 3390TIP3    H210135   7.174   4.145   3.457 -0.3702  0.3962 -0.6242
 3391TIP3   OH210136   1.096   4.736   1.431 -0.4423 -0.0699 -0.1550
 3391TIP3    H110137   1.173   4.791   1.446  0.0183 -0.3247 -1.4369
 3391TIP3    H210138   1.070   4.755   1.341 -0.6744 -1.4639 -0.4034
 3392TIP3   OH210139   2.973   0.774   0.032  0.2179 -0.1955 -0.7939
 3392TIP3    H110140   2.970   0.701  -0.030  0.9705  0.7931 -2.0298
 3392TIP3    H210141   3.063   0.773   0.066 -0.4735 -1.4229  1.2071
 3393TIP3   OH210142   6.352   1.995   1.085  0.1447 -0.7431 -0.1895
 3393TIP3    H110143   6.393   2.067   1.037 -1.4247  0.6602  0.4558
 3393TIP3    H210144   6.409   1.980   1.160  0.3230  0.0900 -0.1509
 3394TIP3   OH210145   4.302   0.195   5.344  0.2070  0.0584 -0.8364
 3394TIP3    H110146   4.313   0.115   5.292 -0.1737 -0.7617  0.3033
 3394TIP3    H210147   4.239   0.247   5.294 -1.4902 -1.4660 -0.3908
 3395TIP3   OH210148   0.690   1.940   3.243 -0.2890 -0.3924  0.1511
 3395TIP3    H110149   0.635   1.868   3.213  0.1306 -0.7079  0.1357
 3395TIP3    H210150   0.672   2.011   3.181  0.4979 -1.0008 -0.8158
 3396TIP3   OH210151   1.602   5.624   3.040  0.0330  0.3765  0.4267
 3396TIP3    H110152   1.663   5.677   2.989 -0.7976  0.5742 -0.3786
 3396TIP3    H210153   1.629   5.534   3.022 -0.0711  0.4544 -0.1313
 3397TIP3   OH210154   5.250   2.602   3.943 -0.0920 -0.3605  0.4736
 3397TIP3    H110155   5.193   2.530   3.969 -0.3917  0.1208  1.1657
 3397TIP3    H210156   5.281   2.639   4.026  0.1450  0.2354  0.1214
 3398TIP3   OH210157   6.845   1.344   5.702 -0.1261 -0.0104 -0.0626
 3398TIP3    H110158   6.868   1.396   5.626 -1.0208  0.6400  0.0937
 3398TIP3    H210159   6.900   1.377   5.772  1.7393 -1.5605 -0.7027
 3399TIP3   OH210160   6.751   6.124   5.576 -0.4198  0.1138 -0.1513
 3399TIP3    H110161   6.679   6.147   5.635 -1.9087 -1.1310 -1.4082
 3399TIP3    H210162   6.750   6.193   5.509  0.0718  0.5052  0.2324
 3400TIP3   OH210163   6.951   3.661   2.181  0.3765 -0.2179  0.0160
 3400TIP3    H110164   6.876   3.662   2.240  2.1996 -1.1790  2.5210
 3400TIP3    H210165   6.937   3.584   2.126 -0.2320 -0.6875  0.8028
 3401TIP3   OH210166   5.597   0.985   1.815 -0.0801  0.3545  0.6031
 3401TIP3    H110167   5.690   0.963   1.813 -0.0343  0.5744  0.0438
 3401TIP3    H210168   5.595   1.080   1.803 -0.3911  0.3034  0.2448
 3402TIP3   OH210169   5.810   0.437   3.884 -0.1651  0.6725  0.1871
 3402TIP3    H110170   5.765   0.364   3.927 -2.2440  0.3700 -2.2128
 3402TIP3    H210171   5.870   0.395   3.822  0.0055  1.0191  0.1184
 3403TIP3   OH210172   3.893   2.202   2.847  0.2078  0.2274  0.1022
 3403TIP3    H110173   3.860   2.140   2.782 -0.7353  2.1461 -1.3450
 3403TIP3    H210174   3.988   2.197   2.838  0.0906  0.5275 -1.5248
 3404TIP3   OH210175   0.126   1.177   1.833  0.2111  0.0070 -0.0207
 3404TIP3    H110176   0.164   1.236   1.768  0.8947 -0.6174 -0.1988
 3404TIP3    H210177   0.092   1.103   1.782 -1.0034  0.4178  0.1602
 3405TIP3   OH210178   1.142   6.515   3.397  0.3787  0.1008 -0.6826
 3405TIP3    H110179   1.160   6.422   3.408  0.1922  0.3383  2.4613
 3405TIP3    H210180   1.225   6.558   3.416 -0.0007  0.6313 -0.1866
 3406TIP3   OH210181   4.001   5.553   5.057  0.3555  0.0517  0.1322
 3406TIP3    H110182   3.926   5.530   5.112  0.3962  0.0436  0.1834
 3406TIP3    H210183   4.071   5.574   5.119  0.1723  0.8112  0.0982
 3407TIP3   OH210184   4.486   0.079   4.556 -0.0910  0.2453 -0.4601
 3407TIP3    H110185   4.563   0.064   4.611 -0.8766 -0.3397  0.5069
 3407TIP3    H210186   4.507   0.034   4.473  0.8831  0.6892 -0.4652
 3408TIP3   OH210187   6.618   1.570   3.462  0.3327 -0.1217 -0.0778
 3408TIP3    H110188   6.563   1.523   3.399 -0.3707 -0.3568  0.6960
 3408TIP3    H210189   6.578   1.656   3.470 -0.1294 -0.4098  0.7481
 3409TIP3   OH210190   2.660   4.631   3.072  0.0587  0.0097  0.2751
 3409TIP3    H110191   2.649   4.542   3.106 -0.9189  0.2188  0.5165
 3409TIP3    H210192   2.720   4.621   2.998 -0.7511 -0.9876 -0.2689
 3410TIP3   OH210193   0.693   3.347   0.224 -0.1917 -0.2136 -0.2022
 3410TIP3    H110194   0.776   3.325   0.181  1.1971  1.5632  1.3744
 3410TIP3    H210195   0.695   3.442   0.233 -1.7296 -0.2629  1.1591
 3411TIP3   OH210196   0.429   6.753   5.638 -0.2469  0.0730  0.2796
 3411TIP3    H110197   0.467   6.840   5.650  1.6225 -0.8454  1.5113
 3411TIP3    H210198   0.337   6.764   5.661  0.2588  1.4336  1.8434
 3412TIP3   OH210199   1.558   1.178   4.650 -0.0440 -0.1748 -0.1257
 3412TIP3    H110200   1.598   1.229   4.721  0.6358 -0.0438 -0.5903
 3412TIP3    H210201   1.579   1.227   4.571 -0.3902 -0.5700 -0.4695
 3413TIP3   OH210202   6.342   2.637   1.965 -0.2083  0.4828 -0.7861
 3413TIP3    H110203   6.373   2.685   2.042  0.9336 -1.3195 -0.0643
 3413TIP3    H210204   6.352   2.699   1.893  2.0378  1.0933 -0.0212
 3414TIP3   OH210205   7.064   4.374   1.550 -0.3715  0.1870  0.0245
 3414TIP3    H110206   6.995   4.307   1.554  0.2064 -0.4503 -0.3841
 3414TIP3    H210207   7.052   4.416   1.464 -0.0482 -0.1560 -0.1922
 3415TIP3   OH210208   0.578   1.249   4.418 -0.5085 -0.1277  1.2938
 3415TIP3    H110209   0.623   1.234   4.501  0.2880 -1.4179  0.6634
 3415TIP3    H210210   0.545   1.163   4.393 -1.1897  0.3463  0.5242
 3416TIP3   OH210211   1.984   2.034   1.972  0.1119  0.2716 -0.0109
 3416TIP3    H110212   1.982   2.128   1.993  0.6834  0.1625  0.5694
 3416TIP3    H210213   2.073   2.019   1.940  0.2387 -0.2075  0.5605
 3417TIP3   OH210214   4.129   5.856   3.852 -0.1437 -0.1524  0.2017
 3417TIP3    H110215   4.181   5.780   3.827 -1.5477 -0.8689 -0.6737
 3417TIP3    H210216   4.161   5.880   3.939  1.9754 -0.2214 -0.5094
 3418TIP3   OH210217   3.149   4.876   5.145 -0.3922 -0.1933 -0.2264
 3418TIP3    H110218   3.203   4.953   5.164  0.5382 -0.6799 -0.8285
 3418TIP3    H210219   3.061   4.911   5.135  0.2520  1.0689 -2.1098
 3419TIP3   OH210220   4.236   2.301   3.666  0.0574 -0.2237  0.5004
 3419TIP3    H110221   4.281   2.358   3.728  3.6996 -2.6993  0.4098
 3419TIP3    H210222   4.197   2.361   3.602  1.3603  2.2186  1.8656
 3420TIP3   OH210223   0.305   2.330   4.159 -0.1642 -0.2685 -0.5463
 3420TIP3    H110224   0.215   2.320   4.129  0.1070 -0.0409 -1.4646
 3420TIP3    H210225   0.324   2.248   4.204 -1.0556 -0.0347  0.2907
 3421TIP3   OH210226   2.997   0.509   3.326 -0.3129  0.0370  0.3313
 3421TIP3    H110227   2.979   0.551   3.242  2.2022 -0.4538 -0.5647
 3421TIP3    H210228   3.059   0.568   3.370  0.2746 -0.8562  0.7373
 3422TIP3   OH210229   0.254   4.314   0.841 -0.9202  0.0336  0.3220
 3422TIP3    H110230   0.210   4.340   0.922  0.3749 -0.1468  1.1088
 3422TIP3    H210231   0.193   4.252   0.800 -1.3149 -0.3848  1.4879
 3423TIP3   OH210232   1.837   5.464   1.809 -0.1889  0.1299  0.4252
 3423TIP3    H110233   1.826   5.514   1.728  3.3913 -0.9459 -0.9239
 3423TIP3    H210234   1.806   5.376   1.788  2.0396 -0.5351 -0.3953
 3424TIP3   OH210235   2.398   1.259   0.657  0.1028 -0.7133  0.9204
 3424TIP3    H110236   2.348   1.340   0.666  0.5422 -0.5545  2.2972
 3424TIP3    H210237   2.481   1.286   0.617 -0.8866 -0.9951 -1.4662
 3425TIP3   OH210238   4.772   5.948   3.532  0.2960 -0.5173 -0.0771
 3425TIP3    H110239   4.775   6.008   3.606 -0.9732 -0.5683  0.0288
 3425TIP3    H210240   4.861   5.913   3.526  0.3113 -0.8583  1.6957
 3426TIP3   OH210241   0.294   5.874   1.784  0.0882  0.3181 -0.4990
 3426TIP3    H110242   0.201   5.887   1.805  0.1120  1.1329 -0.8922
 3426TIP3    H210243   0.334   5.849   1.868 -0.5825 -0.6149 -0.4373
 3427TIP3   OH210244   7.056   6.211   4.083  0.0004 -0.0453  0.0187
 3427TIP3    H110245   7.054   6.115   4.084 -1.7878 -0.0565 -1.0413
 3427TIP3    H210246   7.126   6.233   4.021  0.3445 -0.6527  0.1850
 3428TIP3   OH210247   5.792   3.053   4.676 -0.1034  0.0643  0.1164
 3428TIP3    H110248   5.731   3.107   4.727  0.9194  1.1942  0.1882
 3428TIP3    H210249   5.820   2.984   4.736 -1.9340 -1.0060 -0.1746
 3429TIP3   OH210250   3.952   6.006   4.584 -0.1420  0.0545  0.2201
 3429TIP3    H110251   3.995   6.010   4.498 -1.4512 -1.9137 -0.6028
 3429TIP3    H210252   3.875   6.062   4.574  0.4646  0.9957  0.6355
 3430TIP3   OH210253   4.942   2.853   5.638  0.3890 -0.0519  0.5130
 3430TIP3    H110254   4.852   2.872   5.611  0.7833  0.5928 -0.3596
 3430TIP3    H210255   4.958   2.764   5.608 -0.3859 -0.6804  1.8392
 3431TIP3   OH210256   2.903   5.897   1.310  0.6872  0.4666 -0.0594
 3431TIP3    H110257   2.909   5.992   1.297 -0.6092  0.5037 -0.5171
 3431TIP3    H210258   2.969   5.861   1.252 -0.3584  1.0006 -1.6667
 3432TIP3   OH210259   6.554   6.778   1.799  0.3817  0.0084  0.4598
 3432TIP3    H110260   6.473   6.735   1.823  0.8189 -0.7220  0.6624
 3432TIP3    H210261   6.553   6.780   1.704  0.2181 -0.1745  0.4575
 3433TIP3   OH210262   2.240   6.154   2.238 -0.5264  0.0044 -0.0084
 3433TIP3    H110263   2.202   6.095   2.174  3.0309 -0.7808 -1.6268
 3433TIP3    H210264   2.278   6.225   2.186  0.1470  0.7508  1.4299
 3434TIP3   OH210265   0.165   4.691   5.052 -0.1399  1.0377 -0.1512
 3434TIP3    H110266   0.176   4.711   5.145 -0.9510  0.5370  0.0627
 3434TIP3    H210267   0.084   4.735   5.027  0.0014  1.0574 -0.5859
 3435TIP3   OH210268   7.029   1.382   1.540  0.2435 -0.6906 -0.7472
 3435TIP3    H110269   7.075   1.349   1.463  2.0204  2.0397 -0.9617
 3435TIP3    H210270   7.099   1.402   1.603 -0.9042  0.3470  0.2502
 3436TIP3   OH210271   2.983   2.678   2.037 -0.2652 -0.1931 -0.3246
 3436TIP3    H110272   3.036   2.694   1.959  0.3999 -0.3759  0.0775
 3436TIP3    H210273   2.970   2.765   2.075 -2.3774  0.1889 -1.7307
 3437TIP3   OH210274   7.014   4.593   4.449 -0.0574 -0.0233 -0.2397
 3437TIP3    H110275   6.931   4.595   4.495  0.2202  0.1573  0.2635
 3437TIP3    H210276   7.059   4.673   4.478  0.7038 -0.6285  0.2930
 3438TIP3   OH210277   5.772   0.703   1.011  0.1542 -0.0416 -0.2111
 3438TIP3    H110278   5.741   0.758   1.083 -0.3280 -0.4798 -0.0807
 3438TIP3    H210279   5.724   0.620   1.021  0.9857 -0.5463 -0.3120
 3439TIP3   OH210280   5.968   4.973   3.138  0.0304  0.4040 -0.4603
 3439TIP3    H110281   5.912   4.936   3.069  0.4254 -0.3833 -0.3751
 3439TIP3    H210282   5.908   4.996   3.208 -0.1510 -1.0078 -0.1166
 3440TIP3   OH210283   0.030   2.618   4.227  0.0702  0.1518 -0.1704
 3440TIP3    H110284   0.006   2.636   4.318  0.0841 -0.4136 -0.0472
 3440TIP3    H210285   0.069   2.531   4.230  2.3829  1.1235 -0.3417
 3441TIP3   OH210286   3.417   0.076   2.067 -0.0915 -0.3869 -0.4382
 3441TIP3    H110287   3.341   0.078   2.124 -1.9196  1.2870 -2.7314
 3441TIP3    H210288   3.431   0.167   2.042  1.5430 -0.8774 -1.4889
 3442TIP3   OH210289   3.834   5.501   4.382  0.7702 -0.0930 -0.4752
 3442TIP3    H110290   3.822   5.541   4.295 -1.5498 -1.2244 -0.7613
 3442TIP3    H210291   3.872   5.571   4.435 -0.0488  1.4305 -1.7915
 3443TIP3   OH210292   2.331   2.804   4.280 -0.0757 -0.7760  0.4271
 3443TIP3    H110293   2.387   2.735   4.244 -1.1441 -1.2608 -0.3625
 3443TIP3    H210294   2.392   2.867   4.318  0.9075 -2.4454  1.7287
 3444TIP3   OH210295   5.856   3.731   1.166  0.4551 -0.1460  0.1502
 3444TIP3    H110296   5.910   3.652   1.164 -0.1407 -0.6221  1.5008
 3444TIP3    H210297   5.770   3.700   1.194 -0.2709  0.7455 -1.0333
 3445TIP3   OH210298   2.265   3.446   0.939  0.3902 -0.1046  0.3309
 3445TIP3    H110299   2.220   3.361   0.933 -2.1374  1.0078  1.7797
 3445TIP3    H210300   2.217   3.502   0.878 -0.4966  1.1893  2.1094
 3446TIP3   OH210301   4.301   0.035   2.052  0.7237  0.6451  0.1106
 3446TIP3    H110302   4.290   0.093   2.127 -0.0759  1.0677 -0.3112
 3446TIP3    H210303   4.212   0.005   2.033  0.8749  0.7891 -0.8575
 3447TIP3   OH210304   3.753   4.950   3.153 -0.1886 -0.5707 -0.1319
 3447TIP3    H110305   3.667   4.989   3.170  0.0065  0.1833 -0.8203
 3447TIP3    H210306   3.778   4.911   3.237 -1.3328 -1.0816 -0.0022
 3448TIP3   OH210307   3.594   3.077   3.488  0.6860  0.2735 -0.7132
 3448TIP3    H110308   3.566   3.157   3.445  1.5313  0.2118 -1.4146
 3448TIP3    H210309   3.570   3.007   3.427  0.8179  0.0861 -0.5528
 3449TIP3   OH210310   5.956   5.512   1.395  0.8223 -0.3726  0.3553
 3449TIP3    H110311   5.872   5.556   1.404  0.8502 -0.5197  1.5391
 3449TIP3    H210312   5.956   5.476   1.306 -0.9923 -1.6261  0.8055
 3450TIP3   OH210313   4.299   2.748   0.430  0.0131  0.4647  0.0804
 3450TIP3    H110314   4.344   2.672   0.467 -0.7728 -2.7592 -4.6443
 3450TIP3    H210315   4.356   2.822   0.451  1.7858 -1.6017  3.4539
 3451TIP3   OH210316   6.912   3.907   5.045 -0.1565  0.1361  0.6601
 3451TIP3    H110317   6.982   3.891   5.107 -1.5608  0.9777  2.5552
 3451TIP3    H210318   6.917   4.001   5.026  0.4409 -0.1575 -0.7925
 3452TIP3   OH210319   6.893   0.613   2.547  0.7396 -0.0749 -0.0963
 3452TIP3    H110320   6.898   0.518   2.551  0.6684 -0.0471  1.3784
 3452TIP3    H210321   6.946   0.643   2.621 -0.3638  0.9761  0.3091
 3453TIP3   OH210322   0.257   4.558   3.765  0.4406  0.5675 -0.2073
 3453TIP3    H110323   0.295   4.622   3.704 -0.9716  0.6899 -1.0014
 3453TIP3    H210324   0.173   4.535   3.726  0.6867 -1.4065  0.3330
 3454TIP3   OH210325   5.002   3.495   1.165  0.5637 -0.4404 -0.2172
 3454TIP3    H110326   4.920   3.467   1.207  1.3603 -1.0510  1.0061
 3454TIP3    H210327   4.982   3.582   1.131 -0.6877 -0.6981 -0.2194
 3455TIP3   OH210328   4.569   6.206   1.570  0.6735  0.1608  0.2146
 3455TIP3    H110329   4.650   6.218   1.521 -0.6387  1.2773 -1.7949
 3455TIP3    H210330   4.558   6.288   1.619  0.5849  0.1336  0.2399
 3456TIP3   OH210331   5.157   2.047   0.909 -0.0321 -0.2483 -0.2301
 3456TIP3    H110332   5.152   2.142   0.900 -0.6413  0.3199  4.0253
 3456TIP3    H210333   5.250   2.027   0.906  0.2832  0.8765  1.0645
 3457TIP3   OH210334   2.560   2.232   1.559  1.0546 -0.3213 -0.0049
 3457TIP3    H110335   2.632   2.295   1.566  2.3190 -1.6103 -0.7025
 3457TIP3    H210336   2.534   2.236   1.467  0.1452  0.2076  0.2658
 3458TIP3   OH210337   5.307   5.861   4.914 -0.0094  0.1497 -0.1078
 3458TIP3    H110338   5.370   5.915   4.867 -0.0760 -0.9121 -1.4840
 3458TIP3    H210339   5.361   5.808   4.973  0.5709 -1.4834 -1.9970
 3459TIP3   OH210340   6.113   1.073   2.102 -0.2192  0.2346  0.1717
 3459TIP3    H110341   6.057   1.078   2.180  0.5911 -0.4211  0.8069
 3459TIP3    H210342   6.128   0.980   2.090 -0.2547  0.3400 -0.7218
 3460TIP3   OH210343   6.254   0.048   1.185 -0.0469 -0.1987 -0.7208
 3460TIP3    H110344   6.301   0.055   1.102  0.7212  1.1165 -0.2170
 3460TIP3    H210345   6.170   0.010   1.162 -0.3125  1.2199 -2.3135
 3461TIP3   OH210346   1.314   4.535   2.959 -0.2023  0.1483  0.0967
 3461TIP3    H110347   1.405   4.549   2.933  0.3609  0.1140  1.9326
 3461TIP3    H210348   1.316   4.538   3.055 -2.4507  2.2182  0.1754
 3462TIP3   OH210349   2.053   1.227   5.066 -0.1443  0.2462 -0.1156
 3462TIP3    H110350   2.035   1.270   5.149 -2.5682 -0.7962 -0.0133
 3462TIP3    H210351   2.124   1.166   5.086 -0.1508  0.5777  1.0047
 3463TIP3   OH210352   2.805   2.658   4.816  0.2823  0.1152  0.4656
 3463TIP3    H110353   2.813   2.574   4.772 -0.0849  0.4945 -0.3420
 3463TIP3    H210354   2.883   2.664   4.872  1.4539  0.1944 -1.1183
 3464TIP3   OH210355   0.825   0.382   1.546  0.6905 -0.4810  0.3955
 3464TIP3    H110356   0.757   0.355   1.483 -0.1112  2.1082  0.0021
 3464TIP3    H210357   0.785   0.368   1.632  0.5637 -1.1279  0.2337
 3465TIP3   OH210358   0.106   0.177   3.864  0.5955 -0.4946 -0.2483
 3465TIP3    H110359   0.182   0.234   3.874  0.9180 -0.8840 -0.4838
 3465TIP3    H210360   0.141   0.088   3.867 -0.0893 -0.7555  1.8529
 3466TIP3   OH210361   4.606   0.844   0.234  0.1043  0.3550  0.2905
 3466TIP3    H110362   4.532   0.865   0.176 -0.2330  1.5601  1.1148
 3466TIP3    H210363   4.574   0.865   0.322 -0.0017 -3.0014  1.2193
 3467TIP3   OH210364   3.815   0.366   1.898 -0.0044  0.4336  0.0189
 3467TIP3    H110365   3.795   0.375   1.991 -0.3468  1.1067 -0.1180
 3467TIP3    H210366   3.730   0.367   1.855  0.2153  1.5451 -0.4127
 3468TIP3   OH210367   7.045   0.604   2.251 -0.2531  0.1269 -0.3321
 3468TIP3    H110368   7.090   0.679   2.288 -0.5016  0.5950 -0.9589
 3468TIP3    H210369   6.955   0.612   2.280  0.0538 -0.8625  1.0020
 3469TIP3   OH210370   4.927   5.201   1.584 -0.0836  0.2915 -0.0703
 3469TIP3    H110371   4.949   5.286   1.546  1.4509 -0.3282 -0.6736
 3469TIP3    H210372   4.913   5.219   1.677 -1.2394  1.4094 -0.4335
 3470TIP3   OH210373   0.035   4.789   1.832 -0.2101  0.1646  0.4748
 3470TIP3    H110374   0.093   4.833   1.769 -1.1864 -0.9369 -1.2768
 3470TIP3    H210375  -0.005   4.860   1.881  0.6806  1.0615 -0.0578
 3471TIP3   OH210376   1.736   3.570   3.679  0.2931  0.3910  0.3710
 3471TIP3    H110377   1.776   3.495   3.635 -1.8919 -1.1360  0.8551
 3471TIP3    H210378   1.768   3.564   3.769 -0.7335 -0.6343  0.6809
 3472TIP3   OH210379   4.781   6.233   2.487  0.1211  0.0148  0.0348
 3472TIP3    H110380   4.825   6.170   2.429  0.5111  0.8076 -0.5636
 3472TIP3    H210381   4.847   6.302   2.500 -0.2765  0.2702  0.7253
 3473TIP3   OH210382   2.716   3.747   3.420  0.0005  0.1859  0.6689
 3473TIP3    H110383   2.676   3.780   3.501  1.3358  0.6691  1.1564
 3473TIP3    H210384   2.708   3.651   3.428 -1.0492  0.2672  0.7430
 3474TIP3   OH210385   6.621   0.023   4.414 -0.0825  0.6177 -0.1169
 3474TIP3    H110386   6.706   0.001   4.375  0.6935 -0.4989  2.0086
 3474TIP3    H210387   6.642   0.082   4.486 -1.0569  0.1259  0.5982
 3475TIP3   OH210388   6.183   6.388   1.650  0.0980 -0.8724 -0.0579
 3475TIP3    H110389   6.106   6.404   1.705  1.0484 -0.8668  1.3305
 3475TIP3    H210390   6.206   6.297   1.668  1.1600 -0.4981  0.5389
 3476TIP3   OH210391   4.490   2.530   0.855  0.4179 -0.9379 -0.2568
 3476TIP3    H110392   4.565   2.586   0.874 -0.4057  0.0530  0.1885
 3476TIP3    H210393   4.439   2.579   0.790  0.1043 -1.5516 -0.4859
 3477TIP3   OH210394   1.511   5.137   2.856  0.1384  0.3394 -0.2427
 3477TIP3    H110395   1.599   5.120   2.889  0.8734  1.5419 -1.4708
 3477TIP3    H210396   1.481   5.212   2.908 -0.8392 -1.0216  1.2630
 3478TIP3   OH210397   0.256   4.232   0.150  0.3086  0.3814 -0.5018
 3478TIP3    H110398   0.352   4.234   0.145  0.3304  2.2625 -0.2119
 3478TIP3    H210399   0.236   4.280   0.230 -0.8889 -0.3497 -0.3365
 3479TIP3   OH210400   0.886   2.799   5.437 -0.1068  0.1773  0.6695
 3479TIP3    H110401   0.870   2.719   5.487 -1.5349  0.8342  1.3200
 3479TIP3    H210402   0.806   2.812   5.385  1.0866 -0.1527 -1.3638
 3480TIP3   OH210403   6.999   4.533   0.437 -0.0699  0.4343  0.3765
 3480TIP3    H110404   7.023   4.441   0.450  0.5228  0.7451  1.6639
 3480TIP3    H210405   7.073   4.582   0.470 -0.1677  1.3954 -0.7817
 3481TIP3   OH210406   1.203   2.172   5.671 -0.3939 -0.5168 -0.8058
 3481TIP3    H110407   1.293   2.205   5.662  0.3839 -1.9916  0.9126
 3481TIP3    H210408   1.202   2.091   5.621 -0.5429 -0.8880 -0.2082
 3482TIP3   OH210409   1.573   0.846   3.149 -0.4700 -0.6764  0.1524
 3482TIP3    H110410   1.529   0.925   3.180 -2.4571 -1.0868 -1.3778
 3482TIP3    H210411   1.637   0.826   3.216 -0.4620  1.7793  0.9709
 3483TIP3   OH210412   1.144   0.045   4.510  0.4517 -0.0076 -0.0745
 3483TIP3    H110413   1.050   0.059   4.508  0.2420 -0.8164  1.7867
 3483TIP3    H210414   1.158  -0.035   4.460  0.3212  0.7078 -1.3035
 3484TIP3   OH210415   5.706   2.945   0.843  0.2213 -0.2370  0.0528
 3484TIP3    H110416   5.625   2.906   0.809  0.9683 -0.9849 -0.9003
 3484TIP3    H210417   5.729   2.891   0.918  0.9556 -1.3545 -0.9370
 3485TIP3   OH210418   3.774   4.204   5.101  0.5671 -0.5278 -0.0139
 3485TIP3    H110419   3.708   4.142   5.069 -0.1181 -0.4367  1.1733
 3485TIP3    H210420   3.849   4.149   5.125  0.2862 -0.8051  0.2311
 3486TIP3   OH210421   5.517   4.029   2.963 -0.5680  0.4996  0.4367
 3486TIP3    H110422   5.603   4.069   2.967  0.0354 -0.4428 -1.5740
 3486TIP3    H210423   5.463   4.092   2.915  0.0021 -0.3553 -1.4457
 3487TIP3   OH210424   6.310   6.510   3.133  0.5090  0.0000 -0.0721
 3487TIP3    H110425   6.306   6.575   3.204  1.7766  0.1954 -0.1595
 3487TIP3    H210426   6.272   6.431   3.172 -0.5528  0.6189  0.2107
 3488TIP3   OH210427   6.192   4.798   1.259  0.1244 -0.4148 -0.9817
 3488TIP3    H110428   6.220   4.708   1.246  1.3296 -0.6996  2.5370
 3488TIP3    H210429   6.176   4.806   1.353 -0.3092  2.9540 -1.1897
 3489TIP3   OH210430   3.555   5.530   0.448 -0.0705 -0.5300  0.6026
 3489TIP3    H110431   3.464   5.557   0.436  0.1443 -0.4360 -1.0942
 3489TIP3    H210432   3.606   5.596   0.401  1.1826  1.2040  4.0395
 3490TIP3   OH210433   6.158   3.914   2.395  0.4377  0.2714 -0.2907
 3490TIP3    H110434   6.184   4.006   2.409 -0.3088  0.2525  1.4757
 3490TIP3    H210435   6.189   3.869   2.474 -2.4750 -0.2434  0.6801
 3491TIP3   OH210436   5.637   1.823   3.720 -0.2689  0.7382 -0.0873
 3491TIP3    H110437   5.711   1.884   3.726  1.7772 -1.5889 -0.1595
 3491TIP3    H210438   5.660   1.752   3.779 -2.4477 -0.1255 -0.1970
 3492TIP3   OH210439   0.300   6.714   2.516  0.4708  0.0371  0.3895
 3492TIP3    H110440   0.382   6.667   2.533  0.6190  0.5035  0.9548
 3492TIP3    H210441   0.302   6.729   2.421  2.3094  2.3351  0.6896
 3493TIP3   OH210442   5.032   2.569   5.641 -0.2721 -0.8716 -0.1808
 3493TIP3    H110443   5.068   2.556   5.729 -0.7722 -0.0357  0.1597
 3493TIP3    H210444   5.108   2.594   5.588 -0.0711 -0.7410  0.1619
 3494TIP3   OH210445   3.029   2.756   0.328  0.0265 -0.4569  0.1103
 3494TIP3    H110446   3.068   2.749   0.241  1.4148  1.4215  0.5167
 3494TIP3    H210447   3.093   2.714   0.386 -0.7520 -1.4350  0.2762
 3495TIP3   OH210448   1.588   5.251   0.668 -0.0523 -0.2594  0.4635
 3495TIP3    H110449   1.591   5.179   0.605  2.0144  1.6120 -1.8177
 3495TIP3    H210450   1.504   5.294   0.651  0.5333  0.3101 -1.2706
 3496TIP3   OH210451   6.207   2.135   5.234 -0.2537 -0.5161  0.0861
 3496TIP3    H110452   6.152   2.208   5.207 -0.3734 -0.3853  0.6708
 3496TIP3    H210453   6.289   2.175   5.262 -0.7562 -0.4699  1.5995
 3497TIP3   OH210454   1.449   5.601   2.311 -0.3537 -0.5162  0.3455
 3497TIP3    H110455   1.454   5.518   2.357  2.9329 -0.8246 -0.3268
 3497TIP3    H210456   1.496   5.587   2.229 -0.3364  1.7875 -0.1270
 3498TIP3   OH210457   4.936   0.029   2.066 -0.4532 -0.2213 -0.3708
 3498TIP3    H110458   4.844   0.058   2.069 -0.1760  0.6280  0.3247
 3498TIP3    H210459   4.955   0.005   2.157  0.3797  0.8346 -0.2448
 3499TIP3   OH210460   6.480   0.915   3.006 -0.0033 -0.2290  0.1616
 3499TIP3    H110461   6.540   0.913   3.081 -0.9623 -0.5203  0.9384
 3499TIP3    H210462   6.447   1.004   3.004  0.4407 -0.0639 -0.2787
 3500TIP3   OH210463   4.917   1.538   0.859 -0.6556  0.6280  0.1424
 3500TIP3    H110464   4.996   1.592   0.861 -0.4770  0.4148 -0.8613
 3500TIP3    H210465   4.941   1.458   0.905  0.3027 -0.1959 -1.6889
 3501TIP3   OH210466   0.748   1.435   5.315  0.0722  0.2712  0.1346
 3501TIP3    H110467   0.667   1.469   5.352  0.9075  0.3311  2.0506
 3501TIP3    H210468   0.817   1.483   5.361  1.2021  0.1589 -1.3784
 3502TIP3   OH210469   7.057   6.752   3.924 -0.5618  0.0690 -0.1943
 3502TIP3    H110470   7.099   6.666   3.928 -1.6275 -0.4225  1.7244
 3502TIP3    H210471   6.979   6.738   3.870 -2.7530 -1.2250  3.0022
 3503TIP3   OH210472   1.634   4.965   5.517 -0.1655 -0.1717 -0.2103
 3503TIP3    H110473   1.603   4.987   5.605  0.7881  1.7408 -0.3075
 3503TIP3    H210474   1.663   4.874   5.524 -0.2618 -0.1119  1.4177
 3504TIP3   OH210475   2.470   2.397   1.807 -0.1616 -0.4896  0.2689
 3504TIP3    H110476   2.510   2.350   1.734 -0.5971 -0.5381  0.0622
 3504TIP3    H210477   2.527   2.473   1.820 -0.8150  0.2508 -0.9950
 3505TIP3   OH210478   4.283   1.846   1.420  0.2438  0.0882 -0.3916
 3505TIP3    H110479   4.271   1.940   1.408  1.5507  0.5066  1.1782
 3505TIP3    H210480   4.206   1.806   1.380 -0.7327  1.8675 -0.3708
 3506TIP3   OH210481   7.162   6.749   0.507 -0.1045  0.0301  0.0789
 3506TIP3    H110482   7.182   6.765   0.599  0.6905  0.3197 -0.1330
 3506TIP3    H210483   7.154   6.654   0.500 -1.1532  0.0639  0.6284
 3507TIP3   OH210484   4.169   0.522   1.361  0.2279  0.8763  0.0862
 3507TIP3    H110485   4.078   0.497   1.345  0.1618  2.0081 -1.6548
 3507TIP3    H210486   4.166   0.576   1.440 -0.1475 -1.3775  1.6971
 3508TIP3   OH210487   3.301   0.766   4.537  0.0003 -0.4717 -0.4809
 3508TIP3    H110488   3.337   0.841   4.585 -1.9841  0.4119 -0.2608
 3508TIP3    H210489   3.356   0.758   4.460  2.0331 -0.6548  0.9107
 3509TIP3   OH210490   0.144   3.983   0.089  0.2516 -0.0060  0.3771
 3509TIP3    H110491   0.213   3.986   0.023  0.1393  0.8864  0.2815
 3509TIP3    H210492   0.166   4.053   0.150 -0.1467 -0.2218  0.7794
 3510TIP3   OH210493   5.120   3.486   1.425  0.2996 -0.3826 -0.5721
 3510TIP3    H110494   5.086   3.407   1.468  1.0085  0.9526  2.7253
 3510TIP3    H210495   5.091   3.477   1.334 -1.7672 -3.2357  0.1962
 3511TIP3   OH210496   4.162   3.670   5.540  0.5070 -0.3646  0.0060
 3511TIP3    H110497   4.198   3.585   5.513 -1.6382 -1.3790  0.1453
 3511TIP3    H210498   4.218   3.734   5.495  1.9402 -1.8248 -0.4195
 3512TIP3   OH210499   1.952   6.448   3.831  0.4367 -0.6437 -0.2157
 3512TIP3    H110500   1.880   6.449   3.894  0.4053  2.2383 -0.1741
 3512TIP3    H210501   1.992   6.362   3.841  1.0587 -0.0612  4.4997
 3513TIP3   OH210502   2.623   6.621   1.900 -0.0833  0.3213  0.0195
 3513TIP3    H110503   2.588   6.703   1.934 -0.2245 -0.5695  2.1499
 3513TIP3    H210504   2.704   6.607   1.949 -0.0634 -0.8108 -0.3022
 3514TIP3   OH210505   1.850   5.037   5.373  0.0231 -0.0856 -0.0231
 3514TIP3    H110506   1.925   4.979   5.385  0.7254  0.5202 -1.2345
 3514TIP3    H210507   1.792   5.017   5.445  1.7879  0.1038  1.5257
 3515TIP3   OH210508   7.125   1.915   2.786 -0.7601  0.3393  0.7731
 3515TIP3    H110509   7.133   1.990   2.845  1.1283 -0.5372  1.7101
 3515TIP3    H210510   7.122   1.839   2.845  1.2379 -0.5691 -0.2208
 3516TIP3   OH210511   3.893   3.880   3.349  0.4569 -0.0274  0.5023
 3516TIP3    H110512   3.838   3.829   3.409  0.2749  2.1522  2.3256
 3516TIP3    H210513   3.836   3.950   3.319  1.5017  0.7835  0.3756
 3517TIP3   OH210514   4.872   4.838   2.503  0.4952  0.2179 -0.3133
 3517TIP3    H110515   4.938   4.900   2.475  1.2851 -0.3574  0.2208
 3517TIP3    H210516   4.789   4.877   2.476  1.0658  0.8008 -1.2696
 3518TIP3   OH210517   3.341   1.392   5.771  0.9546  0.3410 -0.2511
 3518TIP3    H110518   3.427   1.410   5.809  1.3052 -1.5184 -0.0764
 3518TIP3    H210519   3.352   1.412   5.677  1.3173  0.8864 -0.1029
 3519TIP3   OH210520   3.888   3.326   2.854 -0.1307  0.0336 -0.3777
 3519TIP3    H110521   3.819   3.333   2.788 -0.0872 -0.5579 -0.4906
 3519TIP3    H210522   3.908   3.417   2.877  0.3149  0.2919 -1.6519
 3520TIP3   OH210523   1.524   5.882   1.592 -0.0610 -0.3455  0.0389
 3520TIP3    H110524   1.606   5.872   1.641 -0.2907  0.1085  0.5322
 3520TIP3    H210525   1.526   5.973   1.561 -0.9246  0.0600  1.0944
 3521TIP3   OH210526   1.579   1.694   3.493 -0.3559  1.1617 -0.1968
 3521TIP3    H110527   1.513   1.629   3.514  0.8245  0.0057  0.0520
 3521TIP3    H210528   1.539   1.747   3.424 -0.6208 -1.1092 -1.9158
 3522TIP3   OH210529   6.207   2.398   4.838  0.1973  0.2610 -0.4336
 3522TIP3    H110530   6.236   2.488   4.825 -0.1171  0.4091 -0.1179
 3522TIP3    H210531   6.120   2.395   4.799 -1.0015  0.8603  2.0345
 3523TIP3   OH210532   1.702   5.234   5.578 -0.3435 -0.7202 -0.0016
 3523TIP3    H110533   1.627   5.270   5.531  0.6395 -0.0119 -1.0691
 3523TIP3    H210534   1.701   5.141   5.557 -0.7502 -0.6625 -0.2489
 3524TIP3   OH210535   4.775   1.352   5.644 -0.0053 -0.1934  0.0051
 3524TIP3    H110536   4.741   1.268   5.673  0.4770 -0.6355 -0.6749
 3524TIP3    H210537   4.773   1.347   5.549  2.1475 -0.3390 -0.0754
 3525TIP3   OH210538   0.175   0.458   1.099 -0.4304  0.5549 -0.1861
 3525TIP3    H110539   0.110   0.441   1.167 -0.1184  2.3773  0.6200
 3525TIP3    H210540   0.259   0.446   1.142 -0.2254  2.2792 -0.0398
 3526TIP3   OH210541   1.631   3.218   1.178 -0.4574  0.6542 -0.4588
 3526TIP3    H110542   1.658   3.172   1.258  0.0808 -1.3278 -1.7239
 3526TIP3    H210543   1.535   3.213   1.178 -0.3895 -1.6012 -1.1438
 3527TIP3   OH210544   5.048   3.830   3.688  0.3322 -0.3075 -0.3882
 3527TIP3    H110545   5.065   3.741   3.657 -0.0387 -0.0036 -1.5116
 3527TIP3    H210546   5.056   3.884   3.610  1.0003  0.7116  0.3739
 3528TIP3   OH210547   0.058   5.056   1.719 -0.0546  0.1071 -0.3314
 3528TIP3    H110548  -0.014   5.029   1.661 -2.2001  3.3041  0.5660
 3528TIP3    H210549   0.132   5.071   1.660 -0.4062 -2.1096 -1.4497
 3529TIP3   OH210550   0.884   2.266   0.670 -0.2959  0.4943  0.2047
 3529TIP3    H110551   0.925   2.290   0.753 -1.2870 -0.8316  1.1325
 3529TIP3    H210552   0.812   2.209   0.695  0.4741 -1.4451 -1.6554
 3530TIP3   OH210553   1.457   0.250   4.283  0.2858  0.3035  0.3046
 3530TIP3    H110554   1.463   0.161   4.248 -1.0513  0.7016 -1.0335
 3530TIP3    H210555   1.518   0.250   4.357  2.6335 -0.8495 -1.4611
 3531TIP3   OH210556   2.194   3.538   3.759  0.4058  0.3913  0.5754
 3531TIP3    H110557   2.286   3.562   3.764  0.4323  0.2851  0.6139
 3531TIP3    H210558   2.159   3.558   3.846  0.5816 -0.3196  0.8186
 3532TIP3   OH210559   0.825   6.028   3.606 -0.0840  0.0748 -0.5271
 3532TIP3    H110560   0.814   6.104   3.549  2.0596  0.0688 -1.0402
 3532TIP3    H210561   0.866   5.962   3.550 -1.0977 -1.1644  0.1478
 3533TIP3   OH210562   3.840   5.293   4.620 -0.7072  0.3605  0.6662
 3533TIP3    H110563   3.857   5.296   4.714 -2.0511  1.7209  0.8994
 3533TIP3    H210564   3.843   5.384   4.591  2.0758 -0.1785 -1.1178
 3534TIP3   OH210565   4.427   5.602   3.414  0.1647 -0.1002  0.1490
 3534TIP3    H110566   4.459   5.636   3.497  0.5842 -1.2495  0.4761
 3534TIP3    H210567   4.506   5.577   3.366 -0.0334  1.0570 -0.8473
 3535TIP3   OH210568   1.730   5.051   0.115  0.5754 -0.1815  0.8951
 3535TIP3    H110569   1.787   4.974   0.110  1.3495  0.4085  0.5074
 3535TIP3    H210570   1.642   5.017   0.097  1.0865 -0.7637 -0.6409
 3536TIP3   OH210571   1.084   6.312   4.418  0.3771 -0.2827  0.1568
 3536TIP3    H110572   1.177   6.296   4.434  0.4513 -0.1522 -0.1295
 3536TIP3    H210573   1.039   6.276   4.495  0.7148  0.2731  0.6206
 3537TIP3   OH210574   5.934   4.075   2.232 -0.1561  0.5662  0.2258
 3537TIP3    H110575   5.838   4.073   2.232 -0.1975  1.3743 -1.0564
 3537TIP3    H210576   5.956   4.155   2.184  1.1540 -0.1506 -0.4130
 3538TIP3   OH210577   5.724   6.539   3.055  0.4239 -0.5510 -0.0211
 3538TIP3    H110578   5.735   6.625   3.016  1.2681 -1.0842 -1.0001
 3538TIP3    H210579   5.698   6.557   3.146  1.0872  0.7257 -0.0623
 3539TIP3   OH210580   0.809   1.640   1.211  0.4688 -0.2392  0.7779
 3539TIP3    H110581   0.783   1.719   1.165  2.5614 -0.1915 -0.4678
 3539TIP3    H210582   0.779   1.652   1.301  1.0353  2.1311  0.6952
 3540TIP3   OH210583   0.558   5.780   5.695 -0.4990 -0.1647 -0.4273
 3540TIP3    H110584   0.563   5.873   5.717 -0.8718  0.1208 -1.4670
 3540TIP3    H210585   0.529   5.779   5.604 -0.0664 -1.2946 -0.5671
 3541TIP3   OH210586   5.364   1.759   5.421 -0.1317 -0.1531 -0.4705
 3541TIP3    H110587   5.308   1.831   5.390 -0.2946  0.7730  1.7766
 3541TIP3    H210588   5.305   1.683   5.426 -1.6963  1.0751  3.0049
 3542TIP3   OH210589   7.012   1.102   0.776 -0.9567  0.5211 -0.0383
 3542TIP3    H110590   7.088   1.043   0.774 -1.8746 -0.6871 -2.1057
 3542TIP3    H210591   7.026   1.155   0.855  1.5914 -0.2197  0.1246
 3543TIP3   OH210592   1.879   6.064   2.110 -0.5808  0.0357 -0.3173
 3543TIP3    H110593   1.807   6.002   2.101  0.0333 -0.6276 -0.6900
 3543TIP3    H210594   1.957   6.016   2.082  0.1143  0.5493  0.6479
 3544TIP3   OH210595   1.481   3.539   0.459  0.2346  0.2762  0.2633
 3544TIP3    H110596   1.539   3.477   0.501 -1.2687 -0.3889  1.4487
 3544TIP3    H210597   1.432   3.487   0.395  0.1584  0.6030  0.0513
 3545TIP3   OH210598   5.742   2.411   0.189  1.3806 -0.2914  0.6853
 3545TIP3    H110599   5.778   2.475   0.127  1.5589 -1.7373 -0.7657
 3545TIP3    H210600   5.774   2.440   0.274  1.5666  1.4649  0.0635
 3546TIP3   OH210601   0.974   6.467   1.761  0.6346 -0.4451  0.7932
 3546TIP3    H110602   0.968   6.524   1.838  1.9260  0.3584  0.3408
 3546TIP3    H210603   0.915   6.508   1.697  1.0317  0.0019  0.7070
 3547TIP3   OH210604   0.997   2.937   0.548  0.1472  0.0702  0.3478
 3547TIP3    H110605   1.042   3.018   0.525 -0.3722  0.2001 -0.2164
 3547TIP3    H210606   0.978   2.946   0.641  2.9295 -0.7688  1.1000
 3548TIP3   OH210607   3.395   2.749   0.196 -0.4153  0.2646 -0.3086
 3548TIP3    H110608   3.342   2.824   0.168  0.7726  1.2510  0.0109
 3548TIP3    H210609   3.475   2.756   0.145  0.7626  0.6725  1.5045
 3549TIP3   OH210610   1.017   3.068   2.001  0.2283 -0.3871  0.7143
 3549TIP3    H110611   1.067   3.054   1.920 -0.0024 -0.3661  0.5677
 3549TIP3    H210612   0.949   3.001   1.999 -1.1980  1.0226 -0.2472
 3550TIP3   OH210613   6.529   5.715   5.374 -0.4070 -0.0485 -0.8938
 3550TIP3    H110614   6.596   5.754   5.431 -0.4742 -3.0992  1.5607
 3550TIP3    H210615   6.451   5.767   5.391  0.2547  0.7914 -0.2834
 3551TIP3   OH210616   3.961   4.284   3.825 -0.1931 -0.0206 -0.0600
 3551TIP3    H110617   4.038   4.317   3.777  0.3792 -0.8161  0.2977
 3551TIP3    H210618   3.891   4.346   3.803  0.6974  1.0727  0.0974
 3552TIP3   OH210619   2.073   5.689   4.228  0.6771  0.4565 -0.5194
 3552TIP3    H110620   1.979   5.691   4.240  0.3280  2.1257 -2.8988
 3552TIP3    H210621   2.100   5.604   4.264 -1.5564  0.3111  0.9844
 3553TIP3   OH210622   6.922   0.657   1.930 -0.7731 -0.6221  0.0473
 3553TIP3    H110623   6.939   0.724   1.863  0.3709 -0.6000  0.3505
 3553TIP3    H210624   6.862   0.700   1.991  0.8486  0.5628  0.8661
 3554TIP3   OH210625   4.487   1.626   0.615  0.8464 -0.0399  0.2344
 3554TIP3    H110626   4.429   1.580   0.675 -0.4454 -0.3730 -1.2076
 3554TIP3    H210627   4.553   1.561   0.591  0.0872 -0.5940 -0.3893
 3555TIP3   OH210628   2.335   1.875   5.270  0.5514 -0.2497 -0.7576
 3555TIP3    H110629   2.356   1.855   5.361  0.7043  1.1722 -0.4622
 3555TIP3    H210630   2.400   1.827   5.219 -0.3794 -2.1718 -0.2072
 3556TIP3   OH210631  -0.010   5.198   2.774  0.1720  0.1389  0.0101
 3556TIP3    H110632   0.023   5.286   2.756 -0.3962  0.4605  0.5204
 3556TIP3    H210633   0.069   5.146   2.793  0.5598  0.3974 -0.8069
 3557TIP3   OH210634   1.274   4.436   5.150  0.3372  0.5622  0.3544
 3557TIP3    H110635   1.246   4.441   5.241 -0.5222 -3.1008  0.4224
 3557TIP3    H210636   1.192   4.432   5.100  0.8068  0.4863 -0.4191
 3558TIP3   OH210637   5.990   3.369   0.695  0.3810  0.2203 -0.5016
 3558TIP3    H110638   5.982   3.359   0.600  1.7101  0.6748 -0.6843
 3558TIP3    H210639   5.953   3.288   0.731 -1.8697  0.8397 -1.2977
 3559TIP3   OH210640   0.944   5.396   2.075 -1.0543  0.2983 -0.1004
 3559TIP3    H110641   1.024   5.366   2.119 -1.0507 -1.2162 -1.0781
 3559TIP3    H210642   0.888   5.427   2.146  0.7158  2.2777  0.5523
 3560TIP3   OH210643   5.712   2.305   4.957 -0.9285  0.5048  0.0503
 3560TIP3    H110644   5.759   2.242   5.012  0.8684  1.7405  0.0336
 3560TIP3    H210645   5.651   2.252   4.906 -0.2986 -1.0645  0.8471
 3561TIP3   OH210646   1.169   2.976   5.727 -0.6422 -0.1373 -0.2553
 3561TIP3    H110647   1.207   3.033   5.660  1.3391 -0.4789  0.5002
 3561TIP3    H210648   1.156   2.892   5.683  4.1530 -1.5757  0.4535
 3562TIP3   OH210649   2.269   2.429   1.426 -0.7922  0.0031 -0.1348
 3562TIP3    H110650   2.316   2.381   1.358 -1.0740  1.6536 -1.5707
 3562TIP3    H210651   2.228   2.361   1.479  0.8916 -1.3856 -0.5340
 3563TIP3   OH210652   6.726   4.619   2.270 -0.7763  0.2197 -0.3691
 3563TIP3    H110653   6.722   4.634   2.175 -1.3222 -1.0197 -0.5643
 3563TIP3    H210654   6.799   4.558   2.281  0.5069  1.7962  0.2401
 3564TIP3   OH210655   3.282   4.339   1.006  0.2317  0.3896  0.0278
 3564TIP3    H110656   3.256   4.249   1.024 -0.8855  0.0760 -2.5773
 3564TIP3    H210657   3.378   4.338   1.009  0.2215  0.0244  3.5073
 3565TIP3   OH210658   1.289   6.289   4.705 -0.1742  0.0409 -0.6083
 3565TIP3    H110659   1.223   6.343   4.749  0.5298  0.7020 -0.3331
 3565TIP3    H210660   1.329   6.238   4.776 -1.1435 -1.2035 -0.9286
 3566TIP3   OH210661   2.026   3.489   1.316 -0.0184  0.1563 -0.1572
 3566TIP3    H110662   1.947   3.461   1.271 -0.3016  1.1215 -0.2747
 3566TIP3    H210663   2.070   3.407   1.340 -0.6711 -0.3783 -0.7469
 3567TIP3   OH210664   4.517   0.903   4.238 -0.5508 -0.1816 -0.0614
 3567TIP3    H110665   4.456   0.892   4.165  0.0799 -2.2474 -0.3272
 3567TIP3    H210666   4.479   0.851   4.309 -0.5051  0.8008  0.7113
 3568TIP3   OH210667   4.222   5.556   1.382  0.2640 -0.0006 -0.8693
 3568TIP3    H110668   4.295   5.608   1.349  1.7270 -1.8924 -0.7657
 3568TIP3    H210669   4.218   5.480   1.324  0.7939 -1.7615  1.2586
 3569TIP3   OH210670   3.854   5.636   4.625  0.1184  0.6892  0.1368
 3569TIP3    H110671   3.812   5.689   4.557  1.7747  1.6015 -0.2287
 3569TIP3    H210672   3.861   5.696   4.700 -1.2277 -0.1517  0.9806
 3570TIP3   OH210673   4.523   3.418   1.907 -0.4956  0.1142 -0.0139
 3570TIP3    H110674   4.500   3.484   1.841  1.1292  0.4217 -0.3178
 3570TIP3    H210675   4.574   3.466   1.972 -3.1692  0.1101  2.2592
 3571TIP3   OH210676   4.042   4.525   4.015  0.0382  0.1918 -0.0609
 3571TIP3    H110677   4.061   4.530   3.921  1.4092  1.7526  0.2665
 3571TIP3    H210678   4.103   4.459   4.048  0.1917  0.3087 -0.1112
 3572TIP3   OH210679   0.099   1.816   3.331  0.9244  0.0665 -0.0762
 3572TIP3    H110680   0.127   1.801   3.421  0.6180  0.8267  0.1493
 3572TIP3    H210681   0.010   1.850   3.338  0.6798 -0.4234 -0.6987
 3573TIP3   OH210682   6.844   1.217   1.662 -0.1088 -0.1316  0.0061
 3573TIP3    H110683   6.912   1.282   1.649  1.4411 -1.8711 -0.8874
 3573TIP3    H210684   6.852   1.193   1.755  0.7357 -0.5682 -0.1717
 3574TIP3   OH210685   5.668   5.503   3.294 -0.1995 -0.1790 -0.0450
 3574TIP3    H110686   5.579   5.535   3.309  0.1095  0.2930  0.8758
 3574TIP3    H210687   5.674   5.494   3.199 -0.9033  0.7555 -0.2034
 3575TIP3   OH210688   6.174   1.459   0.151  0.2985 -0.0482  0.4646
 3575TIP3    H110689   6.265   1.449   0.123  0.8559 -0.6229  2.3305
 3575TIP3    H210690   6.164   1.553   0.165 -0.5292  0.5257 -3.1093
 3576TIP3   OH210691   3.016   3.116   4.427 -0.2125  0.3185  0.3301
 3576TIP3    H110692   2.962   3.156   4.360 -1.0795 -1.4609 -0.0872
 3576TIP3    H210693   3.072   3.054   4.380 -2.5903 -2.8804  1.3556
 3577TIP3   OH210694   1.998   4.960   2.925 -0.5922  0.2096  0.2712
 3577TIP3    H110695   2.069   4.984   2.865 -0.7059  0.2296  0.1459
 3577TIP3    H210696   2.026   4.876   2.961  0.1494  0.8441  1.2476
 3578TIP3   OH210697   4.851   6.586   1.959  0.2652 -0.3756  0.6186
 3578TIP3    H110698   4.789   6.556   1.893 -0.8088  0.8333  1.0482
 3578TIP3    H210699   4.937   6.577   1.916 -0.1253 -2.4538  0.1674
 3579TIP3   OH210700   0.897   3.199   5.298 -0.0054 -0.2434 -0.3054
 3579TIP3    H110701   0.814   3.247   5.293  0.4380  0.3932 -3.6558
 3579TIP3    H210702   0.964   3.265   5.283  0.9154 -1.2113 -0.5414
 3580TIP3   OH210703   4.208   6.000   3.354  0.3381  0.6572 -0.0693
 3580TIP3    H110704   4.155   5.981   3.432 -2.1561  2.0998 -1.3090
 3580TIP3    H210705   4.255   6.081   3.376  0.5865  0.4055  0.3476
 3581TIP3   OH210706   5.999   5.060   3.907 -0.0683 -0.7694 -0.0877
 3581TIP3    H110707   6.047   5.116   3.967  1.0803 -2.1071  0.2992
 3581TIP3    H210708   5.945   5.120   3.856 -0.5780  0.4547  1.8123
 3582TIP3   OH210709   3.784   4.760   0.603 -0.0003  0.4273  0.4377
 3582TIP3    H110710   3.765   4.787   0.513  1.3481 -1.6052 -0.5140
 3582TIP3    H210711   3.879   4.760   0.609 -0.0362 -0.9467  1.3641
 3583TIP3   OH210712   0.319   5.191   3.735 -0.3524  0.3228  0.5091
 3583TIP3    H110713   0.248   5.187   3.799 -0.6234 -0.8415  0.1578
 3583TIP3    H210714   0.340   5.099   3.716  0.8396  0.6471  0.1545
 3584TIP3   OH210715   5.458   4.633   4.184  0.5661 -0.0663 -0.0466
 3584TIP3    H110716   5.430   4.697   4.119 -0.0705 -0.6255 -0.3198
 3584TIP3    H210717   5.415   4.661   4.265  0.5919  0.0704 -0.0796
 3585TIP3   OH210718   2.471   4.336   2.908 -0.1704  0.0066  0.4184
 3585TIP3    H110719   2.542   4.329   2.972 -0.4349 -1.0289  0.6080
 3585TIP3    H210720   2.400   4.283   2.944 -0.9490  0.7974  0.0914
 3586TIP3   OH210721   5.862   5.790   1.598 -0.3259 -0.2765 -0.5143
 3586TIP3    H110722   5.922   5.763   1.528  0.7798  0.1182  0.2344
 3586TIP3    H210723   5.779   5.750   1.576  0.6417 -2.3047 -0.7104
 3587TIP3   OH210724   2.486   5.244   3.193  0.0762 -0.2628 -0.8294
 3587TIP3    H110725   2.511   5.329   3.230  0.0627 -0.5549 -0.1272
 3587TIP3    H210726   2.569   5.201   3.175  0.0960 -0.6550  0.1400
 3588TIP3   OH210727   6.237   4.562   3.691 -0.5288 -0.4508  0.1003
 3588TIP3    H110728   6.250   4.477   3.648  2.2337 -0.8489  1.5164
 3588TIP3    H210729   6.276   4.625   3.630  1.7747 -0.8181  1.0906
 3589TIP3   OH210730   0.702   0.033   3.408 -0.1529 -0.8128  0.8222
 3589TIP3    H110731   0.707   0.094   3.481  0.1523  0.5616 -0.2992
 3589TIP3    H210732   0.731   0.084   3.332 -3.9966 -0.9862 -0.9890
 3590TIP3   OH210733   4.852   2.912   0.781  0.3738 -0.5175 -0.5976
 3590TIP3    H110734   4.937   2.900   0.824  0.6153 -0.0496 -0.9444
 3590TIP3    H210735   4.850   3.004   0.757 -1.1517  0.0484  1.3795
 3591TIP3   OH210736   5.918   6.347   3.084  0.0202 -1.0241 -0.0585
 3591TIP3    H110737   5.850   6.400   3.043  1.5821  0.3005 -1.0642
 3591TIP3    H210738   5.940   6.282   3.017  1.3758  0.0683 -0.7324
 3592TIP3   OH210739   2.431   2.866   3.776  0.1731 -0.1350 -0.9071
 3592TIP3    H110740   2.362   2.809   3.742  0.8626 -1.4901 -0.1194
 3592TIP3    H210741   2.453   2.922   3.702 -2.4906  1.1087 -0.8658
 3593TIP3   OH210742   6.508   2.309   0.989  0.0947 -0.3856  0.3500
 3593TIP3    H110743   6.479   2.348   1.071  0.5091 -2.2551  1.4352
 3593TIP3    H210744   6.592   2.268   1.010  0.4192 -0.5417 -1.1242
 3594TIP3   OH210745   6.683   0.153   4.639 -0.0896 -0.2577 -0.3753
 3594TIP3    H110746   6.613   0.176   4.700  0.1423 -1.4276  0.3442
 3594TIP3    H210747   6.732   0.235   4.627 -2.6818  1.1717 -2.4621
 3595TIP3   OH210748   3.593   5.348   4.454 -0.7232 -0.0807  0.2243
 3595TIP3    H110749   3.524   5.409   4.479  0.3117  0.8935  0.8113
 3595TIP3    H210750   3.672   5.402   4.449  0.7803 -1.7320  3.2540
 3596TIP3   OH210751   0.070   6.454   1.808  0.3151  0.2347 -0.3398
 3596TIP3    H110752  -0.019   6.420   1.799  0.3906  0.3437 -1.7633
 3596TIP3    H210753   0.125   6.376   1.818  0.0077  0.1998  1.3079
 3597TIP3   OH210754   2.417   5.212   2.530  0.5691  0.3017 -0.2354
 3597TIP3    H110755   2.494   5.245   2.577  1.0943 -0.5671 -0.4589
 3597TIP3    H210756   2.348   5.210   2.596  1.4434 -1.4724  0.7061
 3598TIP3   OH210757   4.522   3.508   2.228 -0.2438 -0.0427  0.2178
 3598TIP3    H110758   4.555   3.555   2.152  0.8634  0.0915  0.7543
 3598TIP3    H210759   4.555   3.558   2.303 -0.3518 -0.8061  0.7870
 3599TIP3   OH210760   0.764   4.862   1.703  0.4118 -0.4282  0.2010
 3599TIP3    H110761   0.760   4.771   1.731 -0.7025 -0.2944  0.5318
 3599TIP3    H210762   0.854   4.889   1.721  0.9809 -1.6740 -0.6357
 3600TIP3   OH210763   0.761   4.573   1.463  0.0717  0.2719  0.2686
 3600TIP3    H110764   0.835   4.631   1.445  0.3443 -0.5027 -1.2409
 3600TIP3    H210765   0.777   4.540   1.551  1.1756  0.6139  0.2066
 3601TIP3   OH210766   1.488   6.081   2.956 -0.0728 -0.4329 -0.0394
 3601TIP3    H110767   1.573   6.120   2.975  0.2924 -0.4829 -1.4188
 3601TIP3    H210768   1.479   6.010   3.019  1.1947 -0.8034 -0.2444
 3602TIP3   OH210769   2.875   5.559   0.319 -0.8479  0.2518 -0.2646
 3602TIP3    H110770   2.948   5.607   0.359  0.6419 -1.9609 -0.1570
 3602TIP3    H210771   2.819   5.536   0.393  0.6707 -1.7691  0.3655
 3603TIP3   OH210772   1.513   1.608   0.795  0.0071  0.5248  0.7350
 3603TIP3    H110773   1.504   1.514   0.811  2.4877 -0.2187 -1.5180
 3603TIP3    H210774   1.594   1.633   0.839  1.5276  0.6235 -1.9057
 3604TIP3   OH210775   1.251   4.040   4.153 -0.2588 -0.3920 -0.0270
 3604TIP3    H110776   1.204   4.041   4.236 -0.1450 -1.4379  0.0672
 3604TIP3    H210777   1.229   3.955   4.114  1.6775 -1.0007  0.1013
 3605TIP3   OH210778   3.867   4.013   2.343  0.4555 -0.6646 -0.3767
 3605TIP3    H110779   3.845   4.067   2.418  0.7986 -0.8166 -0.1679
 3605TIP3    H210780   3.798   4.032   2.279 -1.8366 -3.0096  1.1964
 3606TIP3   OH210781   6.340   1.280   4.253 -0.6187 -0.2782  0.5170
 3606TIP3    H110782   6.368   1.371   4.243 -0.9246 -0.2230  0.1310
 3606TIP3    H210783   6.293   1.279   4.336 -1.0398  0.0299  0.2909
 3607TIP3   OH210784   2.259   4.150   1.282  0.1453  0.2869 -0.4681
 3607TIP3    H110785   2.311   4.118   1.207 -0.8679 -0.4588 -0.8798
 3607TIP3    H210786   2.250   4.244   1.266 -0.1183  0.1278 -1.3380
 3608TIP3   OH210787   6.939   5.708   1.239 -0.2111 -0.4988 -0.2587
 3608TIP3    H110788   6.891   5.629   1.264 -1.8658  1.3121  2.9530
 3608TIP3    H210789   7.019   5.705   1.291 -0.1650 -0.1738 -0.3062
 3609TIP3   OH210790   3.180   1.927   2.694  0.0055  0.0413 -0.3325
 3609TIP3    H110791   3.178   1.893   2.783  0.2620  0.1115 -0.2993
 3609TIP3    H210792   3.147   2.016   2.701 -0.9024 -0.2747 -0.4565
 3610TIP3   OH210793   5.667   1.885   0.800  0.3116  0.3749 -0.1579
 3610TIP3    H110794   5.734   1.820   0.779 -0.3623 -0.3118 -0.2247
 3610TIP3    H210795   5.703   1.934   0.875  0.5284 -0.5455  0.3559
 3611TIP3   OH210796   4.756   3.697   5.456 -0.1182 -0.1455  0.4214
 3611TIP3    H110797   4.762   3.792   5.468 -1.5089  0.0240 -0.0568
 3611TIP3    H210798   4.816   3.679   5.384 -0.6652  0.5426 -0.2213
 3612TIP3   OH210799   0.101   6.741   0.256 -0.4915  0.1333 -0.2804
 3612TIP3    H110800   0.085   6.655   0.216  0.5409 -0.4182  0.4490
 3612TIP3    H210801   0.023   6.758   0.308 -1.0698  0.0340 -1.0859
 3613TIP3   OH210802   0.319   3.656   2.913  0.2116 -0.1356  0.0520
 3613TIP3    H110803   0.247   3.645   2.976  0.2568 -2.6488 -0.2249
 3613TIP3    H210804   0.328   3.570   2.872  0.7077  1.1679 -2.8621
 3614TIP3   OH210805   6.514   2.522   5.767 -0.6187 -0.1875 -0.0976
 3614TIP3    H110806   6.523   2.586   5.696 -0.5334  0.6795  0.6708
 3614TIP3    H210807   6.420   2.509   5.775 -0.5869 -1.3329 -1.2542
 3615TIP3   OH210808   4.087   6.000   2.008  0.1814 -0.3632 -0.0644
 3615TIP3    H110809   4.054   5.937   2.072 -0.3932 -2.7244 -2.4746
 3615TIP3    H210810   4.180   5.979   1.999 -0.1079 -1.3113 -1.2145
 3616TIP3   OH210811   4.503   4.172   1.545  0.5806  0.3314 -0.5104
 3616TIP3    H110812   4.437   4.152   1.479  0.4161 -0.1373 -0.2141
 3616TIP3    H210813   4.566   4.100   1.539 -0.2221 -0.5459  0.8343
 3617TIP3   OH210814   6.417   5.400   3.723  0.1288 -0.5659  0.1606
 3617TIP3    H110815   6.365   5.452   3.662  2.5685  1.1537 -0.6033
 3617TIP3    H210816   6.396   5.436   3.809 -0.1027 -0.0151 -0.1185
 3618TIP3   OH210817   3.272   2.201   0.689  0.5571  0.2092 -0.1032
 3618TIP3    H110818   3.229   2.190   0.604 -1.2833 -2.0232  1.0293
 3618TIP3    H210819   3.316   2.287   0.682 -1.0335  0.9295 -2.6364
 3619TIP3   OH210820   4.805   6.252   4.015  0.3434  0.2121 -0.1301
 3619TIP3    H110821   4.845   6.287   4.095  0.1348 -0.8767  0.4763
 3619TIP3    H210822   4.773   6.329   3.969 -0.1008  0.8331  1.1584
 3620TIP3   OH210823   3.282   2.237   5.755  0.3565 -0.5317 -0.3580
 3620TIP3    H110824   3.230   2.253   5.833 -1.3738  1.9280 -1.8826
 3620TIP3    H210825   3.247   2.156   5.719 -0.5573 -0.3469  0.0901
 3621TIP3   OH210826   4.296   5.792   1.863 -0.8013 -0.0710  0.2941
 3621TIP3    H110827   4.253   5.738   1.797 -2.9847 -0.8819  2.2251
 3621TIP3    H210828   4.323   5.729   1.930  1.8036  0.6627  0.0462
 3622TIP3   OH210829   2.442   3.116   0.273  0.1042 -0.1677  0.5751
 3622TIP3    H110830   2.415   3.040   0.324 -1.3160  0.4959  0.8614
 3622TIP3    H210831   2.457   3.081   0.185  1.2980 -1.0833  1.1195
 3623TIP3   OH210832   0.229   2.665   2.491  0.5389  0.0183 -0.3460
 3623TIP3    H110833   0.311   2.621   2.510 -0.0853 -1.4497 -0.8756
 3623TIP3    H210834   0.254   2.751   2.458  2.0477 -1.4582 -3.4911
 3624TIP3   OH210835   6.041   0.977   5.410 -0.3730  0.3685  0.5445
 3624TIP3    H110836   6.063   1.040   5.479  1.7464 -0.6736  0.8885
 3624TIP3    H210837   6.109   0.988   5.344 -0.8176 -0.5493 -0.0938
 3625TIP3   OH210838   4.817   1.367   5.324  0.5414  0.1828  0.4080
 3625TIP3    H110839   4.813   1.461   5.307  0.4177  0.1185  0.0874
 3625TIP3    H210840   4.763   1.327   5.256 -1.3465  0.0296  1.9182
 3626TIP3   OH210841   0.882   5.278   3.874 -0.4217 -0.5796 -0.0380
 3626TIP3    H110842   0.882   5.279   3.970  0.6015 -1.7849 -0.0018
 3626TIP3    H210843   0.889   5.370   3.849  0.6180 -0.3299  1.0696
 3627TIP3   OH210844   0.954   3.677   1.099  0.2061 -0.3268  0.1043
 3627TIP3    H110845   0.871   3.632   1.080  1.4166 -2.2995 -0.8055
 3627TIP3    H210846   0.962   3.672   1.195 -0.6908 -0.1310  0.2047
 3628TIP3   OH210847   3.645   5.310   1.301 -0.0947  0.6412  0.0806
 3628TIP3    H110848   3.712   5.373   1.328 -1.3546  2.4125 -0.7155
 3628TIP3    H210849   3.691   5.250   1.243  0.9711  1.3721  0.1345
 3629TIP3   OH210850   1.092   3.197   3.920 -0.3154 -0.5476 -0.0278
 3629TIP3    H110851   1.013   3.244   3.947 -0.3047  0.5774 -1.7662
 3629TIP3    H210852   1.137   3.176   4.002 -0.6525  1.9351  0.8882
 3630TIP3   OH210853   2.126   3.031   5.626  0.2060 -0.2183 -0.0081
 3630TIP3    H110854   2.066   3.101   5.602 -0.0661  0.0014  1.2494
 3630TIP3    H210855   2.073   2.970   5.676  0.8104 -0.5139  0.2805
 3631TIP3   OH210856   4.117   3.473   4.904 -0.2103  0.2032 -0.3965
 3631TIP3    H110857   4.132   3.443   4.815  0.8201 -1.0929  0.1769
 3631TIP3    H210858   4.160   3.558   4.909  0.8008 -0.2667 -0.8135
 3632TIP3   OH210859   3.888   2.832   1.672 -0.0024 -0.7435  0.1274
 3632TIP3    H110860   3.882   2.763   1.738 -0.1094  0.6711  1.6659
 3632TIP3    H210861   3.822   2.897   1.699  0.5902  0.2985 -0.8423
 3633TIP3   OH210862   3.466   2.943   4.424 -0.2611 -0.3479  0.1171
 3633TIP3    H110863   3.452   3.022   4.373 -1.8581 -0.8924 -0.3691
 3633TIP3    H210864   3.473   2.973   4.514 -0.5725  0.3651 -0.0936
 3634TIP3   OH210865   2.525   1.515   3.510  0.0220 -0.4578  0.5920
 3634TIP3    H110866   2.451   1.476   3.463  1.1304 -0.2006 -1.4457
 3634TIP3    H210867   2.533   1.603   3.473  1.0804 -0.3236  1.1090
 3635TIP3   OH210868   5.472   0.165   1.152  0.2121 -0.5763 -0.1941
 3635TIP3    H110869   5.500   0.074   1.163  0.1298 -0.4054  1.7251
 3635TIP3    H210870   5.453   0.195   1.241 -2.1315  0.5745 -1.0153
 3636TIP3   OH210871   2.104   4.284   0.525  0.8943 -0.7731 -0.1685
 3636TIP3    H110872   2.094   4.253   0.435  0.1895  0.1346 -0.4164
 3636TIP3    H210873   2.165   4.358   0.519 -0.4741  0.4090 -0.1886
 3637TIP3   OH210874   4.338   4.330   3.160  0.2545  0.4580 -0.1714
 3637TIP3    H110875   4.369   4.379   3.236  0.7764 -0.3666  0.1501
 3637TIP3    H210876   4.245   4.316   3.178  0.1635  1.0712 -0.1292
 3638TIP3   OH210877   0.188   6.096   2.225 -0.7442 -0.6293  0.5331
 3638TIP3    H110878   0.249   6.143   2.168  1.6998 -1.4581  2.3224
 3638TIP3    H210879   0.199   6.004   2.201  0.2593 -0.9817  2.2354
 3639TIP3   OH210880   2.854   4.864   4.681  0.0770 -0.3210 -0.0348
 3639TIP3    H110881   2.905   4.929   4.729 -1.1605 -0.7079  1.8716
 3639TIP3    H210882   2.764   4.897   4.683 -0.0721 -0.5053 -1.8684
 3640TIP3   OH210883   0.950   2.149   4.957 -0.5353 -0.3242  0.1133
 3640TIP3    H110884   0.923   2.235   4.926  0.0846  0.3195  1.2813
 3640TIP3    H210885   1.046   2.155   4.963 -0.4882 -1.0990  0.1979
 3641TIP3   OH210886   6.841   5.091   5.710  0.3846  0.4269  0.1874
 3641TIP3    H110887   6.878   5.028   5.649 -0.0269  0.5577 -0.2047
 3641TIP3    H210888   6.816   5.039   5.786 -1.1722 -0.1271 -0.6534
 3642TIP3   OH210889   0.563   4.986   4.059 -0.4431 -0.1975  0.2152
 3642TIP3    H110890   0.514   4.960   3.981 -1.0451 -1.6431  1.0402
 3642TIP3    H210891   0.542   5.079   4.070 -0.8717 -0.1352 -0.9624
 3643TIP3   OH210892   3.247   3.229   3.291  0.9561 -0.5110  0.2664
 3643TIP3    H110893   3.224   3.269   3.207  1.8334 -0.2162  0.1558
 3643TIP3    H210894   3.298   3.296   3.337  1.6701 -1.1714  0.4576
 3644TIP3   OH210895   2.733   2.806   0.998  0.1679  0.0997 -0.0564
 3644TIP3    H110896   2.769   2.877   0.945  1.8056 -0.4741  0.2214
 3644TIP3    H210897   2.687   2.851   1.070 -1.0631  0.8594 -1.2651
 3645TIP3   OH210898   7.056   0.467   4.410 -0.6032  0.7520  0.1576
 3645TIP3    H110899   7.125   0.533   4.419 -0.7575  1.1677 -1.4867
 3645TIP3    H210900   6.975   0.517   4.398 -0.6525  0.2919 -1.6319
 3646TIP3   OH210901   5.394   0.849   1.895  0.9956 -0.3120  0.0048
 3646TIP3    H110902   5.393   0.818   1.985  1.6026 -0.0386  0.1103
 3646TIP3    H210903   5.476   0.898   1.887 -1.1794  4.0344  0.7816
 3647TIP3   OH210904   4.540   1.927   2.435  0.5586  0.0601 -0.1957
 3647TIP3    H110905   4.534   1.864   2.506  3.2509  0.1864  0.2496
 3647TIP3    H210906   4.455   1.971   2.434  0.0069 -0.8301  2.0872
 3648TIP3   OH210907   1.808   1.036   1.228  0.0847 -0.5445 -0.1040
 3648TIP3    H110908   1.765   0.981   1.163 -0.5445 -1.8412  1.3480
 3648TIP3    H210909   1.740   1.056   1.292  0.6612  0.7985  0.1404
 3649TIP3   OH210910   4.018   5.287   2.154  0.1380  0.7474 -0.4554
 3649TIP3    H110911   4.112   5.282   2.171  0.1468  1.9443 -0.0330
 3649TIP3    H210912   4.002   5.380   2.135 -0.6017  0.2182 -2.7806
 3650TIP3   OH210913   4.836   5.989   3.266 -0.0130  0.3097 -0.0608
 3650TIP3    H110914   4.814   5.989   3.359 -0.0034  0.2079 -0.0581
 3650TIP3    H210915   4.883   6.071   3.253  0.1953  0.2156  0.0772
 3651TIP3   OH210916   3.490   4.723   0.808 -0.2156  0.3160 -0.1171
 3651TIP3    H110917   3.480   4.731   0.903 -2.4218 -1.4643 -0.1213
 3651TIP3    H210918   3.471   4.632   0.790  1.5372  0.2857 -2.1873
 3652TIP3   OH210919   2.019   5.826   0.411  0.2499 -0.4135 -0.5748
 3652TIP3    H110920   2.031   5.902   0.354 -0.0406 -0.7754 -1.1326
 3652TIP3    H210921   2.105   5.785   0.416  0.4330  0.0103 -0.1813
 3653TIP3   OH210922   1.111   1.225   5.013  0.2000  0.1807  0.1880
 3653TIP3    H110923   1.203   1.202   5.020 -0.1579 -1.1049  1.0866
 3653TIP3    H210924   1.066   1.163   5.072 -1.4207 -0.3765 -1.5390
 3654TIP3   OH210925   0.291   6.135   1.388 -0.0492 -0.1242  0.1422
 3654TIP3    H110926   0.348   6.155   1.461  2.4319 -1.1805 -1.3907
 3654TIP3    H210927   0.250   6.052   1.412  1.2966 -0.8320  0.0640
 3655TIP3   OH210928   1.120   1.598   5.857  0.1525 -0.1183 -0.3905
 3655TIP3    H110929   1.108   1.507   5.831  0.3587 -0.5893  1.0956
 3655TIP3    H210930   1.118   1.647   5.774 -3.0441 -1.0824 -0.9992
 3656TIP3   OH210931   0.030   2.039   3.970 -0.0698 -0.4303 -0.3223
 3656TIP3    H110932   0.047   1.957   4.016  0.7372  0.0854  0.3350
 3656TIP3    H210933  -0.060   2.031   3.938 -1.2559 -0.2469  2.6045
 3657TIP3   OH210934   6.159   6.072   4.546 -0.6495 -0.0163  0.5137
 3657TIP3    H110935   6.205   6.019   4.480  0.1326 -0.2772  1.2458
 3657TIP3    H210936   6.217   6.070   4.622 -1.3681  0.5873  1.0874
 3658TIP3   OH210937   1.161   1.439   0.132  0.2892 -0.4942 -0.3212
 3658TIP3    H110938   1.171   1.463   0.039  1.5152 -1.4459 -0.4642
 3658TIP3    H210939   1.218   1.363   0.143 -1.3121 -1.5847  0.7857
 3659TIP3   OH210940   5.896   5.064   1.422  0.3318  0.1882  0.2526
 3659TIP3    H110941   5.833   5.131   1.448 -2.3595 -2.4080  0.9449
 3659TIP3    H210942   5.930   5.029   1.504 -1.0631 -1.6689  0.1032
 3660TIP3   OH210943   1.815   2.903   5.480 -0.1601 -0.4142  0.0194
 3660TIP3    H110944   1.735   2.872   5.437 -0.4255 -0.6958  0.7045
 3660TIP3    H210945   1.809   2.999   5.474 -0.3120 -0.4432 -0.3486
 3661TIP3   OH210946   2.394   5.619   2.287 -0.2881 -0.0970  0.3305
 3661TIP3    H110947   2.442   5.578   2.215 -1.7508 -1.1223 -0.1114
 3661TIP3    H210948   2.441   5.593   2.366 -0.0945 -1.0505 -0.0899
 3662TIP3   OH210949   0.191   5.933   4.294 -0.1901 -0.0500  0.7969
 3662TIP3    H110950   0.121   5.989   4.327  0.1564  0.8091  0.1157
 3662TIP3    H210951   0.208   5.965   4.206  0.1349 -1.1328  0.4482
 3663TIP3   OH210952   6.003   0.929   2.430  0.1577  0.6071  0.3639
 3663TIP3    H110953   6.035   0.851   2.385  0.7529  0.2665  1.3539
 3663TIP3    H210954   5.967   0.897   2.512 -1.3723  1.1668 -0.0438
 3664TIP3   OH210955   2.212   2.954   4.051  0.4676  0.0827 -0.3012
 3664TIP3    H110956   2.167   2.913   3.978 -0.6164 -1.6111  1.2289
 3664TIP3    H210957   2.240   2.881   4.106  2.5110  1.2350  0.3018
 3665TIP3   OH210958   1.374   5.585   3.568 -0.2621 -0.0681 -0.5625
 3665TIP3    H110959   1.458   5.550   3.540  0.0434 -0.4629  0.7677
 3665TIP3    H210960   1.309   5.540   3.513  0.4150  0.6625 -1.9880
 3666TIP3   OH210961   2.431   5.995   1.903  0.1545 -0.1750  0.2858
 3666TIP3    H110962   2.436   5.945   1.985  0.8855  1.3598  1.2187
 3666TIP3    H210963   2.352   6.047   1.911  0.6392  0.5603  0.3789
 3667TIP3   OH210964   0.025   1.189   4.438 -0.0482  0.1701 -0.1928
 3667TIP3    H110965   0.079   1.264   4.414 -0.6393  0.3070 -1.1396
 3667TIP3    H210966  -0.063   1.226   4.451 -0.5551 -0.4739 -1.6053
 3668TIP3   OH210967   5.266   1.301   1.866 -0.1342  0.2313 -0.7106
 3668TIP3    H110968   5.324   1.237   1.906 -0.8502 -1.2784 -1.9561
 3668TIP3    H210969   5.193   1.309   1.927 -0.1654 -0.3402 -0.6727
 3669TIP3   OH210970   3.272   4.410   3.707  0.5728 -0.0034  0.2045
 3669TIP3    H110971   3.191   4.386   3.663 -0.3824  0.7343  1.4927
 3669TIP3    H210972   3.291   4.336   3.765  1.2746 -0.5240 -0.6656
 3670TIP3   OH210973   2.657   1.097   3.860 -0.1614  0.0788  0.5928
 3670TIP3    H110974   2.707   1.111   3.779 -1.4634 -2.0038 -0.6948
 3670TIP3    H210975   2.612   1.014   3.845 -2.4627  0.8926  2.4690
 3671TIP3   OH210976   4.553   6.327   5.184 -0.1935 -0.5274 -0.3742
 3671TIP3    H110977   4.574   6.384   5.110 -3.6685  0.3644 -0.8572
 3671TIP3    H210978   4.607   6.359   5.256  0.5086  1.0508 -1.5633
 3672TIP3   OH210979   1.801   0.684   1.930 -0.1241 -0.5034 -0.2506
 3672TIP3    H110980   1.737   0.745   1.968  0.7715  0.6104 -0.4870
 3672TIP3    H210981   1.874   0.685   1.992  0.9435  0.5880 -1.4856
 3673TIP3   OH210982   3.473   0.445   5.492 -0.3459 -0.3624 -0.2229
 3673TIP3    H110983   3.561   0.447   5.530 -0.4224 -1.6090  0.0733
 3673TIP3    H210984   3.481   0.490   5.408  0.4373  0.0325  0.0571
 3674TIP3   OH210985   2.630   5.170   0.706  0.6348  0.6362  0.4302
 3674TIP3    H110986   2.709   5.119   0.688  0.3865  0.4655 -0.2005
 3674TIP3    H210987   2.616   5.161   0.800  0.5989 -0.4518  0.3331
 3675TIP3   OH210988   4.914   1.950   2.859 -0.1326  0.1900  0.0311
 3675TIP3    H110989   4.949   1.939   2.947 -2.5556 -0.4797  0.9784
 3675TIP3    H210990   4.925   1.865   2.817 -2.1765 -0.5871  0.9686
 3676TIP3   OH210991   4.121   5.611   0.209  0.1614 -0.1223 -0.1419
 3676TIP3    H110992   4.103   5.589   0.117  0.9039  0.6364 -0.4882
 3676TIP3    H210993   4.186   5.547   0.236  0.7822  0.3417 -0.5056
 3677TIP3   OH210994   7.219   4.031   1.436 -0.2327  0.4709 -0.2155
 3677TIP3    H110995   7.140   3.989   1.469 -0.4417  0.9443 -0.0999
 3677TIP3    H210996   7.250   4.083   1.510 -0.2002  0.8284 -0.4769
 3678TIP3   OH210997   3.078   6.469   2.683 -0.3654  0.2970  0.1383
 3678TIP3    H110998   3.084   6.417   2.763 -0.4968 -1.0890 -0.7243
 3678TIP3    H210999   3.088   6.406   2.612 -0.1894  1.5053 -0.9505
 3679TIP3   OH211000   1.005   3.275   5.569 -0.4874  0.1193  0.3893
 3679TIP3    H111001   0.944   3.296   5.639 -0.7027  0.3478  0.1338
 3679TIP3    H211002   0.950   3.245   5.496 -0.2248 -0.7446  0.5389
 3680TIP3   OH211003   6.257   3.013   2.850 -0.4327  0.5259 -0.9085
 3680TIP3    H111004   6.323   3.049   2.791  1.2252 -0.9153 -0.0543
 3680TIP3    H211005   6.227   2.934   2.805  2.3063 -1.7204  0.8620
 3681TIP3   OH211006   1.837   1.427   0.040 -0.0642 -0.7789  0.2015
 3681TIP3    H111007   1.910   1.365   0.027 -0.6080 -1.5955  0.9493
 3681TIP3    H211008   1.807   1.447  -0.049 -0.1667 -1.9618 -0.0491
 3682TIP3   OH211009   1.600   1.877   5.706 -0.6285  0.5262  0.5578
 3682TIP3    H111010   1.535   1.807   5.698 -1.4354  1.1599  1.3613
 3682TIP3    H211011   1.591   1.908   5.796  1.6455 -0.1777  1.0925
 3683TIP3   OH211012   2.504   3.242   3.563 -0.0952  0.2956 -0.3352
 3683TIP3    H111013   2.465   3.249   3.650  1.1282 -0.8769  0.3336
 3683TIP3    H211014   2.503   3.148   3.544  0.8606  0.4119 -1.0157
 3684TIP3   OH211015   3.508   4.064   2.244  0.6006  0.8371  0.1932
 3684TIP3    H111016   3.561   4.028   2.172  2.2494  1.8643  0.8323
 3684TIP3    H211017   3.540   4.153   2.255  0.3601  0.7269  2.1884
 3685TIP3   OH211018   1.114   1.658   1.554  0.2220  0.7342  0.0073
 3685TIP3    H111019   1.110   1.695   1.465  1.4744  0.9827  0.0385
 3685TIP3    H211020   1.162   1.576   1.543 -1.2633 -0.2071  0.1801
 3686TIP3   OH211021   0.796   1.340   4.816  0.2321 -0.0703 -0.7370
 3686TIP3    H111022   0.834   1.257   4.787 -0.7730 -0.8901  0.1918
 3686TIP3    H211023   0.725   1.357   4.753  0.1665 -0.1414 -0.6830
 3687TIP3   OH211024   1.690   3.465   4.723 -0.0483  0.0948  0.3624
 3687TIP3    H111025   1.707   3.401   4.654  0.6227  0.4707  0.1687
 3687TIP3    H211026   1.707   3.550   4.681  2.4404  0.2522  1.5302
 3688TIP3   OH211027   0.247   1.622   5.651 -0.2990  0.1016  0.9283
 3688TIP3    H111028   0.255   1.700   5.706 -0.2708  0.6371  0.1873
 3688TIP3    H211029   0.338   1.599   5.630 -0.3337  0.3859  0.4496
 3689TIP3   OH211030   1.944   4.195   3.095 -0.0290  0.2538  0.3177
 3689TIP3    H111031   2.030   4.235   3.109 -0.0536  0.0944  0.9649
 3689TIP3    H211032   1.888   4.268   3.069  0.2138  0.4234  0.2653
 3690TIP3   OH211033   1.902   2.953   5.856  0.0594 -0.3183  0.5247
 3690TIP3    H111034   1.817   2.921   5.825 -1.0330  1.8350  1.0930
 3690TIP3    H211035   1.883   3.038   5.895  2.6984  0.9180 -0.5900
 3691TIP3   OH211036   4.706   5.575   4.906 -0.2983 -0.7958  0.0403
 3691TIP3    H111037   4.731   5.557   4.997 -3.2567 -1.9139  0.7439
 3691TIP3    H211038   4.670   5.492   4.874 -1.2131  0.1249 -1.4397
 3692TIP3   OH211039   4.855   0.054   4.091 -0.7596  0.6425 -0.5525
 3692TIP3    H111040   4.786  -0.008   4.066  0.3880 -0.5129 -0.9627
 3692TIP3    H211041   4.930  -0.001   4.112  0.4210  1.9076 -1.3010
 3693TIP3   OH211042   0.492   3.866   4.275  0.3353 -0.3560  0.0591
 3693TIP3    H111043   0.577   3.910   4.283  0.1100  0.3819 -1.3116
 3693TIP3    H211044   0.428   3.936   4.276 -0.0490 -0.6139 -1.8442
 3694TIP3   OH211045   6.152   5.710   3.366 -0.2159 -0.6049 -0.3646
 3694TIP3    H111046   6.058   5.693   3.356 -0.3347  0.9981 -2.7049
 3694TIP3    H211047   6.159   5.805   3.370  1.3102 -0.7036 -0.1799
 3695TIP3   OH211048   2.554   0.234   5.152 -0.0942  0.1890 -0.2454
 3695TIP3    H111049   2.477   0.292   5.153 -0.9051 -0.8161 -1.3030
 3695TIP3    H211050   2.595   0.250   5.067 -0.8147 -1.3413 -0.9316
 3696TIP3   OH211051   6.874   0.919   3.422 -0.7667  0.1468  0.2777
 3696TIP3    H111052   6.951   0.943   3.474 -0.9451 -2.0286  1.6443
 3696TIP3    H211053   6.800   0.934   3.481 -1.1714 -0.2658 -0.1251
 3697TIP3   OH211054   3.161   3.435   2.658  0.6090 -0.3694  0.1110
 3697TIP3    H111055   3.116   3.350   2.655 -0.4360  0.2084 -1.7814
 3697TIP3    H211056   3.253   3.413   2.641  0.5007 -1.2129  0.5524
 3698TIP3   OH211057   2.384   2.487   2.978 -0.1938 -0.3242  0.0974
 3698TIP3    H111058   2.431   2.496   3.062 -1.8897  1.4074  0.9337
 3698TIP3    H211059   2.296   2.521   2.996 -1.2248 -1.7630 -1.8996
 3699TIP3   OH211060   6.278   2.943   4.109  0.2306  0.0174  0.4334
 3699TIP3    H111061   6.352   2.903   4.063 -0.6386 -1.5424  0.3192
 3699TIP3    H211062   6.212   2.958   4.041  0.0213  0.3682  0.7100
 3700TIP3   OH211063   6.253   1.351   5.452 -0.0624 -0.3188 -0.1835
 3700TIP3    H111064   6.195   1.298   5.506 -0.5444  0.9800  0.6268
 3700TIP3    H211065   6.339   1.345   5.495  0.7319 -2.9800 -1.8858
 3701TIP3   OH211066   6.652   2.722   3.796 -0.4763 -0.4973 -0.4181
 3701TIP3    H111067   6.724   2.701   3.855  0.5526  3.3904 -0.0152
 3701TIP3    H211068   6.695   2.739   3.712 -0.8306  1.7978 -0.1933
 3702TIP3   OH211069   4.598   6.501   0.609 -0.3633 -0.0338  0.1472
 3702TIP3    H111070   4.575   6.418   0.650  0.2797  0.1869  0.9758
 3702TIP3    H211071   4.672   6.534   0.660  0.8968 -0.0571 -1.5779
 3703TIP3   OH211072   2.321   2.035   1.209  0.3522  0.5069  0.0091
 3703TIP3    H111073   2.401   1.984   1.226  0.0255  0.1014  0.3627
 3703TIP3    H211074   2.349   2.105   1.151  1.0998  0.7407  0.6295
 3704TIP3   OH211075   3.759   5.737   5.482 -0.1331 -0.1566 -0.5227
 3704TIP3    H111076   3.719   5.722   5.396 -0.9980  1.7525 -0.4984
 3704TIP3    H211077   3.839   5.786   5.463  0.3433 -0.8394 -0.3120
 3705TIP3   OH211078   5.649   6.015   3.632 -0.4338 -0.0008 -0.0200
 3705TIP3    H111079   5.725   6.049   3.585 -0.1724 -2.0426 -1.1815
 3705TIP3    H211080   5.573   6.047   3.582 -0.2369 -0.1005 -0.3872
 3706TIP3   OH211081   3.060   4.598   5.520  0.2891 -0.1692 -0.2045
 3706TIP3    H111082   3.137   4.651   5.542  0.1164  0.2149 -0.5097
 3706TIP3    H211083   3.022   4.643   5.445 -2.0532  1.5019  1.8375
 3707TIP3   OH211084   4.486   1.469   0.979  0.8496 -0.1862 -0.2106
 3707TIP3    H111085   4.472   1.438   0.890  2.8101  0.3777 -0.7607
 3707TIP3    H211086   4.420   1.423   1.031  1.2101 -2.3879 -1.5617
 3708TIP3   OH211087   1.871   4.963   4.932 -0.0738 -0.0343  0.0944
 3708TIP3    H111088   1.950   4.979   4.985  1.0074  0.2187 -1.5157
 3708TIP3    H211089   1.798   4.979   4.992  1.0771  1.4833  1.1634
 3709TIP3   OH211090   1.611   6.086   5.619 -0.0941  0.2429  0.3048
 3709TIP3    H111091   1.559   6.104   5.540  0.8574 -0.8049 -0.5960
 3709TIP3    H211092   1.642   6.171   5.647 -0.4842  0.6415 -0.4331
 3710TIP3   OH211093   6.308   2.402   3.110 -0.4101 -0.1394  0.1467
 3710TIP3    H111094   6.244   2.362   3.052 -0.1348  0.4484 -0.5648
 3710TIP3    H211095   6.260   2.417   3.192 -1.0333 -0.1769 -0.2083
 3711TIP3   OH211096   7.195   3.848   2.479 -0.2851  0.3689 -0.8156
 3711TIP3    H111097   7.179   3.935   2.516  0.3612  0.0272  0.3184
 3711TIP3    H211098   7.196   3.862   2.385 -0.7540  1.4902 -0.6680
 3712TIP3   OH211099   1.638   0.069   5.530  0.8113 -0.0157  0.4557
 3712TIP3    H111100   1.563   0.059   5.588  0.0320 -1.0800 -0.6803
 3712TIP3    H211101   1.663   0.161   5.538 -2.0129  0.9722 -0.7510
 3713TIP3   OH211102   3.601   5.135   5.196  0.1880 -0.2480  0.4444
 3713TIP3    H111103   3.629   5.083   5.271 -0.5532 -0.2994  0.6906
 3713TIP3    H211104   3.585   5.222   5.232 -0.4097 -0.3349  0.4028
 3714TIP3   OH211105   3.850   4.857   0.927  0.5878  0.6868 -0.4164
 3714TIP3    H111106   3.889   4.833   0.843  3.3113 -0.8669  1.1560
 3714TIP3    H211107   3.798   4.781   0.953  1.5471  0.2343  0.2544
 3715TIP3   OH211108   5.566   6.758   2.408 -0.6476  0.0434 -0.5112
 3715TIP3    H111109   5.476   6.728   2.391 -0.6066  0.0078 -0.6625
 3715TIP3    H211110   5.589   6.810   2.331 -1.1393  1.4352  0.2461
 3716TIP3   OH211111   4.166   3.809   1.402 -0.3337  0.4094 -0.7246
 3716TIP3    H111112   4.254   3.781   1.381 -0.0294  0.5121  0.3212
 3716TIP3    H211113   4.114   3.729   1.401 -0.2874  0.3826 -1.5765
 3717TIP3   OH211114   5.646   6.579   5.732  0.6448 -0.1264  0.1188
 3717TIP3    H111115   5.715   6.639   5.702 -1.2942  1.8104 -0.7690
 3717TIP3    H211116   5.619   6.615   5.816 -0.8436  0.5987 -0.6270
 3718TIP3   OH211117   0.283   1.374   0.593  0.0144 -0.0602  0.1570
 3718TIP3    H111118   0.267   1.467   0.579 -1.5903 -0.1764  0.9404
 3718TIP3    H211119   0.318   1.369   0.682 -1.3489 -0.2860  0.7174
 3719TIP3   OH211120   5.903   2.048   1.813  0.4207  0.2765  0.2194
 3719TIP3    H111121   5.847   2.123   1.793  1.9393  0.9127 -2.0892
 3719TIP3    H211122   5.953   2.076   1.890 -0.0832  1.0131  0.2934
 3720TIP3   OH211123   1.357   5.646   5.111  0.5510 -0.0007  0.2132
 3720TIP3    H111124   1.286   5.686   5.161  1.3259  1.3737  0.2700
 3720TIP3    H211125   1.327   5.648   5.020  0.4495  0.4258  0.2547
 3721TIP3   OH211126   4.331   2.838   3.913  0.0175  0.1791 -0.6400
 3721TIP3    H111127   4.316   2.885   3.831 -1.2567  1.0984  0.0899
 3721TIP3    H211128   4.345   2.907   3.978  0.5899 -0.5257  0.0018
 3722TIP3   OH211129   1.414   0.666   0.422  0.3946  0.1598 -0.2232
 3722TIP3    H111130   1.391   0.609   0.348  1.2291  1.7089 -1.7531
 3722TIP3    H211131   1.430   0.606   0.495  1.2321 -1.5580 -1.7555
 3723TIP3   OH211132   5.780   3.409   2.807 -0.1886 -0.5428 -0.1130
 3723TIP3    H111133   5.694   3.367   2.817 -0.1945 -0.4414  0.2709
 3723TIP3    H211134   5.818   3.407   2.894 -0.1839  0.2449 -0.0930
 3724TIP3   OH211135   0.974   5.616   1.918 -0.1021 -0.0954  0.4851
 3724TIP3    H111136   1.037   5.673   1.960  0.0389  1.1412 -1.2918
 3724TIP3    H211137   0.988   5.530   1.959  1.8682  0.4209  0.9942
 3725TIP3   OH211138   3.598   3.139   1.551  0.3538  0.5961 -0.1981
 3725TIP3    H111139   3.566   3.202   1.486  0.1291  0.2618 -0.4177
 3725TIP3    H211140   3.578   3.054   1.513 -0.9058  0.3874  0.8399
 3726TIP3   OH211141   6.125   4.937   5.359  0.3045  0.0332 -0.5042
 3726TIP3    H111142   6.127   4.863   5.297  0.1616 -0.0080 -0.4584
 3726TIP3    H211143   6.214   4.940   5.394  0.1800 -0.4299 -0.1347
 3727TIP3   OH211144   3.771   2.070   1.617 -0.0497  0.1737 -0.0472
 3727TIP3    H111145   3.756   2.072   1.712 -2.4636  0.4484 -0.3782
 3727TIP3    H211146   3.721   1.995   1.586  0.5884  0.1795 -1.1284
 3728TIP3   OH211147   6.597   2.215   5.803  0.3200 -0.0052 -0.1219
 3728TIP3    H111148   6.635   2.275   5.867  1.2339 -1.4534  0.7629
 3728TIP3    H211149   6.518   2.181   5.846 -0.2317  0.5932 -0.6452
 3729TIP3   OH211150   2.635   3.695   3.012 -0.5399  0.5025 -0.6893
 3729TIP3    H111151   2.578   3.635   2.964  1.0512 -0.6467 -1.2137
 3729TIP3    H211152   2.580   3.727   3.084 -1.9418 -0.2676 -1.3647
 3730TIP3   OH211153   0.681   0.665   0.320  0.4405  0.6583  0.0665
 3730TIP3    H111154   0.614   0.598   0.338  2.5621 -1.3908  0.7804
 3730TIP3    H211155   0.711   0.645   0.231 -0.1020  1.8350 -0.4130
 3731TIP3   OH211156   4.679   2.898   5.543 -0.0652 -0.7264 -0.7274
 3731TIP3    H111157   4.585   2.878   5.540  0.0386 -1.4276  0.2312
 3731TIP3    H211158   4.688   2.977   5.489 -1.4232  0.1425  0.2335
 3732TIP3   OH211159   0.852   0.936   0.112 -0.4588  0.2894 -0.0023
 3732TIP3    H111160   0.934   0.959   0.066 -0.3974  0.3459  0.1357
 3732TIP3    H211161   0.881   0.894   0.193 -0.5651  0.4838  0.1377
 3733TIP3   OH211162   1.000   3.829   4.844  0.5594  0.0711  0.1054
 3733TIP3    H111163   0.927   3.870   4.797  1.6577 -0.5302 -2.2133
 3733TIP3    H211164   1.047   3.902   4.883  0.8552  0.8046 -1.5685
 3734TIP3   OH211165   4.031   4.338   4.448 -0.4710 -0.1902 -0.3137
 3734TIP3    H111166   3.939   4.322   4.426 -0.1735 -0.3191 -1.5494
 3734TIP3    H211167   4.056   4.413   4.395  0.0900 -0.0220  0.1737
 3735TIP3   OH211168   1.943   0.739   2.625 -0.0684  0.1536  0.0792
 3735TIP3    H111169   1.982   0.808   2.570  1.9225 -0.8275  0.1568
 3735TIP3    H211170   1.878   0.785   2.678 -0.9868  1.4097 -1.9794
 3736TIP3   OH211171   6.487   5.127   4.478 -0.0064  0.3058  0.3050
 3736TIP3    H111172   6.498   5.042   4.519 -2.4141  0.0979  0.6337
 3736TIP3    H211173   6.502   5.112   4.385 -0.8729 -0.5985  0.3012
 3737TIP3   OH211174   3.940   5.697   0.708  0.5294 -0.0325  0.1266
 3737TIP3    H111175   3.964   5.706   0.800 -1.2209  2.1271  0.4776
 3737TIP3    H211176   3.852   5.658   0.710  0.4100  0.1755 -0.6006
 3738TIP3   OH211177   0.498   0.859   5.046  0.6396  0.3064 -0.5565
 3738TIP3    H111178   0.489   0.949   5.075  2.2568  0.2128  0.3269
 3738TIP3    H211179   0.468   0.860   4.955 -0.9744  1.3500 -0.0595
 3739TIP3   OH211180   5.268   4.818   5.522 -0.2931  0.0051  0.2532
 3739TIP3    H111181   5.362   4.831   5.510 -0.4151  0.5566 -0.1402
 3739TIP3    H211182   5.250   4.855   5.608  0.1076 -1.4972  1.0208
 3740TIP3   OH211183   1.356   5.692   2.564 -0.0778 -0.3295 -0.3865
 3740TIP3    H111184   1.407   5.756   2.613 -0.4388 -0.3262 -0.0180
 3740TIP3    H211185   1.391   5.697   2.475  3.2627 -2.9868  0.5286
 3741TIP3   OH211186   7.043   3.215   2.201 -0.4562  0.3194  0.5283
 3741TIP3    H111187   7.134   3.244   2.203  0.4810 -2.2217 -0.7627
 3741TIP3    H211188   7.035   3.156   2.276 -1.0255  0.4808  0.5980
 3742TIP3   OH211189   1.690   4.032   4.666  0.3536  0.3027  0.5098
 3742TIP3    H111190   1.600   4.037   4.698  0.1581 -1.0467  0.2522
 3742TIP3    H211191   1.737   3.982   4.734  0.5479 -0.2969 -0.0518
 3743TIP3   OH211192   0.807   0.565   2.698  1.1939 -1.2060  0.4563
 3743TIP3    H111193   0.901   0.581   2.697  0.9186  0.6644  1.0806
 3743TIP3    H211194   0.769   0.636   2.646  0.2120 -3.0022 -1.4512
 3744TIP3   OH211195   3.619   2.467   0.462  0.1205 -0.2067  0.0535
 3744TIP3    H111196   3.605   2.508   0.548 -1.4813  0.8632 -0.6743
 3744TIP3    H211197   3.536   2.426   0.441  0.5860 -0.7095 -0.8768
 3745TIP3   OH211198   4.590   1.841   0.739 -0.1503 -0.2212  0.3056
 3745TIP3    H111199   4.496   1.843   0.756 -0.3088 -0.4980 -0.4868
 3745TIP3    H211200   4.626   1.783   0.806 -0.3212  1.1008  1.5763
 3746TIP3   OH211201   2.256   2.012   1.999 -0.0424 -0.3484 -0.4833
 3746TIP3    H111202   2.345   2.045   1.987 -0.5989  1.4594  0.1046
 3746TIP3    H211203   2.245   1.948   1.929  0.6730  1.6338 -2.5251
 3747TIP3   OH211204   2.574   6.670   5.639  0.7587  0.8234  0.0773
 3747TIP3    H111205   2.587   6.663   5.545  0.2451  0.7941  0.0046
 3747TIP3    H211206   2.634   6.606   5.677 -0.1426 -0.2669 -0.3077
 3748TIP3   OH211207   2.372   3.958   2.855  0.6203  0.3317 -0.5080
 3748TIP3    H111208   2.382   4.019   2.928  1.8614  1.1985 -1.3541
 3748TIP3    H211209   2.454   3.965   2.807 -0.5120  0.5294 -2.5344
 3749TIP3   OH211210   5.886   3.161   0.074 -0.5080  0.3552 -0.2223
 3749TIP3    H111211   5.856   3.227   0.012  0.6662  1.8179  0.6746
 3749TIP3    H211212   5.944   3.105   0.023 -0.8364  0.5414 -0.8089
 3750TIP3   OH211213   2.922   1.537   3.410 -0.5706 -0.3201  0.0170
 3750TIP3    H111214   2.954   1.611   3.357  2.2257  0.4958  2.5557
 3750TIP3    H211215   2.893   1.577   3.492  0.3976 -1.9325  1.2096
 3751TIP3   OH211216   5.636   2.733   4.489 -0.4262  0.1111 -0.1413
 3751TIP3    H111217   5.605   2.759   4.576 -0.1022 -2.8114  0.9936
 3751TIP3    H211218   5.731   2.738   4.496 -0.3774 -0.7972 -0.0632
 3752TIP3   OH211219   6.202   1.800   1.967  0.9706  0.2169 -0.2605
 3752TIP3    H111220   6.237   1.814   2.055 -1.3431 -0.8776  0.9039
 3752TIP3    H211221   6.172   1.709   1.968  1.4857 -0.0193 -2.4262
 3753TIP3   OH211222   1.434   0.124   2.028  0.2407  0.0710 -0.7624
 3753TIP3    H111223   1.470   0.074   1.954  1.4359  2.7070 -2.1233
 3753TIP3    H211224   1.506   0.128   2.091  0.5325  0.8139 -1.1132
 3754TIP3   OH211225   1.185   4.009   0.753  0.0021  0.3406 -0.1979
 3754TIP3    H111226   1.162   3.943   0.818 -0.3357  1.2082  0.5900
 3754TIP3    H211227   1.280   4.017   0.758 -0.1758  2.2810  2.1618
 3755TIP3   OH211228   6.218   4.474   5.132  0.1573 -0.7933  0.3369
 3755TIP3    H111229   6.257   4.538   5.072  0.2718  0.5642  1.8015
 3755TIP3    H211230   6.163   4.419   5.075 -0.0995  0.7134 -0.9509
 3756TIP3   OH211231   3.578   3.185   3.013 -1.1097  0.4361  0.3344
 3756TIP3    H111232   3.535   3.247   2.954 -1.1302  0.3888  0.2997
 3756TIP3    H211233   3.507   3.129   3.044 -0.8797 -0.5206 -0.7835
 3757TIP3   OH211234   5.966   1.263   3.988  0.5872 -0.1644 -0.2710
 3757TIP3    H111235   5.973   1.240   4.080  0.2114  1.6574  0.2532
 3757TIP3    H211236   6.057   1.277   3.960  0.6953 -0.6499 -0.1736
 3758TIP3   OH211237   3.549   3.342   3.402 -0.4226 -0.2645 -0.0324
 3758TIP3    H111238   3.504   3.424   3.384 -1.7947 -1.2297 -1.2478
 3758TIP3    H211239   3.631   3.348   3.352 -1.4346 -0.4216 -1.7812
 3759TIP3   OH211240   5.797   1.501   0.985  0.6638 -0.2806 -0.2245
 3759TIP3    H111241   5.716   1.458   1.011  0.3726  1.0249  1.1369
 3759TIP3    H211242   5.856   1.428   0.963 -0.5774 -1.2739 -0.4142
 3760TIP3   OH211243   4.802   0.835   1.328  0.6984 -0.0385  0.1499
 3760TIP3    H111244   4.731   0.893   1.297  1.1056 -0.2254 -1.2020
 3760TIP3    H211245   4.829   0.873   1.411 -1.6589 -0.5301  1.2456
 3761TIP3   OH211246   2.703   3.531   5.691  0.5835  0.3798 -0.6822
 3761TIP3    H111247   2.756   3.542   5.770 -0.4348  0.3569  0.0249
 3761TIP3    H211248   2.750   3.466   5.639  0.4849 -0.7591  0.6137
 3762TIP3   OH211249   1.373   3.791   5.071  0.8052  0.2497  0.2336
 3762TIP3    H111250   1.460   3.807   5.034  1.7987 -0.1799  2.2165
 3762TIP3    H211251   1.374   3.839   5.155 -1.5237  1.6558 -0.4536
 3763TIP3   OH211252   6.551   0.946   4.485 -0.0544  0.1593 -0.0842
 3763TIP3    H111253   6.467   0.939   4.532  0.1950 -0.8678  0.2377
 3763TIP3    H211254   6.600   0.868   4.513 -0.0453 -0.7211 -2.3564
 3764TIP3   OH211255   0.727   5.287   3.072 -0.7626  0.4288  0.7998
 3764TIP3    H111256   0.743   5.342   3.148 -1.8973  0.2417  1.1878
 3764TIP3    H211257   0.679   5.211   3.106 -1.1086  0.2407 -0.0570
 3765TIP3   OH211258   2.874   0.062   1.534 -0.0546 -0.0280  0.1977
 3765TIP3    H111259   2.843  -0.026   1.558  0.7571 -0.3215  0.2108
 3765TIP3    H211260   2.871   0.063   1.438 -2.1188  0.7079  0.2314
 3766TIP3   OH211261   2.801   5.466   1.776  0.2413  0.1395  0.1582
 3766TIP3    H111262   2.708   5.463   1.756  0.3622 -0.6531 -0.3477
 3766TIP3    H211263   2.838   5.389   1.731  1.4744  1.5286 -1.3116
 3767TIP3   OH211264   5.531   1.093   2.623  0.2158 -0.2793 -0.1613
 3767TIP3    H111265   5.448   1.123   2.660 -0.7834 -0.2991 -2.2383
 3767TIP3    H211266   5.571   1.041   2.693 -2.2286 -1.5516  0.4014
 3768TIP3   OH211267   3.591   5.078   1.934  0.0734  0.0722 -0.4668
 3768TIP3    H111268   3.588   5.001   1.991 -0.5503 -0.4091 -1.1179
 3768TIP3    H211269   3.674   5.121   1.955  0.1193 -0.4079  0.3831
 3769TIP3   OH211270   5.734   4.314   3.215 -0.3044 -0.5252 -0.1338
 3769TIP3    H111271   5.678   4.387   3.189 -1.3344 -1.2477  0.0123
 3769TIP3    H211272   5.821   4.354   3.228 -0.5826  0.4609 -1.1712
 3770TIP3   OH211273   1.507   3.042   3.982  0.1008 -0.3749 -0.0122
 3770TIP3    H111274   1.503   2.950   3.955 -0.8868 -0.3737  0.1106
 3770TIP3    H211275   1.485   3.091   3.903 -0.2932 -0.2785  0.1573
 3771TIP3   OH211276   6.840   2.339   4.810 -0.4984 -0.1946 -0.1561
 3771TIP3    H111277   6.863   2.430   4.826  1.0131 -0.4093 -0.9311
 3771TIP3    H211278   6.777   2.343   4.738  0.6186  0.1937 -1.1477
 3772TIP3   OH211279   6.123   6.259   2.494  0.0178  0.0042 -0.3941
 3772TIP3    H111280   6.030   6.278   2.482  0.3327  0.7842 -1.8351
 3772TIP3    H211281   6.166   6.297   2.417  1.4715 -0.8422 -0.0484
 3773TIP3   OH211282   3.348   2.352   0.406 -0.6404 -0.1981 -0.5851
 3773TIP3    H111283   3.359   2.341   0.311 -0.7860 -0.2083 -0.6014
 3773TIP3    H211284   3.284   2.284   0.430 -0.2190 -0.5287 -0.3940
 3774TIP3   OH211285   1.237   5.184   0.079 -0.1232  0.3659 -0.5550
 3774TIP3    H111286   1.144   5.206   0.072 -0.3944 -0.3052  0.5764
 3774TIP3    H211287   1.257   5.139  -0.003 -1.0495 -0.3260 -0.4202
 3775TIP3   OH211288   4.260   1.758   3.818  0.6205 -0.0890  0.3152
 3775TIP3    H111289   4.171   1.728   3.803  0.8595 -0.3643 -0.5911
 3775TIP3    H211290   4.256   1.853   3.805  0.7323 -0.2661 -1.1460
 3776TIP3   OH211291   2.472   3.516   2.872  0.6749 -0.8552 -0.2064
 3776TIP3    H111292   2.466   3.435   2.923 -1.0376 -1.1948 -0.8879
 3776TIP3    H211293   2.524   3.492   2.796  1.6989 -0.8206  0.4605
 3777TIP3   OH211294   4.263   1.411   1.172  0.4507 -0.4656  0.3107
 3777TIP3    H111295   4.318   1.456   1.236  2.0181 -0.8895 -0.6784
 3777TIP3    H211296   4.197   1.475   1.148  0.8189  0.2536  1.1416
 3778TIP3   OH211297   4.291   3.740   0.208 -0.5602 -0.0642 -0.3660
 3778TIP3    H111298   4.206   3.784   0.215  0.2569  1.6568 -0.8799
 3778TIP3    H211299   4.314   3.718   0.298 -1.4301 -0.3314 -0.1998
 3779TIP3   OH211300   4.530   2.163   2.200 -0.2638 -0.5314  0.2533
 3779TIP3    H111301   4.518   2.146   2.107 -0.2672 -0.0116  0.1536
 3779TIP3    H211302   4.625   2.167   2.212 -0.2548 -1.0421  0.3573
 3780TIP3   OH211303   1.704   5.360   2.959  0.2535  0.3759  0.7428
 3780TIP3    H111304   1.788   5.314   2.963 -0.0709 -0.2350  0.6718
 3780TIP3    H211305   1.663   5.328   2.879  0.4500  1.5549  0.1583
 3781TIP3   OH211306   0.849   5.773   2.235  0.6853  0.3004  0.0532
 3781TIP3    H111307   0.912   5.846   2.234 -1.3816  2.2017  0.0886
 3781TIP3    H211308   0.831   5.759   2.328  1.1749 -0.3896  0.0534
 3782TIP3   OH211309   6.338   4.710   1.726  0.2491 -0.4712 -0.0706
 3782TIP3    H111310   6.311   4.620   1.741  1.5821 -0.7878  0.5746
 3782TIP3    H211311   6.359   4.744   1.814  0.4995  0.2146 -0.3832
 3783TIP3   OH211312   4.673   3.382   2.709  0.2346  0.4526 -0.1990
 3783TIP3    H111313   4.623   3.437   2.769 -0.1801  0.6041 -0.6841
 3783TIP3    H211314   4.607   3.335   2.657  0.5096  2.4945 -2.5650
 3784TIP3   OH211315   6.959   5.933   4.581  0.6866  0.1459 -0.0934
 3784TIP3    H111316   6.995   5.872   4.646 -0.3502 -0.7828 -0.3568
 3784TIP3    H211317   7.016   6.010   4.586  1.7660 -0.6680  0.5594
 3785TIP3   OH211318   5.045   1.438   4.626  0.4475 -0.2609 -0.1767
 3785TIP3    H111319   4.998   1.503   4.679  0.7939 -0.7656  0.7853
 3785TIP3    H211320   4.979   1.374   4.601  0.3102 -0.1040 -0.2131
 3786TIP3   OH211321   3.432   3.750   4.308 -0.4430  0.3913 -0.4824
 3786TIP3    H111322   3.499   3.793   4.255 -1.5440  0.6696 -1.7229
 3786TIP3    H211323   3.381   3.700   4.244 -0.6138 -0.8854  0.6104
 3787TIP3   OH211324   7.010   6.709   1.527 -0.3940  0.4117  0.1715
 3787TIP3    H111325   7.045   6.696   1.438 -1.8785 -1.4279 -0.2117
 3787TIP3    H211326   7.056   6.786   1.560  0.1625  1.1908 -2.2208
 3788TIP3   OH211327   1.341   0.697   4.937 -0.2784  0.7257  0.0070
 3788TIP3    H111328   1.342   0.632   4.866 -0.9313  0.9166 -0.1802
 3788TIP3    H211329   1.424   0.744   4.927  0.6869 -0.7404  0.7766
 3789TIP3   OH211330   4.025   3.228   5.554  0.4523  0.1767  0.9873
 3789TIP3    H111331   3.956   3.234   5.489  0.1754  0.3744  1.2957
 3789TIP3    H211332   3.995   3.285   5.626  1.6518  1.5532  0.4581
 3790TIP3   OH211333   4.017   3.847   5.263 -0.4140 -0.2972 -0.1678
 3790TIP3    H111334   4.017   3.930   5.215  0.8296  0.1401  0.5264
 3790TIP3    H211335   3.935   3.847   5.312 -0.1462  0.8222  0.3111
 3791TIP3   OH211336   0.645   2.989   0.267  0.6159 -0.4279 -0.5894
 3791TIP3    H111337   0.712   3.016   0.204  0.7532 -1.3017 -0.8241
 3791TIP3    H211338   0.684   2.915   0.313 -1.2627 -2.9770 -2.7940
 3792TIP3   OH211339   6.651   1.846   2.843 -0.0999 -0.2682 -0.1071
 3792TIP3    H111340   6.691   1.931   2.827  1.6172 -1.1835 -1.0651
 3792TIP3    H211341   6.676   1.824   2.933  1.7307 -0.8556 -0.7122
 3793TIP3   OH211342   5.789   1.087   1.518  0.0475  0.1372 -0.1193
 3793TIP3    H111343   5.746   1.039   1.447  0.8010 -0.4853 -0.1654
 3793TIP3    H211344   5.875   1.046   1.526  0.4112  0.9824  0.3671
 3794TIP3   OH211345   4.399   1.967   0.003  0.2852 -0.1260  0.4964
 3794TIP3    H111346   4.485   1.978   0.045  0.8244 -4.1478  0.8459
 3794TIP3    H211347   4.406   1.884  -0.044 -3.1453 -0.1238 -0.2814
 3795TIP3   OH211348   3.463   3.800   2.310  0.1715  0.2820 -0.2614
 3795TIP3    H111349   3.459   3.875   2.251 -0.9750  0.1384 -0.3983
 3795TIP3    H211350   3.396   3.740   2.277  0.1119 -0.1769  0.6623
 3796TIP3   OH211351   1.627   3.835   4.980 -0.3199 -0.1547 -0.1037
 3796TIP3    H111352   1.668   3.752   4.954  0.5246  0.4078 -0.6637
 3796TIP3    H211353   1.646   3.843   5.073 -1.9736 -1.4349  0.3701
 3797TIP3   OH211354   3.851   0.620   3.352  0.4180  0.1119  0.3382
 3797TIP3    H111355   3.757   0.609   3.366  0.4112 -1.7196 -0.8158
 3797TIP3    H211356   3.882   0.532   3.332  1.9010  1.1000 -2.0633
 3798TIP3   OH211357   0.807   5.107   2.799  0.5172  0.1627  0.3358
 3798TIP3    H111358   0.827   5.199   2.781  3.6196 -0.2435  1.0294
 3798TIP3    H211359   0.766   5.075   2.718 -1.6794  2.3332  0.4843
 3799TIP3   OH211360   0.482   2.549   0.349 -0.4279  0.2455 -0.3320
 3799TIP3    H111361   0.459   2.460   0.322 -2.2219  0.7752 -0.6961
 3799TIP3    H211362   0.416   2.605   0.308 -1.7974  1.3576  2.9951
 3800TIP3   OH211363   5.252   1.990   5.288 -0.8043 -0.0978  0.3457
 3800TIP3    H111364   5.202   1.923   5.241 -1.9005 -0.6104  2.1076
 3800TIP3    H211365   5.336   1.995   5.242 -1.9726 -0.1564 -1.9306
 3801TIP3   OH211366   4.513   3.790   4.374 -0.1419  0.2784  0.1517
 3801TIP3    H111367   4.544   3.864   4.426 -3.4115  2.2451 -0.3966
 3801TIP3    H211368   4.432   3.822   4.333  0.1169 -2.4843 -2.9456
 3802TIP3   OH211369   0.637   3.051   0.677  0.0295  0.2128 -0.1218
 3802TIP3    H111370   0.553   3.076   0.639  0.5261  0.0050 -1.4122
 3802TIP3    H211371   0.701   3.107   0.633  0.8716 -1.5042 -1.2271
 3803TIP3   OH211372   0.886   0.938   1.366 -0.3903 -0.1833 -0.1186
 3803TIP3    H111373   0.851   0.861   1.411 -0.1842 -0.3293 -0.2049
 3803TIP3    H211374   0.917   0.995   1.436  1.0242 -0.9366 -0.1102
 3804TIP3   OH211375   4.325   6.215   3.656 -0.0038 -0.3823 -0.2123
 3804TIP3    H111376   4.412   6.181   3.677  0.7379  1.1443 -0.6944
 3804TIP3    H211377   4.266   6.166   3.713  1.2191 -1.0879  0.4864
 3805TIP3   OH211378   4.289   5.185   1.397 -1.2098  0.7905 -0.4079
 3805TIP3    H111379   4.260   5.263   1.350 -0.6915  2.0715  1.2791
 3805TIP3    H211380   4.359   5.149   1.342 -1.8356  1.1868 -1.4887
 3806TIP3   OH211381   2.081   4.572   3.460 -0.2070 -0.0842 -0.3306
 3806TIP3    H111382   2.162   4.553   3.507  0.3208  1.4695 -0.5506
 3806TIP3    H211383   2.086   4.666   3.441 -2.3218  0.1714  0.1579
 3807TIP3   OH211384   2.334   1.062   4.614  0.0232  0.3113  0.7675
 3807TIP3    H111385   2.247   1.080   4.579  0.4622  0.1536 -0.4363
 3807TIP3    H211386   2.331   0.969   4.637  0.3468 -0.0900 -0.7316
 3808TIP3   OH211387   4.296   5.119   4.807  0.5254 -0.0769 -0.0758
 3808TIP3    H111388   4.299   5.214   4.800 -0.2808 -0.1290 -1.6258
 3808TIP3    H211389   4.202   5.098   4.802  0.6326 -0.9233  1.0009
 3809TIP3   OH211390   3.997   3.098   1.803  0.3509  0.2396 -0.1927
 3809TIP3    H111391   3.905   3.073   1.813 -0.1315  1.4146 -1.3786
 3809TIP3    H211392   4.046   3.021   1.833 -1.0053 -0.4388  0.3790
 3810TIP3   OH211393   5.114   0.116   2.595 -0.5421 -0.1494  0.1680
 3810TIP3    H111394   5.045   0.130   2.530 -1.4704 -2.0102  0.7077
 3810TIP3    H211395   5.158   0.036   2.567 -0.7025 -0.7642  1.6220
 3811TIP3   OH211396   4.007   2.887   3.858 -0.3159  0.0552  0.0183
 3811TIP3    H111397   4.036   2.925   3.775  0.8337 -1.3191 -0.2466
 3811TIP3    H211398   4.007   2.961   3.920  3.1300  0.3314 -0.1364
 3812TIP3   OH211399   4.994   3.192   5.104 -0.3402  0.3936 -0.3738
 3812TIP3    H111400   5.087   3.177   5.116 -0.5405 -0.2363  0.5821
 3812TIP3    H211401   4.967   3.130   5.037 -0.5413 -1.3556  1.2358
 3813TIP3   OH211402   3.760   1.573   0.054 -0.1308 -0.2921 -0.0603
 3813TIP3    H111403   3.668   1.599   0.051 -0.4559 -1.4208 -1.8909
 3813TIP3    H211404   3.808   1.655   0.047 -0.9947  0.2663  0.2848
 3814TIP3   OH211405   4.642   2.135   3.388  0.6398  0.0007 -0.0118
 3814TIP3    H111406   4.669   2.077   3.459 -0.4978 -0.7892 -0.1935
 3814TIP3    H211407   4.586   2.200   3.430 -0.3445 -0.6880 -0.2004
 3815TIP3   OH211408   3.127   3.004   0.543 -0.0622 -0.1228 -0.2386
 3815TIP3    H111409   3.162   2.960   0.621  0.9598  0.5826 -0.2756
 3815TIP3    H211410   3.033   3.010   0.559  0.0871 -0.3253  0.7738
 3816TIP3   OH211411   1.432   1.671   5.778  0.3810  0.3329  0.0857
 3816TIP3    H111412   1.399   1.582   5.793 -0.1631 -0.0195 -2.7550
 3816TIP3    H211413   1.377   1.727   5.833  0.9948 -1.0604  2.2363
 3817TIP3   OH211414   1.949   3.954   1.150 -0.3453 -0.1311 -0.1820
 3817TIP3    H111415   2.009   3.949   1.076  0.7944  1.6962  0.5314
 3817TIP3    H211416   1.977   3.883   1.208  0.7225  0.2919 -0.1607
 3818TIP3   OH211417   0.412   5.875   0.947  0.2958  0.0023  0.0778
 3818TIP3    H111418   0.488   5.817   0.952 -0.6654 -1.5073 -1.5061
 3818TIP3    H211419   0.387   5.890   1.038  1.6763 -0.5985  0.5776
 3819TIP3   OH211420   4.800   2.575   5.495  0.1317  0.3829  0.7695
 3819TIP3    H111421   4.869   2.546   5.555  2.0293 -0.2634 -1.5378
 3819TIP3    H211422   4.840   2.647   5.445 -1.1035  0.4401 -0.1978
 3820TIP3   OH211423   5.476   0.887   3.269 -0.1316 -0.0477  0.3449
 3820TIP3    H111424   5.384   0.899   3.291 -0.2926  0.7228 -0.6583
 3820TIP3    H211425   5.491   0.793   3.277 -0.6856 -0.0385  1.6654
 3821TIP3   OH211426   6.718   0.485   3.612 -0.0295  0.1630  0.6146
 3821TIP3    H111427   6.732   0.413   3.674  0.8808 -0.0757  0.1614
 3821TIP3    H211428   6.669   0.445   3.540 -0.0873  0.1550  0.6580
 3822TIP3   OH211429   4.971   4.422   1.161 -0.0836  0.3210 -0.4772
 3822TIP3    H111430   5.048   4.474   1.185 -0.2218  0.0725  0.5737
 3822TIP3    H211431   5.003   4.332   1.156 -0.4324  0.1026  0.7470
 3823TIP3   OH211432   4.275   6.727   4.107 -0.8872  0.2491 -0.1970
 3823TIP3    H111433   4.182   6.709   4.095 -0.5045 -1.2664 -1.2947
 3823TIP3    H211434   4.309   6.739   4.018  0.2153 -0.7618  0.0593
 3824TIP3   OH211435   1.045   3.379   4.372  0.6443  0.1485 -0.2248
 3824TIP3    H111436   1.108   3.319   4.412  0.5073  1.7454  2.6119
 3824TIP3    H211437   1.086   3.465   4.377 -1.6051  1.2214  1.6024
 3825TIP3   OH211438   3.695   6.094   1.565 -0.4726  0.0856  1.3978
 3825TIP3    H111439   3.753   6.050   1.503 -0.6426  0.3695  1.0362
 3825TIP3    H211440   3.630   6.138   1.511 -0.9268 -0.0830  1.7946
 3826TIP3   OH211441   5.427   2.427   2.775 -0.2197 -0.4577 -0.6708
 3826TIP3    H111442   5.431   2.416   2.680  0.8182 -1.0635 -0.5764
 3826TIP3    H211443   5.421   2.522   2.788  2.9692 -0.0463 -1.3311
 3827TIP3   OH211444   6.167   3.915   1.772  0.0988 -0.2548  0.7902
 3827TIP3    H111445   6.131   3.828   1.753  0.2521 -0.7369  2.5409
 3827TIP3    H211446   6.177   3.916   1.867  0.4948  1.5401  0.7542
 3828TIP3   OH211447   4.863   3.384   3.044  0.3134  0.2803 -0.2006
 3828TIP3    H111448   4.870   3.335   3.126 -1.2944 -1.9911 -1.3194
 3828TIP3    H211449   4.949   3.423   3.032  0.9118 -0.1920  2.0232
 3829TIP3   OH211450   6.151   6.170   1.970  0.0301  0.1422 -0.0767
 3829TIP3    H111451   6.181   6.093   2.018 -2.1979 -1.4657 -1.1044
 3829TIP3    H211452   6.221   6.188   1.908  1.3598  0.0788  1.3243
 3830TIP3   OH211453   2.233   1.923   2.420 -0.0259  0.4120  0.4255
 3830TIP3    H111454   2.307   1.886   2.372 -0.2364  0.2068  0.2592
 3830TIP3    H211455   2.257   1.913   2.512 -0.6744 -1.4097  0.4361
 3831TIP3   OH211456   1.975   1.907   1.055 -0.0329 -0.2196  0.4609
 3831TIP3    H111457   1.975   2.002   1.071  1.2484  0.0863 -1.1048
 3831TIP3    H211458   2.016   1.870   1.133  1.8464  0.7799  0.0072
 3832TIP3   OH211459   0.397   1.868   0.394 -0.6699  0.9614 -0.1703
 3832TIP3    H111460   0.352   1.951   0.411 -1.5041  0.5991 -0.5888
 3832TIP3    H211461   0.372   1.844   0.305  0.1370  0.6095 -0.3143
 3833TIP3   OH211462   5.182   3.828   1.460 -0.1651 -0.3522  0.2574
 3833TIP3    H111463   5.220   3.778   1.388 -0.4715 -0.0995 -0.0861
 3833TIP3    H211464   5.090   3.802   1.462 -0.4681  0.5983 -0.2945
 3834TIP3   OH211465   6.763   4.491   3.280 -0.0255 -0.3233 -0.0963
 3834TIP3    H111466   6.686   4.453   3.238  0.0187 -0.3048 -0.1938
 3834TIP3    H211467   6.822   4.417   3.293 -0.4198 -0.4975  0.7832
 3835TIP3   OH211468   4.814   5.783   2.891  0.4017  0.2827  0.6809
 3835TIP3    H111469   4.736   5.770   2.945  0.6191 -0.0897  0.9045
 3835TIP3    H211470   4.887   5.750   2.944  0.3536 -2.4341 -0.7444
 3836TIP3   OH211471   4.108   6.660   0.825  0.1860  0.8491  0.0510
 3836TIP3    H111472   4.039   6.605   0.788  3.6350 -4.5638  0.5337
 3836TIP3    H211473   4.090   6.662   0.919  0.2631  0.0879  0.0861
 3837TIP3   OH211474   0.928   1.838   2.447  0.3900 -0.7432 -0.5597
 3837TIP3    H111475   0.850   1.807   2.400  0.2069  0.0932 -0.8419
 3837TIP3    H211476   0.904   1.926   2.477  0.7363 -1.0097  0.5618
 3838TIP3   OH211477   3.217   0.192   4.472 -0.1774  0.7311 -0.5223
 3838TIP3    H111478   3.279   0.179   4.400  0.0694  1.4511 -0.4511
 3838TIP3    H211479   3.132   0.201   4.428  0.1248  2.3345 -0.8436
 3839TIP3   OH211480   5.315   1.429   0.890  0.2771  0.0389  0.0317
 3839TIP3    H111481   5.248   1.485   0.931  0.3895 -0.3468  0.7521
 3839TIP3    H211482   5.370   1.490   0.841  0.0593  0.5002  0.3497
 3840TIP3   OH211483   1.639   2.515   3.771 -0.3478 -0.2640 -0.1018
 3840TIP3    H111484   1.680   2.433   3.798  1.9605  0.5403 -0.9027
 3840TIP3    H211485   1.599   2.550   3.851  0.7884 -0.9917  0.8094
 3841TIP3   OH211486   4.873   0.132   3.770  0.1808 -0.2368 -0.7176
 3841TIP3    H111487   4.784   0.163   3.750 -0.2611 -0.5180  0.7317
 3841TIP3    H211488   4.861   0.039   3.792  0.6275  0.0320  0.7541
 3842TIP3   OH211489   3.038   0.075   3.320  0.2938 -0.0505  0.1819
 3842TIP3    H111490   2.967   0.096   3.379  0.1442  1.6605 -0.5356
 3842TIP3    H211491   3.088   0.008   3.365 -1.5959 -1.0929  0.8214
 3843TIP3   OH211492   4.058   2.897   5.151  0.1763 -0.3453 -0.0659
 3843TIP3    H111493   4.060   2.882   5.057 -0.6427 -0.0898 -0.1365
 3843TIP3    H211494   3.997   2.831   5.185  0.8299 -0.7418  0.3510
 3844TIP3   OH211495   2.426   2.828   4.933 -0.1577 -0.2170 -0.2260
 3844TIP3    H111496   2.470   2.837   5.017 -0.5762  0.2964 -0.0637
 3844TIP3    H211497   2.498   2.830   4.869  0.1252 -0.2108  0.0880
 3845TIP3   OH211498   1.203   4.090   2.285 -0.1528  0.2939  0.1070
 3845TIP3    H111499   1.148   4.085   2.364 -1.3631  1.6697 -0.5893
 3845TIP3    H211500   1.282   4.042   2.308 -0.3975  0.7926  2.2228
 3846TIP3   OH211501   4.174   0.549   5.140 -0.2534  0.1700 -0.1602
 3846TIP3    H111502   4.258   0.540   5.093 -0.4342 -1.8860 -0.1467
 3846TIP3    H211503   4.124   0.611   5.086  1.3363  1.6325 -0.0356
 3847TIP3   OH211504   6.433   0.257   5.776  0.0929 -0.3118  0.2058
 3847TIP3    H111505   6.518   0.300   5.789 -0.6471  1.0632  0.6766
 3847TIP3    H211506   6.421   0.204   5.855  0.0940  0.2179  0.5618
 3848TIP3   OH211507   4.096   4.813   4.293  0.4546 -0.5144  0.4573
 3848TIP3    H111508   4.116   4.900   4.259  0.7573 -1.9970 -3.7232
 3848TIP3    H211509   4.176   4.788   4.340  1.1381  0.6995  0.0089
 3849TIP3   OH211510   2.844   4.968   0.649 -0.3464 -0.7211  0.1687
 3849TIP3    H111511   2.916   4.911   0.675 -0.4941 -0.2477  1.7580
 3849TIP3    H211512   2.826   4.945   0.558  3.3777  0.7853 -1.1421
 3850TIP3   OH211513   5.725   4.666   3.677  0.1361 -0.0031 -0.2006
 3850TIP3    H111514   5.755   4.657   3.587 -0.8583 -0.6332 -0.4854
 3850TIP3    H211515   5.804   4.661   3.730  0.6079 -0.8595 -0.9702
 3851TIP3   OH211516   0.904   3.786   4.300 -0.2560 -0.1917 -0.8585
 3851TIP3    H111517   0.846   3.711   4.315 -0.2653 -0.3861 -1.8480
 3851TIP3    H211518   0.849   3.851   4.256  0.3041 -0.4232 -1.9187
 3852TIP3   OH211519  -0.026   4.035   4.776 -0.0697 -0.6082 -0.3530
 3852TIP3    H111520   0.008   4.023   4.865  1.3394  3.3402 -0.1424
 3852TIP3    H211521   0.029   3.979   4.722 -0.1777 -2.2034  1.1047
 3853TIP3   OH211522   5.815   4.893   2.930 -0.5625  0.4495 -0.1553
 3853TIP3    H111523   5.861   4.846   2.860 -1.9472  2.0871 -2.3018
 3853TIP3    H211524   5.754   4.829   2.965  1.5538 -1.0239  1.0860
 3854TIP3   OH211525   6.342   1.039   1.135  0.1469  0.3533 -0.1089
 3854TIP3    H111526   6.381   0.974   1.193  2.0820  1.0186 -0.5997
 3854TIP3    H211527   6.366   1.123   1.174 -0.6665  0.7904 -0.5348
 3855TIP3   OH211528   4.418   2.312   5.470 -0.4351 -0.0766  0.0188
 3855TIP3    H111529   4.405   2.403   5.443 -1.0834  0.0033  0.5668
 3855TIP3    H211530   4.351   2.297   5.538  1.5318 -0.0626  2.0697
 3856TIP3   OH211531   6.886   4.187   1.527 -0.5398  0.3453  0.1413
 3856TIP3    H111532   6.795   4.189   1.556 -0.9401 -1.5418 -0.8330
 3856TIP3    H211533   6.881   4.174   1.432  0.7601  1.2213 -0.0790
 3857TIP3   OH211534   4.922   0.622   0.037 -0.6925 -0.2635 -0.1653
 3857TIP3    H111535   4.838   0.653   0.003 -0.5686 -0.0462 -0.2761
 3857TIP3    H211536   4.899   0.554   0.100 -0.9531 -0.1892 -0.1792
 3858TIP3   OH211537   2.004   6.085   1.001  0.1240  0.5470  0.3077
 3858TIP3    H111538   1.992   6.158   0.939  0.8734  0.4838  0.0848
 3858TIP3    H211539   1.937   6.022   0.976 -0.1765  0.9222  0.1517
 3859TIP3   OH211540   6.376   4.427   1.473  0.0250  0.0057  0.1619
 3859TIP3    H111541   6.468   4.453   1.485  0.1039 -0.6544  1.1412
 3859TIP3    H211542   6.357   4.373   1.550 -1.3227  0.5042  0.1947
 3860TIP3   OH211543   4.124   1.524   0.907 -0.0743  0.3040  0.2944
 3860TIP3    H111544   4.160   1.451   0.857 -1.0009  0.4944 -0.6874
 3860TIP3    H211545   4.029   1.517   0.895 -0.1572  1.8678 -0.1310
 3861TIP3   OH211546   4.238   2.449   2.402 -0.2728 -0.1577  0.0123
 3861TIP3    H111547   4.318   2.465   2.452 -0.4684 -0.5667  0.4699
 3861TIP3    H211548   4.196   2.535   2.395  0.2068  0.0562 -0.2331
 3862TIP3   OH211549   1.527   4.154   4.138  0.3865 -0.0217 -0.9515
 3862TIP3    H111550   1.446   4.170   4.187  0.9365  1.5890 -0.5151
 3862TIP3    H211551   1.573   4.088   4.190 -0.5401 -0.8114 -1.0989
 3863TIP3   OH211552   1.419   3.982   2.419  0.5535 -0.1460 -0.5736
 3863TIP3    H111553   1.382   4.041   2.485 -2.7985  0.0855 -2.4284
 3863TIP3    H211554   1.469   3.918   2.470 -1.4869  0.2470  2.2199
 3864TIP3   OH211555   6.080   2.951   3.193  0.1793 -0.2973  0.7450
 3864TIP3    H111556   6.036   3.032   3.167  1.3264  0.2456  0.4459
 3864TIP3    H211557   6.089   2.902   3.111  1.2937  0.1830  0.5621
 3865TIP3   OH211558   2.437   3.607   0.172  0.4601 -0.0126  0.2291
 3865TIP3    H111559   2.362   3.652   0.133 -0.4958  1.1362  3.1200
 3865TIP3    H211560   2.500   3.598   0.100 -1.9656 -0.0417 -2.0414
 3866TIP3   OH211561   1.614   0.896   1.826  0.0026 -0.2482 -0.0798
 3866TIP3    H111562   1.548   0.828   1.839 -0.0355 -0.7152 -2.2496
 3866TIP3    H211563   1.570   0.960   1.769  1.8755 -1.4436 -3.0911
 3867TIP3   OH211564   5.682   5.238   1.391  0.3715 -0.0815 -0.5735
 3867TIP3    H111565   5.677   5.271   1.301  0.5712  0.1781 -0.4900
 3867TIP3    H211566   5.597   5.261   1.429  0.4943  0.2984 -0.5283
 3868TIP3   OH211567  -0.009   5.605   2.049 -1.1580  0.0376  0.7629
 3868TIP3    H111568  -0.049   5.518   2.055 -2.4992  0.2388 -2.8454
 3868TIP3    H211569   0.063   5.594   1.987 -0.4105  1.2180  1.3980
 3869TIP3   OH211570   3.904   0.478   5.416 -0.1759 -0.0196 -0.5282
 3869TIP3    H111571   3.997   0.457   5.415  0.0092  0.7768 -1.1982
 3869TIP3    H211572   3.889   0.517   5.502 -0.2440 -1.5723  0.2061
 3870TIP3   OH211573   0.144   5.407   2.706 -0.4905  0.5183  0.1879
 3870TIP3    H111574   0.127   5.407   2.612 -0.1664  0.9666  0.1241
 3870TIP3    H211575   0.204   5.481   2.720  1.8580 -1.2687  0.2941
 3871TIP3   OH211576   5.766   2.576   5.851  0.2437  0.2310 -0.4758
 3871TIP3    H111577   5.726   2.549   5.933 -0.8536 -1.1801 -1.4219
 3871TIP3    H211578   5.766   2.497   5.797  1.9516  0.8450 -1.4653
 3872TIP3   OH211579   5.929   5.612   5.794 -0.5780  0.1241 -0.5049
 3872TIP3    H111580   6.015   5.644   5.820 -0.0841 -0.7015 -1.0897
 3872TIP3    H211581   5.940   5.518   5.785 -1.2578  0.1324 -1.6564
 3873TIP3   OH211582   3.173   0.335   1.433  0.5898  1.0072 -0.7115
 3873TIP3    H111583   3.235   0.393   1.390 -0.3611  2.5099 -0.1367
 3873TIP3    H211584   3.116   0.393   1.483  2.1776 -0.6016  3.4026
 3874TIP3   OH211585   3.151   2.859   4.644  1.0927  0.2659 -0.4115
 3874TIP3    H111586   3.110   2.909   4.714 -0.8887 -0.0937 -1.2475
 3874TIP3    H211587   3.223   2.914   4.613  0.4554  1.5047  0.2718
 3875TIP3   OH211588   4.606   0.711   1.983  0.0813  0.0098 -0.5796
 3875TIP3    H111589   4.543   0.780   2.006  1.1622  0.3003  1.8647
 3875TIP3    H211590   4.681   0.759   1.948 -0.7297 -0.2874 -2.8390
 3876TIP3   OH211591   3.313   0.504   4.642  0.4036 -0.6623 -0.0063
 3876TIP3    H111592   3.302   0.590   4.601 -1.2561 -0.8326  0.0304
 3876TIP3    H211593   3.278   0.442   4.578  3.7476 -1.6395 -1.1068
 3877TIP3   OH211594   6.433   4.855   2.241 -0.6590  0.0719 -0.0645
 3877TIP3    H111595   6.446   4.948   2.259 -0.0746 -0.0115 -0.0192
 3877TIP3    H211596   6.468   4.810   2.318  0.2003 -0.2196 -0.6015
 3878TIP3   OH211597   4.098   5.703   4.394  0.3847 -0.3556  0.1343
 3878TIP3    H111598   4.062   5.781   4.353  2.3357  0.0395 -0.9656
 3878TIP3    H211599   4.185   5.693   4.354  0.2524 -3.0165  0.3054
 3879TIP3   OH211600   4.240   4.773   4.918 -0.0373 -1.0881  0.1499
 3879TIP3    H111601   4.189   4.851   4.938  1.8872  0.3231 -0.2334
 3879TIP3    H211602   4.174   4.709   4.889 -1.7772 -0.0081  1.5151
 3880TIP3   OH211603   1.240   2.440   3.444  0.0718 -0.4248  0.5016
 3880TIP3    H111604   1.250   2.460   3.537  0.2247 -0.4218  0.4841
 3880TIP3    H211605   1.154   2.398   3.438 -0.4449  0.6147  0.4767
 3881TIP3   OH211606   7.139   6.115   4.828  0.1186  0.2970  0.3106
 3881TIP3    H111607   7.057   6.158   4.806  0.6925  0.5009 -1.7332
 3881TIP3    H211608   7.175   6.166   4.900 -0.5095  1.5678 -0.2477
 3882TIP3   OH211609   3.940   3.482   5.158 -0.1441  0.4319 -0.1642
 3882TIP3    H111610   3.894   3.507   5.238  0.5765 -0.1866  0.4615
 3882TIP3    H211611   4.023   3.531   5.163  0.4721 -0.6070  0.1478
 3883TIP3   OH211612   4.494   5.992   5.747 -0.0272  0.0051 -0.1045
 3883TIP3    H111613   4.412   6.040   5.737  0.4264  0.6147 -1.0411
 3883TIP3    H211614   4.535   5.995   5.661  1.2402  0.1787  0.4765
 3884TIP3   OH211615   3.882   3.371   4.156 -0.5793  0.2072  0.7348
 3884TIP3    H111616   3.804   3.405   4.198 -0.7246 -0.3485  0.9207
 3884TIP3    H211617   3.888   3.420   4.074 -1.1006  0.2769  0.7352
 3885TIP3   OH211618   1.066   5.453   4.399  0.1485 -0.5484  0.4340
 3885TIP3    H111619   1.077   5.365   4.435 -0.5698  0.0898  2.2999
 3885TIP3    H211620   0.979   5.480   4.428  0.9699  1.3693  1.2505
 3886TIP3   OH211621   6.417   5.931   1.689 -0.0059 -0.2361 -0.4705
 3886TIP3    H111622   6.396   5.981   1.768  0.8489 -1.0139  0.2890
 3886TIP3    H211623   6.333   5.902   1.656 -0.3896  0.2223  0.0828
 3887TIP3   OH211624   6.705   4.422   1.380  0.3287 -0.6881  0.0111
 3887TIP3    H111625   6.697   4.514   1.404 -0.1842 -1.1186  1.6025
 3887TIP3    H211626   6.774   4.420   1.313  0.6296  0.7933  0.2556
 3888TIP3   OH211627   2.444   5.275   2.254 -0.5313  0.5538  0.5434
 3888TIP3    H111628   2.455   5.310   2.343  1.7607  1.4743 -0.0212
 3888TIP3    H211629   2.465   5.348   2.197 -0.9657 -0.3142 -0.7762
 3889TIP3   OH211630   3.916   0.041   3.145 -0.5844 -0.4755 -0.1128
 3889TIP3    H111631   3.841  -0.012   3.172 -2.3314  2.0500  0.3269
 3889TIP3    H211632   3.927   0.105   3.216  1.3987 -0.1604 -0.6337
 3890TIP3   OH211633   1.183   2.108   4.097  0.3055 -0.0279 -0.5558
 3890TIP3    H111634   1.241   2.166   4.046  1.8733 -0.1425  0.9981
 3890TIP3    H211635   1.096   2.146   4.087  1.0488  1.6800 -0.8911
 3891TIP3   OH211636   3.675   6.406   5.658 -1.1741  0.0139 -0.0833
 3891TIP3    H111637   3.614   6.477   5.637 -0.8371 -0.0544 -1.4180
 3891TIP3    H211638   3.702   6.373   5.572  2.0046  1.0976  0.3821
 3892TIP3   OH211639   0.479   6.060   0.082  0.7026  0.1735 -0.2206
 3892TIP3    H111640   0.501   6.004   0.007 -1.1819  0.6925 -1.2039
 3892TIP3    H211641   0.391   6.092   0.064  0.9736  1.9207  1.2752
 3893TIP3   OH211642   3.161   3.808   3.207  0.4872 -0.1001  0.2501
 3893TIP3    H111643   3.207   3.756   3.272 -0.1899 -2.2947 -0.9374
 3893TIP3    H211644   3.069   3.785   3.217  0.3631 -0.5238 -1.4561
 3894TIP3   OH211645   3.729   5.962   2.902  0.1660  0.2318 -0.6982
 3894TIP3    H111646   3.666   6.017   2.857 -0.6928 -1.2223 -1.3057
 3894TIP3    H211647   3.800   5.949   2.839 -0.7891 -1.3673 -1.4774
 3895TIP3   OH211648   2.820   1.114   4.673 -0.2262 -0.1798 -1.1046
 3895TIP3    H111649   2.893   1.170   4.700 -0.1880 -0.4736 -0.5881
 3895TIP3    H211650   2.840   1.028   4.710 -1.3957  0.0072  0.0106
 3896TIP3   OH211651   4.845   4.099   5.280  0.0071  0.5316  0.5096
 3896TIP3    H111652   4.929   4.089   5.237  1.5435 -0.1530  3.4238
 3896TIP3    H211653   4.836   4.193   5.296  0.8107  0.4988  1.2068
 3897TIP3   OH211654   0.155   3.387   3.370 -0.1495  0.4299  0.3812
 3897TIP3    H111655   0.159   3.309   3.425  0.7786  0.2433  0.0674
 3897TIP3    H211656   0.061   3.403   3.358 -0.3726 -1.0174 -0.0767
 3898TIP3   OH211657   6.041   0.704   4.472  0.2190 -0.3041  0.6625
 3898TIP3    H111658   6.025   0.797   4.459 -0.9188 -0.7893 -1.9507
 3898TIP3    H211659   5.954   0.666   4.483  0.3353 -1.4242 -1.6458
 3899TIP3   OH211660   5.426   0.146   2.433 -0.1441  0.1142 -0.6976
 3899TIP3    H111661   5.411   0.067   2.484 -0.5022  0.5161 -0.1649
 3899TIP3    H211662   5.361   0.143   2.363 -1.8828  1.1519  0.7824
 3900TIP3   OH211663   1.288   5.087   1.230 -0.2397  0.2417 -0.4104
 3900TIP3    H111664   1.349   5.016   1.208 -1.0687 -1.2941  1.8815
 3900TIP3    H211665   1.266   5.126   1.145  0.9960 -1.6176 -1.6773
 3901TIP3   OH211666   2.740   0.256   1.772  0.6675 -0.1936  0.2010
 3901TIP3    H111667   2.746   0.216   1.686 -0.5625 -0.8230  0.3749
 3901TIP3    H211668   2.646   0.269   1.786  0.9612  1.9224  0.5490
 3902TIP3   OH211669   5.814   1.639   4.800  0.5771 -0.1148 -0.1018
 3902TIP3    H111670   5.830   1.733   4.787 -0.1561  0.2241  1.3391
 3902TIP3    H211671   5.783   1.632   4.890 -1.0139 -1.5398 -0.7268
 3903TIP3   OH211672   4.601   4.197   2.375 -0.3928  0.0416  0.2228
 3903TIP3    H111673   4.546   4.258   2.327  0.0589 -1.9382 -3.1123
 3903TIP3    H211674   4.569   4.202   2.465 -1.7626  3.5072 -0.3139
 3904TIP3   OH211675   3.882   3.342   1.777  0.5070 -0.2315  0.0379
 3904TIP3    H111676   3.923   3.411   1.830  0.3406 -1.2863  1.6221
 3904TIP3    H211677   3.945   3.270   1.778 -0.7074 -1.3555  1.3412
 3905TIP3   OH211678   0.244   0.817   4.348 -0.2038 -0.2819 -0.6405
 3905TIP3    H111679   0.292   0.736   4.330  0.3216 -0.0924 -0.1306
 3905TIP3    H211680   0.225   0.853   4.261 -1.1543 -1.3472 -0.9031
 3906TIP3   OH211681   3.856   1.310   2.643  0.1753 -0.4469 -0.2559
 3906TIP3    H111682   3.921   1.256   2.599  1.9715  0.2197  1.4141
 3906TIP3    H211683   3.892   1.399   2.639 -0.4415 -0.1179  1.0126
 3907TIP3   OH211684   5.585   1.492   3.196  0.1704  0.3116  0.3163
 3907TIP3    H111685   5.675   1.458   3.191  1.0153  2.3567  0.2709
 3907TIP3    H211686   5.582   1.559   3.128 -0.6178  1.8826  1.8091
 3908TIP3   OH211687   4.612   4.674   3.436 -0.0627 -0.4576 -0.4662
 3908TIP3    H111688   4.661   4.708   3.511 -0.9453  0.1526 -0.1452
 3908TIP3    H211689   4.547   4.742   3.418 -0.3470 -0.9441 -1.3073
 3909TIP3   OH211690   1.575   2.293   1.233  0.0623 -0.3485 -0.5778
 3909TIP3    H111691   1.627   2.236   1.291  0.8191  1.1787  0.2943
 3909TIP3    H211692   1.484   2.277   1.259  0.3523 -0.1488  0.6096
 3910TIP3   OH211693   1.197   2.643   2.658 -0.4848  0.1158 -0.2410
 3910TIP3    H111694   1.199   2.729   2.617 -0.1816  0.4716  0.4978
 3910TIP3    H211695   1.105   2.628   2.680 -0.3240  1.0668  1.2631
 3911TIP3   OH211696   1.753   2.661   3.385 -0.1314  0.1112  0.4654
 3911TIP3    H111697   1.836   2.704   3.364 -0.2274  0.5977  1.0502
 3911TIP3    H211698   1.695   2.733   3.409 -1.1786 -0.0838 -1.3638
 3912TIP3   OH211699   6.882   5.248   4.126 -0.1341  0.5152  0.5939
 3912TIP3    H111700   6.847   5.185   4.189 -1.9457 -0.8122 -1.5853
 3912TIP3    H211701   6.944   5.199   4.073  0.9380  1.4604  0.9353
 3913TIP3   OH211702   6.337   3.297   0.408 -0.1034  0.2328  0.1496
 3913TIP3    H111703   6.355   3.279   0.500 -0.4017  0.8858  0.3392
 3913TIP3    H211704   6.391   3.373   0.387  1.5819 -1.1408 -0.8036
 3914TIP3   OH211705   1.689   2.394   5.068 -0.6915  0.2689 -0.1037
 3914TIP3    H111706   1.761   2.358   5.016  1.4967  3.4432  0.4721
 3914TIP3    H211707   1.666   2.325   5.129  1.2803 -1.1455 -0.8745
 3915TIP3   OH211708   6.421   6.036   4.705  0.1906  0.1503  0.4000
 3915TIP3    H111709   6.437   6.062   4.795  0.4988  1.1490  0.0616
 3915TIP3    H211710   6.431   5.940   4.706  1.6351  0.2767  1.1334
 3916TIP3   OH211711   0.645   1.532   0.522  0.2924  0.0574  0.3414
 3916TIP3    H111712   0.597   1.452   0.501 -1.6088  0.8956  1.2579
 3916TIP3    H211713   0.678   1.519   0.611 -1.5293  0.9204  1.1844
 3917TIP3   OH211714   6.803   5.911   1.757  0.0428  0.1929  0.0603
 3917TIP3    H111715   6.747   5.931   1.681 -0.1680  0.6839  0.3417
 3917TIP3    H211716   6.845   5.828   1.734 -0.2544  0.1812 -0.4645
 3918TIP3   OH211717   1.250   1.961   2.296 -0.3473 -0.6359  0.1750
 3918TIP3    H111718   1.226   2.041   2.342 -1.7891 -0.3624 -0.9714
 3918TIP3    H211719   1.336   1.938   2.331 -0.1506  1.0907  0.9325
 3919TIP3   OH211720   4.363   1.967   1.695 -0.3109 -0.2567  0.0228
 3919TIP3    H111721   4.309   2.042   1.669 -1.4435 -1.4952 -1.3273
 3919TIP3    H211722   4.394   1.929   1.613  1.3293 -0.5338  0.7245
 3920TIP3   OH211723   6.576   4.799   0.489 -0.2959  0.3343  0.0296
 3920TIP3    H111724   6.572   4.711   0.452 -2.3699  0.3703  0.0473
 3920TIP3    H211725   6.628   4.849   0.426  2.4215 -1.2323  0.8712
 3921TIP3   OH211726   0.126   1.491   1.324 -0.1736 -0.3572  0.3582
 3921TIP3    H111727   0.170   1.498   1.408  3.0292  1.4112 -1.3037
 3921TIP3    H211728   0.074   1.411   1.331 -0.0620 -0.2714  3.9510
 3922TIP3   OH211729   4.761   1.016   4.148  0.2547 -0.6662  0.0518
 3922TIP3    H111730   4.677   0.978   4.174  0.3625 -0.8450  0.1472
 3922TIP3    H211731   4.739   1.100   4.108  0.1157 -0.1597  1.1490
 3923TIP3   OH211732   5.771   3.482   5.879  0.2790 -0.2092 -0.0627
 3923TIP3    H111733   5.759   3.397   5.921 -2.1180  0.3892  0.6180
 3923TIP3    H211734   5.816   3.462   5.797  0.8729 -1.9658  0.6431
 3924TIP3   OH211735   0.345   3.423   5.877 -0.0042  0.3766 -0.2645
 3924TIP3    H111736   0.337   3.515   5.853 -1.6125  0.6957  1.2226
 3924TIP3    H211737   0.308   3.376   5.802 -0.4864  1.0320 -0.4510
 3925TIP3   OH211738   3.573   4.922   2.927 -0.3025 -0.3446 -0.5748
 3925TIP3    H111739   3.575   4.828   2.909  1.9050 -0.3469 -0.5255
 3925TIP3    H211740   3.641   4.936   2.993 -2.0540  1.0052  1.0741
 3926TIP3   OH211741   5.800   6.178   0.087  0.5886  0.0606  0.2162
 3926TIP3    H111742   5.835   6.094   0.056  2.2738 -0.6044  3.4274
 3926TIP3    H211743   5.727   6.154   0.145 -0.3263  0.9902 -0.5127
 3927TIP3   OH211744   1.126   1.540   2.455 -0.0568  0.3304  0.1387
 3927TIP3    H111745   1.154   1.494   2.534 -1.7086 -3.3788 -1.1714
 3927TIP3    H211746   1.032   1.520   2.448 -0.0436  0.8230 -2.5209
 3928TIP3   OH211747   1.027   4.628   1.017 -0.1188  0.5150 -0.6908
 3928TIP3    H111748   1.047   4.548   1.065  1.9646  0.9030 -0.8326
 3928TIP3    H211749   1.065   4.698   1.070 -1.7229  1.4413 -0.6788
 3929TIP3   OH211750   6.917   3.923   4.400  0.3741  0.5534  0.1814
 3929TIP3    H111751   6.835   3.884   4.370  0.0646  0.8137  0.6657
 3929TIP3    H211752   6.895   4.015   4.417  0.8570  0.7154 -0.0291
 3930TIP3   OH211753   4.066   6.230   0.929 -0.5880  0.4251 -0.0691
 3930TIP3    H111754   4.082   6.249   1.022  0.6535  0.2754 -0.2330
 3930TIP3    H211755   4.117   6.150   0.912  0.3823  1.2558 -1.2235
 3931TIP3   OH211756   2.617   0.701   0.181  0.0403  0.0097  0.2734
 3931TIP3    H111757   2.659   0.633   0.233  0.7550  0.5798  0.4654
 3931TIP3    H211758   2.526   0.672   0.172  0.3170 -0.9198  0.4121
 3932TIP3   OH211759   0.514   1.549   4.868 -0.1406  0.3714 -0.2861
 3932TIP3    H111760   0.529   1.534   4.775 -2.1756 -0.3523 -0.5599
 3932TIP3    H211761   0.579   1.494   4.913 -0.5487 -1.0047 -1.3098
 3933TIP3   OH211762   3.495   3.818   1.905 -0.1083 -0.2103 -0.1913
 3933TIP3    H111763   3.433   3.773   1.963 -0.0171 -0.3246 -0.1807
 3933TIP3    H211764   3.447   3.833   1.824  0.7737 -3.2466 -1.4393
 3934TIP3   OH211765   3.778   1.278   2.907  0.4564  0.6699  0.2596
 3934TIP3    H111766   3.802   1.357   2.955  0.0503  0.4620  0.8083
 3934TIP3    H211767   3.838   1.276   2.832  0.2341  1.6898  0.0381
 3935TIP3   OH211768   1.698   3.170   5.378 -0.4140  0.1474 -0.7656
 3935TIP3    H111769   1.678   3.146   5.287 -0.6392 -1.1090 -0.4069
 3935TIP3    H211770   1.631   3.125   5.429  0.2653  0.1052  0.0976
 3936TIP3   OH211771   4.407   3.594   1.738  0.0847 -0.0272  0.3553
 3936TIP3    H111772   4.312   3.593   1.726  0.3119 -3.1585 -2.7266
 3936TIP3    H211773   4.441   3.631   1.657  1.5266 -0.9029  0.5259
 3937TIP3   OH211774   4.863   2.608   0.082  0.0049  0.5117  0.2929
 3937TIP3    H111775   4.901   2.676   0.028  0.5039  0.1764  0.2137
 3937TIP3    H211776   4.791   2.573   0.029 -0.0369  0.7465  0.1941
 3938TIP3   OH211777   2.466   0.328   4.214  0.3275  0.4701  0.1440
 3938TIP3    H111778   2.495   0.244   4.177  1.6293  0.7883  0.4042
 3938TIP3    H211779   2.535   0.352   4.276 -1.4304  0.3106  2.2939
 3939TIP3   OH211780   5.598   2.064   2.079 -0.3477 -0.2172 -0.2488
 3939TIP3    H111781   5.593   2.109   2.163 -0.3922 -0.9306  0.1458
 3939TIP3    H211782   5.571   2.129   2.015  0.0349  0.4435  0.2477
 3940TIP3   OH211783   3.589   6.002   1.846 -0.2746 -0.0166  0.2264
 3940TIP3    H111784   3.495   6.005   1.833 -0.3584  2.0985  0.8571
 3940TIP3    H211785   3.625   6.009   1.757 -0.5629 -4.3105 -0.4294
 3941TIP3   OH211786   0.910   0.161   3.569 -0.5168 -0.2387 -0.3341
 3941TIP3    H111787   0.954   0.210   3.638 -0.1184  0.4721 -1.0809
 3941TIP3    H211788   0.980   0.116   3.523 -0.5351  0.8809 -1.5113
 3942TIP3   OH211789   0.409   0.375   2.931  0.2030 -0.0095 -0.6023
 3942TIP3    H111790   0.500   0.393   2.956  0.3700 -2.7671  1.2141
 3942TIP3    H211791   0.360   0.380   3.013 -1.1927  0.7254 -1.4481
 3943TIP3   OH211792   6.379   1.375   1.142 -0.1812  0.2738  0.0349
 3943TIP3    H111793   6.447   1.411   1.199  1.5420  0.2374 -1.8903
 3943TIP3    H211794   6.327   1.319   1.199  2.0503 -0.5182  1.3963
 3944TIP3   OH211795   6.048   4.392   5.722  0.2508  0.0140 -0.0467
 3944TIP3    H111796   6.015   4.473   5.762 -0.0323 -0.2483  0.2658
 3944TIP3    H211797   6.090   4.346   5.795  1.9136  0.6373 -0.5777
 3945TIP3   OH211798   4.921   4.226   2.032  0.2343  0.5392 -0.7162
 3945TIP3    H111799   4.983   4.222   2.105  1.2950 -0.6705 -1.6315
 3945TIP3    H211800   4.975   4.217   1.954 -1.2187 -3.7545 -1.5076
 3946TIP3   OH211801   1.979   3.752   1.354  0.0837 -0.2774 -0.2967
 3946TIP3    H111802   2.019   3.665   1.360  0.7073  0.0865  1.3332
 3946TIP3    H211803   1.909   3.751   1.419  1.9837  1.3446  1.9289
 3947TIP3   OH211804   5.245   2.887   5.137 -0.0367 -0.4116 -0.4063
 3947TIP3    H111805   5.227   2.976   5.105  0.0834  0.6899  2.2550
 3947TIP3    H211806   5.236   2.831   5.060 -1.2170  1.7650 -1.9717
 3948TIP3   OH211807   2.987   0.672   5.685 -0.3665 -0.0353 -0.2699
 3948TIP3    H111808   2.948   0.716   5.610 -0.8049  0.7295  0.3919
 3948TIP3    H211809   3.069   0.719   5.701 -0.7560  0.4488  0.3364
 3949TIP3   OH211810   5.648   0.927   5.219  0.0663 -0.3360  0.5690
 3949TIP3    H111811   5.576   0.948   5.160 -1.6290 -1.1838  2.1980
 3949TIP3    H211812   5.677   0.840   5.192  2.3470  1.0353 -1.7475
 3950TIP3   OH211813   3.455   4.480   0.520  0.3677 -0.7618  0.0006
 3950TIP3    H111814   3.461   4.575   0.520  0.6404 -0.7736 -0.3179
 3950TIP3    H211815   3.394   4.459   0.449 -0.0526 -0.8075  0.3747
 3951TIP3   OH211816   5.966   2.973   3.445  0.1883  0.0701  0.5208
 3951TIP3    H111817   6.025   2.908   3.482 -1.6144 -0.9685  1.6918
 3951TIP3    H211818   5.984   2.970   3.351  1.0277 -1.1911  0.6941
 3952TIP3   OH211819   3.531   5.726   5.301  0.0444 -0.1569  0.3073
 3952TIP3    H111820   3.521   5.805   5.354 -1.0546 -0.3258  0.3734
 3952TIP3    H211821   3.465   5.666   5.335  1.1083 -1.2557  0.4987
 3953TIP3   OH211822   6.108   4.489   0.766 -0.2929 -0.1305 -0.0715
 3953TIP3    H111823   6.048   4.559   0.792  2.1196  1.3908  1.9230
 3953TIP3    H211824   6.104   4.426   0.837  0.1833 -0.1904 -0.0942
 3954TIP3   OH211825   3.762   1.375   3.644  0.2363  0.2161 -0.4138
 3954TIP3    H111826   3.678   1.343   3.678  0.2695  1.1268  0.5741
 3954TIP3    H211827   3.815   1.297   3.632 -0.4342 -0.2864 -0.1462
 3955TIP3   OH211828   6.172   0.206   1.541  0.1125  0.1620  0.0563
 3955TIP3    H111829   6.087   0.201   1.585  0.2185 -0.4170  0.2019
 3955TIP3    H211830   6.150   0.216   1.448 -0.1169  0.2353  0.1171
 3956TIP3   OH211831   2.951   1.727   0.671  0.2268  0.4225 -0.2877
 3956TIP3    H111832   2.914   1.640   0.686  1.3960  0.2961  2.2586
 3956TIP3    H211833   2.930   1.746   0.579 -1.8366 -1.6523 -0.3454
 3957TIP3   OH211834   6.711   6.682   3.634  0.0398  0.7611 -0.1894
 3957TIP3    H111835   6.627   6.686   3.680 -0.1215 -0.8993 -0.2727
 3957TIP3    H211836   6.775   6.659   3.702  0.3758  1.6179 -0.2010
 3958TIP3   OH211837   7.054   0.465   2.852  0.1386  0.6857  0.3294
 3958TIP3    H111838   6.977   0.435   2.804 -0.3665  0.4360  1.2628
 3958TIP3    H211839   7.058   0.559   2.834 -0.2969  0.6725  0.1423
 3959TIP3   OH211840   4.101   3.324   0.222  0.1978 -0.2098 -0.3017
 3959TIP3    H111841   4.020   3.274   0.213  0.6027 -1.1886  1.1232
 3959TIP3    H211842   4.156   3.293   0.150 -0.4225 -0.0527 -0.8528
 3960TIP3   OH211843   5.072   0.271   5.704 -0.8562  0.2807  0.2714
 3960TIP3    H111844   5.137   0.201   5.693 -1.6902 -0.3140 -1.1655
 3960TIP3    H211845   5.123   0.348   5.728  0.6024  0.2444 -2.3759
 3961TIP3   OH211846   0.608   0.974   3.770 -0.2265  0.0332  0.1364
 3961TIP3    H111847   0.703   0.964   3.762  0.0420  1.0415  1.6036
 3961TIP3    H211848   0.595   1.068   3.782 -1.3082 -0.2108  1.0194
 3962TIP3   OH211849   6.244   3.119   3.534  0.5895 -0.2409  0.6424
 3962TIP3    H111850   6.249   3.046   3.472  1.6315 -0.0579  0.4968
 3962TIP3    H211851   6.194   3.084   3.607 -1.6033 -0.1404 -0.7045
 3963TIP3   OH211852   4.078   2.378   4.296  1.0725 -0.8636 -0.1390
 3963TIP3    H111853   4.112   2.363   4.208 -0.1624 -1.1109 -0.6068
 3963TIP3    H211854   4.127   2.318   4.352  2.2606 -0.3089 -0.5515
 3964TIP3   OH211855   1.671   4.504   1.172 -1.1136 -0.1880 -0.1592
 3964TIP3    H111856   1.721   4.447   1.114 -0.2332  0.0050  0.3980
 3964TIP3    H211857   1.612   4.444   1.220  0.4394 -0.7893  1.0863
 3965TIP3   OH211858   1.127   1.259   2.968 -0.3101 -0.0231  0.0154
 3965TIP3    H111859   1.033   1.274   2.982 -0.0401 -0.7920  3.3464
 3965TIP3    H211860   1.140   1.166   2.986  0.9893 -0.1572 -1.4089
 3966TIP3   OH211861   0.144   6.038   0.499  0.6148 -0.1331  0.1475
 3966TIP3    H111862   0.066   6.057   0.551  1.3588  1.6819  0.6849
 3966TIP3    H211863   0.161   6.119   0.450  0.3629 -1.5347 -2.4591
 3967TIP3   OH211864   5.808   0.519   1.297  0.5041  0.1393 -0.7095
 3967TIP3    H111865   5.809   0.591   1.361  1.1611  0.6191 -1.2372
 3967TIP3    H211866   5.767   0.446   1.343  2.4980 -0.0634  0.8440
 3968TIP3   OH211867   0.733   3.310   1.625  0.0271  1.0702 -0.1865
 3968TIP3    H111868   0.660   3.295   1.686  1.1334 -3.2416  0.4469
 3968TIP3    H211869   0.804   3.342   1.680 -0.1814  1.2683 -0.0283
 3969TIP3   OH211870   0.444   5.731   2.074  0.1574 -0.0971 -0.4506
 3969TIP3    H111871   0.533   5.756   2.050  0.1304  0.3459 -0.1105
 3969TIP3    H211872   0.454   5.656   2.132  0.4374  1.2966  1.3604
 3970TIP3   OH211873   4.813   5.097   5.519 -0.0247 -0.0486  0.0012
 3970TIP3    H111874   4.755   5.091   5.442 -0.5271  2.5364  0.1051
 3970TIP3    H211875   4.792   5.181   5.558  1.4119 -0.5828  2.0602
 3971TIP3   OH211876   2.976   3.709   0.630 -0.2576  0.6069 -0.4759
 3971TIP3    H111877   3.058   3.670   0.662 -0.5536  1.2304  1.1463
 3971TIP3    H211878   2.910   3.641   0.643 -0.7488  1.4673  2.2305
 3972TIP3   OH211879   4.917   5.312   0.159 -0.1253  0.0932  0.3841
 3972TIP3    H111880   4.993   5.267   0.194 -0.7083 -0.5012  0.9094
 3972TIP3    H211881   4.898   5.380   0.224  0.7466  1.1226 -0.4007
 3973TIP3   OH211882   3.412   3.556   4.969 -0.7991  0.1778 -0.0362
 3973TIP3    H111883   3.367   3.620   5.023 -0.7228  1.7892 -1.7990
 3973TIP3    H211884   3.356   3.545   4.892  0.5650  0.3390 -1.1023
 3974TIP3   OH211885   0.667   0.066   5.282 -0.4165  0.6986  0.0470
 3974TIP3    H111886   0.664  -0.023   5.319 -1.9728  0.8789  0.4358
 3974TIP3    H211887   0.701   0.054   5.193  1.4141  0.0043  0.7915
 3975TIP3   OH211888   0.247   5.007   2.117  0.0792  0.0364  0.3763
 3975TIP3    H111889   0.295   4.929   2.144  3.1017  1.4552 -0.3869
 3975TIP3    H211890   0.279   5.025   2.028 -2.9455  0.4056 -0.7250
 3976TIP3   OH211891   0.344   0.274   0.300  0.5001  0.4485  0.9143
 3976TIP3    H111892   0.386   0.337   0.242  0.2016  3.1262  3.3750
 3976TIP3    H211893   0.252   0.300   0.301  0.1011 -0.8960  0.9626
 3977TIP3   OH211894   4.754   1.815   4.096  0.4698  0.1821 -0.1868
 3977TIP3    H111895   4.665   1.829   4.128  0.3904  0.0620 -0.3541
 3977TIP3    H211896   4.745   1.747   4.029  0.7791 -0.3721  0.3131
 3978TIP3   OH211897   4.209   6.041   5.376 -0.7798 -0.0398  0.3554
 3978TIP3    H111898   4.299   6.025   5.405 -0.8124  0.6271  0.8324
 3978TIP3    H211899   4.217   6.058   5.282 -0.4457 -0.2914  0.3352
 3979TIP3   OH211900   3.068   3.623   5.260  0.0962 -0.3455 -0.0370
 3979TIP3    H111901   3.031   3.552   5.312 -1.1729 -1.7610 -2.6190
 3979TIP3    H211902   2.999   3.644   5.197  0.6018  2.9644  0.3512
 3980TIP3   OH211903   4.928   5.376   1.092  0.2676 -0.1598 -0.0748
 3980TIP3    H111904   4.860   5.387   1.158 -0.2635 -1.6793 -0.3403
 3980TIP3    H211905   4.960   5.465   1.075 -1.3667  0.5351  0.3405
 3981TIP3   OH211906   2.099   1.912   3.649 -0.3377  0.4050 -0.6593
 3981TIP3    H111907   2.102   1.949   3.737 -3.8206 -0.4338 -0.0350
 3981TIP3    H211908   2.127   1.821   3.660  1.3360  0.8821 -0.8584
 3982TIP3   OH211909   3.908   2.543   0.797 -0.1205 -0.0284  0.1082
 3982TIP3    H111910   3.873   2.631   0.814  1.5216  0.5090  0.8654
 3982TIP3    H211911   3.861   2.487   0.860 -0.2334  0.5297  0.5311
 3983TIP3   OH211912   5.712   4.285   0.288  0.0293 -0.4715  0.1719
 3983TIP3    H111913   5.719   4.216   0.221 -0.1665  0.5006 -0.8820
 3983TIP3    H211914   5.629   4.269   0.331 -0.1077 -0.7867 -0.2033
 3984TIP3   OH211915   3.960   4.578   2.621 -0.3133  0.4390  0.1321
 3984TIP3    H111916   3.900   4.547   2.553  0.9041 -0.2241 -0.6802
 3984TIP3    H211917   4.039   4.525   2.610  0.8850  2.0767  0.3776
 3985TIP3   OH211918   4.061   4.532   4.287  0.1578 -0.1338  0.1102
 3985TIP3    H111919   4.044   4.521   4.193 -0.8595 -1.0979  0.3801
 3985TIP3    H211920   4.061   4.626   4.301  2.1210  0.1197 -1.1488
 3986TIP3   OH211921   3.578   3.551   5.846  0.2345 -0.1230 -0.3419
 3986TIP3    H111922   3.556   3.464   5.880 -0.2909  0.2250  0.2250
 3986TIP3    H211923   3.493   3.593   5.830  0.4458 -0.2802 -2.1524
 3987TIP3   OH211924   1.800   2.273   1.776  0.1603  0.5450  0.3966
 3987TIP3    H111925   1.734   2.330   1.735  0.9257  0.7237 -0.6100
 3987TIP3    H211926   1.767   2.260   1.865 -0.3921  2.0038  0.4411
 3988TIP3   OH211927   5.255   1.852   1.704 -0.1299 -0.3209  0.6571
 3988TIP3    H111928   5.344   1.887   1.710 -0.0542 -0.6076  1.2498
 3988TIP3    H211929   5.248   1.823   1.613 -0.0476  0.8182  0.2678
 3989TIP3   OH211930   1.473   0.703   5.592  0.0782 -0.0817 -0.2708
 3989TIP3    H111931   1.546   0.758   5.622 -0.7912 -0.0521  1.9613
 3989TIP3    H211932   1.410   0.766   5.555 -0.0451  0.2329  0.4477
 3990TIP3   OH211933   6.468   5.945   5.705 -0.0969  0.3902 -0.3983
 3990TIP3    H111934   6.546   5.931   5.651  1.2539 -0.0764  1.5415
 3990TIP3    H211935   6.500   5.992   5.782 -1.6415 -0.2290  0.6866
 3991TIP3   OH211936   5.424   5.808   1.229  0.6270 -0.3553  0.1782
 3991TIP3    H111937   5.499   5.847   1.184 -0.3150  0.7272 -0.5419
 3991TIP3    H211938   5.441   5.822   1.322  1.8970 -1.2559  0.0999
 3992TIP3   OH211939   1.124   3.494   2.057 -0.3999 -0.1863  0.3885
 3992TIP3    H111940   1.162   3.553   1.993  0.9249  0.9654  2.1432
 3992TIP3    H211941   1.155   3.407   2.031 -0.4252  0.1681 -0.8705
 3993TIP3   OH211942   6.768   3.692   1.280 -0.2162 -0.0116 -0.3460
 3993TIP3    H111943   6.851   3.710   1.237 -0.4388  0.8724 -0.4388
 3993TIP3    H211944   6.788   3.694   1.373  0.1816 -1.4953 -0.3727
 3994TIP3   OH211945   0.237   6.543   3.016 -0.1065 -0.2730  0.6020
 3994TIP3    H111946   0.313   6.562   3.071  0.6542 -0.2425 -0.4137
 3994TIP3    H211947   0.240   6.611   2.948 -0.5807 -0.7471  0.0945
 3995TIP3   OH211948   4.623   3.832   5.758 -0.4344  0.0774 -0.0113
 3995TIP3    H111949   4.688   3.811   5.691 -1.4415 -1.3172 -0.6015
 3995TIP3    H211950   4.539   3.827   5.712 -1.2961 -2.5338  1.6252
 3996TIP3   OH211951   3.627   2.214   3.875 -0.2614  0.2340  0.1298
 3996TIP3    H111952   3.615   2.305   3.845 -0.4296  0.2614  0.2812
 3996TIP3    H211953   3.636   2.164   3.794  0.0945  0.4215  0.0484
 3997TIP3   OH211954   1.508   0.383   5.122  0.2875  0.4782  0.0474
 3997TIP3    H111955   1.564   0.421   5.190 -2.2840 -1.7905  3.8213
 3997TIP3    H211956   1.557   0.306   5.092  1.4679  1.5216 -0.8432
 3998TIP3   OH211957   1.748   5.736   3.625  0.0111 -0.1537 -0.1632
 3998TIP3    H111958   1.694   5.678   3.571  2.0723 -0.9289 -1.5215
 3998TIP3    H211959   1.723   5.824   3.598 -1.4568 -0.4448  0.1821
 3999TIP3   OH211960   2.952   5.722   4.740  0.6297 -0.2271 -0.1413
 3999TIP3    H111961   2.988   5.702   4.827 -1.4824 -0.3081  0.7704
 3999TIP3    H211962   2.928   5.636   4.704  0.8931 -0.1356 -0.5449
 4000TIP3   OH211963   3.535   4.767   1.649 -0.2529 -0.1503 -0.0252
 4000TIP3    H111964   3.617   4.719   1.637 -0.1879 -0.1624  0.4453
 4000TIP3    H211965   3.471   4.719   1.596 -0.5110 -1.6160  1.5389
 4001TIP3   OH211966   5.843   5.722   0.960 -0.5213 -0.1664  0.1910
 4001TIP3    H111967   5.767   5.769   0.927 -0.8263 -0.8341 -0.0923
 4001TIP3    H211968   5.914   5.786   0.959 -0.7951  0.1395 -0.6830
 4002TIP3   OH211969   1.038  -0.022   5.735  0.1600 -0.7517 -0.2703
 4002TIP3    H111970   1.067   0.067   5.714  0.4880 -0.5534  0.9269
 4002TIP3    H211971   1.004  -0.015   5.824  1.4504 -2.0952  0.3629
 4003TIP3   OH211972   2.877   1.348   2.626 -0.1482 -0.5723 -0.1046
 4003TIP3    H111973   2.851   1.259   2.651  2.1527 -1.1055  0.6205
 4003TIP3    H211974   2.906   1.340   2.535 -0.6439 -0.3706 -0.2889
 4004TIP3   OH211975   5.987   2.945   4.976 -0.2768 -0.2115 -0.1160
 4004TIP3    H111976   5.907   2.909   4.937 -0.3237  0.8378 -1.0293
 4004TIP3    H211977   6.055   2.880   4.957 -0.3709  0.1144 -1.6794
 4005TIP3   OH211978   4.135   2.232   5.114 -0.4227 -0.5802 -0.2709
 4005TIP3    H111979   4.227   2.207   5.108 -0.3924 -0.9162  1.2824
 4005TIP3    H211980   4.123   2.295   5.042  1.3633  0.5508  0.3505
 4006TIP3   OH211981   5.062   4.248   0.840 -0.9593 -0.1799  0.3515
 4006TIP3    H111982   4.988   4.233   0.781 -0.6210  0.9806 -0.4118
 4006TIP3    H211983   5.089   4.338   0.821  0.2127 -0.3543  1.1173
 4007TIP3   OH211984   2.779   3.046   5.810 -0.7407 -0.5323  0.0616
 4007TIP3    H111985   2.855   3.104   5.816  0.2293 -1.6437 -0.8424
 4007TIP3    H211986   2.814   2.959   5.833 -1.8116 -1.0065 -0.0419
 4008TIP3   OH211987   5.443   1.759   5.729 -0.3346  0.1786  0.0139
 4008TIP3    H111988   5.399   1.841   5.749  0.8529  0.6418  0.8214
 4008TIP3    H211989   5.428   1.745   5.635 -2.0765  0.3638  0.2375
 4009TIP3   OH211990   6.044   0.978   4.875 -0.3750 -0.5972 -0.4277
 4009TIP3    H111991   5.977   0.971   4.808 -1.8755 -2.0954  1.1539
 4009TIP3    H211992   6.001   1.022   4.948  0.4613 -1.2577  0.4925
 4010TIP3   OH211993   5.508   3.127   0.076  0.3381 -0.3258  0.6039
 4010TIP3    H111994   5.564   3.058   0.112 -0.4033 -1.2900 -0.0344
 4010TIP3    H211995   5.420   3.090   0.080  0.1699 -0.2811 -1.7200
 4011TIP3   OH211996   4.406   3.313   2.621  0.3059 -0.0261  0.3122
 4011TIP3    H111997   4.362   3.397   2.619 -0.0175 -0.2024 -0.1790
 4011TIP3    H211998   4.366   3.263   2.549  0.0885 -0.8008  0.9584
 4012TIP3   OH211999   3.695   6.593   3.628  0.1103 -0.6080 -0.6665
 4012TIP3    H112000   3.703   6.656   3.557  1.2094  0.3179  0.2363
 4012TIP3    H212001   3.749   6.629   3.699 -1.8136 -0.9384  1.0509
 4013TIP3   OH212002   5.350   1.597   2.425 -0.1222 -0.7221  0.2075
 4013TIP3    H112003   5.406   1.552   2.489 -0.7965 -1.9839 -0.0522
 4013TIP3    H212004   5.396   1.587   2.342  0.5637  0.5821  0.4096
 4014TIP3   OH212005   2.533   6.765   0.988 -0.6400 -0.4266 -1.0342
 4014TIP3    H112006   2.596   6.778   0.917 -0.1460  0.2309 -0.4942
 4014TIP3    H212007   2.461   6.716   0.948  0.0242 -0.8381 -1.7690
 4015TIP3   OH212008   5.423   3.379   4.738 -0.0345 -0.2975  0.5031
 4015TIP3    H112009   5.493   3.382   4.804  1.2890  1.7028 -0.8915
 4015TIP3    H212010   5.470   3.373   4.654 -1.5420  0.8643 -0.4566
 4016TIP3   OH212011   3.592   6.583   5.310  0.1914  0.2245 -0.5359
 4016TIP3    H112012   3.590   6.628   5.395  0.1996  0.5694 -0.7148
 4016TIP3    H212013   3.563   6.650   5.247  1.6147  0.4374 -1.0063
 4017TIP3   OH212014   5.489   5.267   0.730  0.1987  0.9591  0.5214
 4017TIP3    H112015   5.553   5.288   0.798  0.3814 -1.6357  1.2839
 4017TIP3    H212016   5.516   5.319   0.655  2.1514  1.2719  1.3668
 4018TIP3   OH212017   1.827   6.272   4.313 -0.1219  0.3073 -0.2361
 4018TIP3    H112018   1.740   6.312   4.312 -1.5483 -2.4451  1.1118
 4018TIP3    H212019   1.874   6.319   4.381 -1.7889 -0.3158  1.4379
 4019TIP3   OH212020   0.955   3.269   4.710  0.8564 -0.2723  0.6683
 4019TIP3    H112021   1.044   3.259   4.674  1.7666  3.0819  1.6187
 4019TIP3    H212022   0.969   3.293   4.801 -1.0721 -0.2418  0.9846
 4020TIP3   OH212023   2.409   4.622   0.810  0.3029  0.0365  0.2757
 4020TIP3    H112024   2.352   4.696   0.831  0.9718  1.1383 -1.5315
 4020TIP3    H212025   2.483   4.661   0.764  1.3337 -1.6379  0.4170
 4021TIP3   OH212026   6.330   1.775   1.681  0.2540 -0.5054  0.2516
 4021TIP3    H112027   6.252   1.804   1.728 -0.1899 -1.3323  0.0345
 4021TIP3    H212028   6.401   1.786   1.744 -0.1667 -0.5540  0.7388
 4022TIP3   OH212029   4.030   5.042   4.821 -0.1730 -0.2652 -0.3373
 4022TIP3    H112030   3.981   5.075   4.896  0.2791 -0.1675 -0.0782
 4022TIP3    H212031   3.969   4.985   4.775 -0.1721 -1.0800  0.6357
 4023TIP3   OH212032   4.613   0.580   2.228 -0.0428  0.1875 -0.5597
 4023TIP3    H112033   4.608   0.595   2.133  0.1580  0.6434 -0.5023
 4023TIP3    H212034   4.557   0.648   2.266 -0.8729 -0.5728 -0.3931
 4024TIP3   OH212035   2.675   2.921   1.987  0.0110  0.2230  0.6633
 4024TIP3    H112036   2.748   2.921   2.049  0.1511 -0.7961  0.5056
 4024TIP3    H212037   2.673   3.011   1.953  1.5855  0.1197  0.2085
 4025TIP3   OH212038   3.748   6.781   3.873  0.4123 -0.1309  0.6137
 4025TIP3    H112039   3.708   6.859   3.911  0.7487  0.5276 -0.3351
 4025TIP3    H212040   3.709   6.708   3.920 -0.9274  0.5592  0.6075
 4026TIP3   OH212041   5.259   2.085   3.077  0.2231  0.0913  0.5703
 4026TIP3    H112042   5.205   2.008   3.059  1.6094 -0.7803 -0.0485
 4026TIP3    H212043   5.232   2.149   3.011  1.5692 -1.1997 -1.3427
 4027TIP3   OH212044   2.406   0.981   0.739  0.3879  0.6225  0.0930
 4027TIP3    H112045   2.391   1.070   0.708  1.8375  1.0038  0.4052
 4027TIP3    H212046   2.482   0.989   0.797  0.2101 -0.7353  0.5398
 4028TIP3   OH212047   0.149   4.378   0.377 -0.0193 -0.4409 -0.0639
 4028TIP3    H112048   0.109   4.321   0.441  1.6628 -2.5155 -0.7607
 4028TIP3    H212049   0.076   4.410   0.324 -1.2587  0.1738  1.9026
 4029TIP3   OH212050   4.882   3.346   4.535  0.0900  0.8090 -0.0352
 4029TIP3    H112051   4.834   3.426   4.553 -0.8633  0.2382 -0.0147
 4029TIP3    H212052   4.893   3.345   4.440  1.0876  1.5019  0.0477
 4030TIP3   OH212053   6.975   2.023   4.583  0.4744 -0.2421 -1.0033
 4030TIP3    H112054   6.920   1.963   4.533 -0.0204 -0.9309  0.3407
 4030TIP3    H212055   7.011   1.971   4.654 -0.3775  1.1407  0.5085
 4031TIP3   OH212056   4.225   2.024   5.586 -0.3075  0.1621 -0.1274
 4031TIP3    H112057   4.319   2.007   5.585 -0.4221 -0.5106  0.1834
 4031TIP3    H212058   4.207   2.055   5.675 -0.2673  0.9812 -0.3962
 4032TIP3   OH212059   0.168   2.854   0.325  0.7273 -0.0703 -0.4020
 4032TIP3    H112060   0.080   2.860   0.288  0.2801 -0.8080  0.5013
 4032TIP3    H212061   0.182   2.939   0.368  0.8085  0.3682 -1.2696
 4033TIP3   OH212062   4.687   4.993   1.754  0.0812  0.7270 -0.3738
 4033TIP3    H112063   4.611   5.031   1.800 -0.6680 -0.7542 -0.3027
 4033TIP3    H212064   4.658   4.985   1.663  0.9864  2.1758 -0.8217
 4034TIP3   OH212065   0.133   5.381   1.546  0.1118 -0.3354  0.7476
 4034TIP3    H112066   0.176   5.355   1.628  2.0800  0.7492  0.1402
 4034TIP3    H212067   0.142   5.305   1.489  4.8514  0.9409 -0.6554
 4035TIP3   OH212068   5.350   3.595   4.061  0.1341  0.2236 -0.3673
 4035TIP3    H112069   5.265   3.604   4.018  0.2212  1.6829 -0.2949
 4035TIP3    H212070   5.407   3.557   3.994 -0.8497 -1.9813 -0.0195
 4036TIP3   OH212071   1.735   4.761   1.037 -0.0200 -0.1940  0.4917
 4036TIP3    H112072   1.772   4.747   0.950 -0.1852 -0.4651  0.4623
 4036TIP3    H212073   1.733   4.673   1.076  1.2676  0.0956  1.2638
 4037TIP3   OH212074   4.084   5.142   3.587  0.7290 -0.0971  0.0851
 4037TIP3    H112075   4.160   5.143   3.645  1.1034 -3.2639 -0.1492
 4037TIP3    H212076   4.008   5.150   3.645  1.1649 -1.0370  0.7957
 4038TIP3   OH212077   5.999   6.582   0.438 -0.3121 -0.1565  0.4741
 4038TIP3    H112078   6.018   6.492   0.411  1.9214  0.1699  0.7758
 4038TIP3    H212079   5.992   6.577   0.533 -1.0493 -0.1415  0.4236
 4039TIP3   OH212080   1.572   5.934   5.351 -0.1533 -0.3330 -0.6875
 4039TIP3    H112081   1.515   5.884   5.410  0.8027 -0.9293 -0.2563
 4039TIP3    H212082   1.656   5.938   5.396 -0.1934  1.6821 -0.7085
 4040TIP3   OH212083   5.611   1.716   1.504  1.0811 -0.5507  0.3107
 4040TIP3    H112084   5.638   1.660   1.578 -0.0970 -0.4431  0.8376
 4040TIP3    H212085   5.616   1.805   1.538 -1.1955 -0.5845  0.8880
 4041TIP3   OH212086   2.334   6.358   4.458 -0.2892 -0.0350  0.0322
 4041TIP3    H112087   2.238   6.358   4.463 -0.3134 -1.4493  0.2118
 4041TIP3    H212088   2.362   6.395   4.542 -0.6709  0.7047 -0.1589
 4042TIP3   OH212089   4.839   4.161   1.055 -0.0576  0.1459  0.0713
 4042TIP3    H112090   4.752   4.132   1.082 -0.9980  3.4561  1.1410
 4042TIP3    H212091   4.897   4.132   1.126 -0.7008 -0.2262  0.4537
 4043TIP3   OH212092   2.926   3.601   1.080 -0.2282 -0.7416  0.6448
 4043TIP3    H112093   3.008   3.622   1.036  0.2574 -0.1244  1.8160
 4043TIP3    H212094   2.950   3.538   1.148 -0.6766 -0.3316  1.1870
 4044TIP3   OH212095   7.202   0.574   3.179  0.6251  0.3251  0.0951
 4044TIP3    H112096   7.164   0.551   3.264  0.8808 -0.1434  0.0862
 4044TIP3    H212097   7.225   0.490   3.139  2.5459  0.5952  0.5088
 4045TIP3   OH212098   3.262   0.800   2.130  0.1614  0.1116 -0.1103
 4045TIP3    H112099   3.205   0.810   2.053  0.2704  0.8658 -0.1016
 4045TIP3    H212100   3.348   0.832   2.100 -0.1998  2.0675  0.8102
 4046TIP3   OH212101   5.470   3.292   4.176  0.2107  0.2462 -0.0353
 4046TIP3    H112102   5.502   3.351   4.108  0.4425  0.6778  0.4463
 4046TIP3    H212103   5.527   3.215   4.170  0.7344  0.6149  0.1978
 4047TIP3   OH212104   1.968   5.062   4.451 -0.1316 -0.1359 -0.7251
 4047TIP3    H112105   2.014   5.128   4.503  0.6061 -0.0277 -1.4914
 4047TIP3    H212106   1.906   5.022   4.512 -0.7481  1.4017 -0.3008
 4048TIP3   OH212107   3.475   4.400   5.854 -0.3442 -0.0916 -0.3834
 4048TIP3    H112108   3.566   4.387   5.828 -0.0008 -0.0987  0.7351
 4048TIP3    H212109   3.427   4.407   5.772  0.2534 -2.8705 -1.0898
 4049TIP3   OH212110   1.897   3.212   2.262  0.0160 -0.2272  0.1775
 4049TIP3    H112111   1.957   3.204   2.189  1.6054 -0.5262  1.4592
 4049TIP3    H212112   1.871   3.121   2.281 -0.7491 -0.1136 -0.2667
 4050TIP3   OH212113   6.918   5.946   2.595 -0.4852  0.2056  0.2560
 4050TIP3    H112114   6.894   6.024   2.545  2.0593  1.4866  0.8757
 4050TIP3    H212115   6.890   5.872   2.540 -0.6547  1.5470 -1.5309
 4051TIP3   OH212116   1.047   5.561   4.084  0.1604 -0.1405  0.2862
 4051TIP3    H112117   0.972   5.507   4.109 -0.0315  0.0574  0.1427
 4051TIP3    H212118   1.105   5.501   4.036 -0.5641  0.0449 -0.8318
 4052TIP3   OH212119   0.971   2.731   0.151  0.2877 -0.4839 -0.3422
 4052TIP3    H112120   0.998   2.803   0.094 -0.2721  0.7514  0.9032
 4052TIP3    H212121   0.908   2.681   0.098  0.2883  0.2396 -1.0424
 4053TIP3   OH212122   3.735   1.027   2.234  0.1602 -0.0326 -0.7560
 4053TIP3    H112123   3.791   1.101   2.256 -0.5587  0.8115 -1.6847
 4053TIP3    H212124   3.752   1.010   2.141  0.1146 -0.8591 -0.6234
 4054TIP3   OH212125   5.451   4.197   0.365 -0.4312 -0.2713  0.2518
 4054TIP3    H112126   5.439   4.134   0.436  1.2264  0.0624  0.8740
 4054TIP3    H212127   5.448   4.144   0.285 -0.6018 -0.9018  0.6726
 4055TIP3   OH212128   0.939   5.092   0.385 -0.2685  0.7939  0.1830
 4055TIP3    H112129   0.878   5.112   0.456 -1.6018  0.1614 -0.7390
 4055TIP3    H212130   1.025   5.095   0.426 -0.9446  1.2703  1.6334
 4056TIP3   OH212131   6.508   1.819   3.483 -0.1440  0.5283 -0.0382
 4056TIP3    H112132   6.583   1.879   3.482  0.1338  0.1798 -0.7522
 4056TIP3    H212133   6.444   1.862   3.540  0.7230  0.6820  0.8558
 4057TIP3   OH212134   6.655   4.339   4.416  0.3777  0.6755 -0.0265
 4057TIP3    H112135   6.678   4.429   4.394 -0.2435  0.6890 -0.6324
 4057TIP3    H212136   6.738   4.299   4.442  0.6031  1.5203  0.6083
 4058TIP3   OH212137   1.761   5.546   4.989 -0.5193 -0.0682  0.2567
 4058TIP3    H112138   1.689   5.574   4.932 -0.1698  1.9579  0.7254
 4058TIP3    H212139   1.724   5.474   5.040 -2.4908  1.3242  0.9375
 4059TIP3   OH212140   4.140   0.884   2.113 -0.4313 -0.0246  0.0733
 4059TIP3    H112141   4.207   0.949   2.131 -1.2301  1.2285 -1.2930
 4059TIP3    H212142   4.153   0.817   2.181 -0.3991  2.1335  2.3233
 4060TIP3   OH212143   6.502   4.793   2.810  0.3078 -0.5282 -0.9295
 4060TIP3    H112144   6.574   4.851   2.834  0.4227 -0.2896 -1.8109
 4060TIP3    H212145   6.423   4.841   2.836  0.3957  0.1109 -1.7972
 4061TIP3   OH212146   5.545   6.811   1.619  0.0164 -0.0560  0.4509
 4061TIP3    H112147   5.540   6.719   1.593 -0.5797 -0.4304  1.7880
 4061TIP3    H212148   5.507   6.813   1.707 -1.5519  1.7452 -0.1901
 4062TIP3   OH212149   0.547   5.705   3.887  0.4137  0.2062  0.0647
 4062TIP3    H112150   0.474   5.760   3.858  1.2004  1.1484 -0.1921
 4062TIP3    H212151   0.624   5.760   3.875  1.1795 -0.7971  0.2629
 4063TIP3   OH212152   3.136   0.117   1.627 -0.1623 -0.4563  0.1835
 4063TIP3    H112153   3.174   0.186   1.572  0.3274 -0.8370  0.0240
 4063TIP3    H212154   3.045   0.110   1.598 -0.5172  0.8474  0.9424
 4064TIP3   OH212155   0.946   1.975   0.565 -0.0881  0.5428 -0.0152
 4064TIP3    H112156   0.984   2.048   0.614 -0.8723  1.4648 -0.7596
 4064TIP3    H212157   0.902   1.922   0.632 -0.2675  1.2248  0.4149
 4065TIP3   OH212158   6.005   5.709   2.765  0.1299  0.7681 -0.5605
 4065TIP3    H112159   5.929   5.741   2.716 -0.4541 -1.9196 -1.5719
 4065TIP3    H212160   6.011   5.768   2.840 -2.1721  1.8305 -1.1100
 4066TIP3   OH212161   4.348   4.069   4.473 -0.1307 -0.1401 -0.6045
 4066TIP3    H112162   4.302   3.986   4.482 -0.3696  0.2531  4.7242
 4066TIP3    H212163   4.429   4.057   4.523  0.0381  2.6772 -0.0585
 4067TIP3   OH212164   6.240   2.906   4.535  0.1309  0.0670  0.3767
 4067TIP3    H112165   6.326   2.908   4.493  0.3048 -0.7586  0.6808
 4067TIP3    H212166   6.244   2.977   4.600  0.1953  0.7224 -0.3279
 4068TIP3   OH212167   3.505   3.387   0.197 -0.0766  0.0944 -0.0644
 4068TIP3    H112168   3.442   3.455   0.221 -1.1452 -0.2222 -1.7869
 4068TIP3    H212169   3.451   3.310   0.178  1.1015 -1.2868  1.8398
 4069TIP3   OH212170   7.099   0.275   0.971  0.1455 -0.0277 -0.2622
 4069TIP3    H112171   7.018   0.269   1.022  0.6913  1.5940  0.8766
 4069TIP3    H212172   7.102   0.367   0.943  0.6300 -0.5353 -1.9646
 4070TIP3   OH212173   2.024   5.624   5.217 -0.9188  0.4412  0.6304
 4070TIP3    H112174   1.984   5.538   5.229 -0.8839  0.6923  3.1077
 4070TIP3    H212175   2.118   5.606   5.222 -0.9139  0.6185  1.2258
 4071TIP3   OH212176   0.791   5.010   5.703  0.6970  0.0440  0.1915
 4071TIP3    H112177   0.729   5.041   5.636 -1.0290 -2.1647  0.6608
 4071TIP3    H212178   0.796   5.083   5.765 -1.7758  0.2017  0.3235
 4072TIP3   OH212179   4.092   3.282   3.082 -0.4087  0.7259  0.1081
 4072TIP3    H112180   4.012   3.305   3.034  0.5673 -0.7664 -2.4293
 4072TIP3    H212181   4.163   3.309   3.024  0.9033  0.3506  1.4840
 4073TIP3   OH212182   4.037   1.736   5.079  0.2098 -0.1203  0.2147
 4073TIP3    H112183   4.078   1.752   4.993  0.9471  0.6993  0.7053
 4073TIP3    H212184   4.046   1.819   5.125 -2.3587  0.2235  0.2303
 4074TIP3   OH212185   2.024   3.721   1.785 -0.2887  0.0536  0.5166
 4074TIP3    H112186   2.040   3.782   1.858 -0.3470  0.0389  0.5420
 4074TIP3    H212187   1.946   3.756   1.742 -1.0844 -0.7234  1.3033
 4075TIP3   OH212188   3.906   2.459   5.140  0.2298  0.2627 -0.2055
 4075TIP3    H112189   3.919   2.380   5.192 -4.6754  0.6242  2.1605
 4075TIP3    H212190   3.893   2.529   5.204 -1.3032  1.7715 -2.0168
 4076TIP3   OH212191   4.225   6.729   3.813 -0.2380 -0.3321 -0.0483
 4076TIP3    H112192   4.178   6.731   3.730  0.3208 -3.3594 -0.5550
 4076TIP3    H212193   4.155   6.727   3.879 -0.8023 -1.5448 -0.6411
 4077TIP3   OH212194   6.755   4.948   3.265  0.9153  0.2343  0.6989
 4077TIP3    H112195   6.719   4.888   3.330  0.5866 -0.7379 -0.3533
 4077TIP3    H212196   6.838   4.909   3.239  1.9081  1.5347  1.7914
 4078TIP3   OH212197   2.083   2.726   5.849  0.0083  0.0301  0.4634
 4078TIP3    H112198   2.111   2.746   5.938 -0.9103  0.7888  0.6044
 4078TIP3    H212199   1.995   2.764   5.843  0.0943  0.0715 -0.7931
 4079TIP3   OH212200   5.561   4.445   1.871 -0.0707 -0.1362  0.9551
 4079TIP3    H112201   5.577   4.539   1.868 -2.8591  0.5196  2.7690
 4079TIP3    H212202   5.520   4.424   1.787 -0.6806  0.5598  1.0738
 4080TIP3   OH212203   5.711   1.374   2.079 -0.4992 -0.2470  0.3714
 4080TIP3    H112204   5.756   1.355   1.997  2.2771  2.0850  1.2009
 4080TIP3    H212205   5.763   1.332   2.147 -0.2744  1.3817  1.2592
 4081TIP3   OH212206   0.876   5.853   2.873 -0.7014  0.8578 -0.8628
 4081TIP3    H112207   0.961   5.872   2.912 -2.5871  3.7764  2.3569
 4081TIP3    H212208   0.859   5.762   2.897  0.8765  0.7012 -0.2106
 4082TIP3   OH212209   6.275   3.346   4.584  0.3411  0.0600 -0.0991
 4082TIP3    H112210   6.204   3.293   4.547  0.9407  0.0980 -1.3884
 4082TIP3    H212211   6.232   3.405   4.646 -0.3576 -1.8362  1.3139
 4083TIP3   OH212212   4.056   3.637   4.361  0.0793  0.6358  0.4964
 4083TIP3    H112213   4.144   3.606   4.343 -0.7324 -0.3226 -2.3017
 4083TIP3    H212214   4.002   3.558   4.362 -1.0067  1.3478  0.4486
 4084TIP3   OH212215   1.303   1.974   2.951 -0.6116 -0.3922  0.6479
 4084TIP3    H112216   1.273   1.907   3.012 -2.3648  1.6502  2.2044
 4084TIP3    H212217   1.259   2.054   2.981  0.4246  1.2075 -1.8366
 4085TIP3   OH212218   5.751   4.082   0.076 -0.1049 -0.2469  0.2663
 4085TIP3    H112219   5.817   4.126   0.023 -0.0819 -0.1353  0.3880
 4085TIP3    H212220   5.794   4.002   0.106  0.2773  0.2466  1.0679
 4086TIP3   OH212221   6.764   4.497   5.358 -0.0021  0.3354  0.5491
 4086TIP3    H112222   6.699   4.426   5.352  2.0469 -1.6107  0.0592
 4086TIP3    H212223   6.784   4.504   5.451 -0.5265  0.6109  0.6478
 4087TIP3   OH212224   1.805   4.783   1.310 -0.6937  0.2333  0.0565
 4087TIP3    H112225   1.797   4.784   1.215  3.4525  0.0052 -0.4707
 4087TIP3    H212226   1.837   4.870   1.333  1.6016 -0.6995  0.7039
 4088TIP3   OH212227   4.179   1.166   1.567  0.5476  0.0133  0.7722
 4088TIP3    H112228   4.150   1.220   1.494  0.5155 -1.2078 -0.1327
 4088TIP3    H212229   4.273   1.183   1.573  0.6467 -0.2852  0.1105
 4089TIP3   OH212230   5.191   4.592   2.150 -0.0281 -0.5485  0.4924
 4089TIP3    H112231   5.252   4.527   2.115  0.0501  0.3126 -1.0756
 4089TIP3    H212232   5.105   4.562   2.119 -0.1198 -0.4709  0.6702
 4090TIP3   OH212233   0.184   4.917   5.841  0.4360  0.2393 -0.1016
 4090TIP3    H112234   0.278   4.910   5.858  0.0498 -1.5787  1.7387
 4090TIP3    H212235   0.175   4.903   5.747  2.0017  0.6583 -0.3377
 4091TIP3   OH212236   3.283   3.577   2.274 -0.6910  0.2878  0.1896
 4091TIP3    H112237   3.231   3.526   2.212  1.4346 -0.2275 -1.2675
 4091TIP3    H212238   3.365   3.528   2.283 -0.6846  0.6560  2.9972
 4092TIP3   OH212239   5.010   3.744   1.846 -0.1334  0.2740  0.3523
 4092TIP3    H112240   5.023   3.834   1.816 -1.4649  0.2706 -0.3030
 4092TIP3    H212241   5.084   3.695   1.809  0.3928  1.0171  0.4008
 4093TIP3   OH212242   5.723   1.218   5.742  0.4883  0.0634  0.1294
 4093TIP3    H112243   5.650   1.261   5.787  0.8887  0.9154 -0.0133
 4093TIP3    H212244   5.692   1.129   5.725  0.0814 -0.0708  1.4957
 4094TIP3   OH212245   5.065   1.378   3.770  0.1688 -0.4820  0.0744
 4094TIP3    H112246   5.036   1.364   3.861  2.6340 -2.0062  0.7043
 4094TIP3    H212247   5.067   1.291   3.732  2.6955 -0.3510 -0.2565
 4095TIP3   OH212248   6.646   2.290   0.187 -0.5327  0.1114  0.2519
 4095TIP3    H112249   6.569   2.347   0.190 -1.2627 -0.2059 -4.5437
 4095TIP3    H212250   6.698   2.326   0.115  1.0843 -2.8129 -0.1612
 4096TIP3   OH212251   1.202   1.210   1.275 -0.1565  0.0165  0.0442
 4096TIP3    H112252   1.141   1.138   1.290 -0.4974  0.3306  0.1830
 4096TIP3    H212253   1.262   1.177   1.208  0.9305 -1.1268  1.5207
 4097TIP3   OH212254   5.822   3.717   4.817  0.5489  0.2599 -0.4173
 4097TIP3    H112255   5.901   3.667   4.834  0.8175  0.9669  0.4962
 4097TIP3    H212256   5.852   3.791   4.764  1.0071  1.9120  1.9978
 4098TIP3   OH212257   2.384   3.361   4.553  0.0835 -0.0147 -0.1159
 4098TIP3    H112258   2.322   3.294   4.584  1.3824 -0.0976  2.5992
 4098TIP3    H212259   2.329   3.429   4.514 -1.5327 -1.0052  0.3347
 4099TIP3   OH212260   3.276   4.366   1.339 -0.1638 -0.1503 -0.2004
 4099TIP3    H112261   3.306   4.432   1.277  1.1306 -0.0104  0.5487
 4099TIP3    H212262   3.355   4.320   1.366 -1.0345 -2.0870 -0.7486
 4100TIP3   OH212263   3.731   0.862   3.091 -0.3028  0.4054 -0.6928
 4100TIP3    H112264   3.742   0.834   3.182  1.5440  1.8912 -0.4154
 4100TIP3    H212265   3.796   0.811   3.042 -1.3949 -0.5045 -1.2489
 4101TIP3   OH212266   4.563   2.622   3.247 -0.1306 -0.1349  0.3856
 4101TIP3    H112267   4.495   2.592   3.307 -0.0273 -0.5303  0.3092
 4101TIP3    H212268   4.549   2.571   3.167  0.3453 -0.3368  0.4218
 4102TIP3   OH212269   2.490   3.215   4.200  0.4087 -0.0784  0.4268
 4102TIP3    H112270   2.395   3.213   4.213  0.3400  0.4822  0.0559
 4102TIP3    H212271   2.502   3.259   4.116  0.9692 -0.8676  0.0775
 4103TIP3   OH212272   5.627   5.369   1.146  0.2837  0.3200 -0.4527
 4103TIP3    H112273   5.637   5.370   1.051  1.0322 -0.7783 -0.4050
 4103TIP3    H212274   5.695   5.428   1.178  0.1987  0.4915 -0.5884
 4104TIP3   OH212275   5.260   4.736   1.770 -0.2574  0.6390 -0.2419
 4104TIP3    H112276   5.332   4.766   1.825  0.4305  1.4493 -1.5184
 4104TIP3    H212277   5.210   4.815   1.750 -1.6233  0.0642  0.7462
 4105TIP3   OH212278   6.575   6.062   1.262  0.1621 -0.6944 -0.0714
 4105TIP3    H112279   6.613   6.024   1.341  0.8672 -0.1367 -0.1332
 4105TIP3    H212280   6.592   5.997   1.194 -0.7666 -1.3433  0.2895
 4106TIP3   OH212281   7.009   6.510   2.045  0.8538  0.0601  0.9342
 4106TIP3    H112282   6.942   6.562   2.002  1.3866  1.2428  1.4714
 4106TIP3    H212283   7.025   6.437   1.986 -1.8104 -0.9843  1.4082
 4107TIP3   OH212284   3.337   5.186   3.969  0.2847 -0.0548  0.4948
 4107TIP3    H112285   3.349   5.275   4.001 -0.9619  1.0260 -1.8352
 4107TIP3    H212286   3.255   5.188   3.920 -1.2835 -3.1889  2.5875
 4108TIP3   OH212287   5.396   2.436   2.490  0.3826  1.1252  0.0195
 4108TIP3    H112288   5.337   2.509   2.475 -0.7236  0.0257 -1.2697
 4108TIP3    H212289   5.339   2.359   2.494  1.6002  0.1971  0.2855
 4109TIP3   OH212290   4.005   4.505   3.153 -0.1766 -0.3420  0.7953
 4109TIP3    H112291   4.060   4.565   3.201  0.5475 -1.4778  1.4378
 4109TIP3    H212292   4.037   4.418   3.178 -1.2067 -0.9945 -0.0640
 4110TIP3   OH212293   3.533   1.442   3.964 -0.4171  0.1254 -0.2746
 4110TIP3    H112294   3.490   1.528   3.965  1.1324  0.9631 -0.8622
 4110TIP3    H212295   3.497   1.398   3.887 -1.0972  0.3293 -0.0718
 4111TIP3   OH212296   2.219   0.152   5.288 -0.0045 -0.3851  0.7260
 4111TIP3    H112297   2.131   0.180   5.261  0.3596  0.6338  0.5346
 4111TIP3    H212298   2.216   0.155   5.384 -0.5907 -1.7424  0.7774
 4112TIP3   OH212299   6.489   6.035   3.021 -0.5659 -0.0887  0.3716
 4112TIP3    H112300   6.562   6.075   2.973 -0.8582  2.6890  1.9892
 4112TIP3    H212301   6.531   5.977   3.084 -0.1016 -2.4114 -1.9355
 4113TIP3   OH212302   3.167   1.707   2.387  0.6368  0.7775 -0.3838
 4113TIP3    H112303   3.213   1.634   2.344 -0.3167  0.1751 -0.4263
 4113TIP3    H212304   3.113   1.745   2.318 -0.4213  0.2108  0.1091
 4114TIP3   OH212305   6.922   2.981   0.587  0.1752  0.6589  0.2905
 4114TIP3    H112306   7.011   2.995   0.619 -0.1803  0.3949  1.4494
 4114TIP3    H212307   6.878   3.065   0.596 -0.4087  0.2035  2.1642
 4115TIP3   OH212308   1.286   2.115   4.677 -0.4438  0.5961  0.4096
 4115TIP3    H112309   1.296   2.208   4.660  0.1886  0.4917  0.1965
 4115TIP3    H212310   1.287   2.074   4.590 -0.2766  0.3487  0.5269
 4116TIP3   OH212311   6.628   4.619   2.651  0.9984 -1.0588  0.0387
 4116TIP3    H112312   6.552   4.656   2.695  0.6172 -1.6074 -0.1483
 4116TIP3    H212313   6.702   4.673   2.681  1.1781 -2.8851  3.3156
 4117TIP3   OH212314   5.272   3.594   0.081  0.7042 -0.4352 -0.1288
 4117TIP3    H112315   5.208   3.536   0.121 -0.0795  1.0088  0.7895
 4117TIP3    H212316   5.329   3.620   0.154  0.2646  0.9294 -0.2526
 4118TIP3   OH212317   5.944   4.492   3.211 -0.6468  0.0949 -0.7803
 4118TIP3    H112318   6.030   4.465   3.245 -0.9936 -1.6202 -1.1720
 4118TIP3    H212319   5.964   4.534   3.127 -0.1568  0.1734 -0.6281
 4119TIP3   OH212320   4.328   5.620   5.828  0.1894  0.0650  0.1774
 4119TIP3    H112321   4.268   5.560   5.871  0.2755 -0.3005 -0.2002
 4119TIP3    H212322   4.277   5.655   5.755  0.0275  0.7159  0.5961
 4120TIP3   OH212323   0.660   0.819   4.266 -0.0151  0.4192  0.1893
 4120TIP3    H112324   0.726   0.783   4.207 -1.0602 -0.3910 -0.5339
 4120TIP3    H212325   0.589   0.755   4.264 -2.1849  2.6534 -1.4927
 4121TIP3   OH212326   2.788   3.787   5.530  0.3457  0.2935  0.1003
 4121TIP3    H112327   2.705   3.813   5.490  0.7777  0.9770 -0.3752
 4121TIP3    H212328   2.763   3.734   5.605 -0.6452  2.7905  1.6844
 4122TIP3   OH212329   6.894   2.778   2.840 -0.2881 -0.2005 -0.3611
 4122TIP3    H112330   6.860   2.764   2.751  2.1762 -1.7442 -1.1598
 4122TIP3    H212331   6.843   2.718   2.894 -0.3904 -0.8403 -1.1313
 4123TIP3   OH212332   2.096   2.577   5.164  0.4728 -0.3057 -0.0755
 4123TIP3    H112333   2.099   2.668   5.192  0.9389 -0.4829  0.4787
 4123TIP3    H212334   2.121   2.579   5.072  0.2326  0.1531 -0.1295
 4124TIP3   OH212335   6.603   5.898   3.287  0.4787  0.1164  0.4891
 4124TIP3    H112336   6.619   5.868   3.377  0.0392 -0.6127  0.3263
 4124TIP3    H212337   6.648   5.835   3.232  1.1497  0.8292  0.1995
 4125TIP3   OH212338   0.549   2.495   4.870  0.1255 -0.4887  0.1736
 4125TIP3    H112339   0.497   2.427   4.828  2.3557 -1.4773 -1.1636
 4125TIP3    H212340   0.614   2.519   4.804  0.3359  1.8981  1.1639
 4126TIP3   OH212341   4.404   3.988   3.367  0.1144  0.2997 -0.2234
 4126TIP3    H112342   4.393   4.071   3.412 -0.6923 -0.4311  0.9804
 4126TIP3    H212343   4.486   3.997   3.318  0.2895  1.6046  0.2947
 4127TIP3   OH212344   1.097   0.136   1.817  0.3228 -0.2825 -0.2318
 4127TIP3    H112345   1.171   0.191   1.843 -0.1394  1.1851 -1.8260
 4127TIP3    H212346   1.131   0.080   1.747  0.4965 -1.2893  0.6272
 4128TIP3   OH212347   1.335   4.733   3.210 -0.2744 -0.4381 -0.1760
 4128TIP3    H112348   1.262   4.702   3.263 -0.7587  0.3815 -0.3584
 4128TIP3    H212349   1.410   4.730   3.270  0.2040 -3.9505 -0.7310
 4129TIP3   OH212350   1.331   3.341   0.252  0.1123 -0.6749  0.4383
 4129TIP3    H112351   1.245   3.353   0.212 -0.5333 -1.2174  1.6010
 4129TIP3    H212352   1.353   3.250   0.232  0.3232 -0.6011  0.3332
 4130TIP3   OH212353   0.423   4.728   3.605 -1.1727  0.0473 -0.2189
 4130TIP3    H112354   0.371   4.746   3.527 -1.6526 -1.1746 -0.2004
 4130TIP3    H212355   0.513   4.747   3.578 -1.4095  0.3617 -0.8249
 4131TIP3   OH212356   3.307   5.297   0.668 -0.1731 -0.2166  0.1371
 4131TIP3    H112357   3.382   5.244   0.639 -0.7079 -0.9259  0.0339
 4131TIP3    H212358   3.307   5.287   0.763  0.3579  0.4720  0.2247
 4132TIP3   OH212359   5.166   0.539   5.810 -0.2533 -0.1461  0.2400
 4132TIP3    H112360   5.195   0.554   5.720  0.6414 -0.9588  0.3606
 4132TIP3    H212361   5.248   0.536   5.860 -0.7429  0.2803  1.0787
 4133TIP3   OH212362   2.591   6.545   2.480 -0.2672  0.2632 -0.5252
 4133TIP3    H112363   2.642   6.508   2.553  0.6540 -0.5811 -1.5528
 4133TIP3    H212364   2.572   6.470   2.424 -1.9552  0.7191 -0.5901
 4134TIP3   OH212365   2.216   5.446   3.148 -0.6241  0.3637 -0.0591
 4134TIP3    H112366   2.141   5.404   3.106 -0.3348  2.4434 -2.8905
 4134TIP3    H212367   2.278   5.374   3.161 -2.0832 -0.9498 -0.0031
 4135TIP3   OH212368   6.312   1.875   5.834 -0.3609 -0.0404  0.2827
 4135TIP3    H112369   6.287   1.843   5.921 -2.5207  1.1181  0.1491
 4135TIP3    H212370   6.328   1.968   5.846 -0.6914  0.1334 -0.5632
 4136TIP3   OH212371   4.104   4.007   2.661  0.2905  0.1608 -0.1404
 4136TIP3    H112372   4.167   4.076   2.639 -0.9183  1.7582  1.0476
 4136TIP3    H212373   4.085   4.022   2.754  0.5446 -2.3035  0.3661
 4137TIP3   OH212374   0.926   2.678   2.454  0.4112  0.2716  0.5510
 4137TIP3    H112375   0.905   2.595   2.412  2.0614 -0.0962  0.3509
 4137TIP3    H212376   0.907   2.664   2.547 -0.0966 -0.0507  0.3999
 4138TIP3   OH212377   1.404   2.528   1.768  0.4845 -0.0151  0.0646
 4138TIP3    H112378   1.400   2.494   1.858  0.0689  0.1499  0.1137
 4138TIP3    H212379   1.312   2.547   1.746  0.4879 -0.8747 -0.7118
 4139TIP3   OH212380   1.826   0.484   2.171  0.2338 -0.2579 -0.5074
 4139TIP3    H112381   1.920   0.499   2.178  0.5143 -2.3313  0.9935
 4139TIP3    H212382   1.815   0.441   2.086  1.1608 -2.9414  0.6242
 4140TIP3   OH212383   5.257   6.757   3.283 -0.4567  0.0307  0.1499
 4140TIP3    H112384   5.341   6.789   3.250  0.1181 -0.5475  0.9845
 4140TIP3    H212385   5.193   6.822   3.256  0.3357  0.7120 -0.1227
 4141TIP3   OH212386   6.696   3.622   5.578  0.1823  0.3556 -0.2570
 4141TIP3    H112387   6.666   3.713   5.574 -0.4739  0.1410 -0.2837
 4141TIP3    H212388   6.765   3.616   5.512 -0.2938  0.6390 -0.7782
 4142TIP3   OH212389   6.792   6.705   1.916  0.1026  0.6594 -0.9197
 4142TIP3    H112390   6.842   6.782   1.888 -0.1747  1.4879  0.7414
 4142TIP3    H212391   6.701   6.728   1.901 -0.0863  1.3044  0.9452
 4143TIP3   OH212392   6.383   6.201   1.815  0.0711  0.3797  0.0433
 4143TIP3    H112393   6.439   6.209   1.737  1.8540 -0.0480  1.2207
 4143TIP3    H212394   6.417   6.267   1.875  0.2523 -0.8324  1.3188
 4144TIP3   OH212395   2.720   2.246   5.617 -0.5375  0.0414 -0.2687
 4144TIP3    H112396   2.733   2.250   5.711 -1.9479 -0.7010 -0.0127
 4144TIP3    H212397   2.676   2.162   5.602 -0.3377  0.1480 -1.5896
 4145TIP3   OH212398   0.133   3.664   2.246 -0.3276 -0.9282 -0.4577
 4145TIP3    H112399   0.061   3.630   2.298  0.6391 -1.6265  0.4619
 4145TIP3    H212400   0.096   3.741   2.202 -0.8925  0.4395  2.1813
 4146TIP3   OH212401   1.150   0.520   5.054  0.0349  0.0695 -0.3179
 4146TIP3    H112402   1.215   0.543   4.988 -0.3611 -1.7332 -1.4141
 4146TIP3    H212403   1.078   0.582   5.039  1.0395  1.4348  0.2617
 4147TIP3   OH212404   5.859   4.821   3.899  0.6326  0.1363 -0.3311
 4147TIP3    H112405   5.911   4.838   3.977 -1.9397  0.1284  1.5063
 4147TIP3    H212406   5.851   4.907   3.856  0.4005  0.5789  0.5611
 4148TIP3   OH212407   0.587   1.019   0.157 -0.1740 -0.3411  0.0241
 4148TIP3    H112408   0.597   1.019   0.252  1.6769  0.2853 -0.1371
 4148TIP3    H212409   0.661   0.967   0.125 -1.5463 -1.7492 -1.0544
 4149TIP3   OH212410   2.533   4.457   4.301  0.3324  0.4833 -0.2749
 4149TIP3    H112411   2.451   4.467   4.349 -0.3462 -1.4074 -0.9469
 4149TIP3    H212412   2.600   4.488   4.362 -0.8201  1.7164  0.4288
 4150TIP3   OH212413   6.202   0.525   0.852  0.1259 -0.5600 -0.0243
 4150TIP3    H112414   6.260   0.589   0.893 -1.2372  1.4405 -1.0062
 4150TIP3    H212415   6.156   0.484   0.925 -0.8206  1.4846  0.6079
 4151TIP3   OH212416   6.353   2.142   4.739 -0.3321 -0.0414  0.4581
 4151TIP3    H112417   6.420   2.208   4.758  0.3193 -0.1088 -1.4007
 4151TIP3    H212418   6.280   2.192   4.702 -0.2548 -0.2332  0.0365
 4152TIP3   OH212419   1.637   2.693   2.968  0.0943 -0.0058 -0.3091
 4152TIP3    H112420   1.549   2.666   2.943 -0.0577 -0.8902  1.0581
 4152TIP3    H212421   1.650   2.653   3.054  2.0410 -0.3431 -0.7245
 4153TIP3   OH212422   2.276   6.743   4.706  0.2778 -0.4455 -0.4014
 4153TIP3    H112423   2.326   6.662   4.696  1.2257  0.0210  0.4188
 4153TIP3    H212424   2.210   6.723   4.772  0.4442 -0.5728 -0.2752
 4154TIP3   OH212425   4.152   2.950   0.955  0.5257  0.1069 -0.0434
 4154TIP3    H112426   4.160   2.931   1.048  0.1940  0.2113  0.0066
 4154TIP3    H212427   4.239   2.932   0.919  0.0940 -2.1642 -0.1083
 4155TIP3   OH212428   2.178   4.649   1.232  0.3494  0.1761  0.4390
 4155TIP3    H112429   2.150   4.621   1.145  1.0631  0.2905  0.1719
 4155TIP3    H212430   2.158   4.575   1.289 -2.2935  0.9276  0.6339
 4156TIP3   OH212431   2.653   5.407   5.260  0.3793 -0.3446 -0.4497
 4156TIP3    H112432   2.641   5.420   5.354  0.7211 -0.3748 -0.4008
 4156TIP3    H212433   2.565   5.409   5.224  0.2128 -0.7315 -0.0720
 4157TIP3   OH212434   2.637   0.436   0.313 -0.3470  0.6407  1.1826
 4157TIP3    H112435   2.601   0.375   0.249  1.6589 -0.8548  1.3928
 4157TIP3    H212436   2.576   0.432   0.387 -1.2481  0.3376  0.4355
 4158TIP3   OH212437   1.452   3.113   2.076 -0.2989  0.0434 -0.2872
 4158TIP3    H112438   1.508   3.157   2.140  1.0586 -2.0946  0.1016
 4158TIP3    H212439   1.363   3.132   2.104  0.2503  0.9867  0.9146
 4159TIP3   OH212440   0.854   4.707   2.186  0.2873 -0.7479  0.0615
 4159TIP3    H112441   0.795   4.648   2.139  0.7653 -1.9580  0.9263
 4159TIP3    H212442   0.939   4.696   2.143  0.0531  0.5234 -0.7808
 4160TIP3   OH212443   2.141   0.241   2.933 -0.2451  0.2659 -0.6132
 4160TIP3    H112444   2.073   0.208   2.875 -0.6468  1.5304 -0.8804
 4160TIP3    H212445   2.116   0.331   2.952  0.4301  0.2100  0.6973
 4161TIP3   OH212446   1.611   2.421   0.356 -0.2652 -0.0811  0.0332
 4161TIP3    H112447   1.598   2.512   0.329  1.6371  0.1902 -0.1377
 4161TIP3    H212448   1.551   2.370   0.302 -0.3572  0.9561 -0.8652
 4162TIP3   OH212449   2.396   2.991   4.573  0.1299  0.1517 -0.4301
 4162TIP3    H112450   2.444   3.015   4.494  0.8481 -0.0386 -0.0528
 4162TIP3    H212451   2.448   2.921   4.613 -0.5324 -0.1575 -0.0911
 4163TIP3   OH212452   0.392   4.030   1.973  0.0349 -0.0837 -0.3203
 4163TIP3    H112453   0.420   4.035   1.882 -0.1636  0.0006 -0.3789
 4163TIP3    H212454   0.463   4.071   2.023 -0.0102  0.1795 -0.4704
 4164TIP3   OH212455   4.949   3.816   0.600 -0.3501  0.3613 -0.6261
 4164TIP3    H112456   4.958   3.878   0.527 -0.3498  1.3961  0.2201
 4164TIP3    H212457   4.873   3.848   0.648 -0.0937 -0.0629  0.0636
 4165TIP3   OH212458   0.565   2.474   2.812 -0.5401 -0.3229 -0.1102
 4165TIP3    H112459   0.569   2.450   2.719  0.4965  0.9628 -0.4296
 4165TIP3    H212460   0.648   2.441   2.848 -0.4891  0.0676  0.1306
 4166TIP3   OH212461   2.514   2.187   0.765  0.0550  0.3515 -0.2739
 4166TIP3    H112462   2.441   2.249   0.766  0.1164  0.4150  0.2441
 4166TIP3    H212463   2.487   2.117   0.825 -0.5479 -0.7431 -1.7369
 4167TIP3   OH212464   3.179   3.625   4.137 -0.1315  0.0418 -0.0411
 4167TIP3    H112465   3.128   3.660   4.065 -0.5157 -1.0283 -0.3105
 4167TIP3    H212466   3.265   3.607   4.099  0.8747  2.8180  0.6555
 4168TIP3   OH212467   1.784   4.321   1.676 -0.0304  0.0550  0.0673
 4168TIP3    H112468   1.811   4.385   1.610 -2.7898 -1.7129 -3.0512
 4168TIP3    H212469   1.691   4.340   1.691 -0.7718 -2.7621 -0.5129
 4169TIP3   OH212470   3.238   2.940   3.931  0.0850  0.3143  0.7146
 4169TIP3    H112471   3.296   3.017   3.929  1.0192 -0.3754 -1.7365
 4169TIP3    H212472   3.209   2.929   3.841 -0.5181 -1.8817  1.1248
 4170TIP3   OH212473   2.608   5.646   4.415  0.4433 -0.2511 -0.2324
 4170TIP3    H112474   2.548   5.720   4.402 -0.2563 -0.9688 -1.2587
 4170TIP3    H212475   2.567   5.574   4.367  1.8237 -0.9235 -0.4305
 4171TIP3   OH212476   2.516   6.811   3.187 -0.1592  0.7207 -0.0292
 4171TIP3    H112477   2.444   6.799   3.124  1.3133  0.6391 -1.7838
 4171TIP3    H212478   2.509   6.736   3.246 -1.8595  1.0388  0.2215
 4172TIP3   OH212479   0.654   6.256   0.179  0.2485  0.0412  0.3920
 4172TIP3    H112480   0.588   6.186   0.178  0.0366  0.2367  0.6427
 4172TIP3    H212481   0.652   6.291   0.091 -0.1074  0.1601  0.4444
 4173TIP3   OH212482   5.061   3.432   0.165  0.3421  0.1422 -0.9367
 4173TIP3    H112483   4.981   3.483   0.176 -0.2798 -0.8506 -0.7040
 4173TIP3    H212484   5.041   3.371   0.094  0.9926  0.0548 -1.0555
 4174TIP3   OH212485   0.247   1.267   2.061  0.7263 -0.2500  0.5618
 4174TIP3    H112486   0.219   1.356   2.039 -0.1216 -0.7587 -0.5118
 4174TIP3    H212487   0.236   1.218   1.979 -1.2896 -1.9393  1.7375
 4175TIP3   OH212488   2.196   5.831   4.029  0.1047  0.0634 -0.2993
 4175TIP3    H112489   2.122   5.827   3.969 -0.5455 -0.2489  0.5044
 4175TIP3    H212490   2.158   5.813   4.115  0.9206  0.9924  0.2842
 4176TIP3   OH212491   6.690   0.818   1.378 -0.2346  0.4313  0.2970
 4176TIP3    H112492   6.656   0.901   1.345  0.0089  1.0891  1.6313
 4176TIP3    H212493   6.765   0.843   1.432 -0.4531 -0.6041  1.1144
 4177TIP3   OH212494   5.331   0.492   0.798  0.7183  0.2101 -0.0609
 4177TIP3    H112495   5.332   0.522   0.707  1.8236  0.1911 -0.0639
 4177TIP3    H212496   5.394   0.421   0.801  1.2286  0.6876  0.8747
 4178TIP3   OH212497   7.144   6.619   5.445 -0.2144 -0.2697 -0.4846
 4178TIP3    H112498   7.121   6.712   5.453 -0.0432 -0.2933  0.3228
 4178TIP3    H212499   7.067   6.572   5.477 -0.2173 -0.4034 -0.6872
 4179TIP3   OH212500   0.461   6.017   4.328  0.4170  0.3992  0.3590
 4179TIP3    H112501   0.438   6.065   4.407  0.0585  1.8123 -0.5529
 4179TIP3    H212502   0.377   5.986   4.293  0.4765  0.5152  0.1047
 4180TIP3   OH212503   6.059   0.408   5.012 -0.5171 -0.3223  0.1364
 4180TIP3    H112504   6.056   0.322   5.053 -2.4052 -1.9077 -2.9383
 4180TIP3    H212505   5.973   0.446   5.027  0.1237  0.8738  1.0062
 4181TIP3   OH212506   7.149   0.984   4.250  0.1572 -0.0929 -0.1087
 4181TIP3    H112507   7.160   1.062   4.304 -1.8026  1.1639 -1.3749
 4181TIP3    H212508   7.237   0.964   4.218  1.0151  0.3444  1.8613
 4182TIP3   OH212509   7.104   2.230   1.920  0.1558 -0.2335  0.5684
 4182TIP3    H112510   7.124   2.214   2.012  0.1947 -1.0493  0.4203
 4182TIP3    H212511   7.048   2.308   1.922  0.1425 -0.2497  1.2777
 4183TIP3   OH212512   0.170   1.629   2.299  0.3905 -0.4220 -0.0584
 4183TIP3    H112513   0.185   1.599   2.389  1.0026  1.0995  0.3689
 4183TIP3    H212514   0.191   1.722   2.301 -0.0718 -0.2635 -1.6762
 4184TIP3   OH212515   0.944   2.879   4.323 -0.0338 -0.0056  0.3328
 4184TIP3    H112516   0.979   2.964   4.296 -0.7036 -0.1142 -0.9536
 4184TIP3    H212517   0.985   2.862   4.408  3.2588 -0.2599 -1.1738
 4185TIP3   OH212518   6.895   5.274   4.606  0.0265 -0.6292  0.1032
 4185TIP3    H112519   6.920   5.322   4.685  0.5779 -1.3587  0.3809
 4185TIP3    H212520   6.806   5.304   4.588 -0.0340 -0.3009  0.8870
 4186TIP3   OH212521   3.554   5.274   3.633 -0.2918  0.1347  0.2056
 4186TIP3    H112522   3.495   5.302   3.703  1.2876 -1.1466  2.1447
 4186TIP3    H212523   3.611   5.350   3.619  0.0796  0.0199  1.0780
 4187TIP3   OH212524   3.537   6.541   2.089 -0.3541 -0.0013 -0.6559
 4187TIP3    H112525   3.453   6.495   2.089  0.0952 -0.8713  0.7807
 4187TIP3    H212526   3.600   6.476   2.057  0.2101 -0.2897  0.9508
 4188TIP3   OH212527   2.836   1.303   4.387 -0.1214  0.0823  0.0018
 4188TIP3    H112528   2.766   1.351   4.432 -1.0115 -0.3684 -0.8483
 4188TIP3    H212529   2.835   1.338   4.297  1.9222  1.2967  0.3866
 4189TIP3   OH212530   7.119   6.557   2.959  0.2356 -0.2769 -0.1264
 4189TIP3    H112531   7.197   6.602   2.989 -0.8626  0.6917  1.4877
 4189TIP3    H212532   7.127   6.468   2.994  0.9751 -0.4267 -0.6709
 4190TIP3   OH212533   6.125   2.436   3.324 -0.4923 -0.3201  0.7416
 4190TIP3    H112534   6.117   2.519   3.276 -0.6932 -0.5700  0.3425
 4190TIP3    H212535   6.061   2.378   3.283  0.0523 -0.8563  0.6489
 4191TIP3   OH212536   3.971   1.996   1.196 -0.0294 -0.4573 -0.0646
 4191TIP3    H112537   3.922   2.046   1.262  0.2732  0.2706 -0.3828
 4191TIP3    H212538   4.030   2.060   1.157  2.3823 -1.6269  1.4213
 4192TIP3   OH212539   4.369   6.641   0.342  0.7108  0.0296 -0.2175
 4192TIP3    H112540   4.366   6.546   0.327 -0.4882  0.1624 -1.0407
 4192TIP3    H212541   4.405   6.677   0.261  0.7859  0.2984 -0.0652
 4193TIP3   OH212542   6.740   2.927   5.066 -0.0237  0.0355  0.0432
 4193TIP3    H112543   6.668   2.933   5.129 -1.2722  2.2103 -1.4624
 4193TIP3    H212544   6.764   2.834   5.067 -2.1904 -0.5983  1.3047
 4194TIP3   OH212545   4.207   3.278   1.707 -0.0256 -0.3855 -0.5379
 4194TIP3    H112546   4.157   3.359   1.693  0.9862  0.6994  1.6316
 4194TIP3    H212547   4.141   3.209   1.711 -1.1404  0.6723 -0.0887
 4195TIP3   OH212548   1.559   0.843   3.557 -0.3039  0.7257 -0.0643
 4195TIP3    H112549   1.634   0.868   3.610  0.5407  0.2857 -1.0294
 4195TIP3    H212550   1.592   0.841   3.468 -2.2963  4.1601 -1.0865
 4196TIP3   OH212551   6.811   2.904   2.488 -0.7624 -0.0951 -0.4271
 4196TIP3    H112552   6.716   2.916   2.484 -0.6550  0.7553 -0.4971
 4196TIP3    H212553   6.847   2.981   2.445 -0.0098  0.0953  0.5230
 4197TIP3   OH212554   4.764   2.064   2.306 -0.2521  0.2162 -0.1077
 4197TIP3    H112555   4.848   2.022   2.328  0.0789  1.1152  0.3827
 4197TIP3    H212556   4.698   2.000   2.333  0.2248  0.2879  1.3111
 4198TIP3   OH212557   4.498   2.520   2.474 -0.0125  0.0685  0.3614
 4198TIP3    H112558   4.558   2.445   2.475 -0.2839 -0.1592  1.5132
 4198TIP3    H212559   4.475   2.533   2.566 -2.9338 -0.7932 -0.1622
 4199TIP3   OH212560   6.375   2.615   4.649  0.1105  0.1656 -0.2463
 4199TIP3    H112561   6.362   2.679   4.580 -1.5760  1.9991  1.6336
 4199TIP3    H212562   6.450   2.649   4.699  0.4589 -0.4120 -0.3627
 4200TIP3   OH212563   0.506   1.554   1.138 -0.5784  0.0137  0.2418
 4200TIP3    H112564   0.592   1.521   1.113 -0.8096 -0.0267 -0.5376
 4200TIP3    H212565   0.513   1.573   1.232 -0.3295 -1.8616  0.6366
 4201TIP3   OH212566   3.689   1.148   1.447 -0.3985 -0.1252  0.4223
 4201TIP3    H112567   3.708   1.076   1.508 -0.6103 -0.4213  0.1414
 4201TIP3    H212568   3.604   1.127   1.410 -0.7407  0.5940  0.7919
 4202TIP3   OH212569   3.747   1.373   0.780  0.4403  0.0415  0.0247
 4202TIP3    H112570   3.669   1.382   0.724 -0.8715  1.0422  1.8846
 4202TIP3    H212571   3.785   1.461   0.782  1.1237 -0.2423 -0.1571
 4203TIP3   OH212572   3.767   5.350   3.187 -0.0361  0.4245  0.1121
 4203TIP3    H112573   3.703   5.281   3.172  0.1074  0.1697  0.6453
 4203TIP3    H212574   3.781   5.351   3.282  0.3916  0.7976  0.0538
 4204TIP3   OH212575   6.941   2.585   4.869 -0.8943 -0.3281 -0.7469
 4204TIP3    H112576   6.976   2.635   4.795  1.2414 -0.3325  0.1686
 4204TIP3    H212577   7.018   2.564   4.922 -1.7644 -3.9399 -0.6549
 4205TIP3   OH212578   0.919   2.318   5.429 -0.2322  0.4945  0.2954
 4205TIP3    H112579   0.884   2.362   5.352  0.2100  0.6485  0.1806
 4205TIP3    H212580   0.895   2.376   5.502 -0.1168  0.6582  0.2049
 4206TIP3   OH212581   3.206   4.733   3.427  0.1096  0.3520 -0.0562
 4206TIP3    H112582   3.131   4.735   3.488 -0.5853 -1.5737 -0.7784
 4206TIP3    H212583   3.171   4.766   3.345 -0.4969 -2.0961 -0.8713
 4207TIP3   OH212584   4.827   6.664   5.594  0.1934 -0.0959 -0.1514
 4207TIP3    H112585   4.765   6.630   5.658 -0.8518  1.6252 -0.1964
 4207TIP3    H212586   4.780   6.664   5.511  1.1070 -1.0825 -0.6986
 4208TIP3   OH212587   4.126   0.279   2.514 -0.2968 -0.4667  0.5611
 4208TIP3    H112588   4.177   0.209   2.555 -0.9157 -0.8006  0.7789
 4208TIP3    H212589   4.049   0.289   2.571 -1.4155 -1.2643 -0.7519
 4209TIP3   OH212590   3.571   0.329   1.757 -0.2301  0.6985 -0.3246
 4209TIP3    H112591   3.604   0.280   1.682  0.8006 -0.9741  1.1437
 4209TIP3    H212592   3.482   0.299   1.769 -0.0500  0.1892 -0.2530
 4210TIP3   OH212593   6.852   5.151   2.754 -0.4004  0.2392  0.1485
 4210TIP3    H112594   6.873   5.244   2.744 -0.3950  0.6061  2.7593
 4210TIP3    H212595   6.908   5.122   2.826 -2.5147 -0.9938  1.3844
 4211TIP3   OH212596   5.937   4.933   3.583 -0.0259  0.8209  0.3799
 4211TIP3    H112597   5.891   4.961   3.504  0.0237  0.6130  0.2762
 4211TIP3    H212598   5.915   4.999   3.649 -2.7904 -0.6986  1.1587
 4212TIP3   OH212599   4.471   5.651   2.038 -0.0735  0.5870  0.8988
 4212TIP3    H112600   4.450   5.558   2.032 -1.6692  0.9780 -0.6757
 4212TIP3    H212601   4.562   5.657   2.009 -0.1163 -0.4248  0.4972
 4213TIP3   OH212602   0.705   6.192   5.192  0.0540  0.1459 -0.0634
 4213TIP3    H112603   0.624   6.152   5.222  0.9964 -0.1489  2.3663
 4213TIP3    H212604   0.769   6.120   5.190  0.7244  0.7250  0.0206
 4214TIP3   OH212605   7.131   0.971   1.470 -0.5239  0.7320 -0.4300
 4214TIP3    H112606   7.104   0.893   1.420  1.4023 -1.0476  1.1102
 4214TIP3    H212607   7.188   1.019   1.411  0.4249 -0.4853 -0.5467
 4215TIP3   OH212608   4.470   5.669   0.333  0.3841  0.5844  0.0201
 4215TIP3    H112609   4.418   5.713   0.266  3.1714  2.2439 -1.2671
 4215TIP3    H212610   4.445   5.577   0.327  0.5034  0.6495 -3.4237
 4216TIP3   OH212611   1.295   1.866   3.548 -0.2736  0.2258  0.0420
 4216TIP3    H112612   1.340   1.862   3.463  3.0459 -1.7480  1.6930
 4216TIP3    H212613   1.331   1.944   3.590  0.1486 -0.2946  0.6524
 4217TIP3   OH212614   6.029   1.235   2.516 -0.4416  0.8770  0.1946
 4217TIP3    H112615   5.982   1.201   2.593 -1.4562  1.1168 -0.2931
 4217TIP3    H212616   6.008   1.173   2.446 -0.9145  1.5583 -0.2831
 4218TIP3   OH212617   1.644   0.980   0.737  0.1235  0.8036  0.3000
 4218TIP3    H112618   1.578   0.938   0.682  1.4915 -0.0663 -0.7366
 4218TIP3    H212619   1.674   1.055   0.685  1.2860  0.0877 -0.1025
 4219TIP3   OH212620   5.111   3.299   0.447  0.0011 -0.1417  0.2221
 4219TIP3    H112621   5.052   3.359   0.400  2.1988  1.2607 -0.9092
 4219TIP3    H212622   5.150   3.352   0.516  1.5792 -0.3668 -0.4477
 4220TIP3   OH212623   1.117   2.190   2.381 -0.0786 -0.2321  0.2183
 4220TIP3    H112624   1.182   2.216   2.446  1.5755  0.1996 -1.5163
 4220TIP3    H212625   1.072   2.115   2.421  1.7693 -0.8224  1.3284
 4221TIP3   OH212626   4.856   3.418   4.268  0.1907  0.3443  0.0541
 4221TIP3    H112627   4.943   3.458   4.265  0.2585  0.1530 -1.8413
 4221TIP3    H212628   4.795   3.491   4.275  0.4266  0.6215 -0.7330
 4222TIP3   OH212629   0.906   4.733   2.974  0.1153  0.1451 -0.5018
 4222TIP3    H112630   0.814   4.731   2.950  0.6929 -1.4644 -2.9494
 4222TIP3    H212631   0.937   4.644   2.958  2.4740  1.0772 -1.6209
 4223TIP3   OH212632   1.531   0.848   2.698 -0.3005 -0.7291 -0.2451
 4223TIP3    H112633   1.437   0.864   2.688  0.2375  1.6483 -2.3828
 4223TIP3    H212634   1.558   0.906   2.769 -0.3666 -1.1879  0.1624
 4224TIP3   OH212635   3.667   6.746   4.638 -0.4268 -0.1198 -0.2814
 4224TIP3    H112636   3.717   6.798   4.700 -1.0458 -0.0394  0.1663
 4224TIP3    H212637   3.577   6.746   4.673 -0.2744 -2.2997  0.3020
 4225TIP3   OH212638   1.039   5.677   3.145 -0.3143 -0.3120 -0.1015
 4225TIP3    H112639   0.966   5.643   3.094 -0.4019  0.9472 -0.8725
 4225TIP3    H212640   0.998   5.735   3.209 -0.0499 -0.2626  0.0254
 4226TIP3   OH212641   4.712   3.981   3.484 -0.1535 -0.0573  0.5908
 4226TIP3    H112642   4.641   3.988   3.547  0.0523  1.0066  0.7170
 4226TIP3    H212643   4.783   4.035   3.520 -0.3269  1.2497 -0.9159
 4227TIP3   OH212644   6.959   6.255   2.893 -0.5019 -0.0509  0.1669
 4227TIP3    H112645   6.993   6.260   2.983  1.4145  1.4111 -0.5668
 4227TIP3    H212646   6.994   6.172   2.859  0.1339  0.1672  0.2725
 4228TIP3   OH212647   5.386   0.737   0.172  0.0593 -0.1794  0.3294
 4228TIP3    H112648   5.322   0.808   0.184  1.0524  0.5139  1.8925
 4228TIP3    H212649   5.341   0.660   0.207 -0.1062  0.2153  1.0266
 4229TIP3   OH212650   5.631   0.405   2.517 -0.2306  0.3766 -0.6171
 4229TIP3    H112651   5.695   0.456   2.567 -1.0055  1.0880 -0.3347
 4229TIP3    H212652   5.565   0.380   2.581 -0.2480 -0.3438 -0.9123
 4230TIP3   OH212653   1.950   4.972   1.491  0.2944 -0.0565 -0.2847
 4230TIP3    H112654   1.967   4.970   1.586  0.0553 -1.0157 -0.2564
 4230TIP3    H212655   2.030   4.937   1.452  0.7578  1.1945 -0.5050
 4231TIP3   OH212656   3.501   1.363   3.086  0.0892 -0.0134  0.1219
 4231TIP3    H112657   3.577   1.314   3.055  0.6539  0.7475  0.2725
 4231TIP3    H212658   3.440   1.363   3.013  0.5126 -0.0629 -0.2305
 4232TIP3   OH212659   2.053   6.675   5.241  0.1569  0.1830  0.6957
 4232TIP3    H112660   2.048   6.593   5.192  0.6013  1.0077 -0.7834
 4232TIP3    H212661   2.053   6.648   5.333  1.5270 -1.5590  0.2397
 4233TIP3   OH212662   5.317   3.368   3.380 -0.1610  0.2797 -0.1536
 4233TIP3    H112663   5.405   3.385   3.346  0.7194  0.1692  1.9352
 4233TIP3    H212664   5.325   3.284   3.424 -1.0548  0.7348  0.9018
 4234TIP3   OH212665   5.581   0.393   5.291  0.3844  1.0629  0.3748
 4234TIP3    H112666   5.514   0.461   5.283 -0.5946 -0.0705 -1.8387
 4234TIP3    H212667   5.664   0.440   5.293 -0.3367  2.3689  0.1533
 4235TIP3   OH212668   0.111   2.309   0.478  0.2312  0.7237 -0.3532
 4235TIP3    H112669   0.028   2.280   0.516  0.2455 -1.3733 -1.7449
 4235TIP3    H212670   0.085   2.365   0.405  0.1089  1.6499  0.3905
 4236TIP3   OH212671   6.013   5.346   5.487  0.0651  0.4197  0.2779
 4236TIP3    H112672   6.057   5.431   5.496  0.1308  0.3984  0.1616
 4236TIP3    H212673   5.974   5.348   5.400 -0.8102  0.7343  0.6718
 4237TIP3   OH212674   5.397   3.876   5.840 -0.3454  0.0061 -0.0780
 4237TIP3    H112675   5.485   3.908   5.863  0.2509 -0.3661 -1.6619
 4237TIP3    H212676   5.357   3.854   5.924  0.3941  1.8804  0.8319
 4238TIP3   OH212677   2.271   2.342   0.668  0.2770  0.1582  0.0741
 4238TIP3    H112678   2.224   2.282   0.609  0.6101 -1.4436  1.3675
 4238TIP3    H212679   2.202   2.392   0.711 -0.1621 -0.9353  0.6701
 4239TIP3   OH212680   0.683   0.496   5.529  0.2974  0.4048 -0.3793
 4239TIP3    H112681   0.689   0.517   5.622  0.3957  0.7490 -0.4632
 4239TIP3    H212682   0.624   0.562   5.493 -1.1853 -0.7730 -0.2365
 4240TIP3   OH212683   5.755   4.268   5.705 -0.0115 -0.2783  0.2878
 4240TIP3    H112684   5.840   4.250   5.664 -0.2778  1.4594 -1.1483
 4240TIP3    H212685   5.695   4.206   5.664  0.1759 -0.0822 -0.2965
 4241TIP3   OH212686   5.542   4.722   4.574 -0.6196 -0.3106  0.1740
 4241TIP3    H112687   5.585   4.650   4.528 -0.9319  0.0344 -0.6746
 4241TIP3    H212688   5.578   4.801   4.534 -0.0752  0.0189  1.2939
 4242TIP3   OH212689   3.305   5.775   1.910  0.1316  0.0319 -0.1390
 4242TIP3    H112690   3.283   5.695   1.958  2.0614 -0.0452  0.6936
 4242TIP3    H212691   3.248   5.774   1.833 -1.2941 -1.0970  0.8875
 4243TIP3   OH212692   5.959   2.207   4.220 -0.1379 -0.5474 -0.0862
 4243TIP3    H112693   5.958   2.134   4.283 -1.6439 -0.9940 -0.5818
 4243TIP3    H212694   5.883   2.260   4.243 -0.2453 -0.2759 -1.0324
 4244TIP3   OH212695   6.763   5.964   4.306  1.2059 -0.1945  0.1805
 4244TIP3    H112696   6.843   5.923   4.339  0.8632  0.6447  2.2376
 4244TIP3    H212697   6.692   5.921   4.354  0.6658  0.9427  0.4553
 4245TIP3   OH212698   1.740   5.952   3.202  0.1858  0.1751 -0.3700
 4245TIP3    H112699   1.735   5.867   3.245 -0.5114  0.5880  0.4242
 4245TIP3    H212700   1.819   5.949   3.148  0.5336 -0.7234  0.1813
 4246TIP3   OH212701   1.810   4.926   2.447  0.3089 -0.4804 -0.1548
 4246TIP3    H112702   1.817   5.019   2.430  0.5754 -0.2352  1.1888
 4246TIP3    H212703   1.777   4.920   2.537  1.5139 -1.6627  0.2466
 4247TIP3   OH212704   5.728   6.602   3.529 -0.1071 -0.0820  0.2312
 4247TIP3    H112705   5.821   6.587   3.547  0.4078 -2.5097 -3.4314
 4247TIP3    H212706   5.728   6.673   3.465 -0.4324 -1.8416 -1.8253
 4248TIP3   OH212707   0.402   1.351   3.247  0.0046  0.2238 -0.4359
 4248TIP3    H112708   0.336   1.421   3.247 -0.9843 -0.6884  0.6744
 4248TIP3    H212709   0.377   1.294   3.174 -1.0846 -0.6886  0.6193
 4249TIP3   OH212710   5.524   4.013   2.445  0.3086  0.2057 -0.0054
 4249TIP3    H112711   5.500   3.967   2.526 -1.6765  0.8206 -0.1999
 4249TIP3    H212712   5.569   3.947   2.392 -0.7689 -0.9759  0.5099
 4250TIP3   OH212713   5.385   1.483   3.957  0.0740 -0.2930  0.9192
 4250TIP3    H112714   5.365   1.574   3.980  0.2772 -0.0809  0.2915
 4250TIP3    H212715   5.325   1.431   4.010 -1.4155  0.2782 -0.1161
 4251TIP3   OH212716   1.202   0.155   3.473 -0.0778 -0.0123 -0.0650
 4251TIP3    H112717   1.216   0.109   3.390 -2.1361 -0.4096 -0.2520
 4251TIP3    H212718   1.235   0.243   3.457 -0.0777 -0.1947 -1.1775
 4252TIP3   OH212719   2.660   4.279   0.892 -0.3800  0.5284 -0.2018
 4252TIP3    H112720   2.571   4.312   0.908 -1.7198 -2.6402 -0.4865
 4252TIP3    H212721   2.717   4.350   0.923 -2.9605  2.5985  0.2074
 4253TIP3   OH212722   5.664   6.457   1.939 -0.2552 -0.2658 -0.2251
 4253TIP3    H112723   5.585   6.403   1.940 -0.6756  0.1591  3.0608
 4253TIP3    H212724   5.634   6.543   1.910 -0.3561 -0.7953 -1.7761
 4254TIP3   OH212725   1.900   5.151   2.163  0.7919  0.1734  0.1908
 4254TIP3    H112726   1.982   5.189   2.132  0.4305  0.7276 -0.0918
 4254TIP3    H212727   1.915   5.135   2.256  2.3102 -2.6271 -0.4413
 4255TIP3   OH212728   6.156   6.612   4.610 -0.5568  0.3139  0.0197
 4255TIP3    H112729   6.104   6.629   4.532  1.3426  1.5398 -1.0493
 4255TIP3    H212730   6.244   6.594   4.577  0.5841  2.0233  1.9073
 4256TIP3   OH212731   4.429   0.712   0.669  0.4665  0.5386 -0.6682
 4256TIP3    H112732   4.437   0.722   0.764  0.4051  0.3496 -0.6416
 4256TIP3    H212733   4.514   0.678   0.641  0.3934  0.3266 -0.6408
 4257TIP3   OH212734   1.972   2.692   0.753 -0.0939  0.2053  0.4527
 4257TIP3    H112735   1.932   2.749   0.687 -1.9844 -1.0391  0.4742
 4257TIP3    H212736   1.904   2.629   0.776  1.8946 -2.1072  0.4416
 4258TIP3   OH212737   0.904   5.943   0.483 -1.0046 -0.4378 -0.7099
 4258TIP3    H112738   0.923   5.927   0.575 -1.4455 -1.1805 -0.7359
 4258TIP3    H212739   0.881   6.036   0.478 -2.3796 -0.7047  0.1749
 4259TIP3   OH212740   0.457   1.699   4.029 -0.0508  0.0698 -1.0236
 4259TIP3    H112741   0.377   1.740   4.062 -0.5569 -1.2946 -0.5148
 4259TIP3    H212742   0.453   1.710   3.934 -2.5821 -2.9609 -1.3917
 4260TIP3   OH212743   1.371   5.342   0.554  0.6845  0.3405 -0.2171
 4260TIP3    H112744   1.277   5.339   0.573  0.9107 -0.0301  0.9157
 4260TIP3    H212745   1.376   5.345   0.459 -0.4696 -0.0275 -0.3070
 4261TIP3   OH212746   6.908   3.217   5.706  1.3635 -0.0939 -0.4941
 4261TIP3    H112747   6.936   3.157   5.776  0.9303 -2.2357 -2.0812
 4261TIP3    H212748   6.869   3.160   5.640  1.7836  1.8592 -2.5151
 4262TIP3   OH212749   1.200   3.464   3.062  0.0037 -0.2982 -0.0623
 4262TIP3    H112750   1.233   3.463   2.973  1.1985  0.0801  0.3616
 4262TIP3    H212751   1.278   3.451   3.117 -0.5464  0.6233  0.9634
 4263TIP3   OH212752   6.487   4.550   0.409 -0.4903  0.0429 -0.0121
 4263TIP3    H112753   6.405   4.555   0.458 -1.0388  0.3110 -0.9286
 4263TIP3    H212754   6.520   4.461   0.426  0.2890  0.6921  2.2841
 4264TIP3   OH212755   4.553   4.490   4.168 -0.8321 -0.0942 -0.1114
 4264TIP3    H112756   4.591   4.577   4.158 -0.7744 -0.0017  0.7916
 4264TIP3    H212757   4.518   4.468   4.081  0.8471  0.0027 -0.8474
 4265TIP3   OH212758   2.522   1.901   1.578  0.2400  0.1754 -0.0632
 4265TIP3    H112759   2.575   1.826   1.549 -1.5673 -1.4957  0.7770
 4265TIP3    H212760   2.545   1.971   1.516  2.6345 -0.7523 -0.3454
 4266TIP3   OH212761   2.385   6.039   4.163  0.0429 -0.1557 -0.3859
 4266TIP3    H112762   2.339   5.956   4.151 -0.5680 -0.1815  1.7345
 4266TIP3    H212763   2.324   6.105   4.131  0.1253 -0.4408 -1.1521
 4267TIP3   OH212764   0.273   4.641   1.915 -0.6916 -0.4857 -0.0271
 4267TIP3    H112765   0.196   4.682   1.877 -1.1005 -0.8298  0.4130
 4267TIP3    H212766   0.293   4.695   1.992 -0.1963 -0.1111 -0.4128
 4268TIP3   OH212767   0.657   2.141   2.329 -0.4901 -0.3906 -0.7782
 4268TIP3    H112768   0.658   2.051   2.296 -0.2971 -0.4706 -0.5558
 4268TIP3    H212769   0.709   2.190   2.265  1.6000 -0.9179  0.4222
 4269TIP3   OH212770   0.174   3.615   4.241 -0.4798  0.2678 -0.1297
 4269TIP3    H112771   0.142   3.705   4.231 -0.9597  0.3183  1.5173
 4269TIP3    H212772   0.097   3.560   4.225 -0.1749  0.1234 -1.1888
 4270TIP3   OH212773   2.489   0.569   3.559  0.7687 -0.4635  0.6353
 4270TIP3    H112774   2.394   0.555   3.553  0.4446  0.8256  1.9635
 4270TIP3    H212775   2.520   0.502   3.619  0.8990 -1.5618 -0.6264
 4271TIP3   OH212776   3.763   4.534   5.394 -0.6813 -0.4846 -0.0346
 4271TIP3    H112777   3.733   4.590   5.322  2.2246 -0.1151 -1.0742
 4271TIP3    H212778   3.773   4.448   5.354  2.2235  0.0006 -0.5471
 4272TIP3   OH212779   6.205   6.608   2.563  0.2521 -0.2209  0.5183
 4272TIP3    H112780   6.196   6.514   2.575 -0.9732 -0.1991 -0.0635
 4272TIP3    H212781   6.123   6.645   2.596  0.3349  0.5517 -0.0932
 4273TIP3   OH212782   6.934   6.474   0.372  0.5648  0.4141  0.0843
 4273TIP3    H112783   6.865   6.411   0.350  0.7496  0.1720  0.1984
 4273TIP3    H212784   7.013   6.421   0.382  1.0205  0.8016 -1.1654
 4274TIP3   OH212785   6.196   2.190   0.539  0.1381  0.1912 -0.2751
 4274TIP3    H112786   6.183   2.271   0.588 -1.1897 -0.8422  1.1950
 4274TIP3    H212787   6.142   2.200   0.461 -0.5709  0.4604  0.2416
 4275TIP3   OH212788   5.516   1.542   2.161 -0.0500  0.1372 -0.1331
 4275TIP3    H112789   5.577   1.476   2.129 -1.8135 -1.3844 -0.5867
 4275TIP3    H212790   5.458   1.558   2.087 -0.8790  0.6802  0.6151
 4276TIP3   OH212791   2.934   5.129   0.931 -0.1058 -0.2221  0.1938
 4276TIP3    H112792   2.998   5.058   0.933 -0.2241 -0.3956 -1.2331
 4276TIP3    H212793   2.964   5.187   0.862 -1.0282  0.1391  0.0784
 4277TIP3   OH212794   2.860   2.211   2.482 -0.2480 -0.7509 -0.2840
 4277TIP3    H112795   2.802   2.259   2.423 -1.2568 -1.8183 -0.1936
 4277TIP3    H212796   2.858   2.122   2.449 -2.1560 -1.7672  2.2546
 4278TIP3   OH212797   3.794   1.582   4.402 -0.6239 -0.4028  0.3954
 4278TIP3    H112798   3.780   1.603   4.494 -0.2426  1.4544  0.0665
 4278TIP3    H212799   3.738   1.643   4.355 -0.5532 -1.1018 -0.6265
 4279TIP3   OH212800   3.485   0.920   1.956  0.6176  0.0040 -0.6272
 4279TIP3    H112801   3.437   0.995   1.921 -1.4455 -0.9911 -0.0594
 4279TIP3    H212802   3.575   0.952   1.964 -0.2311  2.5522 -0.0897
 4280TIP3   OH212803   6.878   2.128   5.387  0.0544  0.1599  0.5336
 4280TIP3    H112804   6.790   2.094   5.369  0.4208 -1.4594  1.5804
 4280TIP3    H212805   6.936   2.052   5.377  1.1457  0.8669  1.2449
 4281TIP3   OH212806   4.868   5.438   3.738 -0.1923  0.5325  0.0969
 4281TIP3    H112807   4.885   5.531   3.751  1.2113  0.1370  1.3711
 4281TIP3    H212808   4.828   5.433   3.652 -0.8834  2.3771  0.2672
 4282TIP3   OH212809   2.267   1.070   5.112 -0.6117 -0.4090  0.2387
 4282TIP3    H112810   2.276   0.992   5.057  2.0042  0.7547 -1.1404
 4282TIP3    H212811   2.291   1.040   5.200 -1.2558 -1.5007  0.0589
 4283TIP3   OH212812   4.661   0.527   4.403 -0.2686 -0.1204  0.1348
 4283TIP3    H112813   4.613   0.510   4.484  0.3360 -0.0269  0.5172
 4283TIP3    H212814   4.595   0.562   4.343 -0.4866  0.9514  0.9680
 4284TIP3   OH212815   0.292   3.752   3.543 -0.0282 -0.0486 -0.2844
 4284TIP3    H112816   0.244   3.750   3.625 -0.5387 -0.0745 -0.5793
 4284TIP3    H212817   0.372   3.702   3.560 -0.3581 -0.4626  0.0481
 4285TIP3   OH212818   3.190   6.603   1.853 -0.3312 -0.4363  0.4324
 4285TIP3    H112819   3.218   6.567   1.938 -1.8079  1.4556  1.8124
 4285TIP3    H212820   3.104   6.565   1.839 -1.2059  1.1916  1.1145
 4286TIP3   OH212821   1.471   1.645   2.534  0.1298 -0.3830 -0.4496
 4286TIP3    H112822   1.484   1.562   2.579  1.2140  0.7572  1.5189
 4286TIP3    H212823   1.549   1.696   2.557 -1.2161  1.7154 -0.2618
 4287TIP3   OH212824   4.297   4.541   1.915 -0.0538 -0.5176 -0.4338
 4287TIP3    H112825   4.296   4.587   1.832  0.5224  0.8209  0.2710
 4287TIP3    H212826   4.387   4.510   1.924  0.0498 -0.1111 -0.0279
 4288TIP3   OH212827   5.490   1.297   2.381  0.0051  0.5587 -1.0208
 4288TIP3    H112828   5.415   1.294   2.322 -1.0514 -1.1515  0.3160
 4288TIP3    H212829   5.494   1.209   2.420  2.6289  0.6210 -0.9285
 4289TIP3   OH212830   4.221   2.821   1.198  0.3440  0.6391  0.6719
 4289TIP3    H112831   4.186   2.811   1.286 -0.2967 -2.2433  0.2104
 4289TIP3    H212832   4.315   2.806   1.207  0.1856 -0.3656  0.8272
 4290TIP3   OH212833   1.189   2.911   2.534 -0.4870 -0.1428  0.4529
 4290TIP3    H112834   1.141   2.886   2.455  0.3496 -1.3670  0.2937
 4290TIP3    H212835   1.251   2.978   2.504  0.8190 -1.6088 -0.2943
 4291TIP3   OH212836   6.860   0.941   2.239 -0.0032 -0.5092 -0.1079
 4291TIP3    H112837   6.855   0.874   2.172  1.5717  0.0692 -0.8465
 4291TIP3    H212838   6.829   1.021   2.196  1.4623 -0.0292 -0.3432
 4292TIP3   OH212839   1.197   2.357   1.205  0.2215  0.3437 -0.1941
 4292TIP3    H112840   1.198   2.386   1.296  2.0501 -1.7978  0.5769
 4292TIP3    H212841   1.262   2.412   1.161  1.3400 -0.4022  0.4821
 4293TIP3   OH212842   5.181   2.480   1.580 -0.3906  0.1253  0.3813
 4293TIP3    H112843   5.106   2.427   1.553  0.5571 -1.9371  1.5923
 4293TIP3    H212844   5.248   2.464   1.514 -0.8728  1.8085 -0.5865
 4294TIP3   OH212845   3.526   4.312   1.461 -0.3884 -0.4962  0.2017
 4294TIP3    H112846   3.584   4.238   1.444  0.3541  0.0714  0.2041
 4294TIP3    H212847   3.583   4.389   1.458 -1.3317  0.2004 -0.9480
 4295TIP3   OH212848   4.401   2.440   3.827  0.1413  0.4558 -0.0377
 4295TIP3    H112849   4.489   2.468   3.802  0.4076 -0.6552 -0.3594
 4295TIP3    H212850   4.411   2.352   3.862 -1.1587 -0.8713 -2.6619
 4296TIP3   OH212851   1.702   1.756   1.517 -0.3381  0.1400 -0.3855
 4296TIP3    H112852   1.740   1.815   1.583 -3.0114  0.8448  0.6615
 4296TIP3    H212853   1.759   1.765   1.441  0.7333  2.2313  0.5729
 4297TIP3   OH212854   6.923   3.500   0.120 -0.5338  0.4489  0.3985
 4297TIP3    H112855   6.908   3.447   0.042  0.5799 -1.0326  1.1223
 4297TIP3    H212856   6.874   3.580   0.105 -0.6533  0.0465 -1.6426
 4298TIP3   OH212857   2.188   4.774   4.601 -0.2268 -0.0122 -0.2448
 4298TIP3    H112858   2.131   4.781   4.524  1.2377  1.6085 -1.2351
 4298TIP3    H212859   2.232   4.859   4.606 -0.1912 -0.1195  2.3335
 4299TIP3   OH212860   4.940   6.671   1.201 -0.1072  0.0467  0.1272
 4299TIP3    H112861   4.907   6.613   1.270 -0.3052 -0.6894 -0.5852
 4299TIP3    H212862   5.011   6.622   1.160  2.3658  1.7800  1.9627
 4300TIP3   OH212863   4.460   0.098   3.262 -0.1660 -0.5043 -0.3561
 4300TIP3    H112864   4.531   0.107   3.326  0.2422 -0.8193 -0.7616
 4300TIP3    H212865   4.493   0.037   3.197 -0.9243 -0.8872 -0.3960
 4301TIP3   OH212866   0.903   6.006   5.591 -0.1552 -0.2624  0.2349
 4301TIP3    H112867   0.870   6.096   5.595  0.4345 -0.0790  1.6077
 4301TIP3    H212868   0.889   5.979   5.500 -4.0701 -0.2304  0.6334
 4302TIP3   OH212869   4.069   5.785   2.201  0.0713 -0.5281 -0.2176
 4302TIP3    H112870   4.133   5.828   2.257  0.3297  2.2112 -2.3800
 4302TIP3    H212871   3.984   5.815   2.234  0.1320 -0.4773 -0.1087
 4303TIP3   OH212872   0.541   4.387   2.768  0.1616 -0.0430 -0.0267
 4303TIP3    H112873   0.582   4.387   2.682 -0.2131  1.3942 -0.2241
 4303TIP3    H212874   0.463   4.442   2.758 -0.7719 -1.1465  0.8269
 4304TIP3   OH212875   6.666   3.949   4.936  0.4928 -0.1870 -0.0289
 4304TIP3    H112876   6.603   3.876   4.943 -1.3782  1.3906  0.5240
 4304TIP3    H212877   6.728   3.934   5.007 -0.7607 -0.4683  1.0538
 4305TIP3   OH212878   6.028   0.685   1.211 -0.2452 -0.3227  0.5746
 4305TIP3    H112879   5.968   0.741   1.161  0.1233  1.1153  1.6815
 4305TIP3    H212880   5.971   0.625   1.259 -0.6738 -0.5699 -0.2255
 4306TIP3   OH212881   3.000   2.258   3.257 -0.2402 -0.2305 -0.5488
 4306TIP3    H112882   2.922   2.309   3.277 -0.3245 -0.3859 -0.4845
 4306TIP3    H212883   3.028   2.223   3.341 -1.0516 -1.5459 -0.7993
 4307TIP3   OH212884   4.593   0.496   0.109  0.0519 -0.6202  0.0334
 4307TIP3    H112885   4.633   0.497   0.022  1.7756 -0.7986  0.7711
 4307TIP3    H212886   4.583   0.403   0.129 -0.1342 -0.5842  0.1076
 4308TIP3   OH212887   4.460   3.958   3.670 -0.0798 -0.2563 -0.2602
 4308TIP3    H112888   4.434   3.970   3.762 -0.2646  1.6037 -0.5091
 4308TIP3    H212889   4.380   3.975   3.621 -0.0772 -1.6463 -0.7658
 4309TIP3   OH212890   2.271   6.691   1.243  0.0427 -0.3696  0.1007
 4309TIP3    H112891   2.332   6.762   1.224 -1.2194  0.4723 -1.0957
 4309TIP3    H212892   2.316   6.612   1.214  0.3656  0.2942 -1.3256
 4310TIP3   OH212893   2.116   0.650   3.954 -0.0708 -0.4290  0.1668
 4310TIP3    H112894   2.172   0.573   3.963  0.1882 -0.1546  1.0388
 4310TIP3    H212895   2.052   0.642   4.025  0.7456  0.7746  1.1028
 4311TIP3   OH212896   3.962   5.079   2.752  0.2981 -0.2966 -0.1984
 4311TIP3    H112897   3.886   5.108   2.803 -1.5728 -0.6931 -2.5917
 4311TIP3    H212898   3.932   5.000   2.707  2.2763 -0.6986 -0.9225
 4312TIP3   OH212899   4.378   6.450   1.028 -0.8127 -0.0836 -0.1264
 4312TIP3    H112900   4.383   6.451   0.932 -0.8979  1.0115 -0.1366
 4312TIP3    H212901   4.422   6.531   1.055 -1.4108 -0.0316  0.7277
 4313TIP3   OH212902   3.764   3.986   5.488  0.1265 -0.5533  0.4866
 4313TIP3    H112903   3.718   3.977   5.404 -2.1065  0.0406  1.5714
 4313TIP3    H212904   3.832   3.919   5.485 -0.8474 -1.5521 -1.2103
 4314TIP3   OH212905   4.648   4.771   1.997  0.0495 -0.0602  0.0413
 4314TIP3    H112906   4.601   4.854   1.991 -2.3102 -1.1830  1.2585
 4314TIP3    H212907   4.627   4.726   1.915 -2.5674 -1.2155  1.2265
 4315TIP3   OH212908   5.110   3.050   5.694  0.3997  0.6329 -0.2166
 4315TIP3    H112909   5.052   3.077   5.765  0.9638 -0.1689  0.5718
 4315TIP3    H212910   5.064   2.978   5.651 -0.0099  1.2175 -0.7731
 4316TIP3   OH212911   5.718   3.500   4.172  0.1373 -0.4334  0.0091
 4316TIP3    H112912   5.637   3.505   4.224 -0.1059 -0.8036 -0.3298
 4316TIP3    H212913   5.755   3.415   4.195  0.9276  0.1346  0.8840
 4317TIP3   OH212914   3.865   1.843   1.861 -0.3843  0.4298  0.4413
 4317TIP3    H112915   3.831   1.762   1.823 -0.7989 -0.4641  2.5737
 4317TIP3    H212916   3.935   1.870   1.802  0.2256 -1.8751  0.0246
 4318TIP3   OH212917   1.056   1.162   0.208  0.4791  0.3389 -0.4108
 4318TIP3    H112918   1.024   1.100   0.274 -0.8275  0.2723 -1.0698
 4318TIP3    H212919   1.043   1.117   0.125  0.8077  0.9611 -0.8051
 4319TIP3   OH212920   4.912   2.010   1.357 -0.0844 -0.0470 -0.4065
 4319TIP3    H112921   4.949   2.086   1.313 -0.6267  0.5885  0.2241
 4319TIP3    H212922   4.973   1.992   1.429  1.4674 -1.8215 -2.0493
 4320TIP3   OH212923   2.236   2.439   0.047 -0.2164  0.2937 -0.6882
 4320TIP3    H112924   2.286   2.521   0.042 -0.8040  0.6454 -0.9094
 4320TIP3    H212925   2.172   2.446  -0.024 -1.6150  0.5468  0.5631
 4321TIP3   OH212926   6.120   1.790   2.399 -0.1981  0.1780 -0.4216
 4321TIP3    H112927   6.102   1.755   2.487 -1.5807 -0.6399 -1.0128
 4321TIP3    H212928   6.051   1.754   2.344  0.3025  1.1760 -1.7424
 4322TIP3   OH212929   3.074   0.959   2.592 -0.4038  0.1667 -0.2361
 4322TIP3    H112930   3.117   0.991   2.513 -1.8317  0.6567 -0.8644
 4322TIP3    H212931   3.071   1.036   2.650 -0.4103  0.1294 -0.1871
 4323TIP3   OH212932   7.162   3.837   2.892 -0.1940 -0.5181 -0.2514
 4323TIP3    H112933   7.134   3.928   2.878 -0.4850 -0.5014  0.3927
 4323TIP3    H212934   7.173   3.830   2.987  1.1942 -0.7597 -0.4068
 4324TIP3   OH212935   4.792   2.178   2.910 -0.2608  0.0728  0.3112
 4324TIP3    H112936   4.832   2.091   2.911 -0.7006 -0.1801  2.7952
 4324TIP3    H212937   4.711   2.167   2.961 -1.2208  1.5633 -0.8186
 4325TIP3   OH212938   2.076   1.940   5.260  0.0503  0.1327  0.3759
 4325TIP3    H112939   2.027   1.952   5.178  1.8753 -0.7218 -0.9121
 4325TIP3    H212940   2.159   1.900   5.232  0.4406 -0.8493  2.7315
 4326TIP3   OH212941   6.155   4.048   5.261  0.6380 -0.5244  0.1250
 4326TIP3    H112942   6.190   4.137   5.264 -0.9416  0.1004  1.2513
 4326TIP3    H212943   6.132   4.035   5.169  0.7800  0.2839 -0.0348
 4327TIP3   OH212944   4.669   5.921   2.333 -0.1507  1.0045 -0.0960
 4327TIP3    H112945   4.643   5.837   2.369  0.3461  0.4090 -1.0865
 4327TIP3    H212946   4.586   5.966   2.314 -0.4631  0.0451 -1.1191
 4328TIP3   OH212947   3.054   2.607   1.334 -0.3037 -0.1585  0.0602
 4328TIP3    H112948   2.965   2.615   1.368  0.0119 -0.4525  0.9978
 4328TIP3    H212949   3.052   2.651   1.250 -0.8104  1.7803  1.0317
 4329TIP3   OH212950   3.310   2.137   5.325  0.1812 -0.0934  0.0656
 4329TIP3    H112951   3.345   2.048   5.328  0.2739 -0.0355  0.7567
 4329TIP3    H212952   3.333   2.168   5.237  0.5543 -0.5841 -0.0179
 4330TIP3   OH212953   3.274   5.670   4.126 -0.2698  0.2414  0.2917
 4330TIP3    H112954   3.283   5.655   4.032  0.7819 -0.4126  0.4831
 4330TIP3    H212955   3.188   5.635   4.147  0.0857 -0.9776 -0.1829
 4331TIP3   OH212956   3.079   5.266   0.066  0.8587  0.3199 -0.3164
 4331TIP3    H112957   3.101   5.197   0.128  2.4777 -1.1543 -2.3936
 4331TIP3    H212958   3.001   5.308   0.103  0.6977 -1.6371  1.7487
 4332TIP3   OH212959   1.519   4.485   5.046  0.2322  0.8701 -0.0639
 4332TIP3    H112960   1.426   4.478   5.066  0.4392  0.2074  0.7478
 4332TIP3    H212961   1.536   4.414   4.984  0.5744 -0.3155  1.3348
 4333TIP3   OH212962   4.538   1.759   4.894 -0.7082 -0.3484  0.4446
 4333TIP3    H112963   4.461   1.815   4.889 -0.5618  0.0604  2.0916
 4333TIP3    H212964   4.542   1.732   4.986  1.3066 -0.0527  0.4874
 4334TIP3   OH212965   5.799   5.025   3.360 -0.1061  0.1233 -0.0429
 4334TIP3    H112966   5.799   5.118   3.381 -1.6549  0.0247  0.5490
 4334TIP3    H212967   5.709   4.997   3.376  1.1490 -2.3806  3.9242
 4335TIP3   OH212968   5.289   4.828   1.148  0.2542  0.2714 -0.3069
 4335TIP3    H112969   5.248   4.831   1.062  0.5271 -1.0692 -0.5047
 4335TIP3    H212970   5.240   4.892   1.200 -0.3418  0.6165 -1.2664
 4336TIP3   OH212971   4.992   3.898   0.136 -0.1535 -0.0941  0.5137
 4336TIP3    H112972   5.081   3.918   0.108 -0.2801  0.9233  0.7770
 4336TIP3    H212973   4.988   3.928   0.227 -1.2408  1.5306 -0.0183
 4337TIP3   OH212974   6.713   3.239   0.348 -0.0354  0.0323 -0.1240
 4337TIP3    H112975   6.692   3.332   0.342  2.5223  0.6176 -1.8117
 4337TIP3    H212976   6.770   3.223   0.272 -1.3243 -3.1980 -0.5405
 4338TIP3   OH212977   6.883   3.058   0.212  0.4487 -0.5094  0.4777
 4338TIP3    H112978   6.886   2.976   0.262  0.8122 -0.5203  0.4392
 4338TIP3    H212979   6.859   3.030   0.123  0.3732 -0.5531  0.5118
 4339TIP3   OH212980   3.747   2.963   5.343  0.3850  0.3263 -0.4867
 4339TIP3    H112981   3.667   2.989   5.297 -1.2562 -1.8389  0.9940
 4339TIP3    H212982   3.779   3.044   5.383 -1.1420  1.1933 -0.9420
 4340TIP3   OH212983   6.390   1.330   1.721  0.3853 -0.4049  0.0759
 4340TIP3    H112984   6.299   1.307   1.740  1.2526 -2.4308  2.3751
 4340TIP3    H212985   6.407   1.407   1.775  0.6915 -1.5936  1.7606
 4341TIP3   OH212986   4.513   6.258   0.681  0.1673  0.5151 -0.0404
 4341TIP3    H112987   4.531   6.228   0.770  0.5933  0.3221 -0.1871
 4341TIP3    H212988   4.463   6.186   0.641 -0.0904  0.6341  0.0639
 4342TIP3   OH212989   3.310   3.875   2.737 -0.4767 -0.0854 -0.4262
 4342TIP3    H112990   3.222   3.896   2.705 -0.2548  0.4924 -0.6606
 4342TIP3    H212991   3.365   3.877   2.659 -0.4047 -1.3179 -0.4190
 4343TIP3   OH212992   1.213   1.632   1.094  0.4957 -0.3425  0.0628
 4343TIP3    H112993   1.169   1.560   1.140 -0.6714  0.6993  0.6052
 4343TIP3    H212994   1.298   1.639   1.138  1.7471 -3.0006 -1.6107
 4344TIP3   OH212995   0.442   6.139   0.423 -0.1737 -0.2374 -0.1309
 4344TIP3    H112996   0.420   6.134   0.516 -0.9617 -1.2916 -0.3558
 4344TIP3    H212997   0.477   6.228   0.412  0.8407 -0.4130  1.3538
 4345TIP3   OH212998   0.703   2.470   3.841 -0.0376  0.3144  0.1427
 4345TIP3    H112999   0.751   2.498   3.763 -1.2574 -2.0986 -1.6088
 4345TIP3    H213000   0.720   2.538   3.905  1.1529  2.3566 -2.1684
 4346TIP3   OH213001   1.933   0.092   3.986 -0.1019  0.6476 -0.2440
 4346TIP3    H113002   1.957   0.015   4.038  0.6897  0.9820 -0.0954
 4346TIP3    H213003   1.874   0.142   4.042 -1.4134 -0.3137 -0.7090
 4347TIP3   OH213004   2.093   4.890   5.434  0.7189  0.1362  0.3017
 4347TIP3    H113005   2.161   4.917   5.373 -0.0591  2.2695  0.2749
 4347TIP3    H213006   2.139   4.874   5.516  1.4036  0.2053 -0.0634
 4348TIP3   OH213007   2.208   2.279   4.687 -0.8858  0.3598  0.0704
 4348TIP3    H113008   2.116   2.294   4.665 -0.3749  1.7937 -1.3097
 4348TIP3    H213009   2.231   2.200   4.639 -1.5285 -0.3144  0.8570
 4349TIP3   OH213010   1.925   4.078   1.663  0.1026 -0.3890  0.4034
 4349TIP3    H113011   1.948   4.096   1.572  0.2938 -1.4420  0.2279
 4349TIP3    H213012   1.877   4.156   1.692 -0.6460 -0.3669 -0.8377
 4350TIP3   OH213013   0.715   4.006   4.262 -0.1874 -0.2911  0.5006
 4350TIP3    H113014   0.781   4.064   4.301 -0.0929  0.7028 -1.0389
 4350TIP3    H213015   0.697   4.045   4.176 -2.5061 -0.7495  0.7171
 4351TIP3   OH213016   2.214   0.137   1.913  0.3488  0.3019 -0.0383
 4351TIP3    H113017   2.137   0.173   1.869 -0.3984 -0.8767  0.2799
 4351TIP3    H213018   2.197   0.148   2.006 -0.2239 -1.4846  0.0967
 4352TIP3   OH213019   6.061   2.689   0.395  0.5046  0.8111 -0.0947
 4352TIP3    H113020   6.114   2.616   0.364 -0.9738 -0.0989 -0.5727
 4352TIP3    H213021   6.043   2.741   0.317 -0.8539  0.0780 -0.2903
 4353TIP3   OH213022   5.191   4.424   2.823  0.3370 -0.1949  0.1997
 4353TIP3    H113023   5.098   4.408   2.807  0.1849  0.4127  0.4801
 4353TIP3    H213024   5.226   4.451   2.739 -0.1954  1.7135  0.5590
 4354TIP3   OH213025   4.607   1.221   4.031 -0.5346 -0.0030  0.1968
 4354TIP3    H113026   4.526   1.189   4.071  0.1223  1.2895  2.8308
 4354TIP3    H213027   4.604   1.316   4.045  1.6475  0.0099  0.8719
 4355TIP3   OH213028   1.386   2.761   4.556 -0.1632  0.0209  0.2816
 4355TIP3    H113029   1.459   2.823   4.556  0.5365 -0.7530 -0.7180
 4355TIP3    H213030   1.405   2.703   4.482 -1.2066 -0.8981  0.7110
 4356TIP3   OH213031   1.321   6.343   5.216 -0.2672  0.2803 -0.1695
 4356TIP3    H113032   1.238   6.326   5.260 -0.2687  0.2858 -0.1703
 4356TIP3    H213033   1.386   6.294   5.266 -0.1966  0.6576  0.1164
 4357TIP3   OH213034   7.053   5.372   0.522 -0.1330 -0.1016  0.4941
 4357TIP3    H113035   6.964   5.402   0.502  0.9759  2.4836 -1.0475
 4357TIP3    H213036   7.079   5.422   0.599  0.2743 -0.3017  0.4908
 4358TIP3   OH213037   0.059   5.222   1.083  0.2113  0.2195  0.2166
 4358TIP3    H113038   0.100   5.178   1.008  1.7211 -0.9089  1.6356
 4358TIP3    H213039   0.124   5.286   1.112 -1.4289  2.6092 -0.9937
 4359TIP3   OH213040   3.975   0.344   4.511  0.5531 -0.3172 -0.1598
 4359TIP3    H113041   3.972   0.248   4.506 -0.0014 -0.3490  0.6211
 4359TIP3    H213042   4.040   0.369   4.446  0.0042 -1.1675 -1.0585
 4360TIP3   OH213043   1.325   6.121   2.753  0.1533 -0.0876  0.1158
 4360TIP3    H113044   1.241   6.080   2.772 -0.6707  0.9337 -1.1498
 4360TIP3    H213045   1.385   6.085   2.819 -1.4338 -0.2655  1.5245
 4361TIP3   OH213046   4.079   0.326   2.808 -0.1259  0.2367 -0.0214
 4361TIP3    H113047   4.006   0.273   2.840  0.6207 -0.0217  1.3339
 4361TIP3    H213048   4.148   0.314   2.873  1.1036  0.5630 -1.2052
 4362TIP3   OH213049   5.980   6.572   3.679  0.4086 -0.3797  0.6892
 4362TIP3    H113050   6.008   6.651   3.725  2.1445 -0.4522 -0.1975
 4362TIP3    H213051   6.012   6.500   3.734  1.3369 -0.4610  0.0566
 4363TIP3   OH213052   0.194   5.473   1.165 -0.0412  0.1567 -0.8503
 4363TIP3    H113053   0.281   5.510   1.156  0.2762 -0.4151 -0.2717
 4363TIP3    H213054   0.157   5.517   1.242  0.7993 -1.5185  0.5947
 4364TIP3   OH213055   6.370   6.488   0.051 -0.1648  1.0390 -0.2949
 4364TIP3    H113056   6.398   6.576   0.077  0.1320  1.2136 -1.1588
 4364TIP3    H213057   6.276   6.496   0.034 -0.5097  0.7629  1.3316
 4365TIP3   OH213058   5.683   3.350   1.152 -0.1672  0.4408 -0.0786
 4365TIP3    H113059   5.772   3.386   1.153  0.1115 -0.2118 -0.6791
 4365TIP3    H213060   5.629   3.421   1.120 -0.0403  1.2052  1.2958
 4366TIP3   OH213061   1.635   5.472   3.582  0.0303  0.3120 -0.7945
 4366TIP3    H113062   1.647   5.380   3.557  1.6455  0.2668 -0.0130
 4366TIP3    H213063   1.602   5.468   3.672  1.1880  0.4733 -0.3441
 4367TIP3   OH213064   0.976   4.621   5.385  0.7343  0.1725 -0.1612
 4367TIP3    H113065   0.965   4.677   5.462 -0.1499 -1.0644  0.6503
 4367TIP3    H213066   1.069   4.629   5.363  0.7583  1.4598  0.2884
 4368TIP3   OH213067   1.848   1.936   2.872  0.2301 -0.4964 -0.3912
 4368TIP3    H113068   1.782   1.873   2.902 -1.1826  1.2373  0.3239
 4368TIP3    H213069   1.921   1.925   2.933 -1.0553  0.3079  1.3772
 4369TIP3   OH213070   4.099   2.285   2.575 -0.5664  0.3404 -0.3112
 4369TIP3    H113071   4.117   2.345   2.648 -0.0578  1.0154 -0.9789
 4369TIP3    H213072   4.155   2.316   2.504  0.1081 -1.2617 -0.5050
 4370TIP3   OH213073   1.864   4.558   2.561 -0.2945 -0.6006  0.2646
 4370TIP3    H113074   1.928   4.583   2.495 -0.2625  0.2760  0.6200
 4370TIP3    H213075   1.786   4.534   2.510  0.7663 -3.2043 -0.2643
 4371TIP3   OH213076   4.921   2.049   5.630  0.3800  0.3298  0.0274
 4371TIP3    H113077   4.881   2.132   5.604  1.0717  0.6603  0.0005
 4371TIP3    H213078   5.011   2.054   5.598  0.1056 -0.9317 -1.0102
 4372TIP3   OH213079   3.906   4.029   1.083 -0.3835  0.2473 -0.3742
 4372TIP3    H113080   3.827   4.002   1.130 -0.8918 -0.1821 -1.4412
 4372TIP3    H213081   3.888   4.009   0.991 -0.0272  2.4767 -0.9956
 4373TIP3   OH213082   3.138   6.162   1.144  0.3150  0.3099  0.4203
 4373TIP3    H113083   3.169   6.166   1.054  1.0573  1.1522  0.6919
 4373TIP3    H213084   3.184   6.234   1.188  1.3517 -1.1534  1.8895
 4374TIP3   OH213085   2.679   0.129   2.990  0.2996 -0.0906 -0.3670
 4374TIP3    H113086   2.591   0.150   2.959 -0.0076  0.1666  0.6555
 4374TIP3    H213087   2.701   0.199   3.051  2.3161  1.3784 -2.5648
 4375TIP3   OH213088   1.108   5.415   0.246 -0.1154  0.1559  1.1743
 4375TIP3    H113089   1.128   5.366   0.325 -0.2086  1.1474  1.8286
 4375TIP3    H213090   1.061   5.352   0.190  0.3690 -0.6899  1.6986
 4376TIP3   OH213091   5.482   4.127   0.091 -0.0280  0.5239  0.4793
 4376TIP3    H113092   5.472   4.191   0.021  1.5781 -0.4018 -0.6498
 4376TIP3    H213093   5.577   4.111   0.097 -0.3176 -1.1974  1.2222
 4377TIP3   OH213094   5.950   4.895   2.437  0.3287 -0.2521 -0.1454
 4377TIP3    H113095   5.913   4.832   2.375  1.9737 -1.8147  0.3884
 4377TIP3    H213096   6.029   4.927   2.395 -0.4872  1.5472 -0.4158
 4378TIP3   OH213097   3.753   1.159   1.185  0.4639 -0.1992  0.3867
 4378TIP3    H113098   3.830   1.184   1.133 -0.1231 -0.8806 -0.8735
 4378TIP3    H213099   3.779   1.173   1.275  1.0242  2.5149 -0.1186
 4379TIP3   OH213100   5.362   6.033   3.119  0.1764  0.1552  0.1123
 4379TIP3    H113101   5.415   5.980   3.060  1.5455 -0.6356  1.9213
 4379TIP3    H213102   5.362   6.120   3.080  3.1670  0.2886  0.1343
 4380TIP3   OH213103   4.896   3.667   5.723 -0.2140 -0.1617  0.2840
 4380TIP3    H113104   4.981   3.645   5.685  0.1230  0.4153  0.6927
 4380TIP3    H213105   4.838   3.676   5.648  0.4465  0.9836 -0.1022
 4381TIP3   OH213106   3.359   5.011   4.177 -0.1762  0.0334 -0.4562
 4381TIP3    H113107   3.353   5.072   4.103 -1.7875  1.1150  0.4990
 4381TIP3    H213108   3.431   5.044   4.230 -0.2020  0.3488 -0.6150
 4382TIP3   OH213109   2.471   2.163   4.795  0.0105 -0.3914 -0.2645
 4382TIP3    H113110   2.513   2.143   4.712  0.9777 -1.5287  0.4604
 4382TIP3    H213111   2.410   2.234   4.775  1.3634  0.4520 -1.6147
 4383TIP3   OH213112   6.648   6.606   2.714  0.3304  0.3975  0.6761
 4383TIP3    H113113   6.562   6.632   2.749  0.1222 -1.0911  1.3441
 4383TIP3    H213114   6.705   6.605   2.791  0.9630  1.3351  0.2399
 4384TIP3   OH213115   5.877   1.912   4.714  0.0912  0.4950  0.1132
 4384TIP3    H113116   5.972   1.924   4.725 -0.2079  1.8554  1.5035
 4384TIP3    H213117   5.848   1.992   4.670 -0.6411  0.9164  1.3003
 4385TIP3   OH213118   4.732   0.962   0.704 -0.2822  0.1779 -0.4381
 4385TIP3    H113119   4.728   0.876   0.662 -1.2845 -0.0604  0.1053
 4385TIP3    H213120   4.812   0.961   0.756 -0.3176 -0.4532 -0.3961
 4386TIP3   OH213121   6.862   4.871   4.471  0.2696  0.0025  0.1410
 4386TIP3    H113122   6.858   4.859   4.566 -0.6557 -0.1570  0.0914
 4386TIP3    H213123   6.955   4.875   4.451  0.4852  1.5606  1.2410
 4387TIP3   OH213124   2.184   5.181   5.730 -1.0653 -0.6621 -0.6172
 4387TIP3    H113125   2.154   5.149   5.814 -2.1950  1.1670 -0.2685
 4387TIP3    H213126   2.111   5.234   5.696 -0.0657 -0.0974 -2.0148
 4388TIP3   OH213127   2.553   6.299   2.384 -0.0782 -0.0016 -0.2996
 4388TIP3    H113128   2.506   6.218   2.404 -0.8460  0.6205  0.4682
 4388TIP3    H213129   2.632   6.270   2.337 -1.1178 -1.0734 -1.4575
 4389TIP3   OH213130   2.343   6.506   5.762  0.1350 -0.2571 -0.3197
 4389TIP3    H113131   2.433   6.531   5.783 -0.4161  1.9440 -0.3446
 4389TIP3    H213132   2.336   6.517   5.668  0.0687 -1.2635 -0.4383
 4390TIP3   OH213133   1.881   3.856   2.846  0.3631 -0.1131  0.4221
 4390TIP3    H113134   1.891   3.898   2.932 -0.2523 -0.4144  0.6494
 4390TIP3    H213135   1.815   3.909   2.801  1.3291  0.5676 -0.2118
 4391TIP3   OH213136   3.947   0.728   5.836 -0.5419 -0.1777  0.3742
 4391TIP3    H113137   3.907   0.800   5.886  0.0294 -0.1157  0.7414
 4391TIP3    H213138   4.039   0.728   5.863 -0.1044  0.1864 -1.0518
 4392TIP3   OH213139   1.600   2.449   0.998  0.1859  0.1326  0.0271
 4392TIP3    H113140   1.569   2.447   1.088  1.5442  1.1227  0.5335
 4392TIP3    H213141   1.640   2.363   0.984 -1.7819 -0.7924 -0.3208
 4393TIP3   OH213142   4.142   2.041   2.701 -0.5510 -0.3791 -0.3627
 4393TIP3    H113143   4.113   2.122   2.659 -1.0520 -0.0243  0.6370
 4393TIP3    H213144   4.124   1.972   2.637 -4.2427 -0.2978  0.3760
 4394TIP3   OH213145   6.943   5.024   1.841  0.1103 -0.3231  0.0828
 4394TIP3    H113146   6.963   4.987   1.755  0.1812 -1.1961  0.4696
 4394TIP3    H213147   7.004   4.981   1.901 -0.6651 -0.5302  0.7428
 4395TIP3   OH213148   3.930   4.711   5.841  0.0894 -0.3312 -0.4501
 4395TIP3    H113149   3.956   4.801   5.862  3.0713 -1.2368  0.1129
 4395TIP3    H213150   3.908   4.715   5.747  1.1048  0.8134 -0.6707
 4396TIP3   OH213151   0.971   6.544   4.064 -0.3221  0.0603  0.6865
 4396TIP3    H113152   1.065   6.561   4.059 -0.1007 -1.3676 -0.7991
 4396TIP3    H213153   0.965   6.455   4.099 -0.8055 -1.8829 -3.6896
 4397TIP3   OH213154   5.508   5.863   0.604  0.1219 -0.3224  0.0742
 4397TIP3    H113155   5.455   5.808   0.662  0.2384 -0.6118 -0.0932
 4397TIP3    H213156   5.449   5.934   0.579 -0.2118 -0.6758 -0.1620
 4398TIP3   OH213157   2.370   6.799   5.740  0.3559  0.0083  0.0807
 4398TIP3    H113158   2.326   6.715   5.730 -1.0506  0.9632 -2.9065
 4398TIP3    H213159   2.445   6.794   5.680  0.5348  0.7210  0.2353
 4399TIP3   OH213160   2.407   3.134   0.888 -0.1998 -0.6252  0.0028
 4399TIP3    H113161   2.329   3.095   0.927 -1.1268  0.9123 -0.2183
 4399TIP3    H213162   2.379   3.165   0.802  0.9393 -0.9517 -0.5142
 4400TIP3   OH213163   4.463   2.610   1.293 -0.2487  0.3106 -0.2770
 4400TIP3    H113164   4.407   2.567   1.358 -0.5114  1.0950  0.0416
 4400TIP3    H213165   4.545   2.628   1.340 -0.3144  0.5699 -0.2566
 4401TIP3   OH213166   4.623   3.668   2.033  0.1425  0.3636 -0.0091
 4401TIP3    H113167   4.599   3.752   2.071 -0.0049 -0.5473  2.0559
 4401TIP3    H213168   4.626   3.684   1.939 -1.4159  2.2773  0.2059
 4402TIP3   OH213169   2.370   5.903   1.614  0.0955  0.0413  0.2633
 4402TIP3    H113170   2.399   5.914   1.705  0.5586 -0.3598  0.1734
 4402TIP3    H213171   2.288   5.951   1.608  0.9721  1.6310  0.4215
 4403TIP3   OH213172   6.833   6.409   1.050  0.5477  0.4513  0.3634
 4403TIP3    H113173   6.915   6.398   1.098  0.7489 -2.2287 -0.4400
 4403TIP3    H213174   6.782   6.331   1.072 -2.1080  2.2692  1.2789
 4404TIP3   OH213175   4.504   5.234   3.862  0.1412  0.0304  0.1052
 4404TIP3    H113176   4.570   5.264   3.925  0.4399  2.4338 -1.2271
 4404TIP3    H213177   4.513   5.294   3.788 -2.4297 -0.6225 -0.8278
 4405TIP3   OH213178   5.476   3.574   4.313  0.1516 -0.2383  0.1418
 4405TIP3    H113179   5.428   3.591   4.394  1.4121 -0.7631  1.0429
 4405TIP3    H213180   5.411   3.581   4.244 -0.9535  0.2558  1.1992
 4406TIP3   OH213181   6.408   2.541   2.611  0.1945 -0.4117 -0.0964
 4406TIP3    H113182   6.397   2.468   2.671  2.4909 -1.7508 -1.1707
 4406TIP3    H213183   6.330   2.540   2.556 -0.4290 -1.1704  0.7884
 4407TIP3   OH213184   3.706   2.008   0.470 -0.3068  0.4967 -0.1291
 4407TIP3    H113185   3.708   1.991   0.375  0.2902 -0.3619  0.0187
 4407TIP3    H213186   3.795   2.036   0.490 -0.1033 -0.4844  0.3680
 4408TIP3   OH213187   4.824   1.543   4.809  0.2938 -0.4538 -0.2836
 4408TIP3    H113188   4.748   1.525   4.754  0.6921  0.4835 -1.1589
 4408TIP3    H213189   4.792   1.603   4.876 -0.4350 -2.3576  1.1604
 4409TIP3   OH213190   4.164   1.949   5.161  0.3565  0.2493  0.6571
 4409TIP3    H113191   4.135   2.040   5.157 -0.9639 -0.1556  0.5040
 4409TIP3    H213192   4.246   1.952   5.209  0.3504  1.5231  0.6233
 4410TIP3   OH213193   1.194   2.958   4.444  0.6211  0.3083  0.7238
 4410TIP3    H113194   1.206   2.865   4.467  0.1636 -0.4998 -1.9945
 4410TIP3    H213195   1.284   2.991   4.436  0.8080 -0.1896  0.6740
 4411TIP3   OH213196   0.335   1.404   0.850 -0.0071 -0.2829  0.5940
 4411TIP3    H113197   0.278   1.327   0.849  0.7759 -1.0427  3.7694
 4411TIP3    H213198   0.301   1.458   0.921  0.2583  1.7297 -0.7342
 4412TIP3   OH213199   1.154   3.137   0.444  1.1432 -0.2754 -0.0333
 4412TIP3    H113200   1.246   3.163   0.444  1.0647  0.0972 -1.3895
 4412TIP3    H213201   1.129   3.136   0.351 -0.4163  0.3453  0.3383
 4413TIP3   OH213202   2.133   4.770   0.751 -0.0382  0.1143 -0.0873
 4413TIP3    H113203   2.059   4.710   0.755 -0.6613  0.9151  1.5257
 4413TIP3    H213204   2.114   4.836   0.818  1.2960  1.3231 -0.8430
 4414TIP3   OH213205   2.851   3.034   0.601 -0.5023  0.7154 -0.1976
 4414TIP3    H113206   2.805   3.069   0.525 -0.0960 -0.6509 -1.1078
 4414TIP3    H213207   2.851   2.939   0.588  1.3624  0.5821  0.4589
 4415TIP3   OH213208   0.484   1.020   4.571  0.2573 -0.2509 -0.2954
 4415TIP3    H113209   0.479   0.992   4.480 -1.1240  0.7769 -0.5524
 4415TIP3    H213210   0.500   0.939   4.620  1.3907 -0.7637 -1.4584
 4416TIP3   OH213211   4.373   3.093   4.032  0.0940  0.5041  0.0745
 4416TIP3    H113212   4.302   3.157   4.040 -3.6561 -2.4858 -4.1639
 4416TIP3    H213213   4.445   3.142   3.992 -1.9119  2.5058 -1.3407
 4417TIP3   OH213214   6.428   0.187   2.254  0.0465  0.1800 -0.2320
 4417TIP3    H113215   6.491   0.176   2.325  0.2116  1.1256 -0.2279
 4417TIP3    H213216   6.473   0.156   2.176 -0.7473 -2.6029  0.3104
 4418TIP3   OH213217   5.116   5.588   0.688 -0.1740  0.1564  0.3207
 4418TIP3    H113218   5.114   5.519   0.754 -1.7212 -0.3695 -0.2266
 4418TIP3    H213219   5.024   5.602   0.666  0.3261 -0.2628 -2.3049
 4419TIP3   OH213220   3.526   6.442   5.080 -0.1124 -0.0983 -0.0354
 4419TIP3    H113221   3.551   6.456   5.171 -0.1088  1.5228 -0.2528
 4419TIP3    H213222   3.579   6.504   5.030  0.0408 -1.1112 -1.1737
 4420TIP3   OH213223   0.235   0.324   0.860 -0.9239  0.3568  0.3678
 4420TIP3    H113224   0.203   0.329   0.950  0.0644  0.7733  0.7083
 4420TIP3    H213225   0.179   0.259   0.818 -2.4027  1.2847  0.8440
 4421TIP3   OH213226   1.840   6.798   2.962  0.1550 -0.6115  0.3892
 4421TIP3    H113227   1.818   6.759   3.047 -0.1536 -1.4875 -0.0859
 4421TIP3    H213228   1.882   6.728   2.913 -0.2732 -0.3048 -0.4346
 4422TIP3   OH213229   4.965   2.191   1.102 -0.7559 -0.1613  0.2787
 4422TIP3    H113230   4.933   2.260   1.044  0.8123 -0.8198 -1.5189
 4422TIP3    H213231   4.947   2.110   1.054  0.9762 -0.7030  0.4798
 4423TIP3   OH213232   3.158   0.692   3.002  0.5984 -0.0789  0.3233
 4423TIP3    H113233   3.234   0.723   2.953  0.8079  0.4893  0.9896
 4423TIP3    H213234   3.179   0.711   3.093  0.5746 -1.8528  0.7456
 4424TIP3   OH213235   2.910   2.540   2.390  0.1428  0.0234 -0.6909
 4424TIP3    H113236   2.950   2.527   2.476  1.4989 -0.1815 -1.3394
 4424TIP3    H213237   2.978   2.581   2.337 -1.4450  2.5464 -0.9898
 4425TIP3   OH213238   4.558   2.475   5.125  0.2336  0.0539 -0.2484
 4425TIP3    H113239   4.572   2.554   5.072 -1.2603 -0.3263 -1.2883
 4425TIP3    H213240   4.562   2.506   5.215 -0.8438  1.4368 -0.6393
 4426TIP3   OH213241   5.620   2.645   2.831  0.2438  0.7470  0.0133
 4426TIP3    H113242   5.681   2.628   2.903  1.8801  1.9362 -1.0216
 4426TIP3    H213243   5.566   2.718   2.862 -0.9219 -0.4956  1.0459
 4427TIP3   OH213244   1.685   4.950   3.605  0.1297  0.5617  0.7297
 4427TIP3    H113245   1.777   4.955   3.581 -0.4430 -0.1874 -1.9757
 4427TIP3    H213246   1.683   4.892   3.681  1.9310  1.3469  1.4298
 4428TIP3   OH213247   3.890   2.294   0.644 -0.4795  0.0397  0.6253
 4428TIP3    H113248   3.963   2.293   0.583  0.3336 -0.1519  1.5816
 4428TIP3    H213249   3.905   2.371   0.698  0.0555 -1.0145  2.0338
 4429TIP3   OH213250   2.910   6.260   3.074 -0.3226 -0.1241 -0.2438
 4429TIP3    H113251   2.972   6.266   3.146  0.5921 -0.9253 -0.9444
 4429TIP3    H213252   2.843   6.325   3.095  1.2267  1.4745  0.0804
 4430TIP3   OH213253   4.627   4.604   5.716  0.0406  0.2993 -0.5232
 4430TIP3    H113254   4.659   4.526   5.671  1.5096 -0.5908  1.9037
 4430TIP3    H213255   4.700   4.633   5.770 -1.5847  1.3371  1.2411
 4431TIP3   OH213256   1.255   4.409   4.769 -0.5737 -0.3194  0.2449
 4431TIP3    H113257   1.216   4.460   4.698  1.8541  2.3708  0.6531
 4431TIP3    H213258   1.189   4.410   4.838 -0.5782  2.6508  0.3388
 4432TIP3   OH213259   0.633   1.902   2.117 -0.4209 -0.0208 -0.2663
 4432TIP3    H113260   0.688   1.876   2.043  0.6674  1.4970 -0.0446
 4432TIP3    H213261   0.642   1.830   2.180 -0.5313 -0.8434 -1.1765
 4433TIP3   OH213262   1.485   3.464   0.037  0.6435  0.5430  0.3897
 4433TIP3    H113263   1.560   3.415   0.003  1.2033  0.3205  1.8765
 4433TIP3    H213264   1.460   3.417   0.117 -0.7239  0.9522  0.2233
 4434TIP3   OH213265   2.064   1.422   5.547 -0.8746  0.0070 -0.0377
 4434TIP3    H113266   2.029   1.471   5.622  0.3845 -0.0320  0.6098
 4434TIP3    H213267   2.141   1.472   5.520  0.0302 -1.2075  0.1917
 4435TIP3   OH213268   4.958   0.304   3.004  0.1887 -0.0990  0.1341
 4435TIP3    H113269   4.952   0.363   3.080  0.5342 -0.1758  0.2223
 4435TIP3    H213270   4.875   0.256   3.005 -0.4316  0.9340 -0.3917
 4436TIP3   OH213271   1.486   3.747   5.483 -0.0238  0.6635  0.2719
 4436TIP3    H113272   1.553   3.809   5.511 -0.4922  1.2006  0.2369
 4436TIP3    H213273   1.455   3.706   5.564  0.4237  0.3281  0.2758
 4437TIP3   OH213274   2.848   4.786   1.520 -0.2004 -0.1307 -0.2675
 4437TIP3    H113275   2.769   4.841   1.526 -0.2902 -0.2176 -0.6616
 4437TIP3    H213276   2.905   4.820   1.589 -0.7093 -0.2752  0.2398
 4438TIP3   OH213277   1.889   2.214   2.536 -0.0366 -0.2993 -0.1313
 4438TIP3    H113278   1.954   2.256   2.593  0.4594 -1.8791  0.5302
 4438TIP3    H213279   1.811   2.206   2.591 -0.9711  1.8920 -1.0274
 4439TIP3   OH213280   3.244   5.067   0.181  0.0662  0.2439  0.1989
 4439TIP3    H113281   3.336   5.085   0.163 -0.4469  2.1461 -0.7625
 4439TIP3    H213282   3.234   4.973   0.167  1.4095  0.3581 -1.8474
 4440TIP3   OH213283   1.437   1.438   4.433  0.5090 -0.0313 -0.3605
 4440TIP3    H113284   1.494   1.513   4.450 -0.1828  0.4101  0.0888
 4440TIP3    H213285   1.381   1.433   4.511 -0.9151  0.3313 -1.3131
 4441TIP3   OH213286   4.899   4.569   1.813 -0.1892 -0.1861 -0.2102
 4441TIP3    H113287   4.807   4.556   1.789 -0.2401  0.8004 -0.6016
 4441TIP3    H213288   4.904   4.542   1.904 -0.5141 -1.7624 -0.6179
 4442TIP3   OH213289   5.239   5.511   2.214 -0.0918 -0.4138  0.0871
 4442TIP3    H113290   5.314   5.554   2.255 -0.3273  0.4758 -0.3991
 4442TIP3    H213291   5.163   5.562   2.245 -0.6162 -1.8887  1.3735
 4443TIP3   OH213292   3.613   1.466   5.122 -0.2451 -0.3943 -0.1841
 4443TIP3    H113293   3.681   1.511   5.173  1.4447 -1.8359 -1.0364
 4443TIP3    H213294   3.662   1.412   5.060 -2.2183  0.6520 -2.8210
 4444TIP3   OH213295   4.865   6.636   3.394  0.1237 -0.0405 -0.4709
 4444TIP3    H113296   4.885   6.664   3.305  1.4661 -0.1015 -0.2079
 4444TIP3    H213297   4.947   6.599   3.426 -0.9003 -2.0355  0.0440
 4445TIP3   OH213298   1.949   4.153   0.741 -0.4426 -0.0299 -0.4474
 4445TIP3    H113299   2.027   4.188   0.699 -0.8909  1.8905  0.2328
 4445TIP3    H213300   1.949   4.060   0.718  0.9327  0.3438 -2.1412
 4446TIP3   OH213301   5.736   1.735   1.834  0.1827 -0.1691 -0.5723
 4446TIP3    H113302   5.783   1.778   1.762  0.3210 -0.4262 -0.6393
 4446TIP3    H213303   5.734   1.643   1.808  2.0820 -0.6375  0.7299
 4447TIP3   OH213304   6.998   3.867   1.227  0.3032  0.1607  0.6938
 4447TIP3    H113305   6.960   3.898   1.309 -0.2407  0.6346  0.2648
 4447TIP3    H213306   7.083   3.832   1.252  0.8607  1.8368  1.2079
 4448TIP3   OH213307   0.614   6.786   0.517  0.7382  0.0316 -0.2027
 4448TIP3    H113308   0.597   6.749   0.430 -1.1803 -2.2072  1.0254
 4448TIP3    H213309   0.700   6.752   0.541  0.7752 -0.2644 -0.7388
 4449TIP3   OH213310   0.606   1.678   0.271  0.0852  0.2974 -0.9970
 4449TIP3    H113311   0.603   1.618   0.346 -2.5141  0.5914 -0.7991
 4449TIP3    H213312   0.545   1.641   0.208  0.2866  1.4587 -1.9101
 4450TIP3   OH213313   5.022   6.326   2.161 -0.2850  0.1599 -0.3597
 4450TIP3    H113314   4.988   6.360   2.078  1.8561  0.9829 -0.9905
 4450TIP3    H213315   5.060   6.403   2.204  0.2226 -0.5714  0.5432
 4451TIP3   OH213316   4.500   4.465   1.548 -0.3486 -0.1900 -0.8187
 4451TIP3    H113317   4.497   4.371   1.560  1.6757 -0.3227 -1.0138
 4451TIP3    H213318   4.408   4.492   1.542 -0.9501 -2.1464 -0.9030
 4452TIP3   OH213319   7.127   4.314   4.810 -0.2975  0.2132  0.3789
 4452TIP3    H113320   7.117   4.334   4.717 -0.7306 -2.3619 -0.2069
 4452TIP3    H213321   7.181   4.236   4.812 -0.0041  0.4198  2.3433
 4453TIP3   OH213322   5.608   5.330   5.688  0.4831  0.1101 -0.8605
 4453TIP3    H113323   5.618   5.405   5.746 -0.9459 -0.9062  0.7892
 4453TIP3    H213324   5.517   5.335   5.657  0.0218 -1.4672  0.1197
 4454TIP3   OH213325   1.428   3.619   2.951  0.4138  0.5639 -0.4089
 4454TIP3    H113326   1.464   3.573   3.027  1.0642 -0.1063 -1.1038
 4454TIP3    H213327   1.405   3.549   2.890  1.0911  1.1448 -1.3462
 4455TIP3   OH213328   5.659   3.642   0.715 -0.1871  0.4449  0.1599
 4455TIP3    H113329   5.566   3.643   0.738 -0.0661  0.0894  0.6842
 4455TIP3    H213330   5.699   3.705   0.775 -0.0045  0.1740  0.3241
 4456TIP3   OH213331   6.352   2.202   2.328 -0.1358 -0.4209 -0.3262
 4456TIP3    H113332   6.320   2.261   2.396  0.3073 -0.5664  0.0122
 4456TIP3    H213333   6.360   2.258   2.250 -1.6453 -0.4729 -0.5605
 4457TIP3   OH213334   1.284   3.850   3.502  0.3862 -0.1092 -0.2643
 4457TIP3    H113335   1.360   3.899   3.533  1.4529 -1.6923 -0.3186
 4457TIP3    H213336   1.230   3.837   3.580 -0.3173  1.7871 -0.3844
 4458TIP3   OH213337   2.037   0.452   1.782  0.1261  0.3756  0.0825
 4458TIP3    H113338   1.956   0.407   1.803  0.0866  0.2288 -0.3725
 4458TIP3    H213339   2.064   0.416   1.697 -0.3542  1.7996 -0.7033
 4459TIP3   OH213340   5.569   5.359   0.010 -0.0654 -0.4254 -0.3032
 4459TIP3    H113341   5.647   5.411   0.031 -0.4674  1.0229 -2.1774
 4459TIP3    H213342   5.601   5.270   0.002  1.1712 -0.0436  0.1519
 4460TIP3   OH213343   0.505   5.890   0.359  0.2399  0.2164 -0.1656
 4460TIP3    H113344   0.474   5.976   0.385  0.1808 -0.0406  0.6432
 4460TIP3    H213345   0.537   5.901   0.269  0.8355  1.2190  0.1587
 4461TIP3   OH213346   5.210   4.847   3.249 -0.6455 -0.4913 -0.1758
 4461TIP3    H113347   5.282   4.910   3.241 -0.3512 -0.4589  2.1565
 4461TIP3    H213348   5.222   4.788   3.175  2.1236 -0.8236  0.4289
 4462TIP3   OH213349   5.434   6.470   4.211 -0.3375  0.1451  0.1035
 4462TIP3    H113350   5.485   6.443   4.135 -0.2044 -0.2411  0.3283
 4462TIP3    H213351   5.483   6.544   4.247 -0.9465  1.0160 -0.7790
 4463TIP3   OH213352   6.620   6.371   4.735 -0.5948  0.0626  0.3588
 4463TIP3    H113353   6.598   6.298   4.793 -0.9318  0.7171  1.0733
 4463TIP3    H213354   6.602   6.449   4.787 -0.6819  0.6667 -0.5545
 4464TIP3   OH213355   2.660   6.502   4.783 -0.2605  0.0262  0.6368
 4464TIP3    H113356   2.705   6.579   4.816 -0.7132  0.6507 -0.1560
 4464TIP3    H213357   2.660   6.441   4.856 -1.0199  1.2640  1.7221
 4465TIP3   OH213358   3.185   2.557   2.368  0.0393  0.3629 -0.0908
 4465TIP3    H113359   3.158   2.502   2.442 -0.7097  2.5453  1.3387
 4465TIP3    H213360   3.252   2.615   2.404 -0.7919  1.9070 -0.9451
 4466TIP3   OH213361   4.552   4.974   5.195  0.1077  0.2369  0.3376
 4466TIP3    H113362   4.575   5.039   5.262 -0.3941  0.7055  0.0697
 4466TIP3    H213363   4.474   4.930   5.230 -0.5981  0.9867 -0.2429
 4467TIP3   OH213364   0.057   4.797   2.734  0.5551  0.1903 -0.7898
 4467TIP3    H113365  -0.026   4.809   2.780  0.9608 -0.1331  0.0332
 4467TIP3    H213366   0.106   4.877   2.751  2.2674 -1.3736  2.6501
 4468TIP3   OH213367   4.420   2.620   4.638 -0.2044  0.2255 -0.3936
 4468TIP3    H113368   4.499   2.631   4.585  1.1835  0.0417  1.5272
 4468TIP3    H213369   4.423   2.528   4.667 -1.0438  0.2564 -0.1608
 4469TIP3   OH213370   4.572   2.661   4.925  0.1630 -0.2534 -0.1449
 4469TIP3    H113371   4.615   2.739   4.961  0.1996 -0.8746  1.2068
 4469TIP3    H213372   4.486   2.693   4.895  0.2114  0.3270  0.3104
 4470TIP3   OH213373   1.383   6.502   5.525  0.0316 -0.0083 -0.2503
 4470TIP3    H113374   1.349   6.591   5.536 -1.8997 -0.7031 -0.1213
 4470TIP3    H213375   1.430   6.504   5.442 -1.7430  0.6537 -1.2889
 4471TIP3   OH213376   2.951   3.745   2.183 -0.0569  0.2651  0.0979
 4471TIP3    H113377   2.876   3.803   2.194 -1.2227 -1.4609  2.2077
 4471TIP3    H213378   2.995   3.746   2.268  1.8210  0.5298 -0.8269
 4472TIP3   OH213379   7.167   3.466   5.469  0.0363  0.0088  0.4276
 4472TIP3    H113380   7.143   3.518   5.392  1.4000  0.2756  0.1539
 4472TIP3    H213381   7.232   3.403   5.435  0.9756  0.4112  1.4341
 4473TIP3   OH213382   1.643   1.364   2.880 -0.8769  0.0957  0.9601
 4473TIP3    H113383   1.699   1.350   2.955  0.9514 -0.6149 -0.4707
 4473TIP3    H213384   1.696   1.415   2.819 -1.2749 -1.6355 -0.9434
 4474TIP3   OH213385   3.174   0.412   0.397  0.0539  0.4370 -0.6116
 4474TIP3    H113386   3.109   0.343   0.383  0.3574  0.0902 -0.3500
 4474TIP3    H213387   3.123   0.489   0.423 -0.1537 -0.2916  1.2905
 4475TIP3   OH213388   4.472   1.021   1.753  0.1082  0.6156 -0.0108
 4475TIP3    H113389   4.439   1.108   1.779 -1.4501 -0.3231  1.4020
 4475TIP3    H213390   4.491   0.978   1.836 -2.3663 -1.5488 -0.4288
 4476TIP3   OH213391   3.667   2.039   5.196 -0.5332  0.2149 -0.2267
 4476TIP3    H113392   3.627   2.126   5.205  0.8502  1.0452 -1.6353
 4476TIP3    H213393   3.715   2.027   5.278 -2.1949 -0.0660  0.7630
 4477TIP3   OH213394   1.884   5.386   3.457  0.0554  0.1079  0.9683
 4477TIP3    H113395   1.933   5.468   3.467 -0.6926  0.6843  0.1157
 4477TIP3    H213396   1.795   5.409   3.482 -0.1933 -0.3922  0.5468
 4478TIP3   OH213397   2.556   1.287   4.015  0.6529  0.3001  0.5179
 4478TIP3    H113398   2.531   1.240   4.095 -2.5515  0.1382 -0.4341
 4478TIP3    H213399   2.597   1.221   3.960 -0.2196 -0.4439  0.7369
 4479TIP3   OH213400   4.030   0.713   0.661 -0.1077  0.4857  0.0757
 4479TIP3    H113401   3.965   0.772   0.624 -0.9785  1.0435  2.3127
 4479TIP3    H213402   4.005   0.626   0.631 -2.0569  0.6667  1.0269
 4480TIP3   OH213403   0.458   4.144   1.082 -0.5631  0.0456 -0.3511
 4480TIP3    H113404   0.419   4.061   1.053 -0.9599  0.7061 -1.8157
 4480TIP3    H213405   0.473   4.192   1.001  1.8515  0.4868  0.2674
 4481TIP3   OH213406   3.784   2.507   3.723  0.2976 -0.2143  1.0393
 4481TIP3    H113407   3.727   2.453   3.669  0.2032 -1.6816  2.5255
 4481TIP3    H213408   3.767   2.597   3.694  0.8208 -0.9391 -1.8469
 4482TIP3   OH213409   2.402   6.415   0.734  0.1203 -0.4959 -0.0700
 4482TIP3    H113410   2.442   6.442   0.651  1.2024  1.3554  0.9567
 4482TIP3    H213411   2.476   6.411   0.795 -1.0545  2.4278  1.7729
 4483TIP3   OH213412   0.502   5.479   0.265 -0.1973 -0.5954 -0.3471
 4483TIP3    H113413   0.525   5.438   0.349  0.0755 -0.2519 -0.2528
 4483TIP3    H213414   0.434   5.542   0.287 -0.2474 -0.6279 -0.4110
 4484TIP3   OH213415   0.114   3.914   5.271  0.9108 -0.2749  0.1717
 4484TIP3    H113416   0.058   3.970   5.324  0.7816  0.1461 -0.3952
 4484TIP3    H213417   0.203   3.944   5.290  0.8794 -0.3019  0.3544
 4485TIP3   OH213418   6.756   0.939   3.682 -0.3392  0.0926 -0.0509
 4485TIP3    H113419   6.824   0.975   3.738  1.1417  1.2814 -2.4408
 4485TIP3    H213420   6.692   1.009   3.674 -1.0786 -0.4521  0.9344
 4486TIP3   OH213421   0.471   0.564   3.819 -0.2388  0.1259 -0.2438
 4486TIP3    H113422   0.565   0.573   3.832 -0.2521  0.5696 -0.4130
 4486TIP3    H213423   0.435   0.648   3.849 -0.5785 -0.0321 -0.1988
 4487TIP3   OH213424   5.051   1.645   1.757 -0.0134 -0.3825  0.2785
 4487TIP3    H113425   5.114   1.576   1.737 -1.4723 -1.2166 -1.7043
 4487TIP3    H213426   5.104   1.724   1.763  1.5133 -1.4047  1.2167
 4488TIP3   OH213427   5.034   6.732   3.861 -0.8080 -0.0461  0.2950
 4488TIP3    H113428   5.047   6.672   3.788  1.4091  1.7252 -0.8989
 4488TIP3    H213429   5.085   6.693   3.933  1.2120  0.6535 -0.6849
 4489TIP3   OH213430   2.425   0.471   5.139  0.4381 -0.4421  0.5150
 4489TIP3    H113431   2.478   0.505   5.212 -0.8698  2.0971  0.4092
 4489TIP3    H213432   2.334   0.485   5.167 -0.1224 -1.4534 -0.7127
 4490TIP3   OH213433   5.705   2.201   1.671 -0.4082  0.0537  0.1849
 4490TIP3    H113434   5.784   2.182   1.621 -1.7747 -1.9513 -1.3882
 4490TIP3    H213435   5.676   2.286   1.639 -0.2906 -0.3957 -1.1578
 4491TIP3   OH213436   6.257   1.617   3.922 -0.1388 -0.2594  0.1682
 4491TIP3    H113437   6.346   1.590   3.943  0.8485  2.5396  0.0773
 4491TIP3    H213438   6.230   1.671   3.996 -1.5087 -0.4764 -0.1328
 4492TIP3   OH213439   3.885   6.193   4.159 -0.6102  0.3259  0.1433
 4492TIP3    H113440   3.833   6.203   4.079 -2.0077 -1.3486  0.7744
 4492TIP3    H213441   3.827   6.224   4.229  0.0989  0.5560  0.6384
 4493TIP3   OH213442   5.792   2.505   2.645 -0.5271 -0.3160  0.4819
 4493TIP3    H113443   5.844   2.427   2.666  1.4569  1.1819  1.5233
 4493TIP3    H213444   5.736   2.517   2.722  0.0616 -0.0424  0.8762
 4494TIP3   OH213445   3.138   3.050   0.895  0.1129 -0.0653 -0.1392
 4494TIP3    H113446   3.114   2.960   0.873  0.9293  0.0203 -1.4680
 4494TIP3    H213447   3.061   3.084   0.941  0.3278 -1.8609  1.7200
 4495TIP3   OH213448   2.416   4.427   2.162  0.2644 -0.0774  0.1421
 4495TIP3    H113449   2.368   4.462   2.087  0.3037 -1.5460 -0.6080
 4495TIP3    H213450   2.348   4.403   2.225  0.2082  0.7523  0.4132
 4496TIP3   OH213451   7.219   3.221   5.767 -0.4088 -0.4306  0.2489
 4496TIP3    H113452   7.184   3.285   5.829  0.7712  1.9323 -1.3543
 4496TIP3    H213453   7.212   3.137   5.812 -1.5730  0.8738  2.6838
 4497TIP3   OH213454   2.951   0.000   0.216 -0.0291 -0.3402  0.7116
 4497TIP3    H113455   2.863   0.031   0.194 -0.6308 -2.2987  0.1612
 4497TIP3    H213456   3.010   0.058   0.168 -1.0734  0.1244 -0.0396
 4498TIP3   OH213457   4.498   5.213   2.744  0.4428  0.1394  0.3295
 4498TIP3    H113458   4.473   5.175   2.828  0.5538  0.5348  0.5456
 4498TIP3    H213459   4.475   5.305   2.752 -0.7074 -0.0509 -0.5343
 4499TIP3   OH213460   4.600   4.729   5.459  0.4294 -0.5516  0.1859
 4499TIP3    H113461   4.606   4.690   5.546 -0.9669 -1.0150  0.1088
 4499TIP3    H213462   4.550   4.810   5.473  2.0326  0.4918  0.1149
 4500TIP3   OH213463   0.766   5.980   1.864 -0.3652 -0.2021 -0.0135
 4500TIP3    H113464   0.850   5.939   1.885 -0.2741  0.8624  1.8929
 4500TIP3    H213465   0.706   5.906   1.852  0.7494 -0.9672 -1.1821
 4501TIP3   OH213466   4.402   6.110   5.149  0.0146 -0.6588  0.0918
 4501TIP3    H113467   4.460   6.048   5.106  0.6065 -0.2942  0.3474
 4501TIP3    H213468   4.457   6.188   5.164 -0.4579 -0.4131  0.5826
 4502TIP3   OH213469   6.030   6.441   4.068 -0.2326 -0.2754  0.2309
 4502TIP3    H113470   5.991   6.408   4.149  1.2459  1.5111  1.7925
 4502TIP3    H213471   5.989   6.527   4.055  0.6717  0.1396  0.0052
 4503TIP3   OH213472   2.006   0.322   0.857 -0.0285 -0.2877  0.4514
 4503TIP3    H113473   1.963   0.373   0.788  0.5660 -0.2305  0.1179
 4503TIP3    H213474   1.934   0.276   0.900 -0.7764  1.9911  1.7792
 4504TIP3   OH213475   2.123   2.817   3.820  0.3199 -0.5689  0.4571
 4504TIP3    H113476   2.136   2.800   3.726 -1.1132  0.2267  0.0931
 4504TIP3    H213477   2.163   2.742   3.863 -1.6431 -2.5121 -0.9082
 4505TIP3   OH213478  -0.016   0.003   0.215  0.3434 -0.3232 -0.1655
 4505TIP3    H113479   0.079  -0.002   0.203  0.2913  0.5798 -0.9736
 4505TIP3    H213480  -0.043   0.083   0.170 -0.8117 -0.5816  0.0273
 4506TIP3   OH213481   2.655   6.008   4.296  0.5325 -0.1821  0.7425
 4506TIP3    H113482   2.566   5.994   4.328  0.6852  0.8717  1.6982
 4506TIP3    H213483   2.652   6.091   4.249  1.0205 -0.1115  0.8253
 4507TIP3   OH213484   4.885   0.320   1.532  0.4181 -1.0032  0.1076
 4507TIP3    H113485   4.928   0.251   1.582 -0.6606 -1.6870  0.1324
 4507TIP3    H213486   4.798   0.328   1.572 -0.4783 -1.5581 -1.5920
 4508TIP3   OH213487   6.816   2.256   3.093 -0.3028 -0.5989 -0.0316
 4508TIP3    H113488   6.856   2.278   3.177 -0.7377  3.0507 -0.5969
 4508TIP3    H213489   6.722   2.265   3.108 -0.3437  1.6829 -1.1356
 4509TIP3   OH213490   3.599   3.595   1.706  0.1440  0.7310  0.1774
 4509TIP3    H113491   3.515   3.551   1.696  0.1254  0.2806  1.9352
 4509TIP3    H213492   3.592   3.641   1.789  2.3885 -1.1736  1.5561
 4510TIP3   OH213493   0.447   5.989   3.033  0.2539 -0.4922  0.7002
 4510TIP3    H113494   0.516   6.048   3.066 -0.8799  1.6354 -0.5253
 4510TIP3    H213495   0.407   6.037   2.960 -0.9388 -2.7056 -0.1854
 4511TIP3   OH213496   3.619   3.250   1.811 -0.0643 -0.0336 -0.7803
 4511TIP3    H113497   3.709   3.281   1.809  0.4316 -1.3321 -0.0260
 4511TIP3    H213498   3.598   3.232   1.719  0.0047  1.4041 -1.1015
 4512TIP3   OH213499   1.242   4.951   2.205  0.0795 -0.2354 -0.0754
 4512TIP3    H113500   1.268   4.866   2.170  0.3086  0.1436 -0.8262
 4512TIP3    H213501   1.205   4.998   2.131 -1.1989 -0.1253  0.5937
 4513TIP3   OH213502   3.913   5.350   4.888 -0.4228  0.1188 -0.1117
 4513TIP3    H113503   3.911   5.286   4.959  0.8765  0.6145  0.4008
 4513TIP3    H213504   3.940   5.431   4.930 -0.0645  0.5242 -1.0986
 4514TIP3   OH213505   6.442   4.494   2.114  0.2519  0.3117 -0.2644
 4514TIP3    H113506   6.509   4.528   2.054  1.1269 -1.3399 -0.2830
 4514TIP3    H213507   6.490   4.437   2.174 -1.1239 -0.9994 -0.3403
 4515TIP3   OH213508   2.955   5.793   5.867  0.3214  0.3195 -0.2627
 4515TIP3    H113509   3.041   5.777   5.828  0.3107 -0.0820 -0.1250
 4515TIP3    H213510   2.961   5.882   5.904  0.9954 -0.0729  0.6035
 4516TIP3   OH213511   2.541   4.059   3.207  0.4494 -0.0317 -0.4440
 4516TIP3    H113512   2.464   4.056   3.263  1.1499  2.2807  0.7479
 4516TIP3    H213513   2.557   3.967   3.184 -0.1158 -1.0760  2.8134
 4517TIP3   OH213514   1.232   5.390   3.964 -0.3457  0.0996  0.2498
 4517TIP3    H113515   1.308   5.400   4.021 -0.0101  0.4209 -0.2438
 4517TIP3    H213516   1.240   5.302   3.928  1.6596  1.2532 -2.4078
 4518TIP3   OH213517   4.321   1.032   2.804 -0.5432 -0.3116  0.1686
 4518TIP3    H113518   4.389   1.060   2.865 -0.0161 -2.1507  0.5036
 4518TIP3    H213519   4.250   1.095   2.816  1.1633  1.8661 -0.4063
 4519TIP3   OH213520   3.301   0.458   5.177 -0.2666 -0.4229 -0.4641
 4519TIP3    H113521   3.396   0.468   5.189 -0.2502 -1.5164  0.5880
 4519TIP3    H213522   3.293   0.405   5.098  0.0592 -1.2694  0.0569
 4520TIP3   OH213523   5.593   0.855   1.488  0.2123  0.7121  0.1277
 4520TIP3    H113524   5.575   0.909   1.565  2.6741  0.8342  0.7010
 4520TIP3    H213525   5.610   0.768   1.524 -0.9508  0.1692 -0.5490
 4521TIP3   OH213526   1.197   4.496   0.443 -0.4057  0.2788 -0.1710
 4521TIP3    H113527   1.235   4.500   0.355 -0.0442 -1.8732 -0.1893
 4521TIP3    H213528   1.114   4.448   0.430 -0.6136  0.4335  0.5743
 4522TIP3   OH213529   4.060   6.054   1.355 -0.2556  0.2979  0.1242
 4522TIP3    H113530   4.087   6.047   1.447 -0.7238  0.6597  0.2960
 4522TIP3    H213531   3.998   5.982   1.343  1.7622 -1.4076 -0.6542
 4523TIP3   OH213532   2.289   6.015   5.627 -0.0163 -0.3510 -0.1494
 4523TIP3    H113533   2.312   5.952   5.696  1.7300  0.3668 -0.0301
 4523TIP3    H213534   2.265   6.095   5.674  1.5969  0.2779 -0.3285
 4524TIP3   OH213535   6.424   2.302   3.606  0.3793 -0.4775 -0.4641
 4524TIP3    H113536   6.376   2.335   3.682  1.2996 -1.1376  0.4504
 4524TIP3    H213537   6.489   2.242   3.644  0.1508 -1.6707 -1.8685
 4525TIP3   OH213538   4.962   0.448   1.293 -0.1431 -0.0245  0.6796
 4525TIP3    H113539   4.947   0.422   1.203  0.8575  1.0468  0.1771
 4525TIP3    H213540   4.916   0.382   1.345 -1.3047 -0.2824 -0.6118
 4526TIP3   OH213541   6.158   5.456   4.746 -0.7681 -0.4753 -0.3250
 4526TIP3    H113542   6.232   5.441   4.805 -0.5918  1.2627 -0.0426
 4526TIP3    H213543   6.140   5.370   4.707  0.8092 -1.1161  0.2806
 4527TIP3   OH213544   0.090   5.236   0.487 -0.8967 -0.3698 -0.1674
 4527TIP3    H113545   0.145   5.285   0.549  0.7586  0.4260 -2.1513
 4527TIP3    H213546   0.004   5.275   0.495 -0.1892  1.2047  0.0695
 4528TIP3   OH213547   1.539   3.234   3.789  0.1793  0.5186  0.1734
 4528TIP3    H113548   1.524   3.317   3.745  1.6390  1.5202  1.4625
 4528TIP3    H213549   1.617   3.198   3.746  0.0154  0.2066  0.1368
 4529TIP3   OH213550   0.485   1.121   5.091 -0.4948 -0.1775 -0.1318
 4529TIP3    H113551   0.554   1.180   5.059 -0.5445 -0.4441 -0.7582
 4529TIP3    H213552   0.406   1.149   5.044 -0.9030  0.3713  0.8714
 4530TIP3   OH213553   1.867   6.428   2.109 -0.0514 -0.0436 -0.3329
 4530TIP3    H113554   1.871   6.497   2.175 -0.1544 -0.1269 -0.2396
 4530TIP3    H213555   1.810   6.362   2.147 -0.1793 -0.0534 -0.5429
 4531TIP3   OH213556   2.838   0.310   3.124  0.4922 -0.1159 -0.0215
 4531TIP3    H113557   2.831   0.392   3.075  1.8414  0.4373  0.6713
 4531TIP3    H213558   2.774   0.318   3.195 -1.1810 -0.7528 -1.3735
 4532TIP3   OH213559   1.715   0.676   3.829 -0.7289  0.2941 -0.2937
 4532TIP3    H113560   1.775   0.711   3.895 -0.1016  0.5029 -0.9472
 4532TIP3    H213561   1.630   0.713   3.851 -0.2269  1.6780 -0.5240
 4533TIP3   OH213562   2.547   4.639   2.277  0.0010 -0.0979 -0.1345
 4533TIP3    H113563   2.512   4.559   2.237  0.6801 -0.2761 -0.3807
 4533TIP3    H213564   2.642   4.630   2.270  0.1692 -0.2561  1.7269
 4534TIP3   OH213565   1.675   5.474   1.545  0.1244  0.1382  0.4031
 4534TIP3    H113566   1.722   5.487   1.462 -0.6651 -1.7533 -0.3924
 4534TIP3    H213567   1.597   5.528   1.537  0.5253  0.7154  0.3303
 4535TIP3   OH213568   2.031   0.556   1.207 -0.1407  0.2226  0.0801
 4535TIP3    H113569   1.966   0.609   1.253 -1.6858 -1.0188 -0.5734
 4535TIP3    H213570   1.984   0.477   1.182  1.2590 -0.1317 -1.6389
 4536TIP3   OH213571   5.642   4.776   3.288 -0.2742 -0.2466 -0.4409
 4536TIP3    H113572   5.723   4.784   3.338 -1.5656 -2.6453  2.3263
 4536TIP3    H213573   5.584   4.844   3.323 -0.1751  0.0796 -0.9017
 4537TIP3   OH213574   2.338   1.310   5.243  0.2243  0.2937 -0.2744
 4537TIP3    H113575   2.354   1.321   5.150  2.7774 -1.2412 -0.1050
 4537TIP3    H213576   2.314   1.218   5.253 -0.1291  0.4657  0.5784
 4538TIP3   OH213577   6.577   4.401   0.693 -0.3336  0.0464  0.5263
 4538TIP3    H113578   6.506   4.445   0.740 -1.0473 -0.5057 -0.0106
 4538TIP3    H213579   6.538   4.375   0.609  0.0904 -1.4470  0.7502
 4539TIP3   OH213580   0.111   5.969   2.856 -0.4010 -0.4218  0.2423
 4539TIP3    H113581   0.189   5.917   2.837 -0.3507 -0.4228  0.4512
 4539TIP3    H213582   0.142   6.060   2.855 -0.6040 -0.3519 -0.7039
 4540TIP3   OH213583   4.795   4.945   0.076 -0.2195 -0.1198 -0.6024
 4540TIP3    H113584   4.848   4.894   0.015  2.7863  2.0245  0.0282
 4540TIP3    H213585   4.782   5.029   0.033 -0.2880  0.5245  0.6285
 4541TIP3   OH213586   4.279   5.342   5.089 -0.4582 -0.7354  0.1578
 4541TIP3    H113587   4.220   5.387   5.149 -0.1354  1.6567 -1.2152
 4541TIP3    H213588   4.259   5.249   5.102 -2.5680 -0.1501  1.6960
 4542TIP3   OH213589   5.847   4.558   4.849  0.1390  0.4600  0.1600
 4542TIP3    H113590   5.781   4.622   4.878  1.0780  2.3466 -1.5980
 4542TIP3    H213591   5.827   4.544   4.756  0.8655 -0.7056  0.1640
 4543TIP3   OH213592   6.994   3.932   1.520  0.1433 -0.3984 -0.5747
 4543TIP3    H113593   6.959   3.861   1.573 -2.3541 -0.6921 -2.3934
 4543TIP3    H213594   6.952   4.011   1.554 -1.0052 -0.5122 -1.6429
 4544TIP3   OH213595   4.797   1.757   0.031 -0.4082  0.5760 -0.5907
 4544TIP3    H113596   4.729   1.825   0.040  0.5450  1.4533  0.2541
 4544TIP3    H213597   4.879   1.806   0.029  0.3568 -0.5857  0.6709
 4545TIP3   OH213598   5.281   2.999   1.793  0.0625  0.0740  0.0784
 4545TIP3    H113599   5.370   2.968   1.809  0.0139  0.2718  0.8019
 4545TIP3    H213600   5.264   3.059   1.866 -0.4297  0.5351 -0.4123
 4546TIP3   OH213601   2.187   0.181   4.197 -0.3463 -0.2899  0.2062
 4546TIP3    H113602   2.188   0.101   4.145 -0.2076  0.5246 -1.0824
 4546TIP3    H213603   2.179   0.252   4.132  0.0976  0.7703  1.2775
 4547TIP3   OH213604   7.097   4.150   5.861  0.4734  0.7707 -0.5244
 4547TIP3    H113605   7.028   4.142   5.927 -0.4169 -1.2784 -1.6384
 4547TIP3    H213606   7.081   4.235   5.819 -0.8765  0.6817 -0.2324
 4548TIP3   OH213607   2.256   5.597   5.481  0.0547 -0.1799  0.0400
 4548TIP3    H113608   2.343   5.565   5.457 -0.8454 -1.2453 -2.0175
 4548TIP3    H213609   2.196   5.541   5.433 -1.7637  1.1613  0.6491
 4549TIP3   OH213610   0.865   2.444   2.335  0.2049 -0.2525  0.4185
 4549TIP3    H113611   0.848   2.389   2.258  1.2556 -1.0174  0.7179
 4549TIP3    H213612   0.897   2.383   2.401  1.7545  0.7779  0.6475
 4550TIP3   OH213613   6.782   3.997   5.725  0.3545  0.4935 -0.0474
 4550TIP3    H113614   6.817   3.940   5.656 -1.8539 -0.4597 -0.4615
 4550TIP3    H213615   6.850   4.063   5.737  2.0885 -1.0005 -1.0539
 4551TIP3   OH213616   4.579   5.456   4.467  1.0937  0.2384 -0.0590
 4551TIP3    H113617   4.596   5.429   4.376  1.6846 -0.1307  0.1532
 4551TIP3    H213618   4.665   5.483   4.500  1.2087 -1.1464  0.8802
 4552TIP3   OH213619   0.910   0.565   5.738 -0.4364 -0.3878  0.0840
 4552TIP3    H113620   0.820   0.573   5.772 -1.0571 -0.7014 -1.4020
 4552TIP3    H213621   0.905   0.603   5.650 -0.1737 -4.1556 -1.7633
 4553TIP3   OH213622   1.629   2.220   4.751 -0.1245  0.4640  0.3700
 4553TIP3    H113623   1.621   2.136   4.705 -0.7526  1.5467 -1.5838
 4553TIP3    H213624   1.554   2.222   4.810 -0.0765 -0.3428  0.4757
 4554TIP3   OH213625   4.512   3.317   1.578 -0.3529  0.4849 -0.3160
 4554TIP3    H113626   4.476   3.336   1.665 -0.1966 -1.1564  0.1469
 4554TIP3    H213627   4.451   3.359   1.517 -2.1440 -0.7977  0.4937
 4555TIP3   OH213628   4.320   3.385   5.174 -0.0086 -0.3534 -0.2598
 4555TIP3    H113629   4.302   3.360   5.083  2.2649  0.1195 -0.9004
 4555TIP3    H213630   4.294   3.477   5.179 -0.4521 -0.4736 -0.3379
 4556TIP3   OH213631   0.018   0.280   1.784 -0.1085 -0.2057  0.0902
 4556TIP3    H113632   0.017   0.369   1.819 -4.3368  0.0180 -0.1697
 4556TIP3    H213633   0.020   0.224   1.862 -2.4667  0.2504  0.5469
 4557TIP3   OH213634   0.808   2.794   0.399  0.1319 -0.2653 -0.1267
 4557TIP3    H113635   0.868   2.849   0.451  0.3649  0.2563 -0.9341
 4557TIP3    H213636   0.854   2.780   0.317 -0.9671  0.3741 -0.8740
 4558TIP3   OH213637   0.913   4.363   4.714 -0.2167  0.1701  0.4302
 4558TIP3    H113638   0.830   4.411   4.713 -1.1705 -1.3900 -0.9649
 4558TIP3    H213639   0.897   4.289   4.772  1.3681  1.6320  2.8887
 4559TIP3   OH213640   2.732   5.160   3.160 -0.2445  0.3024  0.3071
 4559TIP3    H113641   2.780   5.082   3.135  1.5926  1.4153  0.1706
 4559TIP3    H213642   2.794   5.232   3.149 -2.2728  2.0016 -0.9694
 4560TIP3   OH213643   6.376   4.639   3.260 -0.4567  0.2162  0.3297
 4560TIP3    H113644   6.455   4.680   3.226 -0.1407 -1.0966 -0.5722
 4560TIP3    H213645   6.397   4.546   3.266 -0.9104  0.2013  3.0195
 4561TIP3   OH213646   0.213   2.260   2.347 -0.0371  0.4170 -0.0588
 4561TIP3    H113647   0.241   2.206   2.421 -0.8669 -0.3764 -0.3100
 4561TIP3    H213648   0.152   2.322   2.384  0.3491  0.7052  0.1004
 4562TIP3   OH213649   5.289   6.239   1.623  0.2653 -0.0624 -0.8383
 4562TIP3    H113650   5.369   6.207   1.666  0.9792  2.5284 -0.0921
 4562TIP3    H213651   5.295   6.334   1.629 -3.0190  0.2237 -0.5869
 4563TIP3   OH213652   0.351   2.276   1.699 -0.1268 -0.0757  0.3641
 4563TIP3    H113653   0.357   2.275   1.795 -2.2990 -0.2811  0.5643
 4563TIP3    H213654   0.409   2.348   1.672  0.0926  0.3554  1.8800
 4564TIP3   OH213655   6.082   1.477   3.779  0.0898 -0.1560  0.6469
 4564TIP3    H113656   6.122   1.539   3.840  1.3866  0.6187 -0.9120
 4564TIP3    H213657   6.133   1.397   3.790  0.2524 -0.0520  0.6599
 4565TIP3   OH213658   2.658   0.637   4.214 -0.1472  0.5584 -0.0923
 4565TIP3    H113659   2.687   0.690   4.140 -0.6459  2.7743  1.2125
 4565TIP3    H213660   2.676   0.691   4.291 -0.0304 -1.4892  1.4055
 4566TIP3   OH213661   2.732   0.859  -0.021  0.5691 -0.2067 -0.7304
 4566TIP3    H113662   2.814   0.848   0.028 -0.1655  0.8014  0.8184
 4566TIP3    H213663   2.672   0.795   0.018  0.5062 -0.6966 -1.6137
 4567TIP3   OH213664   5.179   3.347   3.777 -0.1258  0.2489 -0.0886
 4567TIP3    H113665   5.126   3.269   3.797 -0.5671  0.3409 -0.8824
 4567TIP3    H213666   5.267   3.324   3.807 -0.5591  0.0177  1.0664
 4568TIP3   OH213667   0.988   5.580   4.951 -0.4668 -0.2208  0.9245
 4568TIP3    H113668   0.932   5.633   5.009 -1.0889  0.0937  0.0577
 4568TIP3    H213669   0.947   5.589   4.865  2.5132  2.4331 -0.4151
 4569TIP3   OH213670   1.487   4.063   4.879 -0.4155  0.6725 -0.4060
 4569TIP3    H113671   1.457   4.095   4.964  1.7371  0.4447  0.4946
 4569TIP3    H213672   1.538   3.985   4.899  2.2012  1.9604 -1.5951
 4570TIP3   OH213673   5.902   5.731   5.548  0.0311  0.1973  0.1440
 4570TIP3    H113674   5.894   5.692   5.635  0.2539  0.3860  0.2471
 4570TIP3    H213675   5.973   5.682   5.506  1.9050  1.9966  1.0846
 4571TIP3   OH213676   2.855   6.628   5.405 -0.5337 -0.0082 -0.4497
 4571TIP3    H113677   2.841   6.559   5.470  0.5852  0.0601 -0.1048
 4571TIP3    H213678   2.841   6.585   5.321  2.5822 -1.4079 -0.4044
 4572TIP3   OH213679   5.259   3.134   2.280 -0.1562 -0.3336  0.1492
 4572TIP3    H113680   5.209   3.213   2.302 -0.6039 -0.7333  0.5900
 4572TIP3    H213681   5.194   3.064   2.281  0.6756 -1.1538  2.3760
 4573TIP3   OH213682   6.802   4.689   5.141 -0.7540 -0.4296  0.0822
 4573TIP3    H113683   6.722   4.681   5.090  0.2986 -0.1443 -1.7374
 4573TIP3    H213684   6.810   4.607   5.189 -1.3412 -1.1072 -0.9552
 4574TIP3   OH213685   7.191   0.074   1.976 -0.0126 -0.1139  0.2436
 4574TIP3    H113686   7.097   0.059   1.979 -0.3043  1.5147 -0.0988
 4574TIP3    H213687   7.229  -0.014   1.983 -1.5357 -0.7885  0.4978
 4575TIP3   OH213688   3.662   4.925   5.391 -0.1131  0.3093 -0.0874
 4575TIP3    H113689   3.596   4.917   5.460  0.9430 -0.5067  0.8716
 4575TIP3    H213690   3.746   4.922   5.437  0.6154  1.4549 -1.2569
 4576TIP3   OH213691   3.961   4.128   5.854  0.2845 -0.2315 -0.1234
 4576TIP3    H113692   3.986   4.217   5.831  1.0778 -0.3755  0.1338
 4576TIP3    H213693   4.044   4.085   5.878 -0.2729 -0.5763  1.3231
 4577TIP3   OH213694   3.090   2.181   4.594 -0.5412 -0.1662  0.5078
 4577TIP3    H113695   3.099   2.277   4.596 -0.7886 -0.1462  0.6918
 4577TIP3    H213696   3.125   2.153   4.678  0.7219 -0.3442 -0.0545
 4578TIP3   OH213697   5.962  -0.025   5.106 -0.2636  0.3866  0.4864
 4578TIP3    H113698   5.994   0.064   5.093 -0.8661  0.6453  0.7491
 4578TIP3    H213699   5.892  -0.036   5.042 -0.2299  0.1229  0.4906
 4579TIP3   OH213700   1.840   4.119   5.678  0.6421  0.3039 -0.1741
 4579TIP3    H113701   1.811   4.206   5.706  0.7285 -0.1088  1.2711
 4579TIP3    H213702   1.929   4.111   5.711  0.6604 -0.3199 -0.3520
 4580TIP3   OH213703   1.581   4.595   2.801  0.1134  0.3477  0.1702
 4580TIP3    H113704   1.544   4.677   2.832  0.0072  1.2806 -2.2583
 4580TIP3    H213705   1.653   4.620   2.744 -0.2188 -1.2073 -0.9999
 4581TIP3   OH213706   7.192   3.046   3.688  0.2914 -0.3554 -0.3285
 4581TIP3    H113707   7.125   2.996   3.641  0.0969 -0.9584  0.5635
 4581TIP3    H213708   7.263   2.983   3.702  0.9552  0.2146 -1.0575
 4582TIP3   OH213709   6.799   0.002   2.315 -0.5281 -0.2268  0.0982
 4582TIP3    H113710   6.851  -0.041   2.383 -1.1598  0.3659  0.9813
 4582TIP3    H213711   6.861   0.059   2.270 -0.2732 -0.0176  0.7086
 4583TIP3   OH213712   1.371   4.545   1.008  0.5419  0.2873  0.0803
 4583TIP3    H113713   1.388   4.598   1.086  1.2688 -1.7088  1.3446
 4583TIP3    H213714   1.447   4.561   0.951 -0.1688  2.0388 -0.4473
 4584TIP3   OH213715   5.115   1.678   2.492 -0.0309  0.3062  0.1449
 4584TIP3    H113716   5.133   1.742   2.560 -0.1599  0.0512  0.4208
 4584TIP3    H213717   5.199   1.635   2.477  0.3152  1.2932 -0.8289
 4585TIP3   OH213718   4.411   4.144   1.818 -0.1677 -0.1010 -0.0388
 4585TIP3    H113719   4.319   4.171   1.805 -0.7017 -1.7707  0.0526
 4585TIP3    H213720   4.446   4.139   1.729  0.0131  1.0305 -0.0531
 4586TIP3   OH213721   5.201   3.214   4.159  0.1451 -0.2898  0.3720
 4586TIP3    H113722   5.295   3.227   4.147  0.1029 -0.7051 -0.5207
 4586TIP3    H213723   5.192   3.122   4.183 -0.1611 -0.8192 -1.5721
 4587TIP3   OH213724   7.002   4.501   3.808 -0.6014  0.0603 -0.2655
 4587TIP3    H113725   7.008   4.409   3.784 -0.6180  0.0701 -0.3063
 4587TIP3    H213726   6.911   4.513   3.834 -0.6606  0.1264 -0.5079
 4588TIP3   OH213727   5.218   5.476   1.205 -0.5458 -0.7674  0.0597
 4588TIP3    H113728   5.136   5.447   1.165 -0.9871  0.4491  0.0266
 4588TIP3    H213729   5.284   5.416   1.172 -1.1573 -0.7446 -1.2737
 4589TIP3   OH213730   3.686   0.173   1.549  0.2581  0.1933 -0.5416
 4589TIP3    H113731   3.733   0.090   1.558  0.7021  0.2104 -2.3473
 4589TIP3    H213732   3.755   0.238   1.537 -0.1420  0.5533 -0.9278
 4590TIP3   OH213733   2.055   6.613   5.539 -0.2239  0.5407  0.9272
 4590TIP3    H113734   2.046   6.642   5.630 -0.3895  1.7732  0.5288
 4590TIP3    H213735   2.053   6.517   5.545 -3.6436  0.5550  1.8955
 4591TIP3   OH213736   1.947   6.071   4.680  0.1820  0.0707  0.3927
 4591TIP3    H113737   1.990   5.988   4.699  0.2550 -0.6151 -2.3108
 4591TIP3    H213738   1.910   6.059   4.592 -2.5679  1.8247  1.1722
 4592TIP3   OH213739   0.431   4.355   4.235  0.5647  0.0786  0.2618
 4592TIP3    H113740   0.494   4.351   4.307  0.4998 -0.1575  0.3070
 4592TIP3    H213741   0.477   4.400   4.165  0.0436  1.9539  1.0513
 4593TIP3   OH213742   3.632   4.401   0.291  0.2079 -0.3476  0.5732
 4593TIP3    H113743   3.673   4.328   0.246 -0.5248 -0.0022 -0.7144
 4593TIP3    H213744   3.539   4.377   0.296  0.0663  0.2078  0.7064
 4594TIP3   OH213745   3.222   0.527   0.085 -0.1683 -0.6364 -0.1443
 4594TIP3    H113746   3.241   0.480   0.166 -0.4214 -2.2397 -0.9550
 4594TIP3    H213747   3.269   0.610   0.093 -0.6205 -0.5282  1.8380
 4595TIP3   OH213748   0.187   4.867   5.542 -0.2892 -0.0941  0.2570
 4595TIP3    H113749   0.177   4.826   5.456  0.8306 -1.9810  0.9742
 4595TIP3    H213750   0.177   4.961   5.524 -1.5214 -0.5252 -1.6747
 4596TIP3   OH213751   6.289   0.065   4.874 -0.2999  0.4403 -0.1448
 4596TIP3    H113752   6.306   0.123   4.948  1.5941  0.8815 -0.8602
 4596TIP3    H213753   6.310   0.118   4.797  0.0779 -0.7392 -0.8730
 4597TIP3   OH213754   2.104   3.741   4.901 -0.3247  0.9279 -0.0787
 4597TIP3    H113755   2.115   3.781   4.988 -0.6703 -1.8513  1.3864
 4597TIP3    H213756   2.119   3.647   4.917 -1.1739  0.2309 -2.8997
 4598TIP3   OH213757   4.641   1.046   3.005 -0.2323 -0.2066 -0.0947
 4598TIP3    H113758   4.592   1.126   2.989 -0.4609 -0.4907 -0.8845
 4598TIP3    H213759   4.694   1.034   2.926 -1.9076 -2.0432 -1.0373
 4599TIP3   OH213760   2.932   4.724   3.249 -0.3987 -0.4585 -0.3217
 4599TIP3    H113761   2.859   4.699   3.193  0.2232  0.4067 -1.5686
 4599TIP3    H213762   2.940   4.653   3.312 -0.8558 -1.6935 -1.6061
 4600TIP3   OH213763   6.266   6.426   0.976 -0.5753  0.1110  0.0756
 4600TIP3    H113764   6.205   6.352   0.970 -1.1780  0.5084  1.0359
 4600TIP3    H213765   6.331   6.398   1.041 -0.5170  0.2236  0.0656
 4601TIP3   OH213766   0.695   6.133   4.296  0.2419  0.2372  0.7337
 4601TIP3    H113767   0.761   6.066   4.280  0.4462  0.5082  0.4154
 4601TIP3    H213768   0.617   6.085   4.322 -0.4074 -0.3298 -1.9255
 4602TIP3   OH213769   2.283   3.712   2.895  0.2486  0.2899  0.3592
 4602TIP3    H113770   2.326   3.797   2.885 -0.2517  0.5140  0.0880
 4602TIP3    H213771   2.353   3.648   2.884  0.8346  0.6768  1.5748
 4603TIP3   OH213772   3.737   5.854   1.142 -0.0324  0.8402  0.2608
 4603TIP3    H113773   3.758   5.841   1.234 -0.6118  1.5094  0.5059
 4603TIP3    H213774   3.719   5.948   1.135  1.6462  1.1222 -0.8853
 4604TIP3   OH213775   6.700   0.381   3.341  0.2070 -0.1382  0.7278
 4604TIP3    H113776   6.637   0.371   3.270  2.2263 -0.5423 -1.1018
 4604TIP3    H213777   6.732   0.292   3.358  1.0470  0.1825  0.8876
 4605TIP3   OH213778   5.168   3.809   4.352  0.0023  0.1958  0.1490
 4605TIP3    H113779   5.138   3.862   4.279 -0.1336 -0.4957 -0.3079
 4605TIP3    H213780   5.263   3.807   4.343 -0.1313 -2.6036 -2.0139
 4606TIP3   OH213781   6.416   5.748   1.968 -0.1821 -0.3805  0.0644
 4606TIP3    H113782   6.508   5.721   1.974  0.0234  0.1686 -0.5131
 4606TIP3    H213783   6.380   5.694   1.897 -0.7416 -1.7446  1.3290
 4607TIP3   OH213784   5.384   3.883   0.230  1.0734 -1.1294  0.3267
 4607TIP3    H113785   5.461   3.871   0.286  0.3338  1.2798  2.0356
 4607TIP3    H213786   5.400   3.966   0.185  0.5388 -1.8282 -1.2029
 4608TIP3   OH213787   4.080   6.317   0.212 -0.5530 -0.0801  0.4955
 4608TIP3    H113788   4.058   6.281   0.127 -1.4240 -0.0670  0.7112
 4608TIP3    H213789   4.024   6.394   0.221  0.0524  0.3414  0.7739
 4609TIP3   OH213790   4.289   4.867   1.153 -0.1781 -0.2140 -0.1074
 4609TIP3    H113791   4.362   4.921   1.184  0.1887 -1.0984  0.5971
 4609TIP3    H213792   4.256   4.914   1.076 -2.3163  3.1103  2.5313
 4610TIP3   OH213793   3.988   0.255   3.343  0.4397  0.0404 -0.5167
 4610TIP3    H113794   4.078   0.226   3.355  0.9571  0.9388 -1.9591
 4610TIP3    H213795   3.951   0.255   3.431  1.7535 -0.6191  0.0621
 4611TIP3   OH213796   0.056   1.840   0.455  0.0287 -0.4239  0.3006
 4611TIP3    H113797   0.110   1.916   0.472  0.7427 -1.2514  1.9237
 4611TIP3    H213798  -0.034   1.870   0.467  0.2706  0.2893  0.3275
 4612TIP3   OH213799   2.792   1.398   4.150 -0.2279 -0.1778 -0.7037
 4612TIP3    H113800   2.705   1.388   4.111 -2.1162  2.3394  2.3546
 4612TIP3    H213801   2.819   1.486   4.126 -0.1303  0.3209  1.0759
 4613TIP3   OH213802   5.097   6.509   2.344 -0.3723  0.7687 -0.0966
 4613TIP3    H113803   5.058   6.594   2.326 -0.4121  1.3569  2.5028
 4613TIP3    H213804   5.038   6.467   2.406  1.6182  0.5192  1.7574
 4614TIP3   OH213805   6.418   5.763   4.693 -0.0794 -0.4734  0.1423
 4614TIP3    H113806   6.358   5.705   4.646  2.2867 -3.0818  0.0459
 4614TIP3    H213807   6.490   5.706   4.719  2.0524  2.3250  0.8321
 4615TIP3   OH213808   1.290   0.484   5.288  0.0320  0.8814  0.0513
 4615TIP3    H113809   1.219   0.506   5.228 -1.0898 -0.0776  0.9784
 4615TIP3    H213810   1.346   0.424   5.239  0.9778  2.6526 -1.1453
 4616TIP3   OH213811   2.873   0.234   2.468 -0.6614 -0.1509 -0.1120
 4616TIP3    H113812   2.789   0.217   2.511 -0.8778 -0.2143 -0.5489
 4616TIP3    H213813   2.884   0.329   2.474 -0.5637 -0.1889  0.3099
 4617TIP3   OH213814   1.897   6.645   4.250 -0.5074 -0.2380  0.1073
 4617TIP3    H113815   1.903   6.741   4.257 -0.6033 -0.0338 -2.0190
 4617TIP3    H213816   1.987   6.617   4.235 -0.7229 -0.2455 -1.3097
 4618TIP3   OH213817   5.669   0.335   2.168  0.2396 -0.1459  0.3917
 4618TIP3    H113818   5.627   0.288   2.096  0.1876  0.9978 -0.3315
 4618TIP3    H213819   5.639   0.425   2.159  1.2379  0.2700  1.0954
 4619TIP3   OH213820   4.989   4.897   0.692  0.5575  0.3374 -0.4852
 4619TIP3    H113821   4.945   4.819   0.658 -1.4780  1.4285 -0.5453
 4619TIP3    H213822   4.978   4.963   0.623  1.4116  0.9409 -0.0579
 4620TIP3   OH213823   0.165   1.434   4.488 -0.0342 -0.4767 -0.1709
 4620TIP3    H113824   0.197   1.474   4.408 -0.3745  2.4247  1.0201
 4620TIP3    H213825   0.139   1.508   4.544 -1.2917 -2.4036  2.0084
 4621TIP3   OH213826   0.051   2.079   1.157  0.0968  0.1517 -0.3282
 4621TIP3    H113827   0.041   2.003   1.100 -1.5374 -0.7515  1.0783
 4621TIP3    H213828   0.135   2.065   1.201 -0.3430 -1.0614  0.1727
 4622TIP3   OH213829   2.183   4.509   2.900  0.1877  0.4329  0.2772
 4622TIP3    H113830   2.175   4.446   2.828  0.7719 -0.0879  0.6572
 4622TIP3    H213831   2.276   4.534   2.899 -0.2587  2.2037 -0.6166
 4623TIP3   OH213832   0.698   5.663   1.235  0.4421  0.1317 -0.1624
 4623TIP3    H113833   0.779   5.696   1.275  0.7261  0.9294 -1.3355
 4623TIP3    H213834   0.633   5.731   1.255  0.4172  0.1916 -0.4493
 4624TIP3   OH213835   3.398   2.998   1.041  0.5997  0.1501 -0.3195
 4624TIP3    H113836   3.393   3.060   1.114 -0.9565 -0.7791  0.4222
 4624TIP3    H213837   3.313   3.006   0.998  1.3198  0.3204 -1.7648
 4625TIP3   OH213838   3.307   1.048   4.197 -0.0951 -0.6235  0.3177
 4625TIP3    H113839   3.356   1.074   4.276 -0.4337 -1.1010  0.6933
 4625TIP3    H213840   3.277   0.960   4.216  2.8439 -2.2419 -1.7878
 4626TIP3   OH213841   2.149   2.204   0.460  0.5324  0.4430 -0.0985
 4626TIP3    H113842   2.134   2.171   0.372 -0.8452 -1.3517  0.7578
 4626TIP3    H213843   2.114   2.293   0.459 -0.2900  0.1239 -1.1243
 4627TIP3   OH213844   3.196   0.808   0.177  0.2575  0.5221 -0.1386
 4627TIP3    H113845   3.225   0.897   0.155 -2.3560  1.1159 -1.5100
 4627TIP3    H213846   3.175   0.812   0.270 -0.9087  1.6946 -0.4286
 4628TIP3   OH213847   2.957   0.922   2.172  0.3817 -0.5547 -0.1737
 4628TIP3    H113848   2.979   0.867   2.097 -0.9590  0.5944 -1.4611
 4628TIP3    H213849   3.041   0.960   2.199  0.9249 -1.2216 -0.8781
 4629TIP3   OH213850   6.259   5.894   2.507 -0.0483  0.0041 -0.4537
 4629TIP3    H113851   6.310   5.862   2.581 -0.8144  0.0975  0.1263
 4629TIP3    H213852   6.300   5.977   2.484 -0.2006  0.3057  0.3097
 4630TIP3   OH213853   6.560   3.654   5.293 -0.8320 -0.2306 -0.3663
 4630TIP3    H113854   6.585   3.716   5.362 -1.3450  0.5784 -0.8953
 4630TIP3    H213855   6.484   3.695   5.251 -1.6864 -1.5903 -0.2128
 4631TIP3   OH213856   5.793   6.275   2.601 -0.5104  0.2918 -0.2004
 4631TIP3    H113857   5.779   6.252   2.509  1.0769 -0.0264 -0.4041
 4631TIP3    H213858   5.750   6.360   2.612 -2.3198 -0.5094 -0.7217
 4632TIP3   OH213859   5.364   2.534   4.569 -0.6913 -0.4715 -0.3369
 4632TIP3    H113860   5.294   2.519   4.632  1.2943 -0.2055  2.0625
 4632TIP3    H213861   5.443   2.503   4.612  0.9392  0.6325 -2.3218
 4633TIP3   OH213862   5.519   3.314   2.905 -0.4252  0.2924  0.2332
 4633TIP3    H113863   5.544   3.333   2.996 -1.2757  1.5435  0.2227
 4633TIP3    H213864   5.426   3.336   2.901 -0.6541 -0.7801 -0.6814
 4634TIP3   OH213865   3.833   3.407   0.834 -0.4261 -0.1050  0.2759
 4634TIP3    H113866   3.753   3.368   0.800  0.6440 -1.8639 -0.3711
 4634TIP3    H213867   3.884   3.333   0.866  1.1664  0.9005  0.1868
 4635TIP3   OH213868   2.005   4.183   4.553  0.4095  0.0897  0.1456
 4635TIP3    H113869   2.062   4.254   4.579 -0.0352  0.2891  0.5894
 4635TIP3    H213870   1.987   4.135   4.634 -1.7162  1.2416  0.4393
 4636TIP3   OH213871   0.650   3.659   1.447  0.2777  0.0882  0.1915
 4636TIP3    H113872   0.726   3.717   1.457  0.6585  0.2862 -2.9424
 4636TIP3    H213873   0.685   3.580   1.405 -1.1981  0.2798 -1.5421
 4637TIP3   OH213874   2.242   1.604   4.876 -0.2099  0.1602 -0.3809
 4637TIP3    H113875   2.333   1.635   4.880  0.6175 -2.1783  2.1182
 4637TIP3    H213876   2.189   1.684   4.881  1.7381  1.4700  0.5055
 4638TIP3   OH213877   3.813   0.131   0.308  0.7124  0.1628 -0.7540
 4638TIP3    H113878   3.730   0.085   0.298  1.2066 -0.9817  0.2049
 4638TIP3    H213879   3.863   0.108   0.230  0.3830  0.3204 -1.0139
 4639TIP3   OH213880   2.869   5.403   4.780  0.2528 -0.2043  0.1803
 4639TIP3    H113881   2.825   5.357   4.708 -0.9501  0.4591  0.4701
 4639TIP3    H213882   2.962   5.395   4.760  0.0170 -1.6464 -0.4579
 4640TIP3   OH213883   0.313   5.614   2.754  0.3817  0.2027  0.5761
 4640TIP3    H113884   0.321   5.707   2.776  1.0120  0.2152  0.3315
 4640TIP3    H213885   0.354   5.607   2.668  0.3380 -0.3038  0.5963
 4641TIP3   OH213886   2.648   5.975   1.219  0.1713 -0.5650 -0.1376
 4641TIP3    H113887   2.615   5.995   1.307 -1.7447  0.3142 -0.9851
 4641TIP3    H213888   2.735   5.938   1.233 -0.0005 -0.2372  2.1034
 4642TIP3   OH213889   5.202   5.411   4.700 -0.0094 -0.0415  1.0445
 4642TIP3    H113890   5.187   5.472   4.772 -1.4239  1.1569 -0.1905
 4642TIP3    H213891   5.296   5.420   4.679 -0.4716  3.0963 -0.2020
 4643TIP3   OH213892   4.130   4.211   4.673 -0.0887 -0.3633  0.2569
 4643TIP3    H113893   4.087   4.251   4.597  1.3157  0.3470 -0.1924
 4643TIP3    H213894   4.105   4.118   4.668 -0.7511 -0.1594 -0.5428
 4644TIP3   OH213895   6.847   3.171   3.377 -0.1500  0.0300  0.4123
 4644TIP3    H113896   6.835   3.233   3.449 -1.3131  0.5664 -0.2221
 4644TIP3    H213897   6.781   3.104   3.393  0.0744 -0.2364  0.2355
 4645TIP3   OH213898   1.498   1.028   5.842 -0.1005  0.0460  0.2551
 4645TIP3    H113899   1.555   1.086   5.892  1.6924 -0.3057 -1.2567
 4645TIP3    H213900   1.558   0.966   5.800 -1.3292  0.8510 -2.9939
 4646TIP3   OH213901   4.245   0.831   3.660 -0.3398  0.0799 -0.2713
 4646TIP3    H113902   4.269   0.740   3.644 -0.4918 -0.3380  1.6139
 4646TIP3    H213903   4.277   0.879   3.584  0.2494 -1.4629 -1.0274
 4647TIP3   OH213904   7.017   5.338   1.070  0.0198 -0.0367  0.5592
 4647TIP3    H113905   6.967   5.259   1.047 -0.2786  0.4345 -0.4832
 4647TIP3    H213906   7.106   5.306   1.086 -0.1197 -0.6023  0.2431
 4648TIP3   OH213907   0.727   0.829   0.702 -0.1158  0.2192  0.2194
 4648TIP3    H113908   0.775   0.905   0.736  0.9874  0.0064 -0.8081
 4648TIP3    H213909   0.646   0.865   0.668  0.3801  0.9355 -0.2263
 4649TIP3   OH213910   1.272   3.194   2.480  0.6530  0.3078 -0.2850
 4649TIP3    H113911   1.263   3.253   2.405 -2.4115  0.4172  0.0406
 4649TIP3    H213912   1.366   3.174   2.484  1.4658  3.1844 -1.8971
 4650TIP3   OH213913   4.456   4.957   4.626  0.1265 -0.3826 -0.1120
 4650TIP3    H113914   4.460   4.965   4.721 -0.4182 -2.9545  0.2158
 4650TIP3    H213915   4.363   4.940   4.607  0.4023 -1.0800 -0.9402
 4651TIP3   OH213916   6.476   0.620   4.926  0.1126 -0.1199  0.3078
 4651TIP3    H113917   6.402   0.658   4.974 -0.0650 -0.0465 -0.0264
 4651TIP3    H213918   6.480   0.670   4.845 -1.4692 -2.2034 -1.1604
 4652TIP3   OH213919   6.374   0.236   5.496 -0.0929  0.4213  0.2909
 4652TIP3    H113920   6.373   0.316   5.443  1.2802  0.9858  1.0364
 4652TIP3    H213921   6.351   0.266   5.584 -0.3888 -0.1532  0.4121
 4653TIP3   OH213922   0.449   0.765   3.328 -0.2808  0.0733  0.1819
 4653TIP3    H113923   0.354   0.769   3.340 -0.1172  0.2391  1.5481
 4653TIP3    H213924   0.479   0.704   3.395  0.5510 -0.2755 -0.4887
 4654TIP3   OH213925   1.725   0.165   0.446  0.2427 -0.5598 -0.1764
 4654TIP3    H113926   1.785   0.239   0.441  0.1260 -0.2238  2.3106
 4654TIP3    H213927   1.723   0.130   0.356  2.1619  0.9475 -0.8829
 4655TIP3   OH213928   6.886   4.715   2.665  0.0097 -0.0691  0.1608
 4655TIP3    H113929   6.945   4.648   2.631 -1.5056 -0.8301 -1.1034
 4655TIP3    H213930   6.923   4.738   2.751  2.8684  0.5114 -1.1025
 4656TIP3   OH213931   0.072   2.506   0.849  0.0776  0.3972  0.2989
 4656TIP3    H113932   0.063   2.543   0.761  1.0255 -1.1909 -0.5157
 4656TIP3    H213933  -0.018   2.503   0.883 -0.2687  1.2946 -0.4891
 4657TIP3   OH213934   3.442   2.091   1.103  0.2801  0.1479  0.2823
 4657TIP3    H113935   3.374   2.121   1.043 -0.3562  0.2482  1.0332
 4657TIP3    H213936   3.428   2.143   1.182 -0.1179 -1.2995  1.2054
 4658TIP3   OH213937   4.055   5.992   3.585  0.1842 -0.0031 -0.3950
 4658TIP3    H113938   3.960   5.986   3.577  0.1452 -1.2898  0.6766
 4658TIP3    H213939   4.075   5.947   3.667  1.6416  1.1106 -0.1114
 4659TIP3   OH213940   1.207   0.759   1.919 -0.2178  0.0217  0.4753
 4659TIP3    H113941   1.298   0.753   1.947  0.3209 -1.2053 -1.3452
 4659TIP3    H213942   1.178   0.668   1.914 -1.8736  0.4205  1.9177
 4660TIP3   OH213943   0.386   2.455   2.209 -0.1422 -0.2551  0.0647
 4660TIP3    H113944   0.334   2.383   2.245  1.4514 -1.4667  0.0584
 4660TIP3    H213945   0.404   2.512   2.284 -2.0608  0.6004 -0.0758
 4661TIP3   OH213946   3.047   0.621   0.527  0.5518  0.1060  0.1739
 4661TIP3    H113947   3.142   0.623   0.542  0.7544 -1.0299 -0.8297
 4661TIP3    H213948   3.027   0.711   0.498  1.3080  0.3759  0.4455
 4662TIP3   OH213949   0.980   0.556   0.310  0.2245 -0.0090 -0.4767
 4662TIP3    H113950   0.963   0.588   0.399  0.9228 -0.4645 -0.1691
 4662TIP3    H213951   1.025   0.473   0.323  1.3633  0.4660 -1.2565
 4663TIP3   OH213952   3.488   4.975   3.892  0.0898  0.2807  0.7743
 4663TIP3    H113953   3.453   5.065   3.896  0.2486  0.3244  1.2702
 4663TIP3    H213954   3.442   4.929   3.962  1.0736  0.3615  1.5007
 4664TIP3   OH213955   7.190   0.302   1.307  0.2848 -0.0777 -0.4778
 4664TIP3    H113956   7.108   0.256   1.289 -0.7412  2.0631 -1.7190
 4664TIP3    H213957   7.254   0.259   1.251 -0.2665 -0.9837 -0.4316
 4665TIP3   OH213958   5.011   1.861   4.016 -0.3317  0.2529  0.0668
 4665TIP3    H113959   4.928   1.824   4.047 -0.1959 -0.8896 -0.8562
 4665TIP3    H213960   5.076   1.831   4.081 -0.3936 -0.2392 -0.0915
 4666TIP3   OH213961   3.988   0.370   4.808 -0.2110  0.5001  0.7411
 4666TIP3    H113962   3.993   0.355   4.714 -0.8994  0.2629  0.7365
 4666TIP3    H213963   3.988   0.282   4.846  0.8909  0.6000  1.0227
 4667TIP3   OH213964   5.068   5.442   1.489  0.1561 -0.1167  1.0505
 4667TIP3    H113965   4.992   5.491   1.521  1.5551  2.8998  0.1435
 4667TIP3    H213966   5.076   5.466   1.397  2.2900 -0.1736  1.1661
 4668TIP3   OH213967   1.067   3.160   0.744  0.0991 -0.1499  0.1559
 4668TIP3    H113968   0.971   3.163   0.751  0.0011  0.7945 -1.2473
 4668TIP3    H213969   1.091   3.241   0.700  1.4889 -0.6893 -0.1461
 4669TIP3   OH213970   6.688   2.131   1.062  0.2349 -0.1552  0.2488
 4669TIP3    H113971   6.736   2.179   1.129  0.7135  0.2173 -0.3512
 4669TIP3    H213972   6.660   2.051   1.105  0.1402  0.2869  1.0245
 4670TIP3   OH213973   5.135   3.635   5.600  0.5700  0.2025 -0.7959
 4670TIP3    H113974   5.190   3.712   5.589  1.9462 -0.6246 -0.0612
 4670TIP3    H213975   5.189   3.574   5.651 -0.4895 -1.2211 -1.2932
 4671TIP3   OH213976   5.553   5.968   0.038 -0.0935  0.0180  0.0853
 4671TIP3    H113977   5.471   6.004   0.071  1.0456  2.1655  0.6875
 4671TIP3    H213978   5.548   5.874   0.060 -1.9868  0.2567  0.8708
 4672TIP3   OH213979   4.068   2.340   0.970  0.2882  0.3013 -0.4321
 4672TIP3    H113980   4.094   2.432   0.962  0.4708  0.1369 -2.2464
 4672TIP3    H213981   4.055   2.326   1.064  1.6644  1.7888  0.0143
 4673TIP3   OH213982   5.009   5.942   0.042  1.1867 -0.1464 -0.2272
 4673TIP3    H113983   5.069   6.015   0.026  1.1910 -0.3185 -1.0299
 4673TIP3    H213984   5.001   5.898  -0.043 -1.1151  0.6703 -0.5152
 4674TIP3   OH213985   5.357   1.245   5.010 -0.0779 -0.3759  0.1350
 4674TIP3    H113986   5.361   1.337   4.986  1.3192 -0.9143 -1.9489
 4674TIP3    H213987   5.265   1.230   5.033 -0.6274  1.2131 -0.8646
 4675TIP3   OH213988   4.800   5.548   4.129  0.2243 -0.3960  0.3588
 4675TIP3    H113989   4.820   5.635   4.164  0.1734 -0.0606 -0.4341
 4675TIP3    H213990   4.886   5.508   4.115  0.2419 -0.7769  1.4331
 4676TIP3   OH213991   0.417   2.747   0.538 -0.6590  0.4206  0.3645
 4676TIP3    H113992   0.425   2.834   0.499  0.4567  1.2093  2.2441
 4676TIP3    H213993   0.325   2.739   0.563 -1.3771 -0.0426 -2.1357
 4677TIP3   OH213994   0.104   0.687   1.646  0.0953  0.6146  0.0341
 4677TIP3    H113995   0.063   0.622   1.589  0.8034 -0.2611  0.5082
 4677TIP3    H213996   0.190   0.703   1.607  0.2200  0.7026  0.3382
 4678TIP3   OH213997   3.956   2.293   3.809 -0.4635  0.2894  0.2395
 4678TIP3    H113998   3.896   2.336   3.748 -1.0565  1.3516  1.5265
 4678TIP3    H213999   4.043   2.308   3.771 -0.8182  0.9195 -0.3539
 4679TIP3   OH214000   4.105   1.964   0.377  0.6751  1.3321 -0.7618
 4679TIP3    H114001   4.084   1.982   0.468 -0.6557 -0.3259 -0.6896
 4679TIP3    H214002   4.170   1.894   0.380  1.2647  1.8582 -1.0845
 4680TIP3   OH214003   0.409   3.765   0.859 -0.9587  0.0368 -0.1002
 4680TIP3    H114004   0.460   3.734   0.785 -0.1723  1.0040  0.0106
 4680TIP3    H214005   0.414   3.694   0.923 -2.0105 -0.9921 -1.1038
 4681TIP3   OH214006   6.398   4.003   1.625 -0.4449  0.2813  0.7236
 4681TIP3    H114007   6.330   3.972   1.685 -1.3183 -1.0967 -0.8820
 4681TIP3    H214008   6.476   3.953   1.650 -1.0942 -1.1281  0.0357
 4682TIP3   OH214009   3.366   5.635   5.758 -0.2736 -0.1539  0.1036
 4682TIP3    H114010   3.272   5.621   5.754 -0.1934 -0.4744 -1.9386
 4682TIP3    H214011   3.377   5.730   5.756 -0.5721 -0.0658 -3.2631
 4683TIP3   OH214012   4.267   5.955   4.254 -0.1224 -0.1811  0.2290
 4683TIP3    H114013   4.249   5.986   4.165  0.8524  1.2091  0.4841
 4683TIP3    H214014   4.295   5.864   4.243 -1.5892 -0.5539 -0.7082
 4684TIP3   OH214015   3.611   3.977   1.177  0.5571  0.1859 -0.7306
 4684TIP3    H114016   3.683   3.913   1.172  1.7542  0.8357  3.5779
 4684TIP3    H214017   3.532   3.924   1.189  1.3808 -0.6596  1.5971
 4685TIP3   OH214018   3.540   6.129   2.080  0.5820  0.5154  0.7948
 4685TIP3    H114019   3.608   6.196   2.079  0.8536  0.3115 -1.5242
 4685TIP3    H214020   3.546   6.088   1.994 -0.1001 -1.9789  1.8452
 4686TIP3   OH214021   3.840   0.485   3.662 -0.0029  0.5239 -0.5076
 4686TIP3    H114022   3.910   0.525   3.609 -0.0658 -0.0856 -1.0753
 4686TIP3    H214023   3.850   0.391   3.645 -0.3451  0.3629  0.1864
 4687TIP3   OH214024   5.766   2.655   2.093 -0.3618  0.2146  0.9039
 4687TIP3    H114025   5.791   2.596   2.165  0.0548 -0.1546  0.4643
 4687TIP3    H214026   5.837   2.647   2.030 -1.1324 -0.1185  0.0596
 4688TIP3   OH214027   5.310   3.326   0.219 -0.2506  0.2003 -0.2682
 4688TIP3    H114028   5.230   3.379   0.225  0.5675  1.5706 -0.8392
 4688TIP3    H214029   5.328   3.320   0.126  0.3653 -0.0062 -0.1388
 4689TIP3   OH214030   5.602   4.698   4.879 -0.2201 -0.4769  0.3642
 4689TIP3    H114031   5.570   4.714   4.790  2.4502  1.9051 -0.3245
 4689TIP3    H214032   5.562   4.767   4.932  1.5678  0.8915  0.0222
 4690TIP3   OH214033   5.201   1.165   3.166 -0.3123 -0.0679  0.3594
 4690TIP3    H114034   5.146   1.087   3.167  0.1380 -0.4166 -0.6417
 4690TIP3    H214035   5.165   1.218   3.095  0.4088 -0.1394 -0.0689
 4691TIP3   OH214036   6.782   4.017   2.998 -0.0618 -0.8802  0.2604
 4691TIP3    H114037   6.827   4.058   3.072  2.5619 -2.2253 -0.4672
 4691TIP3    H214038   6.807   4.070   2.922 -0.0393 -1.3769 -0.0870
 4692TIP3   OH214039   7.165   2.714   5.780 -0.4157  0.2400 -0.1101
 4692TIP3    H114040   7.080   2.686   5.816 -0.2924 -1.1195 -0.8021
 4692TIP3    H214041   7.229   2.684   5.844 -0.3631 -0.0973 -0.3159
 4693TIP3   OH214042   6.914   1.396   0.090  0.3492 -0.2874 -0.2398
 4693TIP3    H114043   6.880   1.318   0.135 -0.0649  0.9127  1.6210
 4693TIP3    H214044   6.992   1.420   0.138  1.0867 -0.1321 -1.4595
 4694TIP3   OH214045   0.682   3.205   0.958  0.2132  0.0511  0.3780
 4694TIP3    H114046   0.693   3.123   0.912 -0.2980  0.7025 -0.9477
 4694TIP3    H214047   0.596   3.237   0.930  0.1732  0.7805  1.2784
 4695TIP3   OH214048   6.923   1.491   4.191 -0.0962 -0.1674 -0.1355
 4695TIP3    H114049   6.865   1.416   4.206 -0.1487  0.0897  0.9849
 4695TIP3    H214050   6.865   1.560   4.161  0.1368 -0.9710 -2.7166
 4696TIP3   OH214051   5.658   4.900   1.393 -0.4876  0.1283  0.0130
 4696TIP3    H114052   5.731   4.960   1.379 -0.9470  0.0093 -4.2747
 4696TIP3    H214053   5.601   4.946   1.455  1.8790  1.3820  1.4247
 4697TIP3   OH214054   4.204   3.702   3.318  0.5119 -0.1288  0.2330
 4697TIP3    H114055   4.292   3.735   3.299  0.8118 -0.1441  1.5561
 4697TIP3    H214056   4.217   3.615   3.353 -0.2141 -1.2236 -2.0015
 4698TIP3   OH214057   6.968   1.318   4.575 -0.6086  0.6025 -0.1216
 4698TIP3    H114058   7.025   1.384   4.614  1.2452 -0.9723 -0.0120
 4698TIP3    H214059   6.889   1.319   4.629  0.3000  1.2016  1.2642
 4699TIP3   OH214060   2.813   2.622   1.778 -0.2139 -0.7851  0.0087
 4699TIP3    H114061   2.719   2.627   1.797 -0.7564 -1.6988 -2.1084
 4699TIP3    H214062   2.853   2.597   1.861 -1.5753  1.4900  1.4542
 4700TIP3   OH214063   2.606   3.609   0.588 -0.8191 -0.2465 -0.1262
 4700TIP3    H114064   2.522   3.641   0.622 -1.2905  0.0741 -1.5118
 4700TIP3    H214065   2.634   3.678   0.527  1.2236  0.3692  1.4198
 4701TIP3   OH214066   5.807   0.208   4.731 -0.4250  0.0030 -0.7577
 4701TIP3    H114067   5.894   0.229   4.698  0.4796  0.0442  1.4635
 4701TIP3    H214068   5.814   0.117   4.760 -0.8607  0.2432  0.1430
 4702TIP3   OH214069   4.069   2.963   2.203  0.2159  0.1518 -0.1984
 4702TIP3    H114070   4.158   2.994   2.191 -0.0025  3.9277  4.7755
 4702TIP3    H214071   4.071   2.916   2.287 -2.5529  1.1142  0.5088
 4703TIP3   OH214072   5.997   4.608   4.355 -0.5190 -0.6654 -0.1966
 4703TIP3    H114073   6.081   4.598   4.310  0.7131  0.8299  1.5868
 4703TIP3    H214074   5.989   4.530   4.410 -0.5202 -1.0164 -0.6923
 4704TIP3   OH214075   7.060   2.881   3.508 -0.0631  0.0306  0.2067
 4704TIP3    H114076   7.086   2.790   3.522  0.6385  0.2800  0.6192
 4704TIP3    H214077   7.087   2.900   3.418  0.3783  0.0100  0.3290
 4705TIP3   OH214078   3.403   3.424   5.451 -0.6354 -0.1950 -0.2899
 4705TIP3    H114079   3.455   3.420   5.371  3.5423 -1.9320  2.2178
 4705TIP3    H214080   3.399   3.517   5.474  0.3389  0.0736 -1.1688
 4706TIP3   OH214081   0.868   6.267   3.407 -0.0130  0.0291 -0.5525
 4706TIP3    H114082   0.953   6.276   3.449  0.1404  0.3692 -0.9214
 4706TIP3    H214083   0.876   6.318   3.326 -1.0086  1.2069  0.0622
 4707TIP3   OH214084   0.661   1.318   1.034  0.3038 -0.1672 -0.1659
 4707TIP3    H114085   0.675   1.247   1.097 -0.1759 -1.0580 -1.0326
 4707TIP3    H214086   0.633   1.274   0.954 -0.8062  1.0559 -0.4876
 4708TIP3   OH214087   1.596   3.789   2.818  0.0152  0.1340 -0.3500
 4708TIP3    H114088   1.585   3.864   2.877  0.2657 -1.1066  1.3323
 4708TIP3    H214089   1.552   3.717   2.862  2.3502 -1.4456 -0.4516
 4709TIP3   OH214090   3.956   4.534   0.703  0.6448  0.1539  0.1215
 4709TIP3    H114091   4.012   4.611   0.696 -0.2191  0.9853  1.8219
 4709TIP3    H214092   3.890   4.545   0.634  0.5979  0.8920  0.2801
 4710TIP3   OH214093   2.041   4.820   2.327 -0.0060  0.1346 -0.1769
 4710TIP3    H114094   2.060   4.731   2.356  0.0181 -0.1426 -1.0136
 4710TIP3    H214095   1.959   4.843   2.370  0.8872  0.3938  1.4772
 4711TIP3   OH214096   2.158   3.896   4.661 -0.0565 -0.0441  0.3625
 4711TIP3    H114097   2.152   3.991   4.671  1.4702  0.0656  0.5776
 4711TIP3    H214098   2.137   3.861   4.747 -1.4683  0.0288  0.0687
 4712TIP3   OH214099   0.543   5.084   3.204 -0.2465  0.0131  0.2037
 4712TIP3    H114100   0.586   5.048   3.281  2.2345  1.3128 -0.4618
 4712TIP3    H214101   0.486   5.153   3.238 -0.1264 -0.2458  0.9386
 4713TIP3   OH214102   4.925   1.304   2.749  0.0430  0.8453 -0.1220
 4713TIP3    H114103   4.992   1.315   2.682 -0.6459 -0.6312 -1.0946
 4713TIP3    H214104   4.851   1.357   2.718 -1.5338 -2.3794 -2.3830
 4714TIP3   OH214105   5.066   4.212   3.774  0.1792  0.1195 -0.2966
 4714TIP3    H114106   5.011   4.179   3.702 -0.4955 -1.3577  0.8401
 4714TIP3    H214107   5.004   4.253   3.834  0.0537 -2.4157  1.4799
 4715TIP3   OH214108   5.177   0.994   0.602  0.1452  0.2459 -0.0774
 4715TIP3    H114109   5.234   1.016   0.528 -0.1897  0.3956 -0.2902
 4715TIP3    H214110   5.151   1.079   0.638 -0.8201  0.2029 -0.6504
 4716TIP3   OH214111   5.707   3.892   4.532  0.5373  0.7026  0.2743
 4716TIP3    H114112   5.655   3.914   4.455  0.8522 -1.3010 -0.5939
 4716TIP3    H214113   5.646   3.848   4.591  0.4465  1.6524  0.9175
 4717TIP3   OH214114   4.029   6.764   3.992  0.0515 -0.3130 -0.2846
 4717TIP3    H114115   4.018   6.849   4.036 -0.1467  0.1469 -1.2005
 4717TIP3    H214116   3.947   6.750   3.946  0.0536 -1.0537 -0.0656
 4718TIP3   OH214117   4.084   5.138   1.580  0.6984 -0.2470  0.8114
 4718TIP3    H114118   4.002   5.103   1.547 -0.6544  2.7258  0.7055
 4718TIP3    H214119   4.140   5.149   1.503  0.8947 -1.3948  0.7673
 4719TIP3   OH214120   0.770   5.697   0.751 -0.1936  0.4252 -0.0814
 4719TIP3    H114121   0.724   5.728   0.673  0.7238  0.8280 -0.4746
 4719TIP3    H214122   0.858   5.736   0.745  0.3722 -0.7244  0.3871
 4720TIP3   OH214123   0.408   1.208   2.964 -0.0156 -0.1838 -0.5742
 4720TIP3    H114124   0.369   1.159   2.891  0.1614 -0.9429 -0.1631
 4720TIP3    H214125   0.501   1.210   2.943 -0.2031  1.4711 -1.4617
 4721TIP3   OH214126   0.814   1.577   5.569  0.2332 -0.2271  0.0405
 4721TIP3    H114127   0.807   1.496   5.619  0.8082  0.3575  1.0962
 4721TIP3    H214128   0.777   1.644   5.627  0.0129  0.3154 -0.7111
 4722TIP3   OH214129   2.656   5.139   1.626  0.0790  0.7076  0.1749
 4722TIP3    H114130   2.730   5.081   1.643 -0.4785  0.3652  1.6327
 4722TIP3    H214131   2.694   5.215   1.583  1.1839  0.2792  0.3543
 4723TIP3   OH214132   0.828   4.370   3.238  0.1902 -0.0816 -0.5715
 4723TIP3    H114133   0.799   4.342   3.151  0.5611 -1.6921 -0.2078
 4723TIP3    H214134   0.748   4.367   3.291  0.4631 -1.8644 -0.2133
 4724TIP3   OH214135   1.216   1.607   3.869 -0.4080  0.2093 -0.2421
 4724TIP3    H114136   1.291   1.628   3.925 -0.3947 -0.4914  0.0000
 4724TIP3    H214137   1.151   1.569   3.928 -1.2271  1.4012 -0.3313
 4725TIP3   OH214138   6.263   5.964   5.887  0.0137  0.1008 -0.2336
 4725TIP3    H114139   6.318   5.977   5.810  0.7613 -0.1157  0.2519
 4725TIP3    H214140   6.222   6.049   5.903 -2.8322 -0.6031 -2.8347
 4726TIP3   OH214141   2.693   4.486   3.725  0.1524 -0.1429  0.0210
 4726TIP3    H114142   2.776   4.440   3.717 -0.1822 -0.8006  0.3293
 4726TIP3    H214143   2.647   4.468   3.643 -0.6059 -1.6165  0.7433
 4727TIP3   OH214144   5.964   5.610   4.304 -0.3919  0.0697 -0.9955
 4727TIP3    H114145   5.989   5.638   4.392  0.2588 -2.0746 -0.4360
 4727TIP3    H214146   5.986   5.685   4.248  0.4953  0.9623  0.4623
 4728TIP3   OH214147   2.218   6.239   0.440  0.4694 -0.1183 -0.3596
 4728TIP3    H114148   2.183   6.314   0.488  1.4255  0.1500 -0.0627
 4728TIP3    H214149   2.242   6.176   0.507 -1.0987 -1.0519 -0.6453
 4729TIP3   OH214150   5.221   3.942   4.765 -0.3408  0.3256 -0.4267
 4729TIP3    H114151   5.200   3.889   4.842 -0.5871  0.6076 -0.3001
 4729TIP3    H214152   5.177   3.897   4.693  1.6771 -1.1915 -0.7945
 4730TIP3   OH214153   6.266   3.723   2.592  0.3167 -0.0239  0.5092
 4730TIP3    H114154   6.331   3.709   2.523 -0.5054 -0.1374 -0.2623
 4730TIP3    H214155   6.250   3.636   2.628  0.4192 -0.0348  0.5255
 4731TIP3   OH214156   4.547   6.011   1.989 -1.0004  0.1413 -0.4034
 4731TIP3    H114157   4.567   6.036   2.080  1.0372  0.3154 -0.8494
 4731TIP3    H214158   4.509   5.924   1.997  0.8529 -0.6481  0.5499
 4732TIP3   OH214159   3.049   1.250   4.759 -0.5480  0.1257 -0.0222
 4732TIP3    H114160   3.103   1.292   4.691 -0.8819 -0.1669 -0.4732
 4732TIP3    H214161   3.112   1.199   4.810 -0.3479  0.0318 -0.3560
 4733TIP3   OH214162   3.823   1.784   3.068 -0.0294 -0.5043 -0.5142
 4733TIP3    H114163   3.735   1.748   3.077 -0.0015 -0.6373 -0.7823
 4733TIP3    H214164   3.810   1.879   3.063 -0.1788 -0.5407 -0.8206
 4734TIP3   OH214165   5.999   0.942   1.559 -0.3226 -0.4060  0.4286
 4734TIP3    H114166   6.023   0.928   1.651  0.7574 -0.0161  0.2203
 4734TIP3    H214167   6.063   0.891   1.509 -0.8682 -0.5731 -0.1143
 4735TIP3   OH214168   0.032   3.536   0.708 -0.4448  0.2030  0.5240
 4735TIP3    H114169   0.018   3.453   0.663  1.2553 -0.0149  0.3318
 4735TIP3    H214170  -0.020   3.599   0.657  1.3679 -0.0396 -1.8205
 4736TIP3   OH214171   5.339   2.956   4.172 -0.7430  1.0127  0.2813
 4736TIP3    H114172   5.425   2.978   4.137 -1.2268  0.2569 -1.4554
 4736TIP3    H214173   5.358   2.898   4.246  0.2631  1.5559  0.4696
 4737TIP3   OH214174   6.694   3.397   5.292 -0.0361  1.0350  0.1942
 4737TIP3    H114175   6.663   3.485   5.315 -3.6977  0.2132 -0.9281
 4737TIP3    H214176   6.691   3.395   5.196 -0.3554 -0.3837  0.2085
 4738TIP3   OH214177   1.858   4.600   4.168  0.4733 -0.0106 -0.0530
 4738TIP3    H114178   1.790   4.600   4.236 -1.4627  0.3532 -1.8878
 4738TIP3    H214179   1.908   4.680   4.185 -0.0308  0.1243  0.8709
 4739TIP3   OH214180   2.594   6.016   1.491  0.1400 -0.6157 -0.5652
 4739TIP3    H114181   2.528   5.956   1.525 -0.7760 -0.4890 -2.0457
 4739TIP3    H214182   2.551   6.101   1.491  0.8791 -0.2315 -0.0043
 4740TIP3   OH214183   2.298   4.599   5.014  0.0849 -0.2224 -0.5808
 4740TIP3    H114184   2.319   4.540   4.941  1.4656 -0.4534 -0.0250
 4740TIP3    H214185   2.261   4.541   5.081  0.5096 -0.3167 -0.4197
 4741TIP3   OH214186   7.130   3.064   5.255  0.4137  0.0592  0.4230
 4741TIP3    H114187   7.138   3.081   5.349 -0.4149  1.5647  0.2523
 4741TIP3    H214188   7.047   3.104   5.230 -1.1626 -3.3528 -0.3551
 4742TIP3   OH214189   3.818   2.952   2.115 -0.5057 -0.9222 -0.3897
 4742TIP3    H114190   3.905   2.986   2.136 -0.1415 -0.2643 -2.7097
 4742TIP3    H214191   3.788   2.911   2.197  1.1107  0.6122  1.0663
 4743TIP3   OH214192   2.964   5.642   0.784 -0.2705 -0.0964  0.3182
 4743TIP3    H114193   3.045   5.628   0.832 -0.5230  1.8425  1.4306
 4743TIP3    H214194   2.958   5.568   0.724  2.8205  0.1996 -0.5099
 4744TIP3   OH214195   5.682   2.276   3.257 -0.1307 -0.1309 -0.8997
 4744TIP3    H114196   5.650   2.240   3.174  1.6312  2.0714 -2.6692
 4744TIP3    H214197   5.776   2.261   3.255  0.0063  0.3378  0.5320
 4745TIP3   OH214198   2.179   5.682   4.568 -0.1363  0.4435 -0.0043
 4745TIP3    H114199   2.194   5.600   4.520  0.7645  0.7689 -0.3049
 4745TIP3    H214200   2.261   5.698   4.615 -0.8590  0.3546  1.3367
 4746TIP3   OH214201   3.391   5.912   3.079 -0.1183  0.6697 -0.1719
 4746TIP3    H114202   3.358   5.992   3.121  0.4626  0.5880  0.4559
 4746TIP3    H214203   3.485   5.913   3.097 -0.0890 -0.0937 -0.2697
 4747TIP3   OH214204   4.481   4.235   4.758 -0.4595  0.4256  0.1691
 4747TIP3    H114205   4.537   4.242   4.680 -0.2914 -0.9741  0.1379
 4747TIP3    H214206   4.527   4.284   4.825  0.7520 -0.5529  0.0942
 4748TIP3   OH214207   4.050   5.067   0.883  0.0609 -0.4067  0.2219
 4748TIP3    H114208   4.093   4.991   0.844 -1.1938 -0.7002 -0.6728
 4748TIP3    H214209   3.973   5.030   0.926 -0.8857  0.4015 -0.7300
 4749TIP3   OH214210   5.825   4.186   3.834 -0.2039  0.0031 -0.0426
 4749TIP3    H114211   5.840   4.100   3.875 -1.3130 -0.6048 -0.8483
 4749TIP3    H214212   5.852   4.173   3.742 -0.2167  0.5699 -0.1269
 4750TIP3   OH214213   3.853   4.357   2.180  0.0282  0.3100 -0.5883
 4750TIP3    H114214   3.928   4.381   2.125 -0.8330  1.0732 -1.4996
 4750TIP3    H214215   3.817   4.278   2.139  0.3982 -0.1239 -0.0831
 4751TIP3   OH214216   4.585   3.032   3.706 -0.2453 -0.1636 -0.5026
 4751TIP3    H114217   4.569   3.090   3.780 -0.3457  0.0286 -0.6739
 4751TIP3    H214218   4.530   3.068   3.635  0.2724 -0.0211 -0.8340
 4752TIP3   OH214219   5.967   4.591   3.787 -0.0209 -0.2590  0.2149
 4752TIP3    H114220   6.046   4.604   3.735 -0.2485  1.5443  0.2469
 4752TIP3    H214221   5.955   4.674   3.833  0.7555 -2.0228  4.0541
 4753TIP3   OH214222   0.745   5.525   0.131  0.1188 -0.0384 -0.1832
 4753TIP3    H114223   0.786   5.557   0.211 -1.4647  0.9975  0.2544
 4753TIP3    H214224   0.662   5.487   0.159  0.2003 -1.0016 -1.1817
 4754TIP3   OH214225   6.444   4.275   0.465 -0.1533 -0.3064 -0.3032
 4754TIP3    H114226   6.503   4.216   0.419  1.0983  0.7098 -0.0612
 4754TIP3    H214227   6.387   4.218   0.515 -0.3082 -1.3694 -1.6259
 4755TIP3   OH214228   3.987   1.269   1.046 -0.1146 -0.6845  1.2907
 4755TIP3    H114229   4.074   1.270   1.005 -0.6999 -0.5665 -0.0128
 4755TIP3    H214230   3.998   1.316   1.128  1.0501 -0.6432  1.1228
 4756TIP3   OH214231   5.364   2.402   1.402  0.0069  0.3953 -0.0518
 4756TIP3    H114232   5.290   2.357   1.362 -0.7110  0.3893  1.2432
 4756TIP3    H214233   5.406   2.336   1.457  0.0226  0.8261  0.4550
 4757TIP3   OH214234   4.035   0.686   4.953  0.5619  0.4840 -0.1732
 4757TIP3    H114235   4.003   0.652   4.869 -1.9638 -2.1281  1.6426
 4757TIP3    H214236   3.993   0.771   4.963  0.2226  0.4440 -1.2053
 4758TIP3   OH214237   3.363   3.855   0.233  0.0849 -0.2321 -0.1533
 4758TIP3    H114238   3.388   3.802   0.158 -1.4106  0.0426 -0.8844
 4758TIP3    H214239   3.442   3.903   0.257  0.5161 -0.0985 -1.7550
 4759TIP3   OH214240   0.584   5.412   3.786  0.2416 -0.5276  0.2648
 4759TIP3    H114241   0.577   5.356   3.864 -0.5745  0.2236  0.7593
 4759TIP3    H214242   0.558   5.499   3.818  0.8838  0.0009 -0.6251
 4760TIP3   OH214243   7.152   1.386   3.561  0.1090  0.3042 -0.2971
 4760TIP3    H114244   7.149   1.462   3.504  0.0940 -0.8432 -1.9067
 4760TIP3    H214245   7.149   1.422   3.650 -0.3115  2.1331 -1.0065
 4761TIP3   OH214246   2.571   1.208   2.961  0.2749  0.3081 -0.2783
 4761TIP3    H114247   2.544   1.237   2.873  2.5431  1.9678 -0.5332
 4761TIP3    H214248   2.543   1.279   3.019  1.6397  0.8012 -0.1838
 4762TIP3   OH214249   3.796   0.702   1.786 -0.0845  0.1820 -0.3069
 4762TIP3    H114250   3.848   0.696   1.867 -0.0271  2.3893 -0.1162
 4762TIP3    H214251   3.707   0.683   1.814  0.1768 -0.8114 -0.0899
 4763TIP3   OH214252   5.193   4.441   0.656  0.3199  0.0217  0.0712
 4763TIP3    H114253   5.265   4.378   0.650  0.2232 -0.1088  0.2452
 4763TIP3    H214254   5.198   4.474   0.746  0.9285  0.9428 -0.2858
 4764TIP3   OH214255   6.154   2.064   3.121 -0.8633 -0.1968 -0.2334
 4764TIP3    H114256   6.129   1.984   3.075 -0.4249 -0.1091 -0.6310
 4764TIP3    H214257   6.188   2.122   3.053 -1.2770  0.3753  0.0335
 4765TIP3   OH214258   4.846   0.798   4.025 -0.1924  0.1993 -0.0299
 4765TIP3    H114259   4.836   0.741   4.102 -0.3186 -0.2962 -0.4076
 4765TIP3    H214260   4.824   0.885   4.057 -1.6832 -0.2160  0.1592
 4766TIP3   OH214261   0.034   6.622   0.791 -0.5662 -0.1777 -0.0819
 4766TIP3    H114262   0.121   6.608   0.828 -0.0352 -0.7826 -1.4860
 4766TIP3    H214263  -0.026   6.604   0.864  0.4729  0.4483  0.9611
 4767TIP3   OH214264   5.658   4.508   5.455  0.2570 -0.4194  0.2735
 4767TIP3    H114265   5.628   4.566   5.525 -0.2124 -0.8415  0.4297
 4767TIP3    H214266   5.586   4.447   5.442  0.7547 -0.9929  0.1428
 4768TIP3   OH214267   6.323   5.217   1.448 -0.5414  0.4040 -1.0812
 4768TIP3    H114268   6.412   5.204   1.415 -0.7941  0.2260 -1.7167
 4768TIP3    H214269   6.267   5.178   1.380 -1.1239  0.9943 -0.9470
 4769TIP3   OH214270   5.740   0.970   0.277  0.4632 -0.3981  0.2643
 4769TIP3    H114271   5.719   0.905   0.344 -0.5889  0.2084  0.5500
 4769TIP3    H214272   5.754   1.051   0.326  0.0729 -0.0316 -0.2240
 4770TIP3   OH214273   1.592   1.117   3.269 -0.3902 -0.1240  0.2924
 4770TIP3    H114274   1.542   1.151   3.343 -2.2275 -1.3539 -0.2906
 4770TIP3    H214275   1.575   1.179   3.198 -1.2330 -0.5716  0.0774
 4771TIP3   OH214276   1.004   3.268   3.370 -0.3196  0.0984  0.4548
 4771TIP3    H114277   0.965   3.355   3.375 -0.3244  0.1491 -0.3227
 4771TIP3    H214278   0.994   3.232   3.458 -0.6987  0.7190  0.6721
 4772TIP3   OH214279   5.414   4.306   1.004  0.3560  0.0953 -0.0460
 4772TIP3    H114280   5.506   4.281   1.002 -0.3186 -2.7406 -1.4558
 4772TIP3    H214281   5.376   4.254   1.074 -0.6529 -1.0145 -1.3523
 4773TIP3   OH214282   6.423   5.816   5.019 -0.3717  0.0868 -0.4571
 4773TIP3    H114283   6.388   5.905   5.030  0.4860  0.3905 -0.0427
 4773TIP3    H214284   6.408   5.796   4.927 -1.4344  0.2793 -0.3330
 4774TIP3   OH214285   5.352   3.721   2.062 -0.0163 -0.0058  0.3016
 4774TIP3    H114286   5.372   3.726   1.969  0.6222 -1.5553  0.3143
 4774TIP3    H214287   5.429   3.678   2.100 -0.2467  0.6468  1.5511
 4775TIP3   OH214288   6.392   0.958   0.219 -0.4876 -0.0893 -0.3210
 4775TIP3    H114289   6.298   0.973   0.221 -0.6998 -1.2492  2.5028
 4775TIP3    H214290   6.431   1.041   0.250 -0.4632  0.6455 -2.1835
 4776TIP3   OH214291   4.188   2.535   0.290 -0.5640  0.4111  0.5061
 4776TIP3    H114292   4.225   2.607   0.342 -1.8461  2.0260 -0.7064
 4776TIP3    H214293   4.096   2.533   0.315 -0.7183 -0.2864 -0.0958
 4777TIP3   OH214294   4.183   5.903   2.877  0.2827  0.7934  0.0312
 4777TIP3    H114295   4.273   5.869   2.872 -0.9591 -2.6879 -0.7670
 4777TIP3    H214296   4.145   5.859   2.953 -1.5531 -0.0401 -1.3147
 4778TIP3   OH214297   7.233   0.299   4.282  0.2841 -0.3449  0.1011
 4778TIP3    H114298   7.173   0.258   4.220 -0.7110  0.3770  0.5594
 4778TIP3    H214299   7.179   0.365   4.328  1.5549  0.7055  0.1390
 4779TIP3   OH214300   2.631   0.936   0.293  0.0798 -0.3925  0.5217
 4779TIP3    H114301   2.622   0.863   0.232 -0.2517  1.8167 -2.2304
 4779TIP3    H214302   2.568   0.915   0.363 -1.2413 -1.9452 -1.0160
 4780TIP3   OH214303   0.898   6.272   5.872 -0.6515  0.1632  0.0834
 4780TIP3    H114304   0.946   6.348   5.839  0.3947 -1.0321 -1.2581
 4780TIP3    H214305   0.811   6.280   5.833 -0.4023  0.4373 -0.4257
 4781TIP3   OH214306   0.852   2.370   1.243  0.0318 -0.2928  0.8434
 4781TIP3    H114307   0.917   2.311   1.204 -0.7545 -0.5788 -0.0435
 4781TIP3    H214308   0.828   2.429   1.173 -0.3777  0.0756  1.2894
 4782TIP3   OH214309   6.139   3.531   2.321  0.5162 -0.7345 -0.2806
 4782TIP3    H114310   6.062   3.586   2.304 -1.7134 -3.0880  1.5912
 4782TIP3    H214311   6.129   3.457   2.261  1.1127 -1.2424  0.2348
 4783TIP3   OH214312   3.056   1.179   1.886  0.0765 -0.4091 -0.6489
 4783TIP3    H114313   2.969   1.139   1.891 -0.6415  1.0711 -0.8576
 4783TIP3    H214314   3.068   1.219   1.972  0.1192  0.2185 -0.9409
 4784TIP3   OH214315   5.801   1.973   3.107  0.6474 -0.2074  0.0232
 4784TIP3    H114316   5.883   2.020   3.092  0.6500 -0.3414 -0.4100
 4784TIP3    H214317   5.828   1.885   3.133  0.6563  0.3883  2.1620
 4785TIP3   OH214318   5.687   6.082   0.861  0.4552 -0.7367 -0.2998
 4785TIP3    H114319   5.748   6.011   0.838  0.2806 -0.2760 -2.3852
 4785TIP3    H214320   5.723   6.160   0.820 -0.0861  0.1340  0.8094
 4786TIP3   OH214321   6.387   3.362   3.327 -0.5265 -0.6723  0.1307
 4786TIP3    H114322   6.389   3.294   3.260 -1.8958  1.0663 -1.7995
 4786TIP3    H214323   6.473   3.403   3.322 -1.0208  0.2423 -1.5047
 4787TIP3   OH214324   0.458   6.214   2.569  0.0221  0.3957 -0.5141
 4787TIP3    H114325   0.392   6.146   2.555 -0.6050  0.1502  2.7262
 4787TIP3    H214326   0.408   6.296   2.574  0.1878  0.4663  0.0809
 4788TIP3   OH214327   4.845   2.314   4.960  0.1999 -0.0619 -0.2034
 4788TIP3    H114328   4.901   2.261   5.017  0.3076 -0.5186 -0.7241
 4788TIP3    H214329   4.853   2.273   4.874 -1.6484 -0.7239 -0.1220
 4789TIP3   OH214330   3.142   2.992   3.635  0.7870 -0.2712 -0.2674
 4789TIP3    H114331   3.133   2.958   3.546 -0.8428 -1.0276  0.1435
 4789TIP3    H214332   3.151   3.087   3.623 -3.2136  0.1989 -1.2237
 4790TIP3   OH214333   2.247   2.551   5.422 -0.0885 -0.4433 -0.3065
 4790TIP3    H114334   2.178   2.585   5.364  0.6905  1.5975 -0.0893
 4790TIP3    H214335   2.200   2.518   5.498 -0.8831  0.1678 -0.5204
 4791TIP3   OH214336   6.091   3.146   4.787  0.2391 -0.1872  0.2257
 4791TIP3    H114337   6.183   3.122   4.787  0.2535 -0.1311  0.2857
 4791TIP3    H214338   6.051   3.092   4.855  0.1737 -0.4153  0.0078
 4792TIP3   OH214339   0.732   0.754   5.171  0.4799 -0.1761  0.3048
 4792TIP3    H114340   0.687   0.730   5.252  1.5174  1.5055  1.4396
 4792TIP3    H214341   0.674   0.820   5.131  0.6149 -0.0250  0.3589
 4793TIP3   OH214342   1.974   5.484   4.824  0.0094 -0.2041 -1.0807
 4793TIP3    H114343   2.013   5.403   4.857 -0.9274 -0.2723 -0.0583
 4793TIP3    H214344   1.911   5.509   4.892 -0.3922  0.8733 -1.8248
 4794TIP3   OH214345   2.322   5.979   4.608 -0.1426  0.5466 -0.2594
 4794TIP3    H114346   2.405   6.012   4.574  0.5513 -0.0133  0.8342
 4794TIP3    H214347   2.262   5.982   4.533  1.2691 -0.4376 -1.4790
 4795TIP3   OH214348   6.906   3.631   0.983  0.2906 -0.1875 -0.1668
 4795TIP3    H114349   6.927   3.557   0.927 -0.9924 -0.7954  0.1401
 4795TIP3    H214350   6.811   3.630   0.992  0.3857  0.4383  1.2756
 4796TIP3   OH214351   1.066   2.886   2.876  0.4360  0.7233 -0.3030
 4796TIP3    H114352   1.076   2.982   2.874 -0.4408  0.8552  0.6362
 4796TIP3    H214353   1.153   2.853   2.854  0.3466  1.7080 -2.4062
 4797TIP3   OH214354   2.432   5.838   0.810  0.2242 -0.0525 -0.2051
 4797TIP3    H114355   2.374   5.900   0.856  0.8043 -0.1764  0.7093
 4797TIP3    H214356   2.515   5.843   0.857  1.0538  0.2738 -1.6231
 4798TIP3   OH214357   2.942   5.638   1.972  0.1723  0.1765 -0.3788
 4798TIP3    H114358   2.911   5.554   1.936  0.5852 -0.0765 -0.1561
 4798TIP3    H214359   2.990   5.679   1.900  1.6695 -0.6809  0.0761
 4799TIP3   OH214360   3.592   2.014   4.742 -0.6890 -0.3577  0.6264
 4799TIP3    H114361   3.533   1.965   4.798 -0.6917 -1.3333 -0.2074
 4799TIP3    H214362   3.585   2.105   4.773 -0.7382 -0.8480  2.1381
 4800TIP3   OH214363   7.228   2.106   3.127  0.1035  0.3432  0.3792
 4800TIP3    H114364   7.225   2.063   3.212  0.5573  0.1847  0.3190
 4800TIP3    H214365   7.146   2.081   3.085 -0.0066  0.2108  0.6695
 4801TIP3   OH214366   5.416   1.550   1.871 -0.0325  0.3130  0.2092
 4801TIP3    H114367   5.363   1.470   1.864  0.9320 -0.2635 -1.1694
 4801TIP3    H214368   5.355   1.618   1.899 -1.6829 -0.1747 -1.9550
 4802TIP3   OH214369   5.937   5.289   2.699 -0.3498 -0.6190 -0.3368
 4802TIP3    H114370   5.961   5.253   2.614 -1.0943  0.6848 -1.1468
 4802TIP3    H214371   6.017   5.330   2.731 -0.3483 -0.1167 -0.9586
 4803TIP3   OH214372   3.397   4.623   1.219  0.9912  0.1053  0.5095
 4803TIP3    H114373   3.490   4.608   1.208  0.4669 -1.6364 -2.5018
 4803TIP3    H214374   3.386   4.718   1.206  2.3781  0.5263  2.0655
 4804TIP3   OH214375   3.427   5.907   5.809  0.2100  0.0141 -0.5099
 4804TIP3    H114376   3.504   5.911   5.753 -0.5093 -1.1922 -1.6371
 4804TIP3    H214377   3.368   5.973   5.774  0.7330  1.0305  0.4346
 4805TIP3   OH214378   1.543   3.375   4.105 -0.4862 -0.2472  0.0366
 4805TIP3    H114379   1.619   3.324   4.133  1.3381  1.5851 -1.3168
 4805TIP3    H214380   1.538   3.361   4.011 -0.6566  1.1315 -0.1746
 4806TIP3   OH214381   2.683   6.251   2.145  0.2312  0.2961 -0.3891
 4806TIP3    H114382   2.631   6.255   2.065 -0.5194 -1.1772 -0.0089
 4806TIP3    H214383   2.703   6.158   2.156 -1.1963  0.2055  2.0728
 4807TIP3   OH214384   4.224   0.280   3.053  0.1003  0.1878  0.0167
 4807TIP3    H114385   4.318   0.296   3.057  0.3033 -1.0813  1.1693
 4807TIP3    H214386   4.216   0.185   3.049 -1.1394  0.1430  1.9155
 4808TIP3   OH214387   3.392   6.046   2.305  0.0814 -0.7355  0.3138
 4808TIP3    H114388   3.431   6.077   2.224  0.1526  1.0214  0.9724
 4808TIP3    H214389   3.446   5.973   2.332  1.4695  0.1308 -0.0373
 4809TIP3   OH214390   3.164   1.773   4.124 -0.0417 -0.8362  0.1558
 4809TIP3    H114391   3.115   1.846   4.161  2.5754  1.1115  0.0614
 4809TIP3    H214392   3.135   1.697   4.174 -1.3253  0.6103  1.7516
 4810TIP3   OH214393   6.652   4.631   1.979 -0.8202 -0.7629  0.1986
 4810TIP3    H114394   6.691   4.615   1.893 -0.8140 -1.0187  0.2505
 4810TIP3    H214395   6.606   4.715   1.968  0.3271 -0.0956  0.3445
 4811TIP3   OH214396   3.344   6.175   0.195 -0.2821  0.0408 -0.6232
 4811TIP3    H114397   3.438   6.170   0.215 -0.0397  3.4926 -0.3827
 4811TIP3    H214398   3.334   6.120   0.117  2.1568  0.3325 -1.2428
 4812TIP3   OH214399   0.713   5.688   1.991  0.1207 -0.2207  0.1313
 4812TIP3    H114400   0.759   5.720   2.069  1.6729 -0.0623 -0.8134
 4812TIP3    H214401   0.782   5.667   1.929 -1.0107 -1.9075 -0.6504
 4813TIP3   OH214402   2.644   3.318   3.006 -0.3893 -0.2151 -0.3897
 4813TIP3    H114403   2.557   3.279   2.995 -0.9679  0.4377  1.4868
 4813TIP3    H214404   2.699   3.245   3.035 -0.4310 -0.5160 -1.0534
 4814TIP3   OH214405   0.215   0.792   5.558  0.2274 -0.9705 -0.3289
 4814TIP3    H114406   0.149   0.725   5.576  0.4495 -1.5137 -1.4421
 4814TIP3    H214407   0.170   0.858   5.506 -0.4552  0.6761  2.1549
 4815TIP3   OH214408   6.935   0.664   5.374  0.3700 -0.2554  0.3393
 4815TIP3    H114409   6.889   0.712   5.442  1.0230  0.4713  0.2804
 4815TIP3    H214410   6.984   0.596   5.421 -2.3980 -2.4924  0.2462
 4816TIP3   OH214411   4.920   2.372   1.350  0.0851 -0.5391  0.1042
 4816TIP3    H114412   5.000   2.357   1.300  0.7507  1.4509  0.4890
 4816TIP3    H214413   4.851   2.376   1.284  0.4984 -0.9175 -0.3555
 4817TIP3   OH214414   6.394   0.446   4.553  0.4096  0.5086  0.2619
 4817TIP3    H114415   6.382   0.540   4.548  1.6230  0.6153 -1.3104
 4817TIP3    H214416   6.484   0.435   4.585 -0.1223 -0.1504  1.6175
 4818TIP3   OH214417   6.425   6.327   1.184 -0.1969  0.0084  0.1847
 4818TIP3    H114418   6.458   6.379   1.257 -0.1816  0.2096  0.0360
 4818TIP3    H214419   6.460   6.240   1.198  0.0452  0.1177  0.2583
 4819TIP3   OH214420   5.226   6.580   4.000  0.6453 -0.3700 -0.3393
 4819TIP3    H114421   5.299   6.596   3.940  1.6705  0.4863  1.0680
 4819TIP3    H214422   5.234   6.488   4.024  0.5918 -0.5591 -1.0375
 4820TIP3   OH214423   3.102   4.494   0.422 -0.1081 -0.0955  0.4473
 4820TIP3    H114424   3.106   4.442   0.502  1.1392 -1.2941 -0.3390
 4820TIP3    H214425   3.180   4.550   0.426  0.2888 -0.5817 -0.1678
 4821TIP3   OH214426   1.212   6.229   4.998  0.3311  0.3079 -0.2380
 4821TIP3    H114427   1.260   6.246   5.079  0.3256 -0.6610 -0.0250
 4821TIP3    H214428   1.152   6.159   5.020  1.9758 -1.6815 -1.6691
 4822TIP3   OH214429   2.605   2.067   3.394  0.0146  0.2625 -0.0045
 4822TIP3    H114430   2.679   2.036   3.447  0.3805 -0.3797 -0.8578
 4822TIP3    H214431   2.645   2.094   3.312 -0.7236 -0.3109 -0.5612
 4823TIP3   OH214432   5.060   5.375   2.028 -0.2434  0.4768  0.5245
 4823TIP3    H114433   5.023   5.297   1.987  0.2871  1.1177 -1.2930
 4823TIP3    H214434   5.146   5.347   2.060  0.3222  0.5047 -0.9184
 4824TIP3   OH214435   4.737   5.701   1.931 -0.1661  0.2024 -0.8912
 4824TIP3    H114436   4.816   5.660   1.897  0.3383  0.6374 -0.2731
 4824TIP3    H214437   4.689   5.731   1.854 -0.7176 -1.8075 -1.3882
 4825TIP3   OH214438   3.219   1.209   5.393 -0.1439 -0.2009  0.2479
 4825TIP3    H114439   3.195   1.185   5.303 -1.7307  0.3370  0.4863
 4825TIP3    H214440   3.281   1.281   5.382 -0.4426 -0.0299 -0.4388
 4826TIP3   OH214441   5.395   2.937   2.590 -0.5222 -0.1604 -0.6187
 4826TIP3    H114442   5.314   2.982   2.613  0.8255  1.1896  1.8539
 4826TIP3    H214443   5.427   2.983   2.513  0.4809  2.8947  1.4416
 4827TIP3   OH214444   2.584   3.187   4.942  0.0321 -0.1620  0.0547
 4827TIP3    H114445   2.634   3.154   4.868  0.9515 -0.1571  0.6625
 4827TIP3    H214446   2.496   3.203   4.906  0.8499  1.3256 -1.4188
 4828TIP3   OH214447   0.904   1.992   5.829  0.5567  0.0774 -0.2948
 4828TIP3    H114448   0.821   1.955   5.857  0.7460 -1.7515 -1.9086
 4828TIP3    H214449   0.899   1.995   5.733  2.8113 -1.4407 -0.5499
 4829TIP3   OH214450   0.749   5.224   1.981  0.2092 -0.1987  0.1239
 4829TIP3    H114451   0.818   5.282   2.013  0.7837  0.1082 -1.5879
 4829TIP3    H214452   0.783   5.136   1.995  0.7851 -0.0540 -0.3480
 4830TIP3   OH214453   0.169   0.982   4.564 -0.7256  0.1576  0.0337
 4830TIP3    H114454   0.190   0.924   4.491 -0.3080  0.7377 -0.3160
 4830TIP3    H214455   0.115   1.051   4.526 -1.0537  0.1093  0.4054
 4831TIP3   OH214456   1.590   5.609   5.321  0.2407 -0.0974  0.1360
 4831TIP3    H114457   1.547   5.625   5.237  0.3483  0.1794  0.1336
 4831TIP3    H214458   1.590   5.514   5.330 -0.4004 -0.1017  0.1498
 4832TIP3   OH214459   5.416   1.111   5.534 -0.5314 -0.3885  0.3564
 4832TIP3    H114460   5.496   1.057   5.536 -1.4184 -1.7232  1.1595
 4832TIP3    H214461   5.439   1.189   5.583 -0.3204 -1.6883  2.4499
 4833TIP3   OH214462   6.670   4.480   3.589  0.2092  0.0607 -0.6783
 4833TIP3    H114463   6.720   4.496   3.669 -0.6291  1.4665 -0.3988
 4833TIP3    H214464   6.581   4.509   3.610 -1.3950 -4.2387 -0.4335
 4834TIP3   OH214465   5.357   0.417   0.526  0.0163 -0.1503 -0.2803
 4834TIP3    H114466   5.422   0.352   0.501 -0.1232  0.2475 -1.7501
 4834TIP3    H214467   5.274   0.382   0.494 -0.3011 -0.0101  0.3680
 4835TIP3   OH214468   3.559   4.198   3.764  0.8146 -0.0088 -0.2255
 4835TIP3    H114469   3.564   4.284   3.806 -0.2426 -0.7418  1.4825
 4835TIP3    H214470   3.467   4.172   3.773  1.7200 -2.9225  2.7509
 4836TIP3   OH214471   1.797   6.187   3.957 -0.4821  0.0756  0.3895
 4836TIP3    H114472   1.769   6.270   3.995 -0.3247  0.4689 -0.3299
 4836TIP3    H214473   1.731   6.123   3.987 -0.7127  0.4936  0.7839
 4837TIP3   OH214474   2.709   1.736   4.954 -0.0296  0.3106 -0.4671
 4837TIP3    H114475   2.713   1.828   4.977  2.1629  0.1144  0.1114
 4837TIP3    H214476   2.778   1.695   5.005 -1.7049 -1.8875  0.2127
 4838TIP3   OH214477   5.546   0.140   4.662  0.2509  0.6341 -0.1834
 4838TIP3    H114478   5.624   0.191   4.686 -0.3395  1.4682  0.0085
 4838TIP3    H214479   5.514   0.105   4.745 -1.1200  2.5588  0.1909
 4839TIP3   OH214480   1.090   6.288   3.023  0.2258 -0.6449  0.0096
 4839TIP3    H114481   1.121   6.231   3.094  0.9912 -1.5947 -1.0565
 4839TIP3    H214482   1.032   6.350   3.067  0.2857 -1.5117  1.3971
 4840TIP3   OH214483   1.528   1.260   3.493  0.3798 -0.8434  0.3140
 4840TIP3    H114484   1.610   1.233   3.535 -0.3129 -0.5143  1.9563
 4840TIP3    H214485   1.502   1.340   3.540  0.0915  0.1647 -1.4748
 4841TIP3   OH214486   1.067   2.477   4.846  0.4553  0.3908  0.3420
 4841TIP3    H114487   1.106   2.389   4.847 -0.7851 -0.1911  1.2426
 4841TIP3    H214488   1.022   2.482   4.762 -2.0178 -1.0802  1.4735
 4842TIP3   OH214489   5.618   0.953   0.028 -0.0596 -0.5669  0.5760
 4842TIP3    H114490   5.615   0.865  -0.009  0.2233 -0.6345  0.7117
 4842TIP3    H214491   5.660   0.942   0.113  0.3819 -0.2396  0.4053
 4843TIP3   OH214492   3.525   3.682   0.923 -0.0767 -0.2407  0.2544
 4843TIP3    H114493   3.479   3.766   0.932 -2.7115 -1.4970 -0.3610
 4843TIP3    H214494   3.608   3.705   0.881 -0.9382  2.0020 -0.4102
 4844TIP3   OH214495   4.372   0.472   2.536  0.7029 -0.2090 -0.0294
 4844TIP3    H114496   4.301   0.420   2.497  0.3962  0.1891 -0.0112
 4844TIP3    H214497   4.387   0.431   2.621 -0.0114  0.1431  0.2761
 4845TIP3   OH214498   5.792   0.750   0.747 -0.3548 -0.2442  0.4393
 4845TIP3    H114499   5.812   0.740   0.840  0.7556  0.0797  0.2477
 4845TIP3    H214500   5.844   0.682   0.704 -0.8953 -0.4226  0.0536
 4846TIP3   OH214501   4.694   2.816   2.796 -0.2064 -0.2322  0.3650
 4846TIP3    H114502   4.754   2.746   2.772  0.5670  0.0975  1.2804
 4846TIP3    H214503   4.623   2.810   2.732  0.4612 -1.0584 -0.3149
 4847TIP3   OH214504   5.507   0.051   4.913 -0.4341  0.1790 -0.2621
 4847TIP3    H114505   5.589   0.020   4.874 -0.1661  0.8174 -0.2207
 4847TIP3    H214506   5.527   0.063   5.006 -0.8962 -0.7402 -0.0305
 4848TIP3   OH214507   0.190   4.180   1.620  0.1347 -0.5289 -0.2443
 4848TIP3    H114508   0.274   4.224   1.633 -0.0750 -0.0773 -0.4110
 4848TIP3    H214509   0.213   4.087   1.616  0.8907 -0.3189 -2.2751
 4849TIP3   OH214510   5.095   2.452   4.670  0.2110 -0.6732 -0.3389
 4849TIP3    H114511   5.140   2.371   4.645 -0.4227 -1.3315  0.5903
 4849TIP3    H214512   5.016   2.453   4.616 -0.1882 -1.1043  0.2241
 4850TIP3   OH214513   3.238   3.943   3.803 -0.1190 -0.3868  0.2992
 4850TIP3    H114514   3.313   3.883   3.799  0.9955  0.9318  0.8406
 4850TIP3    H214515   3.217   3.961   3.711  0.1823 -0.8087  0.1435
 4851TIP3   OH214516   4.443   5.797   2.920  0.1793  0.2201 -0.8229
 4851TIP3    H114517   4.447   5.718   2.975  1.5458  0.9989  0.2537
 4851TIP3    H214518   4.463   5.765   2.832 -1.8957 -1.0232 -0.8963
 4852TIP3   OH214519   4.639   0.073   1.745 -0.3262 -0.6256  0.3083
 4852TIP3    H114520   4.685  -0.004   1.711 -0.3407 -1.1507  1.4517
 4852TIP3    H214521   4.706   0.140   1.753 -0.2995 -0.5294 -0.6343
 4853TIP3   OH214522   5.437   2.578   3.124 -0.6337 -0.2976  0.1217
 4853TIP3    H114523   5.484   2.523   3.061 -1.5016 -0.4306 -0.4126
 4853TIP3    H214524   5.422   2.521   3.199  0.8159 -0.0063  0.6711
 4854TIP3   OH214525   5.798   2.521   1.792  0.6577 -0.0542  0.5085
 4854TIP3    H114526   5.787   2.446   1.850 -0.2679 -1.7302 -1.7179
 4854TIP3    H214527   5.886   2.510   1.756  0.2415 -0.5454 -0.3962
 4855TIP3   OH214528   4.117   2.495   5.587  0.8802  0.0777  0.4705
 4855TIP3    H114529   4.107   2.425   5.652  2.7904  0.4993  1.2859
 4855TIP3    H214530   4.112   2.449   5.503 -0.0892 -0.7030  0.9289
 4856TIP3   OH214531   5.067   6.182   1.453 -0.7497  0.4115 -0.0481
 4856TIP3    H114532   5.151   6.189   1.497 -0.4939  1.0291 -0.6180
 4856TIP3    H214533   5.088   6.176   1.360 -1.2862 -0.7923 -0.1207
 4857TIP3   OH214534   3.448   0.017   2.407  0.4910 -0.2789  0.3612
 4857TIP3    H114535   3.502  -0.015   2.335  2.5392 -2.2123  2.5691
 4857TIP3    H214536   3.497   0.090   2.444 -0.6662  0.8611 -0.2783
 4858TIP3   OH214537   0.718   6.190   1.703 -0.3823 -0.0483 -0.3439
 4858TIP3    H114538   0.750   6.128   1.768  1.0501  0.9555 -0.0385
 4858TIP3    H214539   0.790   6.200   1.640 -0.5565  1.2746 -0.3751
 4859TIP3   OH214540   5.189   2.769   4.884 -0.5869 -0.0725 -0.3088
 4859TIP3    H114541   5.141   2.696   4.922 -3.0858  2.7312  2.4788
 4859TIP3    H214542   5.129   2.807   4.820 -0.7228  1.3168  0.5801
 4860TIP3   OH214543   4.640   5.591   3.899 -0.3032  0.0315 -0.3417
 4860TIP3    H114544   4.722   5.631   3.869  0.7224 -0.9500  1.0268
 4860TIP3    H214545   4.661   5.554   3.985 -2.2237 -0.1633  0.0898
 4861TIP3   OH214546   5.128   6.701   5.370  0.2184 -0.1100 -0.6755
 4861TIP3    H114547   5.096   6.612   5.359  1.1492 -0.4241 -0.9409
 4861TIP3    H214548   5.157   6.727   5.282 -0.9927  0.8384 -0.8186
 4862TIP3   OH214549   4.704   3.550   0.598  0.1747  0.0875  0.4995
 4862TIP3    H114550   4.794   3.554   0.566  0.1882 -0.6364  0.4326
 4862TIP3    H214551   4.660   3.489   0.538 -0.2324  0.0378  0.8448
 4863TIP3   OH214552   2.483   2.157   1.948  0.7497  0.3986  0.6208
 4863TIP3    H114553   2.471   2.239   1.900 -1.2473 -1.1806 -1.7675
 4863TIP3    H214554   2.568   2.124   1.918 -0.4007 -0.4862 -1.7982
 4864TIP3   OH214555   0.354   2.888   4.865 -0.0599 -0.0760 -0.0733
 4864TIP3    H114556   0.423   2.874   4.931  1.2534 -0.4167 -1.4499
 4864TIP3    H214557   0.364   2.814   4.805 -0.2830  0.9503 -1.4253
 4865TIP3   OH214558   2.537   0.952   2.165 -0.5535  0.5693  0.1872
 4865TIP3    H114559   2.606   0.962   2.232 -1.0003 -1.7842  1.0889
 4865TIP3    H214560   2.489   1.035   2.169 -0.1227  0.7943  2.3065
 4866TIP3   OH214561   6.229   5.027   3.219  0.3546 -0.3582 -0.3249
 4866TIP3    H114562   6.140   4.995   3.205 -0.3862  0.0414  2.6415
 4866TIP3    H214563   6.217   5.107   3.270  2.4203 -0.0599 -0.2376
 4867TIP3   OH214564   2.776   5.089   0.133 -0.4300  0.5164  0.4026
 4867TIP3    H114565   2.779   5.132   0.219 -1.3349  1.3819  0.0278
 4867TIP3    H214566   2.812   5.002   0.149 -0.1366  0.8230  1.5590
 4868TIP3   OH214567   3.968   4.148   4.052 -0.2863 -0.3552 -0.0095
 4868TIP3    H114568   4.035   4.195   4.102 -1.0099 -0.6350  1.2493
 4868TIP3    H214569   3.973   4.186   3.964  0.7105  0.4512  0.3785
 4869TIP3   OH214570   5.532   4.945   1.892 -0.6121  0.2555 -0.1730
 4869TIP3    H114571   5.560   4.940   1.984 -0.3218 -1.0058 -0.3153
 4869TIP3    H214572   5.603   4.993   1.848  0.1129 -0.6833 -0.0534
 4870TIP3   OH214573   0.461   1.058   1.233 -0.2213 -0.1528 -0.2318
 4870TIP3    H114574   0.555   1.065   1.220  0.0206  0.3588  1.4576
 4870TIP3    H214575   0.436   1.142   1.271 -1.4557 -0.1113 -1.0725
 4871TIP3   OH214576   3.063   4.008   2.554  0.8408  0.0006  0.7566
 4871TIP3    H114577   3.141   4.034   2.505 -0.3849  1.1045 -0.6910
 4871TIP3    H214578   3.040   3.922   2.519  0.9966 -0.0199  0.7044
 4872TIP3   OH214579   2.393   5.427   5.805 -0.2109  0.2817  0.3955
 4872TIP3    H114580   2.312   5.381   5.785  0.3492 -0.5921  0.0551
 4872TIP3    H214581   2.416   5.396   5.893  0.6129 -0.7793 -0.1725
 4873TIP3   OH214582   2.354   4.152   0.347 -0.3787 -0.0110  0.1054
 4873TIP3    H114583   2.403   4.223   0.306  0.4863 -0.4946  0.2860
 4873TIP3    H214584   2.264   4.163   0.315 -0.5258  1.8577  1.0456
 4874TIP3   OH214585   5.539   3.874   4.303 -0.3032 -0.0264 -0.9119
 4874TIP3    H114586   5.546   3.779   4.291  0.2938 -0.2533  0.8237
 4874TIP3    H214587   5.489   3.905   4.228 -1.5579 -1.8752 -0.9066
 4875TIP3   OH214588   6.075   2.080   5.853  0.6331  0.2580  0.0987
 4875TIP3    H114589   6.020   2.045   5.782  1.8997 -3.9091  0.8822
 4875TIP3    H214590   6.020   2.071   5.931  1.3564 -1.2725  0.4716
 4876TIP3   OH214591   0.824   3.856   0.228  0.3071 -0.4536 -0.0161
 4876TIP3    H114592   0.826   3.763   0.250  0.2101 -0.0653  1.7991
 4876TIP3    H214593   0.800   3.900   0.310  1.1015  1.2316 -0.6298
 4877TIP3   OH214594   3.763   4.526   4.051  0.2304  0.6321  0.2149
 4877TIP3    H114595   3.743   4.614   4.085 -1.0335  0.7334 -0.7258
 4877TIP3    H214596   3.854   4.531   4.023  0.1348  1.6915  0.0582
 4878TIP3   OH214597   4.706   4.394   1.010  0.2477 -0.2629 -0.1715
 4878TIP3    H114598   4.754   4.474   1.030  0.6376 -0.1888 -1.3708
 4878TIP3    H214599   4.774   4.326   1.005  0.1133 -0.3501 -0.8436
 4879TIP3   OH214600   2.291   2.683   3.599 -0.4323 -0.0567 -0.6448
 4879TIP3    H114601   2.368   2.626   3.603 -1.3112 -1.3001 -0.7795
 4879TIP3    H214602   2.217   2.623   3.593 -1.4674  1.0965  0.0747
 4880TIP3   OH214603   1.978   3.624   1.025  0.1202  0.2027  0.0584
 4880TIP3    H114604   1.938   3.550   1.070 -1.7047  0.6840 -0.6856
 4880TIP3    H214605   2.066   3.594   1.003  0.0566 -1.0622  1.3735
 4881TIP3   OH214606   7.060   2.416   2.330 -0.4354  0.0138  1.0816
 4881TIP3    H114607   7.003   2.372   2.268  0.6327 -0.9155  0.7243
 4881TIP3    H214608   7.105   2.483   2.278 -0.9630  0.5415  1.2952
 4882TIP3   OH214609   6.615   1.632   4.787  0.6178  0.2415  0.0937
 4882TIP3    H114610   6.620   1.591   4.873  1.5184 -0.3362 -0.2237
 4882TIP3    H214611   6.686   1.697   4.787 -0.2668  1.2409  0.2885
 4883TIP3   OH214612   1.327   2.681   5.409  0.3900 -0.0719  0.0705
 4883TIP3    H114613   1.306   2.622   5.482  0.6706 -0.2928 -0.0275
 4883TIP3    H214614   1.299   2.634   5.331  1.0816 -0.2947 -0.0487
 4884TIP3   OH214615   3.318   4.204   2.814  0.0980 -0.0570  0.1115
 4884TIP3    H114616   3.280   4.116   2.821  1.4635 -0.5954  1.4236
 4884TIP3    H214617   3.244   4.263   2.829 -0.9479 -0.9416 -1.3287
 4885TIP3   OH214618   3.782   2.672   4.448 -0.0810  0.3133  0.0106
 4885TIP3    H114619   3.746   2.699   4.363  1.9070 -2.7167 -1.9923
 4885TIP3    H214620   3.719   2.609   4.481  1.1105 -1.7602 -1.4316
 4886TIP3   OH214621   3.797   1.612   4.009 -0.3726 -0.0649 -0.2742
 4886TIP3    H114622   3.761   1.671   4.076  0.9716 -1.0557  1.4081
 4886TIP3    H214623   3.721   1.562   3.979 -1.0405  0.5085  0.3969
 4887TIP3   OH214624   5.275   4.567   3.060  0.0868  0.0972  0.1236
 4887TIP3    H114625   5.278   4.532   2.971  0.6473 -2.1723  0.9692
 4887TIP3    H214626   5.182   4.562   3.083  0.0318  0.0609 -0.0962
 4888TIP3   OH214627   5.411   2.812   2.015  0.2688  0.1087  0.0263
 4888TIP3    H114628   5.323   2.787   1.986  0.4374  1.3220 -1.7393
 4888TIP3    H214629   5.422   2.768   2.099 -1.8026 -0.5238  0.0350
 4889TIP3   OH214630   2.822   4.545   3.421 -0.1175 -0.1390  0.0316
 4889TIP3    H114631   2.735   4.583   3.405 -0.6750  0.2500  3.2318
 4889TIP3    H214632   2.807   4.451   3.422 -0.9487 -0.0453  2.1718
 4890TIP3   OH214633   2.341   1.195   2.424  0.3583 -0.1112  0.4156
 4890TIP3    H114634   2.249   1.172   2.437 -0.1515  1.0228 -0.9531
 4890TIP3    H214635   2.354   1.276   2.473 -0.7570  2.4654 -3.1997
 4891TIP3   OH214636   0.708   1.730   4.648  0.5949 -0.1590 -0.3339
 4891TIP3    H114637   0.622   1.771   4.656  0.4953 -0.2107 -1.1066
 4891TIP3    H214638   0.704   1.681   4.566  0.9410 -1.1712  0.2396
 4892TIP3   OH214639   1.940   1.266   5.323  0.2383 -0.5252  1.2891
 4892TIP3    H114640   1.957   1.173   5.340  2.2456 -0.1617  1.5127
 4892TIP3    H214641   1.974   1.311   5.400  1.2510  0.5339  0.2597
 4893TIP3   OH214642   1.108   5.791   4.682  0.3442  0.4913 -0.4537
 4893TIP3    H114643   1.025   5.791   4.634 -0.1779 -1.1884  0.3689
 4893TIP3    H214644   1.135   5.882   4.682 -1.6546  1.1458 -0.5057
 4894TIP3   OH214645   6.195   2.439   0.663 -0.4513 -0.0353 -0.2340
 4894TIP3    H114646   6.259   2.503   0.631 -0.0422 -0.5637 -0.4932
 4894TIP3    H214647   6.115   2.489   0.675  0.2698  0.8821  1.1190
 4895TIP3   OH214648   4.049  -0.000   1.942 -0.1034  0.3352 -0.1874
 4895TIP3    H114649   4.081  -0.052   1.868 -0.2033  1.5332 -1.0964
 4895TIP3    H214650   4.046   0.089   1.909  2.2062  1.3315  2.0247
 4896TIP3   OH214651   6.168   4.490   3.384 -0.2463  0.0386  0.3417
 4896TIP3    H114652   6.224   4.418   3.357 -1.3481 -0.6608 -0.1387
 4896TIP3    H214653   6.216   4.569   3.358  1.4575 -0.4479  1.8101
 4897TIP3   OH214654   6.625   1.461   3.698  0.0990  0.3606 -0.2441
 4897TIP3    H114655   6.537   1.423   3.698 -0.1595  0.9432 -0.5238
 4897TIP3    H214656   6.638   1.492   3.608  0.4319  0.6349 -0.1054
 4898TIP3   OH214657   1.233   4.729   5.342 -0.1735  0.4554  0.4565
 4898TIP3    H114658   1.258   4.814   5.378 -2.4728  0.8887  1.1683
 4898TIP3    H214659   1.187   4.749   5.261  0.1881 -0.1940  0.0805
 4899TIP3   OH214660   6.415   2.817   0.305 -0.4791  0.1181  0.8071
 4899TIP3    H114661   6.450   2.741   0.352  2.0051  1.6426  1.6407
 4899TIP3    H214662   6.451   2.893   0.352 -0.6138  1.7782 -1.5890
 4900TIP3   OH214663   1.507   1.151   1.781 -0.0488 -0.1708  0.4269
 4900TIP3    H114664   1.467   1.168   1.867  0.1772  0.6229  0.3780
 4900TIP3    H214665   1.438   1.173   1.718  0.6467  1.8370  0.3169
 4901TIP3   OH214666   4.945   4.348   5.367  0.2095  0.0432  0.7022
 4901TIP3    H114667   5.008   4.379   5.432  1.2802  0.7409 -0.6134
 4901TIP3    H214668   4.975   4.387   5.285 -1.1353 -0.7669 -0.2042
 4902TIP3   OH214669   2.095   2.638   4.301 -0.2508  0.5909  0.6828
 4902TIP3    H114670   2.057   2.677   4.380  1.6213  1.0765  1.3937
 4902TIP3    H214671   2.184   2.673   4.298  0.7939 -1.9213  0.1190
 4903TIP3   OH214672   5.767   2.780   1.663  0.5852 -0.3317  0.2781
 4903TIP3    H114673   5.781   2.700   1.713  2.8286  0.6235  1.2909
 4903TIP3    H214674   5.691   2.822   1.705 -1.0659 -2.1667 -0.7027
 4904TIP3   OH214675   2.980   0.746   1.019 -0.7975 -0.3552 -0.3207
 4904TIP3    H114676   2.904   0.722   1.070 -0.8891 -1.1487 -0.8114
 4904TIP3    H214677   3.052   0.697   1.058 -0.5478  0.3538  0.1113
 4905TIP3   OH214678   3.050   6.515   3.099  0.3371  0.3391 -0.9398
 4905TIP3    H114679   3.064   6.606   3.076 -0.1231  0.5432 -0.4231
 4905TIP3    H214680   3.123   6.468   3.057  0.4354  0.9050 -1.4085
 4906TIP3   OH214681   3.883   0.473   1.307  0.7175 -0.1530  0.2366
 4906TIP3    H114682   3.875   0.476   1.403 -1.1664  1.1240  0.0872
 4906TIP3    H214683   3.902   0.381   1.288  2.3751 -0.2239  1.8763
 4907TIP3   OH214684   0.914   1.385   4.427  0.3274 -0.1269  0.1482
 4907TIP3    H114685   0.949   1.438   4.355  0.2063  0.3974  0.4656
 4907TIP3    H214686   0.965   1.414   4.503  1.9866 -2.2068 -0.0784
 4908TIP3   OH214687   6.864   1.838   4.450 -0.3403  0.0214 -0.3998
 4908TIP3    H114688   6.783   1.838   4.399 -1.2331 -0.9010  0.9523
 4908TIP3    H214689   6.864   1.754   4.495  0.8081  0.4890  0.5268
 4909TIP3   OH214690   5.014   2.886   3.813 -0.1930  0.0052 -0.2489
 4909TIP3    H114691   4.977   2.851   3.894  0.1159 -0.2228 -0.2069
 4909TIP3    H214692   5.105   2.904   3.834 -0.4533  1.2782 -0.1241
 4910TIP3   OH214693   6.277   0.986   4.686  0.1622  0.2510 -0.1690
 4910TIP3    H114694   6.212   1.004   4.754  1.2562  3.6053  0.1740
 4910TIP3    H214695   6.226   0.984   4.605 -0.7822 -0.9391  0.4099
 4911TIP3   OH214696   6.590   4.331   2.315  0.2878 -0.1819  0.0698
 4911TIP3    H114697   6.684   4.317   2.308  0.3931  0.9666 -1.2384
 4911TIP3    H214698   6.573   4.333   2.409  1.3584 -1.5719  0.3334
 4912TIP3   OH214699   4.607   4.691   1.391  0.4957  0.0789  0.4182
 4912TIP3    H114700   4.692   4.700   1.349  1.3993  0.0395  2.1432
 4912TIP3    H214701   4.619   4.621   1.454 -0.8555  0.0101  0.6292
 4913TIP3   OH214702   6.607   5.202   0.955 -0.2022  0.0678  0.2243
 4913TIP3    H114703   6.578   5.230   0.868 -0.6072  1.2112  0.7007
 4913TIP3    H214704   6.616   5.284   1.004 -2.4898 -0.6575  2.0182
 4914TIP3   OH214705   1.901   0.876   1.573 -0.2632  0.2017 -0.1922
 4914TIP3    H114706   1.941   0.898   1.657  0.0832  0.6546 -0.4796
 4914TIP3    H214707   1.893   0.780   1.576  0.5918  0.1319 -0.0283
 4915TIP3   OH214708   2.409   4.386   5.307  0.9305  0.0073  0.6275
 4915TIP3    H114709   2.395   4.335   5.227  0.2008  1.7349 -0.4183
 4915TIP3    H214710   2.338   4.359   5.366  0.2423  0.1681 -0.1084
 4916TIP3   OH214711   1.491   3.520   1.668  0.4407  0.3966  0.4674
 4916TIP3    H114712   1.580   3.498   1.697  0.6394 -0.7436 -0.9099
 4916TIP3    H214713   1.480   3.472   1.587 -1.1310  1.2439  0.1447
 4917TIP3   OH214714   1.771   2.016   5.562 -0.1899  0.7847  0.4786
 4917TIP3    H114715   1.794   1.940   5.508 -0.4737  2.0227 -1.4674
 4917TIP3    H214716   1.708   1.982   5.626  0.7767 -0.8934  0.6094
 4918TIP3   OH214717   1.138   0.310   1.202  0.2703 -0.2407  0.0362
 4918TIP3    H114718   1.226   0.339   1.226  0.2805 -0.6052  0.4573
 4918TIP3    H214719   1.086   0.324   1.280 -0.2590  0.7922 -0.4818
 4919TIP3   OH214720   6.673   3.549   0.558 -0.0885  0.0884  0.4372
 4919TIP3    H114721   6.768   3.550   0.550 -0.0344 -1.4944  0.5668
 4919TIP3    H214722   6.655   3.607   0.632  0.8901 -0.5997  1.2553
 4920TIP3   OH214723   5.402   1.921   2.353  0.0667 -0.1552 -0.3977
 4920TIP3    H114724   5.384   1.880   2.437  0.6244  1.0181  0.3084
 4920TIP3    H214725   5.479   1.875   2.320  1.7219  1.3706  1.1701
 4921TIP3   OH214726   2.690   3.192   2.282  0.3201  0.0936 -0.4008
 4921TIP3    H114727   2.636   3.258   2.326 -1.7374 -1.7437 -0.0104
 4921TIP3    H214728   2.780   3.216   2.305 -0.3617  2.4875  0.0543
 4922TIP3   OH214729   2.107   4.493   5.244 -0.4984 -0.0785  1.0207
 4922TIP3    H114730   2.118   4.408   5.287  3.0636 -0.5699 -0.5113
 4922TIP3    H214731   2.042   4.477   5.176  0.1757 -1.6612  0.6951
 4923TIP3   OH214732   5.966   5.934   2.522 -0.4907  0.0223 -0.2152
 4923TIP3    H114733   5.962   5.985   2.442 -1.6322  0.1153 -0.1138
 4923TIP3    H214734   6.059   5.912   2.532 -0.5290 -1.6166 -2.5664
 4924TIP3   OH214735   5.648   6.665   4.185  0.3064 -0.0054  0.2306
 4924TIP3    H114736   5.711   6.621   4.128 -0.6911 -0.6846 -0.3809
 4924TIP3    H214737   5.694   6.742   4.218  1.0434  0.1612 -1.1600
 4925TIP3   OH214738   1.895   3.936   0.362  0.4252 -0.1046 -0.1993
 4925TIP3    H114739   1.940   3.861   0.322  2.4490  0.0593  1.5606
 4925TIP3    H214740   1.937   4.013   0.323 -0.1969  0.1023 -0.4747
 4926TIP3   OH214741   7.035   5.651   5.115  0.1557  0.0434  0.2295
 4926TIP3    H114742   6.983   5.677   5.190  0.8049 -0.4899  0.8780
 4926TIP3    H214743   7.123   5.684   5.133  0.5929 -1.0782  0.2777
 4927TIP3   OH214744   2.843   1.427   3.817 -0.5156  0.0469  0.1750
 4927TIP3    H114745   2.804   1.497   3.869 -1.8531  0.2207 -1.0063
 4927TIP3    H214746   2.770   1.391   3.767  0.8580  0.5553 -2.3383
 4928TIP3   OH214747   1.635   4.228   0.801 -0.2259  0.7641  0.2384
 4928TIP3    H114748   1.571   4.160   0.781 -0.2413  1.0302 -0.7052
 4928TIP3    H214749   1.718   4.191   0.772 -0.0292  0.6379  0.9467
 4929TIP3   OH214750   3.540   4.044   0.302  0.1146  0.1579 -0.3018
 4929TIP3    H114751   3.604   4.075   0.238 -0.9789  1.0059 -1.0139
 4929TIP3    H214752   3.487   4.121   0.323 -0.8255 -0.5721  0.0869
 4930TIP3   OH214753   4.342   1.528   0.029  0.4985  0.4373 -0.1345
 4930TIP3    H114754   4.261   1.532   0.079  0.7933 -1.6661  0.6322
 4930TIP3    H214755   4.359   1.434   0.018  1.7055  0.8219 -2.1487
 4931TIP3   OH214756   1.535   4.635   0.355  0.0711  0.1036 -0.1948
 4931TIP3    H114757   1.463   4.673   0.406  1.5543  0.2018  1.9884
 4931TIP3    H214758   1.568   4.563   0.410  0.9615 -0.6310 -1.6208
 4932TIP3   OH214759   1.796   3.648   0.340 -0.1318 -0.5235 -0.3965
 4932TIP3    H114760   1.767   3.655   0.431  0.5712 -0.2679 -0.1879
 4932TIP3    H214761   1.869   3.587   0.343 -2.0596 -3.0047 -1.2602
 4933TIP3   OH214762   2.218   1.771   0.944  0.0736  0.5989  0.1534
 4933TIP3    H114763   2.148   1.762   1.009  0.0656  0.0827  0.0770
 4933TIP3    H214764   2.286   1.711   0.973 -0.1804 -0.1003 -0.6344
 4934TIP3   OH214765   6.962   1.446   5.160  0.2516 -0.2232 -0.0071
 4934TIP3    H114766   7.052   1.443   5.191  0.0429 -0.9638  0.5586
 4934TIP3    H214767   6.917   1.506   5.219  0.4631  0.4842 -0.5528
 4935TIP3   OH214768   1.769   3.161   3.611  0.5257 -0.2688  0.1427
 4935TIP3    H114769   1.814   3.082   3.580 -1.0047 -1.2689  0.3714
 4935TIP3    H214770   1.715   3.189   3.537 -0.3620 -0.5413  0.6723
 4936TIP3   OH214771   5.990   4.205   4.150  0.6774 -0.6597  0.0144
 4936TIP3    H114772   6.024   4.117   4.165  0.8774 -0.6671 -0.4632
 4936TIP3    H214773   5.913   4.192   4.094  1.1231 -0.4772 -0.6455
 4937TIP3   OH214774   3.319   6.329   2.304  0.0828  0.0993 -0.6743
 4937TIP3    H114775   3.323   6.234   2.319  0.0037  0.0073 -1.2382
 4937TIP3    H214776   3.388   6.365   2.360 -1.2511 -0.0787  1.2191
 4938TIP3   OH214777   4.853   3.764   4.064 -0.3610  0.1495 -0.0947
 4938TIP3    H114778   4.794   3.723   4.127 -0.1279 -0.0851 -0.0226
 4938TIP3    H214779   4.906   3.824   4.117  0.7355 -1.0041  0.1912
 4939TIP3   OH214780   6.762   3.323   1.471  0.8504 -0.2964  0.3014
 4939TIP3    H114781   6.741   3.360   1.385  1.2079 -1.9606 -0.5560
 4939TIP3    H214782   6.845   3.276   1.458  0.4802 -1.3008  1.3134
 4940TIP3   OH214783   2.837   4.507   1.525 -0.0851 -0.2600  0.3004
 4940TIP3    H114784   2.851   4.599   1.504 -1.1662 -0.3485 -1.0222
 4940TIP3    H214785   2.784   4.508   1.605 -2.0539  0.3970 -0.9260
 4941TIP3   OH214786   1.823   1.886   0.480 -0.3426  0.0138 -0.5810
 4941TIP3    H114787   1.769   1.962   0.460  0.0712 -0.3571 -3.5004
 4941TIP3    H214788   1.761   1.819   0.510 -0.9125  0.8969  0.2714
 4942TIP3   OH214789   0.608   6.517   2.988  0.3227  0.3071 -0.0893
 4942TIP3    H114790   0.539   6.525   2.922  0.4453  0.8779 -0.1574
 4942TIP3    H214791   0.578   6.571   3.061 -0.2103 -0.9815  0.6832
 4943TIP3   OH214792   6.112   1.748   4.463  1.3063  0.4130  0.4220
 4943TIP3    H114793   6.069   1.815   4.516 -0.4595 -2.1304  2.4979
 4943TIP3    H214794   6.197   1.735   4.504  0.8476  0.0362  1.2849
 4944TIP3   OH214795   2.279   0.654   0.325 -0.0973 -0.1934  0.0425
 4944TIP3    H114796   2.293   0.735   0.374 -0.0334  0.1971 -0.6087
 4944TIP3    H214797   2.287   0.680   0.233 -1.0836 -0.7420 -0.2092
 4945TIP3   OH214798   2.598   0.783   1.949 -0.5261  0.0563  0.3656
 4945TIP3    H114799   2.587   0.830   2.032  1.0945  0.9229  0.1394
 4945TIP3    H214800   2.691   0.759   1.948 -0.8574 -1.2661 -0.5347
 4946TIP3   OH214801   4.114   6.721   2.069 -0.5854 -0.1829 -0.3802
 4946TIP3    H114802   4.094   6.728   1.976 -1.1290  0.4550 -0.2252
 4946TIP3    H214803   4.180   6.790   2.084 -0.3807 -0.3893 -0.3213
 4947TIP3   OH214804   3.827   1.614   4.681  0.0251 -0.5857  0.0540
 4947TIP3    H114805   3.883   1.691   4.688 -0.9107  0.1498 -0.2962
 4947TIP3    H214806   3.884   1.540   4.701  1.7665 -0.1148 -2.6095
 4948TIP3   OH214807   5.207   2.018   2.193 -0.0578 -0.1435  0.3348
 4948TIP3    H114808   5.244   2.087   2.137  0.7370 -2.4512 -2.1878
 4948TIP3    H214809   5.282   1.984   2.242  0.0300 -0.8127 -0.2545
 4949TIP3   OH214810   6.199   0.162   0.095  0.3374  0.1107 -0.4344
 4949TIP3    H114811   6.280   0.111   0.099  0.1215 -0.1701  1.0110
 4949TIP3    H214812   6.192   0.202   0.182 -0.9959  0.2465 -0.5823
 4950TIP3   OH214813   5.958   0.569   4.080 -0.0771  0.5231  0.4163
 4950TIP3    H114814   6.048   0.589   4.053  0.8361 -2.5562  0.7248
 4950TIP3    H214815   5.918   0.529   4.003 -0.3508 -0.3498  0.9982
 4951TIP3   OH214816   3.816   1.030   3.441  0.3243  0.0120 -0.3949
 4951TIP3    H114817   3.782   1.032   3.531 -1.2515 -1.6024 -0.9104
 4951TIP3    H214818   3.786   0.946   3.406  3.5629 -0.8402 -1.4516
 4952TIP3   OH214819   1.059   2.754   4.568 -0.1649  0.0992  0.5171
 4952TIP3    H114820   1.031   2.664   4.550 -1.1520  0.0772  1.9881
 4952TIP3    H214821   1.147   2.746   4.603  0.0248 -0.2186 -0.0178
 4953TIP3   OH214822   2.286   0.899   2.736 -0.3973  0.3611 -0.0112
 4953TIP3    H114823   2.218   0.882   2.671 -0.6128  0.7785  0.1089
 4953TIP3    H214824   2.368   0.899   2.685 -0.4197 -0.6690 -0.0758
 4954TIP3   OH214825   3.761   2.378   0.945 -0.0423  1.0903  0.0833
 4954TIP3    H114826   3.711   2.403   1.023  2.5624  1.0455  1.9017
 4954TIP3    H214827   3.756   2.282   0.944 -0.3731  1.1069 -0.0276
 4955TIP3   OH214828   5.532   0.326   3.710 -0.0348 -0.1349  0.5758
 4955TIP3    H114829   5.589   0.366   3.775  0.3908 -0.7023  0.5577
 4955TIP3    H214830   5.501   0.399   3.657  0.0553  0.2651  1.0717
 4956TIP3   OH214831   4.567   6.700   4.526 -0.6104  0.5592  0.7328
 4956TIP3    H114832   4.572   6.748   4.443 -2.2537  0.1566  0.3551
 4956TIP3    H214833   4.577   6.767   4.593  1.4475  0.7966  0.2378
 4957TIP3   OH214834   2.134   0.570   2.722 -0.6279  0.3347  0.1873
 4957TIP3    H114835   2.066   0.627   2.687 -2.0019 -0.9775  0.6344
 4957TIP3    H214836   2.205   0.576   2.658 -0.0148  3.7261  0.9758
 4958TIP3   OH214837   6.592   1.512   5.029  0.3237 -0.2326  0.4942
 4958TIP3    H114838   6.513   1.458   5.033 -0.1003  0.1399 -1.7289
 4958TIP3    H214839   6.614   1.529   5.121 -0.7048 -2.4450  1.2178
 4959TIP3   OH214840   5.644   2.048   2.767 -0.2042  0.0382  0.3392
 4959TIP3    H114841   5.608   2.083   2.685 -0.3647  0.4036  0.5657
 4959TIP3    H214842   5.571   2.002   2.807 -0.0847 -0.2702  0.2067
 4960TIP3   OH214843   1.264   1.675   1.784 -0.1253  0.3241  0.1688
 4960TIP3    H114844   1.213   1.693   1.705 -0.8702 -0.1385  0.5380
 4960TIP3    H214845   1.354   1.697   1.760 -0.3157 -0.0029 -0.8684
 4961TIP3   OH214846   3.626   5.284   5.578  0.1742 -0.1843 -0.0114
 4961TIP3    H114847   3.565   5.305   5.649  0.0766 -0.5018  0.0003
 4961TIP3    H214848   3.711   5.313   5.611  0.3829 -1.7091  0.8719
 4962TIP3   OH214849   0.236   5.546   3.903  0.3915  0.2349  0.3874
 4962TIP3    H114850   0.304   5.537   3.836  0.3596  1.0027  0.2408
 4962TIP3    H214851   0.187   5.624   3.877  0.0473  0.2364  1.0166
 4963TIP3   OH214852   5.596   4.719   1.788 -0.7419 -0.3169  0.1244
 4963TIP3    H114853   5.680   4.724   1.743 -0.3995 -1.5015  0.6160
 4963TIP3    H214854   5.577   4.810   1.812 -0.4364  0.1976 -1.4721
 4964TIP3   OH214855   6.149   3.163   1.928 -0.0227 -0.1691  0.3245
 4964TIP3    H114856   6.053   3.165   1.935 -0.4164 -3.0239 -2.3358
 4964TIP3    H214857   6.168   3.201   1.842  1.4126  1.3801  1.2549
 4965TIP3   OH214858   3.653   6.375   3.131 -0.3634 -0.2046  0.1291
 4965TIP3    H114859   3.742   6.412   3.131 -0.8436  1.0753 -1.2672
 4965TIP3    H214860   3.666   6.281   3.123  0.8849  0.0360 -1.2221
 4966TIP3   OH214861   5.258   0.403   4.894 -0.7080 -0.1075 -0.1391
 4966TIP3    H114862   5.347   0.374   4.914 -0.6095  0.2008 -0.1391
 4966TIP3    H214863   5.255   0.405   4.799 -0.5040  0.5429 -0.1338
 4967TIP3   OH214864   7.047   0.609   0.471  0.1251 -0.5510  0.5161
 4967TIP3    H114865   6.961   0.567   0.463 -0.2319  0.3946 -0.7838
 4967TIP3    H214866   7.088   0.563   0.545 -0.7754 -2.2485  0.0220
 4968TIP3   OH214867   0.487   1.946   4.698  0.3449  0.7214  0.7587
 4968TIP3    H114868   0.415   1.977   4.644  1.4452  1.3887 -0.3864
 4968TIP3    H214869   0.461   1.967   4.788 -1.8300 -1.0364  0.6141
 4969TIP3   OH214870   1.657   4.481   3.920  0.3887  0.1575  0.1806
 4969TIP3    H114871   1.597   4.469   3.993 -0.9622 -2.0537 -1.1823
 4969TIP3    H214872   1.744   4.466   3.958 -0.2103 -0.2023  1.4763
 4970TIP3   OH214873   0.763   5.011   0.029 -0.3121 -0.6975 -0.4634
 4970TIP3    H114874   0.713   5.068  -0.030 -0.2284 -2.2930 -2.1650
 4970TIP3    H214875   0.722   4.925   0.020 -0.6441 -0.9268  2.2873
 4971TIP3   OH214876   1.627   2.618   1.918 -0.1640  0.6688  0.0543
 4971TIP3    H114877   1.605   2.582   1.832  2.4418 -1.0379 -0.0150
 4971TIP3    H214878   1.562   2.579   1.977 -0.5311 -0.0718 -0.8038
 4972TIP3   OH214879   6.457   1.208   4.001 -0.1825 -0.1963 -0.2270
 4972TIP3    H114880   6.515   1.282   3.982  0.3284  0.0116  1.9161
 4972TIP3    H214881   6.419   1.228   4.086 -2.2488 -1.0835 -0.8804
 4973TIP3   OH214882   6.460   0.750   0.043 -0.1804 -0.5335 -0.0878
 4973TIP3    H114883   6.549   0.732   0.073  0.3149 -0.0219 -1.2129
 4973TIP3    H214884   6.431   0.824   0.097  0.1363 -0.6017  0.1748
 4974TIP3   OH214885   0.871   4.754   5.828  0.1901  0.2323 -0.3216
 4974TIP3    H114886   0.797   4.694   5.824 -1.8082  2.1591  2.8341
 4974TIP3    H214887   0.856   4.816   5.757 -0.5036 -0.1893 -0.5514
 4975TIP3   OH214888   5.526   4.542   0.444  0.5348  0.1838 -0.0570
 4975TIP3    H114889   5.606   4.489   0.440  0.7567  0.3184  1.7061
 4975TIP3    H214890   5.538   4.596   0.522 -0.8872  0.8658 -0.2910
 4976TIP3   OH214891   5.611   4.013   1.008  0.3154 -0.2327  0.3764
 4976TIP3    H114892   5.647   4.035   1.094 -0.9774 -0.2613  0.9419
 4976TIP3    H214893   5.615   4.095   0.958 -0.8745  0.3277  1.1757
 4977TIP3   OH214894   1.134   0.780   1.398 -0.3993 -0.3658  0.4006
 4977TIP3    H114895   1.050   0.825   1.388 -0.2181 -0.0390  0.3233
 4977TIP3    H214896   1.158   0.752   1.310  0.3282  0.9343  0.1450
 4978TIP3   OH214897   3.648   2.180   0.689  0.5285  0.0266 -0.2871
 4978TIP3    H114898   3.647   2.113   0.621  0.7874 -0.7029  0.4169
 4978TIP3    H214899   3.736   2.218   0.683  0.9440 -0.8079  0.3699
 4979TIP3   OH214900   4.381   0.822   0.075 -0.0139  0.1567 -0.3846
 4979TIP3    H114901   4.369   0.731   0.100 -1.7284  0.4630  0.0201
 4979TIP3    H214902   4.301   0.866   0.105 -0.3029  1.3366 -2.6479
 4980TIP3   OH214903   3.091   2.202   3.007  0.5111 -0.3277 -0.0817
 4980TIP3    H114904   3.105   2.107   3.004  3.1488 -0.0203 -0.5131
 4980TIP3    H214905   3.046   2.217   3.089 -0.8615 -2.0212 -0.4676
 4981TIP3   OH214906   5.440   4.673   3.735  0.1396  0.4144  0.0339
 4981TIP3    H114907   5.525   4.628   3.733 -0.4118 -0.7549  1.1752
 4981TIP3    H214908   5.421   4.693   3.644  1.8126  1.0338 -0.2036
 4982TIP3   OH214909   6.676   4.798   3.827  0.9080 -0.1845  0.4013
 4982TIP3    H114910   6.658   4.830   3.738 -3.2312 -2.3187  0.2234
 4982TIP3    H214911   6.650   4.870   3.884  1.0091  0.2166 -0.0486
 4983TIP3   OH214912   4.038   1.390   2.032  0.4301  0.3565  0.2634
 4983TIP3    H114913   4.026   1.296   2.043  0.5415  0.2918 -0.1594
 4983TIP3    H214914   3.960   1.419   1.985  0.5439  0.4239  0.1145
 4984TIP3   OH214915   6.175   4.447   3.044 -0.1256 -0.4339  0.5405
 4984TIP3    H114916   6.251   4.388   3.045 -0.3508 -0.7892 -0.9191
 4984TIP3    H214917   6.113   4.405   2.985 -0.5757  0.9097  0.0052
 4985TIP3   OH214918   6.146   3.880   5.683 -0.4147 -0.3023  0.3201
 4985TIP3    H114919   6.071   3.842   5.728 -0.2972 -0.1908  0.6130
 4985TIP3    H214920   6.137   3.851   5.592  0.1689 -1.8353  0.7080
 4986TIP3   OH214921   1.995   5.277   2.926 -0.2005 -0.1346  0.4281
 4986TIP3    H114922   2.017   5.238   2.841 -0.9192  1.0194 -0.3278
 4986TIP3    H214923   2.005   5.372   2.911  2.1053  0.0279  2.3643
 4987TIP3   OH214924   5.561   3.377   0.569  0.4272 -0.8809 -0.2939
 4987TIP3    H114925   5.612   3.435   0.624 -0.0189  1.1466 -1.9117
 4987TIP3    H214926   5.607   3.293   0.573  3.1321  0.5016 -0.6364
 4988TIP3   OH214927   5.588   0.332   5.546 -0.0009 -0.7197  0.3488
 4988TIP3    H114928   5.683   0.327   5.561 -0.2299 -0.7284  2.0708
 4988TIP3    H214929   5.577   0.315   5.453  1.7949  0.6625 -0.1696
 4989TIP3   OH214930   5.769   4.287   2.010 -0.4197 -0.2398 -0.5588
 4989TIP3    H114931   5.729   4.206   2.042 -2.2948  0.6132 -0.5912
 4989TIP3    H214932   5.698   4.333   1.965  0.2121  2.0156  0.5666
 4990TIP3   OH214933   5.991   3.700   0.610 -0.0336 -0.0525 -0.8841
 4990TIP3    H114934   5.915   3.745   0.649 -0.4410 -0.9028 -0.6839
 4990TIP3    H214935   6.047   3.681   0.685 -0.8933 -1.8374 -0.6489
 4991TIP3   OH214936   6.644   1.762   5.742 -0.1372 -0.0182 -0.0320
 4991TIP3    H114937   6.593   1.707   5.682  1.2343 -1.5504  0.1257
 4991TIP3    H214938   6.609   1.739   5.829 -1.6818  1.7260 -0.1236
 4992TIP3   OH214939   6.575   3.661   4.101 -0.1245  0.1474  0.5782
 4992TIP3    H114940   6.643   3.620   4.154 -0.1175 -1.2666 -0.4642
 4992TIP3    H214941   6.582   3.755   4.121  2.3194  0.0987  0.3046
 4993TIP3   OH214942   1.948   4.860   3.944 -0.3424 -0.2443  0.3270
 4993TIP3    H114943   2.002   4.911   4.004 -1.2452 -1.8590  2.6281
 4993TIP3    H214944   1.867   4.912   3.936  0.1705  0.4776 -0.3748
 4994TIP3   OH214945   1.303   5.592   5.485  0.2471  0.0415 -0.1292
 4994TIP3    H114946   1.215   5.564   5.509 -0.0844 -1.4360 -2.7330
 4994TIP3    H214947   1.291   5.678   5.446  0.3416  0.8963  1.6139
 4995TIP3   OH214948   3.609   0.213   2.514  0.5375  0.3189  0.1517
 4995TIP3    H114949   3.623   0.287   2.456  0.9911  0.9351  1.0217
 4995TIP3    H214950   3.685   0.213   2.573 -0.8446  0.9688  2.0529
 4996TIP3   OH214951   2.923   4.482   0.718 -0.0805 -0.1705 -0.0623
 4996TIP3    H114952   2.952   4.544   0.785  1.5637 -0.5870 -0.3356
 4996TIP3    H214953   2.938   4.396   0.758 -1.9594 -0.4450  0.1586
 4997TIP3   OH214954   5.424   6.756   1.860  0.1822 -0.0154  0.8758
 4997TIP3    H114955   5.361   6.808   1.911 -0.0159  1.1729 -0.5126
 4997TIP3    H214956   5.370   6.693   1.813  0.3038 -0.6900  1.6196
 4998TIP3   OH214957   6.090   3.297   2.170  0.0226 -0.0301 -0.4591
 4998TIP3    H114958   6.012   3.352   2.164  0.5364  0.6112 -1.4107
 4998TIP3    H214959   6.067   3.217   2.122  0.1352  0.3844 -1.2135
 4999TIP3   OH214960   4.126   0.145   3.583 -0.2358 -0.2631 -0.4201
 4999TIP3    H114961   4.134   0.083   3.512  0.0288 -1.9296  0.9952
 4999TIP3    H214962   4.185   0.217   3.560  0.3457 -1.0777 -1.5388
 5000TIP3   OH214963   5.206   0.598   1.263 -0.1337  0.2531 -0.6240
 5000TIP3    H114964   5.241   0.534   1.200  2.3855 -0.1800  1.0514
 5000TIP3    H214965   5.123   0.561   1.292  0.1368 -1.0481 -1.4402
 5001TIP3   OH214966   5.850   2.019   2.296 -0.1525 -0.1819 -0.1628
 5001TIP3    H114967   5.854   1.963   2.218 -0.3221 -0.9546  0.3760
 5001TIP3    H214968   5.940   2.051   2.306 -0.5466  1.6519 -1.8947
 5002TIP3   OH214969   3.585   6.268   1.367 -0.3177  0.0598  0.2940
 5002TIP3    H114970   3.560   6.317   1.289  0.4243 -0.1000 -0.0523
 5002TIP3    H214971   3.587   6.334   1.437  1.2951  0.6889 -0.2911
 5003TIP3   OH214972   6.444   2.478   1.740 -0.6820  0.7917  0.2465
 5003TIP3    H114973   6.355   2.483   1.776 -0.7608  1.2751 -0.0060
 5003TIP3    H214974   6.482   2.401   1.781 -1.3088  0.4254  0.1607
 5004TIP3   OH214975   2.865   5.571   5.241  0.1739  0.3266  0.1133
 5004TIP3    H114976   2.840   5.649   5.191  1.2569  0.6961  0.1104
 5004TIP3    H214977   2.787   5.516   5.241 -0.4279  1.1573 -0.3815
 5005TIP3   OH214978   6.525   1.682   1.080 -0.2663  0.4069  0.1208
 5005TIP3    H114979   6.604   1.736   1.070 -0.5793  1.1833  1.5194
 5005TIP3    H214980   6.496   1.665   0.991  1.6371 -0.1432 -0.4489
 5006TIP3   OH214981   2.983   1.187   5.830  0.3650  0.4669  0.0140
 5006TIP3    H114982   3.033   1.192   5.911  0.0703 -0.5854  0.2720
 5006TIP3    H214983   2.892   1.196   5.858  0.3890  2.8599 -0.5006
 5007TIP3   OH214984   1.922   5.603   0.811  0.2782 -0.0953  0.0347
 5007TIP3    H114985   2.000   5.627   0.860  0.7443 -0.9047 -0.2900
 5007TIP3    H214986   1.882   5.532   0.862 -0.4277  0.5242  0.3648
 5008TIP3   OH214987   6.020   6.764   4.130 -0.1898  0.0181 -0.2285
 5008TIP3    H114988   5.981   6.765   4.042 -0.8332  0.1891  0.0530
 5008TIP3    H214989   5.994   6.848   4.168  0.5442  0.1822 -0.0654
 5009TIP3   OH214990   0.715   4.808   3.213  0.4116  0.3540 -0.2905
 5009TIP3    H114991   0.623   4.826   3.229  0.9253  1.8228  1.3225
 5009TIP3    H214992   0.727   4.824   3.120 -0.8634  0.6428 -0.4170
 5010TIP3   OH214993   4.401   1.786   3.556  0.2144  0.0074 -0.1099
 5010TIP3    H114994   4.389   1.765   3.463 -1.0738  1.2956 -0.2773
 5010TIP3    H214995   4.362   1.711   3.603 -0.2400 -0.0859 -0.6239
 5011TIP3   OH214996   2.433   0.004   5.182  0.2509  0.5843 -0.3243
 5011TIP3    H114997   2.499   0.073   5.183 -2.0257  2.8850 -1.0037
 5011TIP3    H214998   2.355   0.044   5.219 -1.5141 -1.2450 -1.8612
 5012TIP3   OH214999   6.050   1.327   0.431 -0.2936 -0.6947 -0.1506
 5012TIP3    H115000   6.032   1.323   0.337  0.6479 -0.3962 -0.3571
 5012TIP3    H215001   6.110   1.401   0.441 -1.7538  0.3775  0.9343
 5013TIP3   OH215002   4.948   1.706   1.460  0.0043 -0.3005 -0.4883
 5013TIP3    H115003   4.890   1.739   1.529 -1.4151 -0.6929 -1.4550
 5013TIP3    H215004   4.913   1.743   1.379  1.3455 -0.2611 -1.0838
 5014TIP3   OH215005   6.922   0.310   4.615  0.0463  0.5219  0.4835
 5014TIP3    H115006   6.950   0.315   4.524 -0.9038 -2.2158 -0.0660
 5014TIP3    H215007   6.990   0.356   4.665 -0.0243  3.1619 -1.6377
 5015TIP3   OH215008   0.970   4.841   5.550 -0.6953 -0.3746  0.5397
 5015TIP3    H115009   0.920   4.882   5.620 -1.2526  1.9234 -1.1084
 5015TIP3    H215010   1.030   4.909   5.519  1.2732 -2.0791  0.3451
 5016TIP3   OH215011   5.989   6.212   5.876  0.3237 -0.5235 -0.1002
 5016TIP3    H115012   6.075   6.190   5.839 -0.1039 -2.1996 -0.1798
 5016TIP3    H215013   5.928   6.204   5.802 -0.0250 -0.1783  0.1462
 5017TIP3   OH215014   3.036   0.312   3.915 -0.1391  0.1761 -0.2608
 5017TIP3    H115015   3.055   0.268   3.832  0.6863  0.6962 -0.3632
 5017TIP3    H215016   3.096   0.273   3.977  0.3100  0.8521 -0.2598
 5018TIP3   OH215017   2.387   4.223   5.069  0.0738 -0.4297 -0.4263
 5018TIP3    H115018   2.472   4.255   5.039 -0.1650 -1.2606 -2.0818
 5018TIP3    H215019   2.379   4.136   5.030 -0.4910 -1.3959  1.7064
 5019TIP3   OH215020   0.289   5.811   0.546 -0.1492 -0.1194 -0.1672
 5019TIP3    H115021   0.362   5.832   0.487 -0.0479 -0.9959 -0.3613
 5019TIP3    H215022   0.239   5.893   0.551  0.7491  0.4478 -0.1607
 5020TIP3   OH215023   6.678   4.645   4.391  0.2529 -0.4744 -0.7552
 5020TIP3    H115024   6.692   4.647   4.486  0.2417  0.6550 -0.7629
 5020TIP3    H215025   6.717   4.727   4.360 -0.0557 -0.6754 -1.6848
 5021TIP3   OH215026   6.525   0.278   4.288  0.4605  0.0521 -0.4724
 5021TIP3    H115027   6.588   0.228   4.340  1.8167  2.0289 -0.0968
 5021TIP3    H215028   6.550   0.369   4.303 -1.4991  0.8204 -1.6390
 5022TIP3   OH215029   3.510   4.253   4.663  0.0464  0.1789 -0.4257
 5022TIP3    H115030   3.528   4.347   4.659 -2.7020  0.7485 -0.9778
 5022TIP3    H215031   3.418   4.246   4.688  0.2562 -2.3969 -0.0420
 5023TIP3   OH215032   6.351   4.835   0.913 -0.7887 -0.2551 -0.1232
 5023TIP3    H115033   6.371   4.923   0.944  1.1575 -0.2714 -1.1955
 5023TIP3    H215034   6.260   4.840   0.884 -0.5938  1.5115 -0.5391
 5024TIP3   OH215035   6.470   0.072   0.656  0.1261 -0.0771  0.0340
 5024TIP3    H115036   6.546   0.079   0.598 -1.0957 -1.1361 -1.7899
 5024TIP3    H215037   6.485  -0.008   0.707  1.0542  0.6883  1.0046
 5025TIP3   OH215038   3.857   2.953   4.795  0.3555 -0.1890  0.5441
 5025TIP3    H115039   3.770   2.939   4.832  1.5089  0.0731  3.6834
 5025TIP3    H215040   3.884   2.867   4.764 -0.4009 -0.5972  0.9851
 5026TIP3   OH215041   3.242   0.270   3.376 -0.0124  0.4235 -0.5199
 5026TIP3    H115042   3.316   0.245   3.320  0.2896  2.8759 -1.3308
 5026TIP3    H215043   3.282   0.283   3.463  0.0358 -0.6056 -0.3739
 5027TIP3   OH215044   7.047   3.327   3.219  0.7257 -0.1449 -0.7884
 5027TIP3    H115045   6.975   3.283   3.265 -1.8974  4.7583  0.5683
 5027TIP3    H215046   7.016   3.335   3.129  0.5416  0.0972 -0.7054
 5028TIP3   OH215047   0.526   0.707   5.448 -0.1409  0.4916  0.4489
 5028TIP3    H115048   0.464   0.770   5.483 -0.2857  1.4559 -1.4160
 5028TIP3    H215049   0.485   0.673   5.369  0.9029 -0.2813  0.2025
 5029TIP3   OH215050   5.026   3.697   5.222 -0.0716 -0.1358 -0.6261
 5029TIP3    H115051   5.119   3.687   5.204 -0.1093 -0.0523 -0.8609
 5029TIP3    H215052   5.003   3.619   5.273  0.2918  0.2144  0.0982
 5030TIP3   OH215053   4.116   3.914   2.072 -1.1304 -0.2576  0.1615
 5030TIP3    H115054   4.124   3.861   2.152 -1.4744 -0.2469  0.2054
 5030TIP3    H215055   4.149   3.858   2.003 -0.7521 -0.2375  0.3231
 5031TIP3   OH215056   5.395   6.801   4.157 -0.0464 -0.3808  0.1458
 5031TIP3    H115057   5.483   6.763   4.150  0.6165  1.2804 -1.5748
 5031TIP3    H215058   5.367   6.813   4.066 -2.4170 -1.5887  0.6551
 5032TIP3   OH215059   4.348   0.519   2.238  0.4904  0.4622  0.2235
 5032TIP3    H115060   4.414   0.501   2.305  0.1442  1.5249  0.8691
 5032TIP3    H215061   4.369   0.458   2.167  0.6070 -0.9986  1.4530
 5033TIP3   OH215062   1.426   4.569   1.592 -0.1111  0.1728 -0.0955
 5033TIP3    H115063   1.464   4.557   1.505 -0.1503 -1.1918  0.0495
 5033TIP3    H215064   1.383   4.654   1.588  1.1098  0.7680 -0.9423
 5034TIP3   OH215065   4.441   3.249   2.307 -0.5640 -0.2655  0.5584
 5034TIP3    H115066   4.508   3.201   2.356 -0.4783 -0.8203 -0.0929
 5034TIP3    H215067   4.487   3.324   2.271  0.0468 -1.3210 -0.9654
 5035TIP3   OH215068   6.512   3.517   2.780  0.0580 -0.5773  0.2175
 5035TIP3    H115069   6.479   3.460   2.850 -0.6307  0.5994  0.8896
 5035TIP3    H215070   6.439   3.523   2.718 -1.0680  1.8155  1.5764
 5036TIP3   OH215071   0.103   6.206   3.350 -0.4361 -1.0997  0.7845
 5036TIP3    H115072   0.112   6.178   3.259  0.9720 -1.3647  0.9889
 5036TIP3    H215073   0.148   6.290   3.354 -4.8898  1.6528  0.0867
 5037TIP3   OH215074   0.219   5.874   1.504 -0.4109 -0.0739  0.0029
 5037TIP3    H115075   0.130   5.906   1.514  0.0041  0.6774  1.5814
 5037TIP3    H215076   0.243   5.840   1.590  0.2946 -1.7471 -0.8019
 5038TIP3   OH215077   0.234   5.924   3.162  1.2692 -0.0048  0.2507
 5038TIP3    H115078   0.322   5.954   3.141  0.9328 -0.1188 -1.5238
 5038TIP3    H215079   0.226   5.840   3.116 -0.1649  0.6145 -0.7119
 5039TIP3   OH215080   4.319   3.999   0.019  0.1102 -0.8465 -0.4722
 5039TIP3    H115081   4.396   3.951  -0.014  0.0738 -0.0230 -1.8349
 5039TIP3    H215082   4.276   3.937   0.078  1.0770 -1.8095 -0.7345
 5040TIP3   OH215083   1.978   3.489   2.255 -0.6606  0.1616 -0.1186
 5040TIP3    H115084   2.003   3.481   2.347 -1.2528 -0.7559 -0.0377
 5040TIP3    H215085   1.944   3.403   2.231  1.9499 -0.5058 -1.9453
 5041TIP3   OH215086   0.071   2.754   1.865 -0.8076 -0.2383  0.2103
 5041TIP3    H115087   0.087   2.726   1.775 -2.4158  0.0790 -0.1972
 5041TIP3    H215088   0.135   2.824   1.881 -0.1987 -0.6186 -0.4989
 5042TIP3   OH215089   6.268   3.395   5.867  1.0844  0.2051  0.4005
 5042TIP3    H115090   6.286   3.477   5.821 -0.5464  0.2525 -0.2357
 5042TIP3    H215091   6.231   3.338   5.800  3.6910 -1.6968  0.4251
 5043TIP3   OH215092   3.944   1.314   3.248 -0.4123 -0.2815  0.1275
 5043TIP3    H115093   3.960   1.363   3.168  1.4081  0.7041  1.0217
 5043TIP3    H215094   3.916   1.227   3.219  0.8489 -0.1524 -1.5738
 5044TIP3   OH215095   1.599   3.872   0.916  0.1742  0.1401  0.1225
 5044TIP3    H115096   1.607   3.928   0.993  0.3871  0.6868 -0.2869
 5044TIP3    H215097   1.689   3.854   0.890  0.1055  0.2882 -0.2278
 5045TIP3   OH215098   6.853   1.823   3.691  0.7491 -0.1348  0.1575
 5045TIP3    H115099   6.908   1.746   3.677  0.5985 -0.1062 -0.6458
 5045TIP3    H215100   6.888   1.889   3.631  2.7476  1.4524  2.7985
 5046TIP3   OH215101   1.049   4.776   0.205 -0.1556  0.4227 -0.2396
 5046TIP3    H115102   1.023   4.837   0.136  1.5572  1.1748 -0.2836
 5046TIP3    H215103   1.143   4.790   0.215 -0.3382  0.3649  2.2776
 5047TIP3   OH215104   2.474   4.397   0.222 -0.5289 -0.0281  0.1679
 5047TIP3    H115105   2.561   4.412   0.260  0.8043  1.8619 -3.1469
 5047TIP3    H215106   2.437   4.485   0.212 -1.6063 -0.5917 -1.0143
 5048TIP3   OH215107   6.998   6.360   1.810 -0.2649  0.6963 -0.4781
 5048TIP3    H115108   6.931   6.306   1.851  0.3227 -1.5109 -2.2310
 5048TIP3    H215109   6.949   6.417   1.750 -0.8390  1.7458  0.9423
 5049TIP3   OH215110   2.534   1.416   5.765 -0.1045 -0.0567 -0.2042
 5049TIP3    H115111   2.583   1.375   5.836 -0.1005  1.9835  1.0272
 5049TIP3    H215112   2.601   1.446   5.704  0.0807  0.6847  0.3478
 5050TIP3   OH215113   1.354   0.989   5.266  0.0147  0.0815 -0.2571
 5050TIP3    H115114   1.307   0.950   5.192  1.1720 -0.9942 -0.4496
 5050TIP3    H215115   1.378   1.076   5.234 -2.6209  1.0775  0.1936
 5051TIP3   OH215116   7.077   5.727   2.295 -0.1222 -0.0162  0.5930
 5051TIP3    H115117   6.994   5.763   2.262 -1.1519 -1.4046  1.5895
 5051TIP3    H215118   7.130   5.714   2.216 -0.4077  1.8616  0.0291
 5052TIP3   OH215119   4.451   5.106   1.184  0.3810 -0.2478  0.5653
 5052TIP3    H115120   4.433   5.169   1.113 -0.1553 -0.0015  0.9126
 5052TIP3    H215121   4.533   5.065   1.159 -0.5474 -1.2546 -0.9760
 5053TIP3   OH215122   5.547   4.021   3.343  0.1266 -0.3694  0.0443
 5053TIP3    H115123   5.493   3.944   3.325  0.5633 -0.5932 -0.3187
 5053TIP3    H215124   5.507   4.090   3.291  1.0331 -0.8754 -1.3735
 5054TIP3   OH215125   6.128   1.033   0.186  0.0968 -0.2015 -0.2973
 5054TIP3    H115126   6.106   0.995   0.271  0.3850 -1.3412 -0.7101
 5054TIP3    H215127   6.099   1.124   0.192 -1.2207 -0.6384  0.5118
 5055TIP3   OH215128   3.607   1.984   3.687  0.6213  0.3549 -0.1028
 5055TIP3    H115129   3.528   1.936   3.663  0.9148 -0.2629  0.1518
 5055TIP3    H215130   3.661   1.982   3.608  1.1688 -0.8336  0.2774
 5056TIP3   OH215131   5.442   6.307   1.931  0.0136 -0.1171 -0.7690
 5056TIP3    H115132   5.387   6.283   2.005  0.1545  1.6896 -0.0281
 5056TIP3    H215133   5.467   6.223   1.891 -1.2538 -1.0550  0.3371
 5057TIP3   OH215134   2.820   0.543   1.788  0.1412  0.1765 -0.3642
 5057TIP3    H115135   2.884   0.563   1.856  0.1270 -1.5596  0.2076
 5057TIP3    H215136   2.797   0.451   1.802 -1.9209  0.5210 -1.0178
 5058TIP3   OH215137   7.125   4.529   5.306  0.3105 -0.2927  0.4065
 5058TIP3    H115138   7.094   4.515   5.217 -1.4963  0.0067  0.9457
 5058TIP3    H215139   7.099   4.450   5.353  0.5213 -0.1029  0.8518
 5059TIP3   OH215140   2.927   4.352   3.717 -0.6731 -0.0848 -0.3338
 5059TIP3    H115141   2.905   4.262   3.693 -0.4983 -0.0613 -0.5886
 5059TIP3    H215142   2.962   4.345   3.806 -1.4291 -0.1564 -0.0353
 5060TIP3   OH215143   0.903   0.172   0.105  0.2023  0.3728  0.4353
 5060TIP3    H115144   0.972   0.223   0.148  0.2374  0.9311 -0.2721
 5060TIP3    H215145   0.871   0.228   0.035 -1.0087  0.1264  0.7724
 5061TIP3   OH215146   5.853   5.192   5.679  0.2482 -0.3246 -0.1364
 5061TIP3    H115147   5.763   5.222   5.664 -0.6332 -2.1057  1.2232
 5061TIP3    H215148   5.906   5.271   5.671 -1.6194  1.0604  0.4521
 5062TIP3   OH215149   2.233   6.254   2.984 -0.0389  0.0063 -0.4911
 5062TIP3    H115150   2.305   6.196   2.962 -0.0926 -0.4709  0.5606
 5062TIP3    H215151   2.198   6.221   3.067 -1.6054  0.0922 -1.0734
 5063TIP3   OH215152   4.494   6.080   3.841  0.8139 -0.2715 -0.0054
 5063TIP3    H115153   4.472   6.111   3.929 -1.4960 -0.7877 -0.3291
 5063TIP3    H215154   4.502   5.985   3.850  1.1326 -0.2702 -0.2540
 5064TIP3   OH215155   2.088   2.678   1.781  0.1749 -0.3129  0.1855
 5064TIP3    H115156   2.071   2.674   1.686 -2.6629  1.1600  0.5120
 5064TIP3    H215157   2.024   2.617   1.818 -0.9709  1.4391  1.2600
 5065TIP3   OH215158   3.892   5.208   0.519 -0.1857  0.2876  0.1346
 5065TIP3    H115159   3.832   5.232   0.448 -0.7789 -0.0725  0.5130
 5065TIP3    H215160   3.897   5.113   0.516 -0.5814  0.2383  0.8750
 5066TIP3   OH215161   1.238   5.614   4.861 -0.8387  0.0361  0.3839
 5066TIP3    H115162   1.157   5.585   4.901 -0.8203  0.7523  0.9685
 5066TIP3    H215163   1.210   5.680   4.796 -0.8948 -1.3098 -1.0219
 5067TIP3   OH215164   6.856   4.156   1.275 -0.0412  0.5397  0.5261
 5067TIP3    H115165   6.802   4.078   1.261  1.5364 -0.5583  0.2346
 5067TIP3    H215166   6.924   4.150   1.207 -0.0381  2.3350  0.3308
 5068TIP3   OH215167   6.117   2.802   4.310 -0.8338 -0.4984 -0.3806
 5068TIP3    H115168   6.152   2.864   4.246 -2.4775  0.1328 -0.7247
 5068TIP3    H215169   6.156   2.828   4.393  0.7359 -0.8469 -0.9826
 5069TIP3   OH215170   1.771   0.587   2.467 -0.4403  0.2148  0.7014
 5069TIP3    H115171   1.843   0.609   2.526  0.1692 -0.2948  0.1523
 5069TIP3    H215172   1.809   0.592   2.380 -0.9681 -0.4514  0.4291
 5070TIP3   OH215173   6.640   4.687   1.186 -0.2457 -0.3851  0.1421
 5070TIP3    H115174   6.703   4.720   1.122 -1.8330 -1.5507 -2.1897
 5070TIP3    H215175   6.582   4.761   1.203 -1.4160 -0.7354 -1.9728
 5071TIP3   OH215176   2.602   0.430   2.841  0.2791 -0.7317  0.5388
 5071TIP3    H115177   2.687   0.416   2.799  0.3867  0.8241  0.1727
 5071TIP3    H215178   2.622   0.477   2.922 -0.2139 -0.5253  0.5468
 5072TIP3   OH215179   1.762   1.400   0.437 -0.2809 -0.0161 -0.1333
 5072TIP3    H115180   1.771   1.322   0.491 -1.1161  0.5902  0.9491
 5072TIP3    H215181   1.835   1.456   0.462  0.7091 -0.6969 -1.4002
 5073TIP3   OH215182   2.613   4.046   0.518  0.0366  0.2465 -0.1085
 5073TIP3    H115183   2.543   3.996   0.476  0.9787 -0.5458 -0.7693
 5073TIP3    H215184   2.587   4.138   0.508 -0.3394  0.0142 -1.3596
 5074TIP3   OH215185   7.040   1.619   2.914  0.1880  0.0486 -0.3225
 5074TIP3    H115186   6.971   1.597   2.852 -1.7793  0.0538  1.7586
 5074TIP3    H215187   6.995   1.635   2.996  2.4322  2.5454  0.5740
 5075TIP3   OH215188   0.350   0.139   4.174  0.6111  0.8033  0.2407
 5075TIP3    H115189   0.403   0.067   4.206  0.0513 -0.2503 -1.1240
 5075TIP3    H215190   0.269   0.134   4.224  1.0489  1.2662  1.0131
 5076TIP3   OH215191   4.576   6.190   2.678  0.0095 -0.3418  0.1744
 5076TIP3    H115192   4.644   6.213   2.614 -1.3699  1.6766 -0.6635
 5076TIP3    H215193   4.625   6.153   2.752  1.8912 -0.2458 -0.9534
 5077TIP3   OH215194   0.698   6.075   3.282  0.4499 -0.3688  0.5205
 5077TIP3    H115195   0.605   6.098   3.278 -0.0458 -2.0503  1.2652
 5077TIP3    H215196   0.736   6.139   3.342 -0.0097  0.9310 -0.5377
 5078TIP3   OH215197   4.145   6.129   2.677  0.5874 -0.1003  0.1542
 5078TIP3    H115198   4.116   6.050   2.723  2.6459 -0.8950  0.1834
 5078TIP3    H215199   4.110   6.118   2.588 -1.1366  0.1506  0.7589
 5079TIP3   OH215200   4.242   6.261   3.395  0.4876  0.5032 -0.1574
 5079TIP3    H115201   4.305   6.332   3.382  0.8921  0.7453  2.4965
 5079TIP3    H215202   4.248   6.241   3.489 -1.6579 -1.1317 -0.2939
 5080TIP3   OH215203   0.403   0.548   5.255  0.1842 -0.6002 -0.0789
 5080TIP3    H115204   0.450   0.537   5.172 -0.1944 -1.3802 -0.1974
 5080TIP3    H215205   0.362   0.463   5.271 -1.4985  0.1545 -0.1640
 5081TIP3   OH215206   1.372   2.324   0.170  0.1759  0.3076 -0.1605
 5081TIP3    H115207   1.291   2.357   0.131 -0.9410 -0.0951  1.6888
 5081TIP3    H215208   1.381   2.235   0.137  1.1579  1.0976 -2.1805
 5082TIP3   OH215209   0.932   6.164   1.498  0.0486 -0.6531 -0.1478
 5082TIP3    H115210   0.995   6.164   1.570 -0.0812  0.5775  0.0016
 5082TIP3    H215211   0.963   6.096   1.438  1.1039 -0.5738  0.2810
 5083TIP3   OH215212   0.789   4.984   4.384 -0.1627  0.1150 -0.7512
 5083TIP3    H115213   0.863   4.950   4.334  1.1523  0.6615  0.7459
 5083TIP3    H215214   0.791   4.935   4.467 -2.1041 -0.5611 -1.0416
 5084TIP3   OH215215   4.759   0.913   1.858  0.8282 -0.2467  0.2562
 5084TIP3    H115216   4.815   0.920   1.780 -0.7534 -0.2397 -0.9377
 5084TIP3    H215217   4.751   1.003   1.890  0.5519 -0.0803 -0.2691
 5085TIP3   OH215218   3.716   5.536   1.998 -0.1628  0.4974 -0.3480
 5085TIP3    H115219   3.675   5.478   2.062 -0.1756  0.7110 -0.1633
 5085TIP3    H215220   3.644   5.563   1.940 -0.0309 -0.2439 -0.8759
 5086TIP3   OH215221   7.050   4.160   1.085  0.7671  0.3572  0.2809
 5086TIP3    H115222   7.134   4.125   1.116  0.3826 -0.4023  0.4694
 5086TIP3    H215223   7.074   4.214   1.009  1.4017 -0.0882  0.1515
 5087TIP3   OH215224   5.168   0.532   5.114 -0.5354 -0.0009 -0.1512
 5087TIP3    H115225   5.158   0.627   5.107  2.0058  0.2475 -1.5648
 5087TIP3    H215226   5.196   0.505   5.026 -3.2826 -2.4284 -0.4336
 5088TIP3   OH215227   0.909   1.724   3.547 -0.0435 -0.4159  0.0501
 5088TIP3    H115228   0.863   1.654   3.500 -1.1791  0.3040  0.0435
 5088TIP3    H215229   0.848   1.750   3.616  1.2007 -0.8047  1.3630
 5089TIP3   OH215230   1.125   6.354   0.300  0.2530  0.9113  0.0686
 5089TIP3    H115231   1.041   6.359   0.254 -0.9092 -2.1319  1.5915
 5089TIP3    H215232   1.116   6.413   0.374 -0.7390  0.3086  0.4413
 5090TIP3   OH215233   5.135   1.950   0.503  0.0871  0.3045 -0.3296
 5090TIP3    H115234   5.147   1.965   0.409  0.5104  1.5276 -0.0888
 5090TIP3    H215235   5.219   1.914   0.532 -0.0220 -0.0111 -0.4025
 5091TIP3   OH215236   2.543   2.192   0.481 -0.5770  0.1263 -0.2436
 5091TIP3    H115237   2.532   2.166   0.572  0.2631 -2.3920 -0.7642
 5091TIP3    H215238   2.491   2.271   0.472 -1.6194 -0.1982  2.1377
 5092TIP3   OH215239   0.712   1.382   5.709  0.0845  0.3241 -0.0359
 5092TIP3    H115240   0.621   1.377   5.679 -0.2618  1.5713  0.6984
 5092TIP3    H215241   0.757   1.311   5.664 -1.1682 -0.0526 -0.7310
 5093TIP3   OH215242   3.385   6.165   3.167 -0.5548  0.1576 -0.3955
 5093TIP3    H115243   3.480   6.168   3.153 -0.4557  0.2640  0.2365
 5093TIP3    H215244   3.374   6.192   3.258 -1.0518 -1.4683  0.0695
 5094TIP3   OH215245   1.779   1.522   3.590 -0.4761 -0.3153 -0.3939
 5094TIP3    H115246   1.726   1.594   3.556 -0.5650 -0.4549 -0.5506
 5094TIP3    H215247   1.765   1.525   3.685  0.7509  0.8617 -0.2107
 5095TIP3   OH215248   6.793   2.678   3.290  0.4220  0.0597 -0.0076
 5095TIP3    H115249   6.709   2.681   3.244 -0.2517 -0.1787  1.1823
 5095TIP3    H215250   6.856   2.710   3.225 -0.4509 -0.5184 -1.1956
 5096TIP3   OH215251   0.400   0.559   1.625 -0.7212  0.0610 -0.5698
 5096TIP3    H115252   0.476   0.612   1.604  2.4052 -3.0190  1.6700
 5096TIP3    H215253   0.392   0.498   1.551 -0.0493 -0.5033 -0.1909
 5097TIP3   OH215254   2.245   0.273   0.123 -0.1274 -0.5036  0.1611
 5097TIP3    H115255   2.208   0.186   0.105  0.3628 -0.6385 -0.2300
 5097TIP3    H215256   2.246   0.317   0.038 -0.0020 -0.2623  0.2875
 5098TIP3   OH215257   3.322   0.540   3.914 -0.0860  0.4580 -0.0271
 5098TIP3    H115258   3.392   0.553   3.851  0.6651  1.1399  0.9135
 5098TIP3    H215259   3.333   0.450   3.945  1.2577  0.9709  1.1042
 5099TIP3   OH215260   1.944   1.386   2.582  0.1388 -0.8012  0.0481
 5099TIP3    H115261   1.858   1.350   2.561 -3.8583  4.9603  3.8998
 5099TIP3    H215262   1.953   1.462   2.525  2.4548 -0.8433  0.2540
 5100TIP3   OH215263   3.098   4.868   3.957 -0.1055 -0.8797  0.0102
 5100TIP3    H115264   3.105   4.777   3.928 -1.6404 -1.1398  0.3859
 5100TIP3    H215265   3.063   4.915   3.881 -0.8624 -0.9170  0.3314
 5101TIP3   OH215266   1.716   2.524   1.316  0.0934  0.1659 -0.2434
 5101TIP3    H115267   1.698   2.439   1.276  0.6386  1.0013 -2.4128
 5101TIP3    H215268   1.664   2.586   1.264  1.4978  1.4174 -0.2346
 5102TIP3   OH215269   1.783   3.583   1.610 -0.1789  0.1357 -0.1796
 5102TIP3    H115270   1.829   3.502   1.635  0.5440  0.6335  0.1515
 5102TIP3    H215271   1.788   3.638   1.689 -1.4299  0.1762 -0.1144
 5103TIP3   OH215272   5.402   3.601   1.437 -0.4272 -0.7238  0.4526
 5103TIP3    H115273   5.342   3.645   1.377  0.5715  0.9578  0.6433
 5103TIP3    H215274   5.355   3.597   1.520  0.3303  2.2702  1.1221
 5104TIP3   OH215275   2.032   6.561   1.213 -0.6800 -0.2056  0.4522
 5104TIP3    H115276   1.972   6.635   1.204 -1.3620 -0.9336 -1.5186
 5104TIP3    H215277   2.114   6.601   1.242 -1.3958  1.1361  0.7559
 5105TIP3   OH215278   4.029   3.250   4.544  0.1115 -0.3589 -0.3684
 5105TIP3    H115279   3.992   3.332   4.512  1.0657  1.0421  1.8202
 5105TIP3    H215280   4.000   3.245   4.635  0.6125 -2.1399 -0.2668
 5106TIP3   OH215281   3.102   3.796   1.606 -0.2686  0.0731  0.2542
 5106TIP3    H115282   3.111   3.701   1.591  1.7436  0.4975 -1.7912
 5106TIP3    H215283   3.034   3.803   1.673  0.1351 -2.8623  1.1331
 5107TIP3   OH215284   1.026   6.713   3.613  0.1217  0.3400  0.6694
 5107TIP3    H115285   1.042   6.736   3.521 -0.2086 -1.2535  0.1786
 5107TIP3    H215286   1.094   6.649   3.634 -1.0831 -0.9174  0.8496
 5108TIP3   OH215287   6.980   2.457   5.786 -0.1148 -0.3818 -0.3434
 5108TIP3    H115288   6.885   2.463   5.796 -0.2179  0.2438 -1.5294
 5108TIP3    H215289   6.994   2.372   5.744 -0.1581 -0.3837 -0.3541
 5109TIP3   OH215290   2.139   1.506   5.257  0.4630  0.3429  0.0454
 5109TIP3    H115291   2.170   1.559   5.330 -0.5584  0.7751  0.1776
 5109TIP3    H215292   2.191   1.426   5.262  1.5301  1.0172  0.2672
 5110TIP3   OH215293   3.960   2.795   1.381 -0.4049  0.6685  0.0968
 5110TIP3    H115294   3.918   2.878   1.361 -2.4260 -0.5134 -0.8421
 5110TIP3    H215295   3.950   2.785   1.476 -1.3216  0.9060  0.0312
 5111TIP3   OH215296   6.660   5.337   4.389  0.7203 -0.5070  0.0682
 5111TIP3    H115297   6.580   5.303   4.431  1.6251 -1.5051  1.0602
 5111TIP3    H215298   6.630   5.411   4.337 -0.8017 -0.6279  0.7099
 5112TIP3   OH215299   5.122   3.773   4.938  0.0197  0.6935 -0.5487
 5112TIP3    H115300   5.133   3.678   4.928  0.5816  0.4915  1.4439
 5112TIP3    H215301   5.065   3.782   5.015 -0.6653  1.9865 -1.1791
 5113TIP3   OH215302   1.866   1.271   3.892 -0.0310  0.0825 -0.0998
 5113TIP3    H115303   1.933   1.305   3.952 -1.2572  0.5053  1.0747
 5113TIP3    H215304   1.824   1.201   3.941  1.4022 -2.1678 -1.9021
 5114TIP3   OH215305   0.673   6.362   2.089  0.0056 -0.3120  0.0397
 5114TIP3    H115306   0.702   6.273   2.107  2.4187  0.6274  1.4164
 5114TIP3    H215307   0.741   6.417   2.129 -1.3716  2.1415 -0.7873
 5115TIP3   OH215308   0.465   2.342   1.176  0.8003 -0.0046  0.3123
 5115TIP3    H115309   0.449   2.276   1.108  1.1036 -1.9301  2.0129
 5115TIP3    H215310   0.377   2.368   1.205  0.6659  0.8926 -0.8151
 5116TIP3   OH215311   6.586   5.503   1.707 -0.2919  0.0652  0.4486
 5116TIP3    H115312   6.490   5.511   1.711 -0.4363 -0.0737 -1.6728
 5116TIP3    H215313   6.612   5.560   1.634  1.2800  0.2449  1.1109
 5117TIP3   OH215314   6.239   3.497   3.046  0.1856  0.6611 -0.4063
 5117TIP3    H115315   6.319   3.508   3.097 -0.3942  2.4929  0.1857
 5117TIP3    H215316   6.188   3.433   3.095  0.7452  0.4320 -0.1161
 5118TIP3   OH215317   0.495   2.789   5.784 -0.0448  0.3308 -0.4418
 5118TIP3    H115318   0.522   2.879   5.765 -0.6220  0.5623 -0.1712
 5118TIP3    H215319   0.424   2.771   5.723 -1.1966  0.7160  0.7187
 5119TIP3   OH215320   2.559   6.711   1.507  0.1963  0.1253  0.1021
 5119TIP3    H115321   2.646   6.732   1.472 -0.5508 -1.1437 -2.7752
 5119TIP3    H215322   2.544   6.778   1.574  2.2979  2.0033 -1.1503
 5120TIP3   OH215323   0.503   3.871   5.622  0.3721  0.3896  0.2314
 5120TIP3    H115324   0.572   3.923   5.583  2.6299 -0.5621  2.6383
 5120TIP3    H215325   0.458   3.931   5.682 -0.3079  0.7569 -0.6216
 5121TIP3   OH215326   4.142   4.553   0.062 -0.1433 -0.3612 -0.1675
 5121TIP3    H115327   4.191   4.582  -0.014 -0.7435 -1.1051 -0.8524
 5121TIP3    H215328   4.201   4.569   0.136  0.0736  1.2536 -0.6602
 5122TIP3   OH215329   1.469   5.296   0.251  0.2865 -0.2417  0.7835
 5122TIP3    H115330   1.384   5.252   0.255  0.0031  0.2260  0.1030
 5122TIP3    H215331   1.448   5.389   0.255  0.8949 -0.1367  2.3979
 5123TIP3   OH215332   3.568   5.106   4.889  0.1969  0.1616 -0.4375
 5123TIP3    H115333   3.602   5.086   4.976  1.0893 -1.2312 -1.0657
 5123TIP3    H215334   3.536   5.021   4.857  1.2205  0.3441 -2.0219
 5124TIP3   OH215335   5.618   2.745   5.676  0.5637 -0.5151  0.5199
 5124TIP3    H115336   5.668   2.694   5.739 -2.1469 -2.5036  1.2224
 5124TIP3    H215337   5.677   2.755   5.601  2.5168 -1.3698  1.8625
 5125TIP3   OH215338   6.502   1.282   5.568  0.4513 -0.4366  0.2026
 5125TIP3    H115339   6.480   1.273   5.661 -0.5768  0.1942  0.0406
 5125TIP3    H215340   6.479   1.197   5.530 -0.3194 -0.2878  0.3161
 5126TIP3   OH215341   2.293   2.001   2.667  0.2172 -0.4921  0.2118
 5126TIP3    H115342   2.315   2.045   2.749  0.9272  0.9181 -0.7070
 5126TIP3    H215343   2.324   2.060   2.599  0.2105 -1.9215 -1.0823
 5127TIP3   OH215344   2.772   0.098   3.419  0.0633  0.0017  0.3056
 5127TIP3    H115345   2.700   0.070   3.475  0.7406  1.2874  1.9103
 5127TIP3    H215346   2.746   0.184   3.385  0.4893  0.1123  0.2424
 5128TIP3   OH215347   1.753   3.019   4.437 -0.6989 -0.2064 -0.1070
 5128TIP3    H115348   1.687   2.992   4.374  0.9996 -1.2962 -1.5208
 5128TIP3    H215349   1.745   2.957   4.509 -1.8382  0.2888  0.2102
 5129TIP3   OH215350   7.160   0.380   3.380  0.1832  0.2270 -0.1559
 5129TIP3    H115351   7.199   0.295   3.359  0.0125  0.5810 -2.0572
 5129TIP3    H215352   7.220   0.420   3.443  0.6541 -0.9653  0.1794
 5130TIP3   OH215353   1.144   5.230   5.453 -0.4381 -0.2981  0.3106
 5130TIP3    H115354   1.074   5.220   5.389 -0.2310  0.6628 -0.0873
 5130TIP3    H215355   1.106   5.287   5.521  0.1909  0.8739 -0.2980
 5131TIP3   OH215356   2.794   6.814   1.357 -0.5427 -0.3045  0.2919
 5131TIP3    H115357   2.821   6.767   1.436 -1.8709 -0.8909  0.4175
 5131TIP3    H215358   2.837   6.767   1.286  1.4092  0.7751  0.6903
 5132TIP3   OH215359   5.887   1.243   1.271 -0.4652 -0.4767 -0.0785
 5132TIP3    H115360   5.949   1.316   1.276  0.0918 -0.9567  0.1882
 5132TIP3    H215361   5.805   1.283   1.242  0.3805 -0.0655 -2.1080
 5133TIP3   OH215362   0.008   0.133   2.447 -0.1667 -0.0071 -0.3144
 5133TIP3    H115363   0.070   0.167   2.512 -1.0505  1.2973 -0.1195
 5133TIP3    H215364  -0.071   0.115   2.497 -0.4106 -0.3112 -0.8054
 5134TIP3   OH215365   1.318   2.636   3.258  0.4395  0.2356 -0.1913
 5134TIP3    H115366   1.275   2.579   3.321  1.2069  0.3301  0.4305
 5134TIP3    H215367   1.380   2.579   3.213 -0.1785  0.1446 -0.9414
 5135TIP3   OH215368   0.298   1.794   0.162 -0.9335  0.7562 -0.0373
 5135TIP3    H115369   0.363   1.730   0.135 -1.5397  0.7355 -1.5177
 5135TIP3    H215370   0.214   1.754   0.140 -1.3662  1.6116  0.0199
 5136TIP3   OH215371   4.104   5.322   2.781 -0.0447 -0.5113 -0.5690
 5136TIP3    H115372   4.072   5.232   2.775 -2.0758  0.0844  0.6058
 5136TIP3    H215373   4.026   5.375   2.797  1.3726  1.1723  1.2866
 5137TIP3   OH215374   1.302   1.223   0.085 -0.3083 -0.1121 -0.1939
 5137TIP3    H115375   1.370   1.236   0.018 -0.2841  0.9331  0.0173
 5137TIP3    H215376   1.275   1.131   0.074 -1.1747  0.3412 -2.4498
 5138TIP3   OH215377   5.206   4.517   4.347  0.2863  0.5074 -0.3739
 5138TIP3    H115378   5.151   4.453   4.391  1.7210 -0.7087 -0.2678
 5138TIP3    H215379   5.175   4.602   4.379 -1.6689 -0.1030 -0.5526
 5139TIP3   OH215380   3.244   2.538   2.116  0.0933 -0.5864  0.6062
 5139TIP3    H115381   3.162   2.517   2.073  0.2378 -0.4770  0.2728
 5139TIP3    H215382   3.224   2.534   2.210 -0.7891  1.3491  0.5511
 5140TIP3   OH215383   3.611   2.485   5.045 -0.1359  0.5137  0.8785
 5140TIP3    H115384   3.611   2.551   4.975  0.1825  0.2984  0.6729
 5140TIP3    H215385   3.701   2.452   5.046 -0.4968 -0.5383  0.4001
 5141TIP3   OH215386   1.578   0.453   4.865 -0.0817  0.0136  0.6840
 5141TIP3    H115387   1.490   0.446   4.829 -0.1738 -1.2266  1.1063
 5141TIP3    H215388   1.564   0.467   4.959  0.1649  0.0349  0.7177
 5142TIP3   OH215389   4.129   5.966   0.051 -0.7360 -0.8896  0.0423
 5142TIP3    H115390   4.118   5.901  -0.017  0.5876 -0.3151 -0.7643
 5142TIP3    H215391   4.088   6.045   0.016  0.4146 -0.4441 -0.3572
 5143TIP3   OH215392   6.489   6.415   3.573  0.2112 -0.6571 -0.5393
 5143TIP3    H115393   6.575   6.377   3.555  1.0545  0.4635  0.8652
 5143TIP3    H215394   6.451   6.358   3.641 -0.0793 -1.0444 -1.0249
 5144TIP3   OH215395   2.146   4.351   2.648 -0.6920  0.6252  0.4827
 5144TIP3    H115396   2.118   4.276   2.702 -0.4776  0.3276  0.1864
 5144TIP3    H215397   2.108   4.333   2.562  1.0164 -0.1704 -0.1433
 5145TIP3   OH215398   6.027   4.593   5.433 -0.4783 -0.1131  0.6707
 5145TIP3    H115399   6.016   4.641   5.351  1.0615 -0.2125  0.3697
 5145TIP3    H215400   6.108   4.544   5.421 -1.1193 -1.4684  1.6230
 5146TIP3   OH215401   3.887   4.112   2.059 -0.4230 -0.1693  0.3345
 5146TIP3    H115402   3.858   4.022   2.077 -0.0773 -0.0828  1.3900
 5146TIP3    H215403   3.974   4.101   2.019 -0.5199 -0.3153  0.1602
 5147TIP3   OH215404   2.057   4.506   4.023 -0.1299 -0.0639  0.1217
 5147TIP3    H115405   1.976   4.541   4.060 -0.5250 -0.2017 -0.6023
 5147TIP3    H215406   2.123   4.571   4.046 -0.8875  1.3152 -1.4020
 5148TIP3   OH215407   5.432   1.577   1.293 -0.3990  0.1362 -1.2196
 5148TIP3    H115408   5.397   1.644   1.351  1.2809 -0.6076  0.7819
 5148TIP3    H215409   5.521   1.606   1.273 -0.3520 -0.5002 -2.0039
 5149TIP3   OH215410   3.060   6.816   0.314  0.0336  0.5377  0.4436
 5149TIP3    H115411   3.045   6.777   0.228 -1.2287  0.8380  0.5010
 5149TIP3    H215412   3.097   6.746   0.367  2.4373  0.7817 -0.7589
 5150TIP3   OH215413   1.553   5.569   4.820 -0.1517 -0.0777  0.6181
 5150TIP3    H115414   1.508   5.653   4.804  1.0056  0.2807 -0.9840
 5150TIP3    H215415   1.483   5.504   4.814 -0.8992  0.6805  0.8406
 5151TIP3   OH215416   2.795   6.028   4.933 -0.1683 -0.1527  0.3557
 5151TIP3    H115417   2.809   6.057   4.842  0.7378 -1.7594 -0.0477
 5151TIP3    H215418   2.826   6.102   4.986  1.5344 -0.1057 -0.6348
 5152TIP3   OH215419   0.278   5.450   5.864  0.0742  0.3743  0.0725
 5152TIP3    H115420   0.294   5.359   5.837 -1.9161 -0.2797  0.9142
 5152TIP3    H215421   0.361   5.495   5.845  1.4092 -1.7751  0.4025
 5153TIP3   OH215422   0.709   1.548   2.615  0.7011 -0.5224  0.8417
 5153TIP3    H115423   0.637   1.488   2.632  0.1347  0.0048  0.3544
 5153TIP3    H215424   0.682   1.630   2.657 -0.1123  0.4046 -1.3843
 5154TIP3   OH215425   0.645   3.609   2.620 -0.2683 -0.2585 -0.2137
 5154TIP3    H115426   0.655   3.698   2.653  1.5660 -0.1258 -0.9755
 5154TIP3    H215427   0.561   3.609   2.575 -0.4351  1.0055  0.0585
 5155TIP3   OH215428   3.052   2.470   0.193  0.7480  0.0756  0.2864
 5155TIP3    H115429   3.101   2.514   0.262  0.4080 -0.4251  0.8624
 5155TIP3    H215430   3.040   2.380   0.225  2.0638 -0.6847 -1.1743
 5156TIP3   OH215431   6.349   4.780   5.095  0.7879  0.6238 -0.3862
 5156TIP3    H115432   6.367   4.802   5.186 -1.9002 -1.0690  0.6883
 5156TIP3    H215433   6.345   4.864   5.050  1.5499  1.5500  1.1838
 5157TIP3   OH215434   3.049   4.268   1.474 -0.3402  0.3577 -0.0349
 5157TIP3    H115435   3.012   4.355   1.488 -0.2831  0.5346 -0.8985
 5157TIP3    H215436   3.116   4.282   1.407  2.1337  0.2694  2.2504
 5158TIP3   OH215437   2.934   3.595   5.844  0.8330 -0.1346  0.1950
 5158TIP3    H115438   2.920   3.677   5.892  0.6834  0.9125 -1.5487
 5158TIP3    H215439   2.941   3.528   5.912  2.0168  1.4640  1.7188
 5159TIP3   OH215440   5.292   0.805   3.558  0.1199 -0.2539  0.8915
 5159TIP3    H115441   5.347   0.729   3.575  0.2423  0.1771  2.5190
 5159TIP3    H215442   5.296   0.857   3.638 -0.1670  1.3525 -0.0893
 5160TIP3   OH215443   0.814   6.389   1.122  0.0653  0.0082 -0.2256
 5160TIP3    H115444   0.860   6.468   1.149  1.6424 -0.8742 -0.2410
 5160TIP3    H215445   0.791   6.404   1.031  1.3870  0.0019 -0.5728
 5161TIP3   OH215446   0.945   1.695   5.032  0.2461  0.0176 -0.0279
 5161TIP3    H115447   0.989   1.747   5.100 -0.5264  0.7589 -0.0862
 5161TIP3    H215448   0.944   1.606   5.068  0.0950  0.3457  0.8084
 5162TIP3   OH215449   1.957   3.027   1.303 -0.0843  0.5544  0.3171
 5162TIP3    H115450   1.953   3.005   1.210  0.2719 -2.7079  0.9470
 5162TIP3    H215451   2.046   3.059   1.317 -0.1774  1.1757 -0.4592
 5163TIP3   OH215452   1.054   0.938   4.474 -0.1264  0.2066 -0.0589
 5163TIP3    H115453   1.001   0.905   4.547 -0.1077 -3.0779 -1.3602
 5163TIP3    H215454   1.142   0.947   4.511 -0.5278  0.5868  0.8310
 5164TIP3   OH215455   0.185   4.997   4.401  0.0719  0.7559  0.1698
 5164TIP3    H115456   0.213   4.958   4.318 -0.1162  0.1891  0.3687
 5164TIP3    H215457   0.236   4.952   4.468 -0.9883 -0.0098  0.5024
 5165TIP3   OH215458   7.118   3.687   0.241  0.5488 -0.5010  0.3395
 5165TIP3    H115459   7.153   3.637   0.167  1.6686  0.0304  0.4811
 5165TIP3    H215460   7.163   3.772   0.235 -1.3968  0.5571  0.0248
 5166TIP3   OH215461   3.945   0.347   0.974  0.0675  0.5052  0.0335
 5166TIP3    H115462   3.859   0.388   0.981  0.2561  0.7886  0.7725
 5166TIP3    H215463   3.930   0.270   0.919 -0.5375  0.8721 -0.3317
 5167TIP3   OH215464   5.347   3.652   4.557 -0.0366  0.3375  0.3296
 5167TIP3    H115465   5.384   3.586   4.617  0.9990  0.8264  0.2448
 5167TIP3    H215466   5.259   3.619   4.538  0.7328 -1.4824 -0.3662
 5168TIP3   OH215467   5.080   2.748   0.716 -1.1713 -0.2276  0.5048
 5168TIP3    H115468   5.165   2.758   0.760 -0.6708 -2.1428  0.0621
 5168TIP3    H215469   5.079   2.816   0.649 -0.8370  1.0525  1.7349
 5169TIP3   OH215470   6.834   2.365   0.775 -0.2240  0.3235  0.1513
 5169TIP3    H115471   6.765   2.369   0.709 -0.0283 -0.5759 -0.1312
 5169TIP3    H215472   6.890   2.292   0.747  1.7943  2.0360 -0.5404
 5170TIP3   OH215473   4.474   2.252   0.567  0.5710  0.2087  0.6455
 5170TIP3    H115474   4.412   2.250   0.640 -1.0418 -0.7508 -0.6678
 5170TIP3    H215475   4.544   2.193   0.593 -0.7641 -1.3637  0.7966
 5171TIP3   OH215476   4.237   0.435   4.362  0.3549 -0.5598 -0.3818
 5171TIP3    H115477   4.316   0.483   4.335  1.3238 -0.3663  2.3606
 5171TIP3    H215478   4.196   0.492   4.427  0.2242 -2.3835  1.2303
 5172TIP3   OH215479   5.272   5.770   4.486 -0.3157  0.5925  0.0754
 5172TIP3    H115480   5.366   5.757   4.497 -0.2140 -0.3217 -1.5375
 5172TIP3    H215481   5.259   5.864   4.497  0.6107  0.5846  1.3730
 5173TIP3   OH215482   0.809   5.002   2.125  0.0471 -0.8783  0.0699
 5173TIP3    H115483   0.792   5.075   2.185 -0.6333 -1.5312  0.6942
 5173TIP3    H215484   0.824   4.927   2.182  3.7163 -0.6953 -0.4733
 5174TIP3   OH215485   5.720   1.657   3.952  0.0229  0.3019 -0.5865
 5174TIP3    H115486   5.788   1.681   4.015  0.5994 -0.1011 -1.0380
 5174TIP3    H215487   5.723   1.561   3.949  0.7653  0.3352 -2.0023
 5175TIP3   OH215488   0.871   4.091   3.931 -0.1697 -0.3381 -0.4455
 5175TIP3    H115489   0.884   4.036   3.854 -2.4867 -3.7489  1.3360
 5175TIP3    H215490   0.952   4.082   3.982 -0.2011 -1.4617 -0.5817
 5176TIP3   OH215491   1.302   3.936   1.483  0.6854 -0.1312  0.0020
 5176TIP3    H115492   1.270   3.996   1.416 -0.5429  0.2423  0.8811
 5176TIP3    H215493   1.377   3.980   1.522 -0.3861  0.9933  0.8431
 5177TIP3   OH215494   0.969   3.204   1.016 -0.0655 -0.6425 -0.6971
 5177TIP3    H115495   1.030   3.266   0.976  0.1723  0.2362  0.9333
 5177TIP3    H215496   0.894   3.203   0.957  0.9949 -0.8530 -2.1283
 5178TIP3   OH215497   2.684   0.940   1.124  0.4234 -0.3221  0.2031
 5178TIP3    H115498   2.743   0.933   1.199  1.5203 -1.4959 -0.7343
 5178TIP3    H215499   2.659   0.849   1.105  1.7259 -0.2739 -2.0451
 5179TIP3   OH215500   0.764   5.010   2.531 -0.2776 -0.4638 -0.1240
 5179TIP3    H115501   0.720   5.050   2.456 -1.4166 -2.2648 -0.4677
 5179TIP3    H215502   0.858   5.020   2.512 -0.5078  1.3023 -0.5447
 5180TIP3   OH215503   5.987   0.749   3.028  0.2578  0.1397  0.6274
 5180TIP3    H115504   6.080   0.730   3.035  0.1232 -1.5417 -1.2383
 5180TIP3    H215505   5.970   0.750   2.933 -1.6675  0.0632  0.9368
 5181TIP3   OH215506   6.438   2.461   1.287 -0.1466  0.0043  0.3869
 5181TIP3    H115507   6.354   2.442   1.243  0.6874 -1.1638 -0.8029
 5181TIP3    H215508   6.437   2.405   1.365  0.2002 -1.3291 -0.5181
 5182TIP3   OH215509   3.103   6.591   2.329  0.2191  0.4249 -0.2642
 5182TIP3    H115510   3.173   6.544   2.374 -0.9848 -0.5279  0.6758
 5182TIP3    H215511   3.075   6.531   2.259  0.2583  0.7565 -0.5675
 5183TIP3   OH215512   0.768   1.308   0.319  0.3235  0.2533  0.1855
 5183TIP3    H115513   0.672   1.312   0.312  0.1207 -0.2767  2.0347
 5183TIP3    H215514   0.784   1.228   0.369  1.8662 -0.6694 -1.6800
 5184TIP3   OH215515   4.936   0.575   0.706 -0.8092  0.1782  0.0117
 5184TIP3    H115516   4.998   0.579   0.778 -1.2727 -2.3665  0.6334
 5184TIP3    H215517   4.988   0.594   0.628  0.8119 -1.9233  0.5105
 5185TIP3   OH215518   5.602   4.332   2.694 -0.2128 -0.0932 -0.9495
 5185TIP3    H115519   5.533   4.270   2.667  0.4928 -1.3446 -0.0069
 5185TIP3    H215520   5.595   4.334   2.789  1.5846 -0.9167 -0.7652
 5186TIP3   OH215521   0.688   6.402   0.587 -0.2557  0.1184  0.3829
 5186TIP3    H115522   0.698   6.379   0.679 -0.0879  0.4712  0.4564
 5186TIP3    H215523   0.593   6.400   0.572 -0.2011 -1.7496  0.0785
 5187TIP3   OH215524   5.840   1.442   4.248  0.3823 -0.8667 -0.2465
 5187TIP3    H115525   5.764   1.447   4.190 -0.5639 -1.8227  0.8572
 5187TIP3    H215526   5.822   1.508   4.315  1.4625  0.2227 -0.9883
 5188TIP3   OH215527   2.400   3.904   5.263  0.1977  0.0421  0.2462
 5188TIP3    H115528   2.434   3.905   5.353 -0.1452 -2.5565  0.4947
 5188TIP3    H215529   2.443   3.978   5.221  2.1529 -0.0033  1.9540
 5189TIP3   OH215530   5.767   5.869   0.715  0.4424  0.4453 -0.1904
 5189TIP3    H115531   5.675   5.862   0.688  0.6737 -1.7610 -0.6071
 5189TIP3    H215532   5.816   5.871   0.633  0.7985  2.1585  0.0168
 5190TIP3   OH215533   5.870   3.063   4.403  0.2081  0.5266  0.1051
 5190TIP3    H115534   5.841   3.065   4.494  2.5307  0.9005  0.8909
 5190TIP3    H215535   5.830   2.983   4.367  0.2657 -0.3250  1.8247
 5191TIP3   OH215536   6.456   6.420   1.960 -0.0292  0.3331  0.0873
 5191TIP3    H115537   6.526   6.375   2.007 -1.6384 -0.6843  1.6396
 5191TIP3    H215538   6.431   6.493   2.017 -0.3271  0.6286 -0.4055
 5192TIP3   OH215539   6.694   6.060   2.745 -0.2561 -0.1187  0.3646
 5192TIP3    H115540   6.751   5.986   2.721 -0.3064 -0.2304  0.5911
 5192TIP3    H215541   6.711   6.126   2.677 -0.7548 -0.6250 -0.2741
 5193TIP3   OH215542   4.564   1.576   0.192  0.3939 -0.0380 -0.0691
 5193TIP3    H115543   4.491   1.555   0.134 -0.6519  1.7470  0.5084
 5193TIP3    H215544   4.548   1.523   0.270 -0.1991  0.2071 -0.0159
 5194TIP3   OH215545   2.901   5.394   5.800  0.2977 -0.4819 -0.2772
 5194TIP3    H115546   2.965   5.349   5.855 -1.0097 -3.2622 -0.8806
 5194TIP3    H215547   2.878   5.331   5.733 -1.4393  1.2372 -1.4089
 5195TIP3   OH215548   6.679   5.456   2.391 -0.0253 -0.8015  1.0620
 5195TIP3    H115549   6.675   5.410   2.474 -0.6723  0.8296  1.9763
 5195TIP3    H215550   6.659   5.547   2.412 -2.9624 -0.7422 -1.1796
 5196TIP3   OH215551   5.442   4.256   3.228 -0.0286  0.6728 -0.5899
 5196TIP3    H115552   5.519   4.299   3.266  0.9328 -0.1609 -1.5277
 5196TIP3    H215553   5.427   4.303   3.146 -0.3864  0.6853 -0.5171
 5197TIP3   OH215554   3.715   4.445   3.182  0.1518 -0.3390  0.2149
 5197TIP3    H115555   3.787   4.495   3.145 -0.9296  0.5364 -0.7678
 5197TIP3    H215556   3.694   4.490   3.264  0.3352 -0.2505  0.2131
 5198TIP3   OH215557   3.642   2.087   4.108 -0.1053 -0.0230  0.1467
 5198TIP3    H115558   3.557   2.045   4.092 -0.9624  1.9765 -1.0528
 5198TIP3    H215559   3.659   2.136   4.028  1.0147  1.5384  1.2823
 5199TIP3   OH215560   5.394   1.017   1.160 -0.1294  0.0168  0.2570
 5199TIP3    H115561   5.430   1.022   1.072 -0.0559  1.2169  0.3391
 5199TIP3    H215562   5.307   0.979   1.149  0.1695 -0.5364 -0.2390
 5200TIP3   OH215563   4.924   5.827   4.072  0.1332 -0.5326  0.1014
 5200TIP3    H115564   4.939   5.820   4.166  1.0398 -0.4124 -0.0210
 5200TIP3    H215565   5.011   5.842   4.035 -0.3135  0.2220 -0.6823
 5201TIP3   OH215566   0.153   1.127   1.371 -0.7067 -0.3457 -0.4292
 5201TIP3    H115567   0.218   1.107   1.438 -0.0230 -0.6259 -1.1599
 5201TIP3    H215568   0.202   1.174   1.303 -1.3358 -0.2719 -0.8429
 5202TIP3   OH215569   3.750   1.067   3.726 -0.1513 -0.6869 -0.0046
 5202TIP3    H115570   3.670   1.025   3.756 -0.9231  1.0763  0.5634
 5202TIP3    H215571   3.775   1.125   3.798  0.4931  0.2648 -0.9533
 5203TIP3   OH215572   4.953   0.688   4.790  0.3380 -0.2680  0.0378
 5203TIP3    H115573   4.953   0.612   4.731  1.1634  1.2032 -1.9486
 5203TIP3    H215574   4.868   0.730   4.775  0.3018 -0.2285  0.3543
 5204TIP3   OH215575   1.652   6.302   4.651 -0.7184 -0.0831  0.3354
 5204TIP3    H115576   1.701   6.301   4.734 -0.1407  0.3492  0.0033
 5204TIP3    H215577   1.651   6.393   4.624  2.1830 -0.5774 -1.9153
 5205TIP3   OH215578   4.926   1.459   1.282 -0.4087  0.2786 -0.0932
 5205TIP3    H115579   5.009   1.492   1.249  0.9266 -1.0212  1.7373
 5205TIP3    H215580   4.866   1.464   1.208  0.7929  2.8996 -0.9708
 5206TIP3   OH215581   1.358   2.718   2.926 -0.1290 -0.0934 -0.7629
 5206TIP3    H115582   1.286   2.658   2.939  0.7760 -1.5244 -1.9756
 5206TIP3    H215583   1.389   2.700   2.837  1.5614  0.6397 -0.3720
 5207TIP3   OH215584   5.192   2.269   1.231 -0.0820 -0.1380 -0.0519
 5207TIP3    H115585   5.121   2.233   1.178  0.7392  0.0675 -1.3275
 5207TIP3    H215586   5.269   2.263   1.175  0.6612  0.8331  0.8310
 5208TIP3   OH215587   4.379   2.974   0.644 -0.2375  0.3690 -0.0768
 5208TIP3    H115588   4.394   2.960   0.737  0.4375 -0.9129 -0.3581
 5208TIP3    H215589   4.466   2.994   0.609 -0.2036 -0.8103 -0.6989
 5209TIP3   OH215590   2.556   6.312   5.040  0.5092  0.2419  0.3861
 5209TIP3    H115591   2.564   6.250   4.967  2.2236 -2.3456  2.5868
 5209TIP3    H215592   2.466   6.344   5.034  0.0575 -1.1990 -1.8241
 5210TIP3   OH215593   6.653   6.121   4.879  0.3974  1.0483  0.0371
 5210TIP3    H115594   6.718   6.150   4.943  0.2002  3.2380 -0.6629
 5210TIP3    H215595   6.691   6.042   4.840  1.5466  0.9559  1.2786
 5211TIP3   OH215596   4.575   3.403   3.028 -0.3172 -0.3815  0.3605
 5211TIP3    H115597   4.557   3.453   3.108  0.1366  1.1073 -0.4313
 5211TIP3    H215598   4.669   3.389   3.028 -0.1286  0.7202 -0.4968
 5212TIP3   OH215599   4.939   4.924   5.706 -0.6088 -0.5688  0.3027
 5212TIP3    H115600   4.863   4.937   5.649  1.6169  0.0726 -2.7635
 5212TIP3    H215601   4.950   5.008   5.751 -0.2367  0.2353 -1.2362
 5213TIP3   OH215602   5.189   5.161   5.124 -0.2859 -0.3518  0.4440
 5213TIP3    H115603   5.192   5.082   5.178  0.7167 -2.0802 -1.9929
 5213TIP3    H215604   5.280   5.191   5.119 -0.2766 -0.5398 -0.7050
 5214TIP3   OH215605   2.724   2.057   0.958  0.3799 -0.1838 -0.3195
 5214TIP3    H115606   2.766   2.012   0.885 -0.8306 -0.2654 -1.0015
 5214TIP3    H215607   2.639   2.015   0.966 -0.6771  1.7307 -0.7834
 5215TIP3   OH215608   3.974   0.899   1.757  0.0549  0.1437 -0.0574
 5215TIP3    H115609   4.060   0.886   1.716 -0.5676 -2.2370 -0.8298
 5215TIP3    H215610   3.954   0.813   1.795 -2.2547  0.4254 -0.5143
 5216TIP3   OH215611   2.290   1.752   3.399 -0.3737  0.3593  0.1869
 5216TIP3    H115612   2.296   1.745   3.495  0.1480 -1.3261  0.0654
 5216TIP3    H215613   2.380   1.738   3.369 -0.7503 -0.4463 -0.6004
 5217TIP3   OH215614   1.617   6.806   2.517  0.3896 -0.5461  0.5000
 5217TIP3    H115615   1.613   6.754   2.436  0.1948 -0.3081  0.3579
 5217TIP3    H215616   1.709   6.800   2.544  1.0849  1.5332 -1.1718
 5218TIP3   OH215617   2.382   2.150   2.901  0.0464  0.1792  0.0340
 5218TIP3    H115618   2.467   2.140   2.860  1.6533 -0.2299  3.1640
 5218TIP3    H215619   2.356   2.240   2.880  1.0242  0.1680 -1.3267
 5219TIP3   OH215620   0.414   4.130   5.143  0.0008  0.2079 -0.3234
 5219TIP3    H115621   0.337   4.184   5.124 -0.0404  0.3104  0.1356
 5219TIP3    H215622   0.488   4.190   5.134 -0.1804  1.0044  2.5485
 5220TIP3   OH215623   1.570   2.160   5.212  0.0150 -0.1101 -0.3269
 5220TIP3    H115624   1.587   2.066   5.213  0.8026  0.0227 -0.6269
 5220TIP3    H215625   1.505   2.173   5.281 -1.3316 -1.0895 -1.3417
 5221TIP3   OH215626   5.828   0.968   4.147  0.6361 -0.1106 -0.1191
 5221TIP3    H115627   5.806   0.878   4.172  1.6104 -0.7780 -1.4894
 5221TIP3    H215628   5.813   1.020   4.226 -3.0409 -0.8999 -0.1430
 5222TIP3   OH215629   0.121   1.781   5.229  0.0896  0.3253 -0.1094
 5222TIP3    H115630   0.168   1.856   5.192  3.0609 -1.6039 -0.5210
 5222TIP3    H215631   0.053   1.821   5.283  0.6071  3.2917 -1.4429
 5223TIP3   OH215632   0.997   5.357   2.923  0.1814  0.1547  0.2085
 5223TIP3    H115633   0.980   5.295   2.994 -2.5041  1.8163  1.1890
 5223TIP3    H215634   1.063   5.417   2.960  1.9886 -1.3906 -0.3596
 5224TIP3   OH215635   3.615   1.642   0.430  0.4740  0.2423 -0.1405
 5224TIP3    H115636   3.682   1.698   0.390 -0.6212  0.7287 -1.3852
 5224TIP3    H215637   3.652   1.554   0.427  0.2933  0.1503 -2.7650
 5225TIP3   OH215638   0.585   1.802   3.540  0.0477  0.0930  0.2714
 5225TIP3    H115639   0.521   1.868   3.513 -0.5371 -1.2447 -1.8754
 5225TIP3    H215640   0.550   1.767   3.621  0.1117  2.0179  1.1860
 5226TIP3   OH215641   1.735   2.560   0.762 -0.8978  0.0573  0.6482
 5226TIP3    H115642   1.691   2.536   0.843 -3.5797 -1.4525 -1.1208
 5226TIP3    H215643   1.682   2.631   0.725  0.7367  1.2810  0.5309
 5227TIP3   OH215644   3.278   5.954   4.365  0.0313 -0.3692  0.1521
 5227TIP3    H115645   3.322   5.869   4.372  0.3424 -0.3106 -0.9246
 5227TIP3    H215646   3.333   6.013   4.417 -1.1669 -1.1384  2.4609
 5228TIP3   OH215647   7.086   0.187   1.513  0.9959 -0.3655 -0.8480
 5228TIP3    H115648   7.162   0.225   1.468  1.5218  0.8631  0.9829
 5228TIP3    H215649   7.095   0.215   1.604 -0.5130 -2.0192 -0.1362
 5229TIP3   OH215650   2.953   5.027   2.467  0.5030  0.0187  0.0383
 5229TIP3    H115651   2.857   5.033   2.465  0.4870 -0.3625 -0.5533
 5229TIP3    H215652   2.975   5.026   2.560 -0.1569 -1.2139  0.1904
 5230TIP3   OH215653   5.084   5.002   2.414  0.2054  0.0095 -0.1260
 5230TIP3    H115654   5.094   4.975   2.322 -1.3596  0.1996 -0.3771
 5230TIP3    H215655   5.093   5.097   2.413 -2.0725  0.2871 -0.4921
 5231TIP3   OH215656   7.037   5.081   2.963 -0.1270 -0.2742  0.4894
 5231TIP3    H115657   7.061   5.152   2.904 -0.4333  0.1142  0.8259
 5231TIP3    H215658   7.112   5.070   3.020 -0.1154 -0.1642  0.4944
 5232TIP3   OH215659   3.516   1.330   1.043 -0.5574  0.6214  0.1689
 5232TIP3    H115660   3.545   1.295   0.958 -1.6111 -1.0933  0.4715
 5232TIP3    H215661   3.596   1.335   1.095  0.2436  2.4558 -1.1280
 5233TIP3   OH215662   0.412   2.313   4.478 -0.2574 -1.0571  0.5310
 5233TIP3    H115663   0.414   2.307   4.574  1.4039  1.7970  0.7962
 5233TIP3    H215664   0.327   2.351   4.458  0.5929  1.3890  1.2434
 5234TIP3   OH215665   0.271   1.002   1.015  0.2542 -0.7851  0.0237
 5234TIP3    H115666   0.330   1.008   1.090 -0.5610 -1.2988  0.7210
 5234TIP3    H215667   0.238   0.912   1.017  2.1297 -1.6457 -2.4488
 5235TIP3   OH215668   3.407   4.248   5.079 -0.0483 -0.3145 -0.5695
 5235TIP3    H115669   3.376   4.309   5.011  1.4471  0.6102 -0.4776
 5235TIP3    H215670   3.389   4.293   5.161  1.5820  0.3181 -0.5198
 5236TIP3   OH215671   5.921   3.433   1.808  0.2541 -0.4638  0.5850
 5236TIP3    H115672   5.916   3.346   1.848  0.0220 -1.7382 -2.0265
 5236TIP3    H215673   5.830   3.454   1.786  0.3938  0.1168  0.5496
 5237TIP3   OH215674   3.491   4.687   2.701  0.0843  0.7321 -0.0660
 5237TIP3    H115675   3.543   4.615   2.737 -0.3848  0.2774 -0.2888
 5237TIP3    H215676   3.546   4.724   2.632 -0.4042 -0.6093 -1.2356
 5238TIP3   OH215677   4.266   2.036   2.252  0.6040  0.2768 -0.0926
 5238TIP3    H115678   4.291   1.952   2.215  0.3129 -0.2665  0.9238
 5238TIP3    H215679   4.347   2.087   2.253  1.6201 -1.2398  2.5856
 5239TIP3   OH215680   2.835   6.498   0.799 -0.2861  0.6141  0.1205
 5239TIP3    H115681   2.796   6.418   0.835 -0.8071  1.3611  1.2481
 5239TIP3    H215682   2.922   6.470   0.770 -0.9104 -0.6408 -0.6816
 5240TIP3   OH215683   3.307   4.946   3.628 -0.0228 -0.0438  0.4395
 5240TIP3    H115684   3.289   5.013   3.694  2.1003  0.0290  1.0194
 5240TIP3    H215685   3.274   4.865   3.667  1.0006  0.0364  1.5239
 5241TIP3   OH215686   3.556   0.635   1.891 -0.3362  0.5188 -0.1373
 5241TIP3    H115687   3.530   0.726   1.876 -1.4119  0.4641  1.2061
 5241TIP3    H215688   3.500   0.584   1.832  0.9034  0.7426 -1.5724
 5242TIP3   OH215689   5.384   4.900   4.873  0.2634 -0.1511 -0.1446
 5242TIP3    H115690   5.342   4.975   4.831 -2.1672 -0.7403  1.0471
 5242TIP3    H215691   5.369   4.913   4.966 -2.2678 -3.1055  0.0329
 5243TIP3   OH215692   0.375   6.324   4.128 -0.2051 -0.0394  0.0391
 5243TIP3    H115693   0.344   6.261   4.193  0.2831  0.1681  0.4839
 5243TIP3    H215694   0.396   6.271   4.051  1.4256 -0.6119  0.8379
 5244TIP3   OH215695   5.627   6.271   1.523 -0.6151  0.5257  0.8050
 5244TIP3    H115696   5.587   6.223   1.595 -1.2061 -1.5717 -0.8095
 5244TIP3    H215697   5.716   6.237   1.518 -0.2050  1.5137  1.2571
 5245TIP3   OH215698   0.681   1.578   4.088 -0.1932 -0.9908 -0.1903
 5245TIP3    H115699   0.605   1.630   4.062  0.3971  0.0554  0.1281
 5245TIP3    H215700   0.644   1.492   4.111 -1.3476 -0.3547  0.4371
 5246TIP3   OH215701   6.773   6.077   3.008  0.1139  0.2388 -0.5010
 5246TIP3    H115702   6.760   6.143   3.076  2.8167  0.1368  0.2185
 5246TIP3    H215703   6.765   6.125   2.926  2.5345  1.6442  0.0108
 5247TIP3   OH215704   2.943   6.478   4.998 -1.2246 -0.5688  0.1176
 5247TIP3    H115705   2.935   6.450   4.907 -0.2163 -2.5149  0.5679
 5247TIP3    H215706   3.037   6.486   5.013 -1.3966  0.3327  0.8506
 5248TIP3   OH215707   5.514   0.690   4.457 -0.2761 -0.9332 -0.2339
 5248TIP3    H115708   5.531   0.774   4.500 -2.1866 -0.2652 -0.6809
 5248TIP3    H215709   5.558   0.625   4.512  0.1118  0.2274  0.8608
 5249TIP3   OH215710   4.253   2.833   4.585 -0.1771 -0.4252 -0.2076
 5249TIP3    H115711   4.324   2.770   4.599  0.1538 -0.2796 -1.1581
 5249TIP3    H215712   4.177   2.780   4.562  0.2850 -0.4682 -1.7463
 5250TIP3   OH215713   1.941   4.089   4.835 -0.4660 -0.5316  0.5208
 5250TIP3    H115714   1.912   3.998   4.840 -0.0050 -0.6373  1.4932
 5250TIP3    H215715   1.981   4.106   4.920  1.2910 -0.0530 -0.3471
 5251TIP3   OH215716   3.702   5.292   3.907 -1.1669  0.5416  0.1854
 5251TIP3    H115717   3.663   5.378   3.922  0.3065  1.1324  0.8137
 5251TIP3    H215718   3.633   5.230   3.932 -0.6594  1.4836  4.7862
 5252TIP3   OH215719   5.405   1.204   4.340  0.4127 -0.3089 -0.2216
 5252TIP3    H115720   5.450   1.260   4.403 -0.7983 -0.1824  0.5657
 5252TIP3    H215721   5.397   1.120   4.383  0.3775 -0.4864 -0.5662
 5253TIP3   OH215722   6.826   1.558   1.654 -0.5329  0.3686  0.6284
 5253TIP3    H115723   6.892   1.503   1.611 -0.8986 -1.4197  2.2411
 5253TIP3    H215724   6.746   1.542   1.605 -0.2151  1.0444 -0.1362
 5254TIP3   OH215725   0.909   0.643   5.466 -0.2935  0.0010 -0.0323
 5254TIP3    H115726   0.850   0.574   5.434 -0.9155  0.3028  0.4437
 5254TIP3    H215727   0.867   0.725   5.441 -0.7153  0.2444  1.3779
 5255TIP3   OH215728   0.783   2.587   4.419 -0.0206 -0.1664 -0.3796
 5255TIP3    H115729   0.749   2.500   4.398 -0.3714 -0.3663  0.9233
 5255TIP3    H215730   0.705   2.644   4.419 -0.2937 -0.4532  1.7134
 5256TIP3   OH215731   3.436   5.350   3.226 -0.1463 -0.1743 -0.5972
 5256TIP3    H115732   3.421   5.345   3.132 -1.2190  0.4536 -0.4728
 5256TIP3    H215733   3.464   5.440   3.241  2.8534 -0.9904 -0.6562
 5257TIP3   OH215734   3.009   6.740   0.847 -0.0101 -0.2308 -0.3967
 5257TIP3    H115735   2.953   6.683   0.795  0.5346 -0.0259 -1.2190
 5257TIP3    H215736   3.066   6.680   0.896  0.9692 -0.4151 -1.7103
 5258TIP3   OH215737   3.476   3.754   3.156  0.0777  0.2022  0.4739
 5258TIP3    H115738   3.428   3.703   3.221  0.7375 -0.6688  0.2993
 5258TIP3    H215739   3.454   3.712   3.072 -0.7734  1.3194  0.1190
 5259TIP3   OH215740   6.307   3.823   5.394 -0.1032  0.7549  0.7287
 5259TIP3    H115741   6.262   3.899   5.357  1.6419  0.9999 -1.0611
 5259TIP3    H215742   6.241   3.754   5.394 -1.5952  2.1048  1.9634
 5260TIP3   OH215743   0.126   4.972   3.745 -0.4389  0.0784  0.2781
 5260TIP3    H115744   0.085   4.920   3.814 -0.9902  1.5342  1.0754
 5260TIP3    H215745   0.059   5.035   3.718  0.0842  0.1412 -0.9392
 5261TIP3   OH215746   0.310   6.157   0.932 -0.0309 -0.0808  0.0130
 5261TIP3    H115747   0.367   6.131   1.004  0.5201  1.0979  0.0276
 5261TIP3    H215748   0.223   6.166   0.972  0.1858  0.1356  0.4507
 5262TIP3   OH215749   1.550   4.916   0.755  0.3843  0.0226 -0.8845
 5262TIP3    H115750   1.574   4.993   0.807 -0.1229 -0.3113 -0.1446
 5262TIP3    H215751   1.603   4.845   0.791  0.8692  0.0216 -1.5843
 5263TIP3   OH215752   1.187   3.816   0.953  0.1889 -0.0965 -0.2283
 5263TIP3    H115753   1.097   3.788   0.969 -0.7348  2.3420 -0.6818
 5263TIP3    H215754   1.217   3.852   1.036  0.1308  0.5826 -0.4914
 5264TIP3   OH215755   0.101   6.358   4.319  0.7747  0.2898  0.1038
 5264TIP3    H115756   0.193   6.383   4.310  0.6404  0.7185 -0.1510
 5264TIP3    H215757   0.079   6.380   4.410  0.7852  0.6714  0.0148
 5265TIP3   OH215758   5.849   3.194   3.612  0.3426 -0.3660 -0.6491
 5265TIP3    H115759   5.840   3.121   3.551  0.3069 -0.6255 -0.3368
 5265TIP3    H215760   5.854   3.153   3.698  0.4091 -0.0040 -0.4773
 5266TIP3   OH215761   0.741   6.650   4.019 -0.8742  0.1941 -0.0689
 5266TIP3    H115762   0.691   6.596   4.079  0.1041 -2.2475 -1.2917
 5266TIP3    H215763   0.832   6.621   4.030 -0.1775  2.0727 -0.3450
 5267TIP3   OH215764   2.950   0.219   0.994  0.3292 -0.2958 -0.6135
 5267TIP3    H115765   2.928   0.202   1.085 -0.9766  0.2719 -0.8116
 5267TIP3    H215766   2.990   0.137   0.964  0.9708 -0.4214  0.5016
 5268TIP3   OH215767   2.191   3.429   4.201 -0.7989 -0.4752  0.0970
 5268TIP3    H115768   2.203   3.334   4.206 -2.4186 -0.9506 -3.0158
 5268TIP3    H215769   2.097   3.442   4.191 -0.7711  1.6184  1.7123
 5269TIP3   OH215770   3.014   6.321   4.397  0.8225 -0.0826 -0.6060
 5269TIP3    H115771   3.046   6.246   4.347 -2.0684 -1.8792  0.0096
 5269TIP3    H215772   2.941   6.287   4.447 -0.3343  3.0832  0.0941
 5270TIP3   OH215773   3.648   2.302   5.709 -0.8512 -0.3338 -0.0054
 5270TIP3    H115774   3.567   2.301   5.658 -1.3394  1.9617  0.6474
 5270TIP3    H215775   3.659   2.393   5.737  1.7199 -0.6640  0.3265
 5271TIP3   OH215776   5.797   1.391   3.788  0.2029  0.2458 -0.0368
 5271TIP3    H115777   5.881   1.433   3.770 -0.0974  1.7077  1.6411
 5271TIP3    H215778   5.819   1.322   3.851  0.3342 -0.3726 -0.7515
 5272TIP3   OH215779   0.130   1.017   3.257 -0.1363  0.3617 -0.0632
 5272TIP3    H115780   0.123   1.082   3.327 -0.6123 -0.0481  0.2812
 5272TIP3    H215781   0.047   1.024   3.209  0.1221  0.5296 -0.4901
 5273TIP3   OH215782   4.378   1.652   3.305 -0.3308 -0.0657 -0.2707
 5273TIP3    H115783   4.387   1.572   3.357 -1.0715 -0.7550 -1.1736
 5273TIP3    H215784   4.313   1.630   3.239  1.6189  0.3095 -2.4130
 5274TIP3   OH215785   0.141   0.647   0.458  0.4395 -0.4033  0.0500
 5274TIP3    H115786   0.049   0.647   0.432  0.8599 -0.0454 -1.5498
 5274TIP3    H215787   0.165   0.555   0.465 -0.0160 -0.4966  0.3897
 5275TIP3   OH215788   6.022   4.628   0.365  0.0822 -0.0750 -0.2527
 5275TIP3    H115789   6.081   4.600   0.435  2.2870  0.5858 -1.7505
 5275TIP3    H215790   6.060   4.710   0.333 -1.7158  0.4105 -1.2404
 5276TIP3   OH215791   3.342   6.575   2.594 -0.0092  0.2557 -0.3056
 5276TIP3    H115792   3.385   6.631   2.659 -0.5363 -0.2914  0.5187
 5276TIP3    H215793   3.255   6.612   2.583 -0.1436 -0.0284 -0.2187
 5277TIP3   OH215794   1.236   6.631   5.312 -0.9796  0.9394 -0.0012
 5277TIP3    H115795   1.243   6.721   5.280  0.7007  0.7008 -0.4187
 5277TIP3    H215796   1.319   6.590   5.286 -1.3671 -0.4944  0.9068
 5278TIP3   OH215797   4.342   4.855   5.366 -0.2678  0.4181  0.2989
 5278TIP3    H115798   4.312   4.766   5.345 -0.1053 -0.0357  1.8187
 5278TIP3    H215799   4.381   4.847   5.453 -0.2096  1.9820  0.4497
 5279TIP3   OH215800   5.918   1.260   0.893  0.2244  0.3802  0.3669
 5279TIP3    H115801   5.865   1.215   0.827  1.4666 -1.1068  0.3224
 5279TIP3    H215802   5.945   1.191   0.953 -0.1449  1.5714  1.9554
 5280TIP3   OH215803   0.495   1.951   5.244 -0.1266  0.0950 -0.2140
 5280TIP3    H115804   0.584   1.977   5.223 -1.2784  2.8643 -2.1735
 5280TIP3    H215805   0.466   1.899   5.168  0.3381 -2.5765  1.2845
 5281TIP3   OH215806   7.117   4.392   5.701  0.3170 -0.1120 -0.0371
 5281TIP3    H115807   7.207   4.363   5.714  0.3541  0.3150  0.6943
 5281TIP3    H215808   7.125   4.482   5.672  0.1016  0.2387  0.9668
 5282TIP3   OH215809   1.036   4.245   0.833  0.3228 -0.1362 -0.0314
 5282TIP3    H115810   1.109   4.183   0.833  0.4416  0.0023  0.3907
 5282TIP3    H215811   0.958   4.191   0.848  0.2452 -0.3876 -1.2741
 5283TIP3   OH215812   4.832   1.644   5.341  0.7972  0.7754 -0.5666
 5283TIP3    H115813   4.866   1.600   5.419  0.6808  1.5444 -0.0571
 5283TIP3    H215814   4.823   1.736   5.368  0.2416  0.9572 -1.3193
 5284TIP3   OH215815   3.498   3.959   0.589 -0.5536  0.4633 -0.2987
 5284TIP3    H115816   3.508   4.021   0.517  0.1293  0.2907 -0.3620
 5284TIP3    H215817   3.405   3.963   0.611 -0.0436  4.0817  2.0170
 5285TIP3   OH215818   4.227   2.559   3.040  0.3114 -0.5242 -0.3016
 5285TIP3    H115819   4.314   2.523   3.055  0.0820 -0.4682  1.3416
 5285TIP3    H215820   4.240   2.630   2.977  1.9208  1.2623  1.9006
 5286TIP3   OH215821   2.661   0.749   4.460  0.0553 -0.1209 -0.2326
 5286TIP3    H115822   2.600   0.689   4.503 -0.1180  0.4739  0.3632
 5286TIP3    H215823   2.707   0.792   4.531  2.3834 -1.7402 -0.6764
 5287TIP3   OH215824   4.964   3.776   1.117 -0.9230  0.3645 -0.1493
 5287TIP3    H115825   4.962   3.843   1.186  1.3129 -0.5990  0.9399
 5287TIP3    H215826   5.003   3.821   1.042  2.5548 -0.0888  1.1993
 5288TIP3   OH215827   0.531   4.823   0.364  0.0543 -0.3513 -0.3111
 5288TIP3    H115828   0.514   4.917   0.355  0.8195  0.0305  1.7178
 5288TIP3    H215829   0.625   4.817   0.380  0.0634 -1.5106 -0.6874
 5289TIP3   OH215830   0.074   0.591   5.656  0.1295 -0.0227 -0.1174
 5289TIP3    H115831   0.050   0.633   5.739  1.2913  0.6520 -0.1041
 5289TIP3    H215832  -0.010   0.563   5.619 -0.4544  0.1544  1.0232
 5290TIP3   OH215833   6.305   3.391   2.053 -0.4364  0.0576 -0.2905
 5290TIP3    H115834   6.269   3.399   1.965  0.4072 -2.6450 -0.9805
 5290TIP3    H215835   6.235   3.349   2.104 -0.7962  1.3039  0.2914
 5291TIP3   OH215836   4.877   5.994   5.463 -0.0322 -0.7719  0.0272
 5291TIP3    H115837   4.796   5.974   5.417 -0.4449  1.0424 -0.1203
 5291TIP3    H215838   4.903   5.912   5.505 -0.8158 -1.8924 -1.6222
 5292TIP3   OH215839   4.905   2.628   5.084  0.1437  0.0588 -0.2640
 5292TIP3    H115840   4.903   2.631   4.988 -0.2167 -2.3323 -0.3918
 5292TIP3    H215841   4.882   2.538   5.106  0.1330  0.5660  2.0988
 5293TIP3   OH215842   1.493   3.709   3.781  0.1780 -0.1824  0.4887
 5293TIP3    H115843   1.517   3.768   3.709 -2.3750 -1.7336 -1.8519
 5293TIP3    H215844   1.559   3.640   3.778  1.1250  0.6778  0.8915
 5294TIP3   OH215845   4.471   4.449   2.307  0.0576  0.2510 -0.0057
 5294TIP3    H115846   4.502   4.540   2.306 -1.4613  0.7842 -0.8573
 5294TIP3    H215847   4.376   4.456   2.316 -0.3528 -1.1409 -2.4479
 5295TIP3   OH215848   2.998   3.502   1.599 -0.4650  0.3440 -0.2295
 5295TIP3    H115849   2.977   3.426   1.652  0.2677  0.8917  0.8870
 5295TIP3    H215850   2.926   3.508   1.535 -2.1230  0.4430  1.5415
 5296TIP3   OH215851   2.922   6.245   4.017 -0.6473 -0.4679 -0.0747
 5296TIP3    H115852   2.831   6.253   4.046 -0.6887 -0.6578 -0.1486
 5296TIP3    H215853   2.943   6.152   4.031  0.2756  0.0073  2.1606
 5297TIP3   OH215854   3.185   3.278   2.960 -0.0213 -0.0968  0.5001
 5297TIP3    H115855   3.275   3.310   2.951 -0.4861  1.5701  1.4419
 5297TIP3    H215856   3.166   3.236   2.876  2.5029 -2.8806  1.1471
 5298TIP3   OH215857   6.137   4.281   3.669 -0.0178 -0.0426  0.0376
 5298TIP3    H115858   6.091   4.213   3.620 -0.9740  0.9059 -0.4452
 5298TIP3    H215859   6.087   4.291   3.750  1.0588 -1.0077  0.8531
 5299TIP3   OH215860   1.635   1.002   2.920 -0.5427 -0.1817  0.5230
 5299TIP3    H115861   1.619   0.941   2.992  0.0922 -0.6648  0.2613
 5299TIP3    H215862   1.723   1.035   2.935 -0.4540 -0.1912  0.0327
 5300TIP3   OH215863   3.984   2.065   0.900  0.0579 -0.1268 -0.1488
 5300TIP3    H115864   4.007   2.152   0.933  0.9124 -0.5680  0.4556
 5300TIP3    H215865   3.893   2.053   0.926  0.2419  0.1758  0.6709
 5301TIP3   OH215866   0.532   3.635   5.508 -0.5242 -0.0003  0.4134
 5301TIP3    H115867   0.441   3.621   5.482 -0.3938  1.9033 -1.4699
 5301TIP3    H215868   0.530   3.718   5.555  0.0812 -0.5911  1.4981
 5302TIP3   OH215869   1.359   3.695   4.253 -0.1836  0.0061 -0.3501
 5302TIP3    H115870   1.427   3.700   4.185 -0.2589 -1.9586 -0.6227
 5302TIP3    H215871   1.279   3.674   4.205 -0.0082 -2.6492  0.4141
 5303TIP3   OH215872   4.838   3.969   0.817  0.7776  0.2550 -0.2845
 5303TIP3    H115873   4.807   4.051   0.854  0.9223  0.1271  0.1377
 5303TIP3    H215874   4.923   3.954   0.860  0.0860 -0.8524  0.7991
 5304TIP3   OH215875   4.509   2.850   1.665  0.1407  0.4064 -0.0637
 5304TIP3    H115876   4.439   2.839   1.730  0.1569  0.7325  0.0066
 5304TIP3    H215877   4.484   2.927   1.615 -1.9493 -1.9673 -3.0486
 5305TIP3   OH215878   5.780   1.822   2.487 -0.0930  0.5771  0.3426
 5305TIP3    H115879   5.723   1.783   2.421  1.4713 -2.6823  0.7055
 5305TIP3    H215880   5.814   1.901   2.446  0.2614 -0.9339 -2.5302
 5306TIP3   OH215881   3.588   2.165   2.626  0.3020  0.5046  0.0314
 5306TIP3    H115882   3.658   2.143   2.565 -0.7692 -0.6310 -0.8484
 5306TIP3    H215883   3.590   2.094   2.691 -1.1422 -0.5728 -1.0259
 5307TIP3   OH215884   5.699   1.458   1.339  0.1821 -0.1276 -0.5997
 5307TIP3    H115885   5.625   1.435   1.395  0.8305 -1.5018 -0.2825
 5307TIP3    H215886   5.772   1.471   1.399  0.8613 -1.5151 -1.0734
 5308TIP3   OH215887   3.133   5.440   3.039  0.5253  0.1461  0.3281
 5308TIP3    H115888   3.130   5.352   3.000  0.3895  0.0968  0.4484
 5308TIP3    H215889   3.158   5.497   2.967 -2.3470  0.4597 -0.5379
 5309TIP3   OH215890   5.565   5.175   4.786  0.4490  0.2789  0.5309
 5309TIP3    H115891   5.622   5.107   4.820 -0.2937 -0.3182  0.6108
 5309TIP3    H215892   5.564   5.161   4.691 -0.3062 -0.3194  0.6158
 5310TIP3   OH215893   4.310   0.942   0.604 -0.2177 -0.2830 -0.4706
 5310TIP3    H115894   4.324   0.852   0.635 -1.7762  0.0987  1.6148
 5310TIP3    H215895   4.215   0.952   0.602 -0.2321  0.2903 -4.1221
 5311TIP3   OH215896   0.971   4.451   2.923 -0.5389  0.0140 -0.0392
 5311TIP3    H115897   0.999   4.382   2.983  2.8306  2.1231  1.1500
 5311TIP3    H215898   1.016   4.430   2.841 -1.3212 -0.3483 -0.3843
 5312TIP3   OH215899   2.442   4.953   3.028 -0.2020 -0.5720 -0.4930
 5312TIP3    H115900   2.494   4.978   2.952  0.0231  0.7974  0.0746
 5312TIP3    H215901   2.367   5.013   3.026 -0.7544 -1.2442 -0.2347
 5313TIP3   OH215902   4.116   3.213   3.796 -0.2794  0.0800 -0.6861
 5313TIP3    H115903   4.173   3.137   3.806  0.6005  0.8804  0.7244
 5313TIP3    H215904   4.169   3.287   3.824 -1.1575  1.2249 -1.9341
 5314TIP3   OH215905   5.735   5.376   0.623 -0.2755 -0.3021 -0.0995
 5314TIP3    H115906   5.773   5.299   0.665 -1.6462 -1.2983 -0.6406
 5314TIP3    H215907   5.745   5.359   0.529  0.1758  0.5859 -0.2229
 5315TIP3   OH215908   3.546   3.290   1.346 -0.2109 -0.1356 -0.6017
 5315TIP3    H115909   3.566   3.289   1.253 -0.4340 -1.0508 -0.6534
 5315TIP3    H215910   3.469   3.346   1.354  0.7176  1.1996 -0.7530
 5316TIP3   OH215911   5.224   5.820   1.872  0.4304 -0.3302  0.2169
 5316TIP3    H115912   5.196   5.810   1.781  0.2163 -1.1502  0.3610
 5316TIP3    H215913   5.150   5.862   1.916  0.4900 -0.0352  0.0366
 5317TIP3   OH215914   4.556   3.418   5.857  0.6018 -0.5894 -0.0454
 5317TIP3    H115915   4.511   3.439   5.775  1.1328 -1.1659 -0.4942
 5317TIP3    H215916   4.541   3.324   5.869 -0.3128 -0.3205  1.0462
 5318TIP3   OH215917   4.041   0.530   0.265  0.3260 -0.4865 -0.3636
 5318TIP3    H115918   4.100   0.545   0.190 -0.8909 -2.4255 -1.8174
 5318TIP3    H215919   3.967   0.483   0.227  0.1166 -2.4556  2.2346
 5319TIP3   OH215920   0.032   4.741   2.271 -0.4541 -0.4375 -0.0729
 5319TIP3    H115921  -0.008   4.812   2.321 -2.7153 -1.4070 -0.3797
 5319TIP3    H215922   0.059   4.783   2.189  2.7596  1.0379  1.5384
 5320TIP3   OH215923   1.795   3.113   4.768 -0.4475 -0.0104  0.1090
 5320TIP3    H115924   1.869   3.136   4.712  1.2292 -1.5334  1.5793
 5320TIP3    H215925   1.797   3.179   4.837 -1.1739  0.5960 -0.4365
 5321TIP3   OH215926   4.502   3.707   4.889  0.2900 -0.3588  0.5249
 5321TIP3    H115927   4.511   3.612   4.900  0.2691 -0.2954  1.1162
 5321TIP3    H215928   4.408   3.723   4.891  0.3177 -0.2474  1.1450
 5322TIP3   OH215929   0.441   5.563   1.122 -0.8214  0.0962 -0.1738
 5322TIP3    H115930   0.452   5.618   1.199  2.3109  0.5076 -0.8038
 5322TIP3    H215931   0.511   5.499   1.127 -0.3177  0.3070 -2.7735
 5323TIP3   OH215932   2.361   3.807   2.268 -0.3542 -0.2798  0.8996
 5323TIP3    H115933   2.280   3.781   2.224 -1.0653  1.6303  0.9781
 5323TIP3    H215934   2.336   3.818   2.360  0.3903 -1.2131  1.2326
 5324TIP3   OH215935   3.861   5.881   4.019 -0.0766  0.4320  0.1453
 5324TIP3    H115936   3.801   5.955   4.025  1.6577  1.9976 -0.5115
 5324TIP3    H215937   3.948   5.921   4.018  1.1283 -1.8013  2.8069
 5325TIP3   OH215938   2.978   2.475   2.943 -0.0418  0.4347  0.5018
 5325TIP3    H115939   2.901   2.423   2.968  0.7329 -0.5282  0.9542
 5325TIP3    H215940   3.052   2.429   2.983  0.8415  1.0090 -0.4330
 5326TIP3   OH215941   4.998   6.446   1.516 -0.1446 -0.1763 -0.1993
 5326TIP3    H115942   5.050   6.492   1.582 -0.2619 -1.2235  0.6579
 5326TIP3    H215943   5.022   6.354   1.528 -3.6411 -1.0315  1.6332
 5327TIP3   OH215944   6.402   2.813   5.204  0.0233  0.0883 -0.3402
 5327TIP3    H115945   6.488   2.848   5.228 -0.0289 -0.4406  0.6660
 5327TIP3    H215946   6.417   2.766   5.122  0.6960  0.0085 -0.1780
 5328TIP3   OH215947   2.887   2.458   5.868 -0.6505  0.3349  0.3960
 5328TIP3    H115948   2.839   2.505   5.800  0.5022 -0.1298 -0.7925
 5328TIP3    H215949   2.903   2.523   5.937 -1.6522  0.8727  0.1271
 5329TIP3   OH215950   4.173   5.021   5.709  0.0890 -0.2611  0.2426
 5329TIP3    H115951   4.127   5.103   5.729  1.7254  0.6766  0.2881
 5329TIP3    H215952   4.108   4.969   5.662 -0.6250  1.5661 -0.8978
 5330TIP3   OH215953   3.198   6.447   5.322 -0.7547  0.1897 -0.5236
 5330TIP3    H115954   3.191   6.476   5.231 -1.7060 -0.0980 -0.5558
 5330TIP3    H215955   3.111   6.412   5.342 -1.3951  2.5593  1.3029
 5331TIP3   OH215956   3.716   3.378   0.019  0.2964  0.6899  0.0594
 5331TIP3    H115957   3.649   3.402   0.082 -0.5242 -0.6240 -0.2845
 5331TIP3    H215958   3.776   3.453   0.019 -0.6593  1.4946  1.0388
 5332TIP3   OH215959   1.952   5.682   3.385 -0.5157  0.7335  0.4055
 5332TIP3    H115960   1.954   5.708   3.293 -0.9310 -0.6444 -0.0282
 5332TIP3    H215961   1.863   5.702   3.414 -0.4288  1.0361  0.4571
 5333TIP3   OH215962   3.367   5.955   1.276 -0.0387  0.2813 -0.2559
 5333TIP3    H115963   3.369   5.861   1.257 -1.0384 -0.1532  1.5712
 5333TIP3    H215964   3.452   5.987   1.245  1.1432 -1.5937  0.8523
 5334TIP3   OH215965   0.301   6.629   0.433  0.2110 -0.2158  0.0477
 5334TIP3    H115966   0.208   6.634   0.456  0.3186  1.7699  0.2257
 5334TIP3    H215967   0.314   6.702   0.372  1.5171 -0.9020 -0.5255
 5335TIP3   OH215968   2.517   3.666   4.905  0.9329  0.2494 -0.0189
 5335TIP3    H115969   2.519   3.660   5.001 -0.0423 -0.4728 -0.0344
 5335TIP3    H215970   2.608   3.649   4.879  0.7852 -1.8319  0.6731
 5336TIP3   OH215971   2.629   5.567   4.139 -0.4982  0.0849 -0.3811
 5336TIP3    H115972   2.550   5.573   4.084 -0.9343 -0.5953  0.1454
 5336TIP3    H215973   2.655   5.657   4.155 -0.3367  0.3027 -1.7365
 5337TIP3   OH215974   6.531   6.227   3.260  0.3301 -0.7479 -0.4422
 5337TIP3    H115975   6.450   6.261   3.297  0.6000  0.9379 -1.2822
 5337TIP3    H215976   6.504   6.175   3.184  0.0559  1.6281 -2.0810
 5338TIP3   OH215977   0.926   5.782   4.028 -0.1279  0.0473 -0.5244
 5338TIP3    H115978   0.985   5.711   4.054  0.9584  0.2763 -2.2599
 5338TIP3    H215979   0.838   5.746   4.043  0.3657 -0.1704  2.4429
 5339TIP3   OH215980   4.122   4.022   3.354 -0.5067  0.3554 -0.1873
 5339TIP3    H115981   4.194   3.962   3.334 -0.8893  0.9450 -4.0351
 5339TIP3    H215982   4.045   3.965   3.364 -0.2140 -0.0019  0.0944
 5340TIP3   OH215983   1.324   5.172   4.274  0.3736  0.0148 -0.0407
 5340TIP3    H115984   1.330   5.080   4.249  1.8021  0.3760 -1.2173
 5340TIP3    H215985   1.242   5.203   4.236  0.5336 -0.4722 -0.8017
 5341TIP3   OH215986   2.450   3.791   0.393 -0.1815  0.0657 -0.0490
 5341TIP3    H115987   2.527   3.827   0.350  1.3020 -2.3231  0.3999
 5341TIP3    H215988   2.419   3.723   0.333 -1.2281  0.2043  0.3162
 5342TIP3   OH215989   5.899   3.340   1.413  0.3612 -0.9810 -0.3851
 5342TIP3    H115990   5.860   3.420   1.448  1.4755 -0.7112  0.2770
 5342TIP3    H215991   5.824   3.286   1.388 -0.4626 -0.6367  1.2031
 5343TIP3   OH215992   3.030   4.496   2.682 -0.4108  0.3682 -0.7464
 5343TIP3    H115993   3.066   4.407   2.680 -0.0842  0.5185 -1.8487
 5343TIP3    H215994   3.096   4.546   2.731 -0.1405  0.1999 -0.9338
 5344TIP3   OH215995   1.091   3.163   2.841  0.0639  0.0494  0.6754
 5344TIP3    H115996   1.051   3.246   2.867  1.6564  1.0841 -0.0348
 5344TIP3    H215997   1.076   3.158   2.746  0.6469 -0.0854  0.5868
 5345TIP3   OH215998   4.857   0.999   5.386  0.9744 -0.2976 -0.3672
 5345TIP3    H115999   4.828   0.927   5.330  1.4495  0.6132 -1.8545
 5345TIP3    H216000   4.952   1.002   5.374  1.4969 -1.7553  2.6229
 5346TIP3   OH216001   3.845   3.984   4.333 -0.5478  0.1892  1.0202
 5346TIP3    H116002   3.858   4.041   4.257  4.4128 -2.6013 -0.7275
 5346TIP3    H216003   3.796   3.910   4.298  0.0382 -0.2056  1.0164
 5347TIP3   OH216004   4.449   3.201   0.955 -0.1587 -0.0252 -0.1358
 5347TIP3    H116005   4.512   3.247   0.899  0.0984  1.5465  1.3388
 5347TIP3    H216006   4.431   3.263   1.025 -1.2643 -1.5190  0.9593
 5348TIP3   OH216007   2.684   1.223   0.623 -0.5427  0.0338 -0.6089
 5348TIP3    H116008   2.627   1.153   0.654  0.2070  0.0651  0.9552
 5348TIP3    H216009   2.764   1.178   0.595  0.3458  0.2522  1.3481
 5349TIP3   OH216010   2.063   4.579   0.428 -0.3424  0.0707 -0.1158
 5349TIP3    H116011   2.050   4.656   0.372  0.8354  1.2294  1.1174
 5349TIP3    H216012   2.150   4.546   0.404 -0.2823 -0.0655  0.2807
 5350TIP3   OH216013   1.668   3.575   3.291  0.0799  0.0493 -0.0968
 5350TIP3    H116014   1.681   3.502   3.231 -0.7501  0.4483 -0.7826
 5350TIP3    H216015   1.574   3.575   3.310  0.3137 -0.0554  1.2058
 5351TIP3   OH216016   3.472   3.967   0.866 -0.6318 -0.0792 -0.4408
 5351TIP3    H116017   3.536   4.038   0.876 -0.4724 -0.3046  0.1954
 5351TIP3    H216018   3.464   3.955   0.772  1.3546 -1.0341 -0.5225
 5352TIP3   OH216019   6.228   1.367   4.509 -0.6327 -0.1784 -0.2391
 5352TIP3    H116020   6.302   1.414   4.548 -0.1378 -1.6438  0.7077
 5352TIP3    H216021   6.151   1.399   4.556 -0.3270 -0.1802  0.2739
 5353TIP3   OH216022   2.803   4.862   2.853 -0.3955 -0.0779  0.4082
 5353TIP3    H116023   2.761   4.777   2.841 -0.9764  0.1385  0.8026
 5353TIP3    H216024   2.736   4.925   2.824  0.1389  0.2295 -0.1628
 5354TIP3   OH216025   0.029   5.035   0.862 -0.2661  0.0783  0.5047
 5354TIP3    H116026   0.102   5.010   0.805 -0.9309  0.5860 -0.6037
 5354TIP3    H216027  -0.043   4.978   0.835 -0.6608  0.4986  0.6467
 5355TIP3   OH216028   0.927   5.157   0.731 -0.9833  0.5143 -0.2155
 5355TIP3    H116029   0.992   5.119   0.791 -0.5555  1.9631  0.2718
 5355TIP3    H216030   0.870   5.084   0.709  1.0664 -0.9420 -1.0167
 5356TIP3   OH216031   1.087   5.577   3.485 -0.1011 -0.3218 -0.4419
 5356TIP3    H116032   1.032   5.625   3.546  0.2698 -0.5772  0.1116
 5356TIP3    H216033   1.068   5.614   3.399 -0.8732 -0.1768 -0.2133
 5357TIP3   OH216034   1.637   3.638   1.171  0.2528 -0.1411 -0.7074
 5357TIP3    H116035   1.614   3.709   1.110 -1.5786  0.6964  0.8670
 5357TIP3    H216036   1.658   3.682   1.253  3.1488 -1.2267 -0.7395
 5358TIP3   OH216037   0.550   4.956   5.157 -0.3610  0.3847  0.4461
 5358TIP3    H116038   0.621   4.929   5.215  0.4896  1.6222  0.0239
 5358TIP3    H216039   0.477   4.900   5.182  0.9133 -1.3593  0.4788
 5359TIP3   OH216040   3.223   5.609   1.167 -0.6769  0.0126 -0.0045
 5359TIP3    H116041   3.150   5.568   1.213 -0.8222  0.3700  0.0866
 5359TIP3    H216042   3.220   5.701   1.194 -0.5581  0.1547 -0.4676
 5360TIP3   OH216043   4.468   4.945   2.905 -0.0882  0.1761  0.4650
 5360TIP3    H116044   4.548   4.908   2.943 -0.0547 -1.3075 -0.9490
 5360TIP3    H216045   4.454   5.026   2.954  1.5765 -0.1612  1.5936
 5361TIP3   OH216046   3.848   3.391   3.299  0.0229  0.1748  0.0730
 5361TIP3    H116047   3.928   3.398   3.246 -0.1104  0.0469 -0.1470
 5361TIP3    H216048   3.878   3.365   3.385  0.2047 -0.0316 -0.0531
 5362TIP3   OH216049   1.584   0.808   4.926  1.3659  0.1794  0.6333
 5362TIP3    H116050   1.621   0.893   4.948  0.6418  1.3195 -2.1840
 5362TIP3    H216051   1.632   0.780   4.848 -2.3070  0.9047 -2.1144
 5363TIP3   OH216052   3.000   5.896   0.921 -0.0557  0.2660  0.1396
 5363TIP3    H116053   2.930   5.830   0.918 -1.3011  1.5519 -1.2256
 5363TIP3    H216054   3.071   5.858   0.868 -0.8273  0.0670 -0.7822
 5364TIP3   OH216055   6.594   6.604   5.508 -0.4703 -0.1860  0.9464
 5364TIP3    H116056   6.535   6.679   5.515 -1.2247 -0.4599 -1.4994
 5364TIP3    H216057   6.675   6.633   5.550 -1.3634  1.2628  1.7580
 5365TIP3   OH216058   0.576   0.138   2.866  0.4537 -0.3505  0.2456
 5365TIP3    H116059   0.539   0.226   2.873 -1.2922 -1.1207  1.2471
 5365TIP3    H216060   0.628   0.140   2.785  0.1557  1.4838  0.0695
 5366TIP3   OH216061   2.751   4.672   4.211  0.2986 -0.2125  0.2810
 5366TIP3    H116062   2.751   4.617   4.290  1.2809  1.0700  1.2175
 5366TIP3    H216063   2.761   4.761   4.244 -1.1492  0.5578 -1.2060
 5367TIP3   OH216064   0.251   6.418   2.588 -0.2163  0.4184  0.1819
 5367TIP3    H116065   0.194   6.387   2.517 -0.5220  0.5460  0.3697
 5367TIP3    H216066   0.200   6.486   2.632 -0.4659 -0.3698  1.1727
 5368TIP3   OH216067   6.121   3.971   4.045 -0.0472 -0.4169  0.0402
 5368TIP3    H116068   6.053   3.959   3.978  1.6658  0.8855 -2.0816
 5368TIP3    H216069   6.127   3.886   4.088 -1.8444 -1.0556 -0.8503
 5369TIP3   OH216070   5.092   0.334   4.496 -0.4462 -0.3082  0.3826
 5369TIP3    H116071   5.104   0.287   4.414  0.2386  0.2606  0.1499
 5369TIP3    H216072   5.132   0.277   4.562 -3.8633 -2.3786  0.9048
 5370TIP3   OH216073   1.783   1.946   3.915 -0.2868 -0.2111 -0.2120
 5370TIP3    H116074   1.701   1.936   3.866 -0.1262 -0.9562 -0.3365
 5370TIP3    H216075   1.765   1.906   4.000  0.1500 -0.9588 -0.4690
 5371TIP3   OH216076   0.996   0.260   2.618  0.4010  0.2184  0.5531
 5371TIP3    H116077   1.081   0.280   2.655  0.4328  0.3733  0.3947
 5371TIP3    H216078   0.977   0.333   2.559  1.4784 -1.1940 -1.6973
 5372TIP3   OH216079   2.917   4.670   5.292  0.1487  0.5627  0.8476
 5372TIP3    H116080   2.843   4.610   5.288 -1.1500  2.0893  0.8811
 5372TIP3    H216081   2.970   4.648   5.216 -1.5221  0.8657 -0.4802
 5373TIP3   OH216082   3.721   2.889   0.670  0.1050  0.5066  0.2722
 5373TIP3    H116083   3.727   2.979   0.702  1.2024  0.3160  0.6686
 5373TIP3    H216084   3.641   2.886   0.618 -0.9880  1.2044  1.8578
 5374TIP3   OH216085   2.799   0.203   2.212 -0.2926 -0.1320  0.4866
 5374TIP3    H116086   2.870   0.242   2.161  0.8385 -0.1471  1.9750
 5374TIP3    H216087   2.830   0.208   2.303 -1.9744 -0.6301  1.1188
 5375TIP3   OH216088   1.706   1.662   0.579  0.5726  0.3824 -0.0236
 5375TIP3    H116089   1.710   1.566   0.582  1.2625  0.2282 -3.1335
 5375TIP3    H216090   1.632   1.684   0.636  0.6550 -1.9350  1.1029
 5376TIP3   OH216091   1.983   3.288   3.899  0.2987 -0.1109 -0.1403
 5376TIP3    H116092   2.010   3.350   3.966 -0.2444 -1.2131  1.1492
 5376TIP3    H216093   1.893   3.264   3.923 -0.0417 -0.2618 -1.4786
 5377TIP3   OH216094   2.336   1.851   5.599 -0.0461  0.5018  0.0642
 5377TIP3    H116095   2.302   1.939   5.614 -1.2701 -0.5451  5.1759
 5377TIP3    H216096   2.341   1.812   5.686  0.7087 -4.4527 -1.8908
 5378TIP3   OH216097   2.717   2.903   2.480 -0.2100 -0.2379 -0.0879
 5378TIP3    H116098   2.715   2.850   2.559 -1.9760 -1.0916 -0.6442
 5378TIP3    H216099   2.809   2.923   2.466  0.1693 -0.2972  2.0083
 5379TIP3   OH216100   6.707   0.308   1.458 -0.0720  0.1566 -0.8838
 5379TIP3    H116101   6.700   0.290   1.552  0.7980  0.7251 -0.6923
 5379TIP3    H216102   6.661   0.391   1.445 -0.8587 -0.3114 -1.0997
 5380TIP3   OH216103   5.844   3.108   3.107 -0.2153  0.4235 -0.3025
 5380TIP3    H116104   5.879   3.039   3.050 -0.2981  0.1411 -0.0165
 5380TIP3    H216105   5.757   3.077   3.131  0.3203 -0.1101  1.0484
 5381TIP3   OH216106   0.384   4.026   3.242 -0.8047  0.1247  0.0085
 5381TIP3    H116107   0.451   3.957   3.234 -1.2595 -0.5536  1.5135
 5381TIP3    H216108   0.401   4.085   3.170  2.6116  0.9848  1.3164
 5382TIP3   OH216109   6.297   3.737   5.090 -0.0924  0.3593  0.0539
 5382TIP3    H116110   6.356   3.725   5.016 -0.9071 -0.0439 -0.5466
 5382TIP3    H216111   6.256   3.822   5.075  0.9289  1.0203  0.9076
 5383TIP3   OH216112   2.983   0.538   1.260  0.4575 -0.1652 -0.2098
 5383TIP3    H116113   2.909   0.531   1.199 -0.1079  1.1207  0.2694
 5383TIP3    H216114   3.004   0.448   1.284 -0.2898 -0.6026 -1.1544
 5384TIP3   OH216115   0.145   3.527   5.668 -0.3976 -0.1566 -0.6256
 5384TIP3    H116116   0.081   3.476   5.619 -0.7378  0.5049 -0.8945
 5384TIP3    H216117   0.149   3.611   5.621  1.0954 -0.3861 -0.9510
 5385TIP3   OH216118   1.755   6.581   3.216  0.0927  0.4088  0.0649
 5385TIP3    H116119   1.815   6.508   3.209  0.2476  0.4902  0.4752
 5385TIP3    H216120   1.681   6.558   3.161 -0.3771 -0.5774  1.0719
 5386TIP3   OH216121   3.488   0.164   4.345  0.1013 -0.1037  0.1813
 5386TIP3    H116122   3.564   0.220   4.338 -0.6139  1.0533  1.3896
 5386TIP3    H216123   3.522   0.075   4.333  1.7031  0.3424  1.2418
 5387TIP3   OH216124   2.059   0.555   3.472  0.1389 -0.0412  0.2491
 5387TIP3    H116125   2.023   0.529   3.556  0.2385  1.0051  0.6223
 5387TIP3    H216126   2.114   0.480   3.446 -0.8169 -0.8707  0.5335
 5388TIP3   OH216127   1.942   5.966   1.776 -0.1634  0.2087 -0.3102
 5388TIP3    H116128   1.913   5.876   1.793  0.3326 -0.7760 -3.7339
 5388TIP3    H216129   1.861   6.017   1.768 -0.5812 -0.4936 -0.6733
 5389TIP3   OH216130   3.670   3.382   0.499 -0.5004 -0.0733  0.0955
 5389TIP3    H116131   3.636   3.346   0.417  1.9162  1.9557 -1.9621
 5389TIP3    H216132   3.747   3.330   0.518 -0.1592  0.4615  0.1931
 5390TIP3   OH216133   6.517   5.775   4.349 -0.2432 -0.2029  0.1176
 5390TIP3    H116134   6.437   5.784   4.296 -0.0682 -0.2438 -0.1535
 5390TIP3    H216135   6.564   5.701   4.309 -2.1531 -3.2045  2.9183
 5391TIP3   OH216136   3.804   5.482   5.237  0.3787  0.0784  0.3424
 5391TIP3    H116137   3.715   5.467   5.267  0.6617  0.4119  1.4130
 5391TIP3    H216138   3.854   5.406   5.267  0.7629  0.6425  1.2044
 5392TIP3   OH216139   4.436   6.425   3.939  0.1374  0.0744  0.4328
 5392TIP3    H116140   4.513   6.455   3.988 -0.1745 -0.1749  1.0909
 5392TIP3    H216141   4.465   6.423   3.848  0.2443  2.1845  0.3570
 5393TIP3   OH216142   2.792   5.322   1.452  0.3636 -0.0069 -0.7675
 5393TIP3    H116143   2.761   5.397   1.402  0.3350  0.9460  0.6243
 5393TIP3    H216144   2.870   5.354   1.497 -0.0658 -0.5760  0.4228
 5394TIP3   OH216145   6.015   4.194   2.533 -0.1838  0.0724  1.0603
 5394TIP3    H116146   5.942   4.149   2.576 -1.1048 -1.0253 -1.4825
 5394TIP3    H216147   6.021   4.154   2.447  3.0169  0.6262  0.8986
 5395TIP3   OH216148   4.208   2.326   0.073  0.1593 -0.0036 -0.2400
 5395TIP3    H116149   4.114   2.309   0.070  0.1752 -0.2538 -3.4162
 5395TIP3    H216150   4.216   2.418   0.097 -0.8834 -0.0204  0.1997
 5396TIP3   OH216151   4.414   5.073   2.520 -0.5074 -0.1771  0.3096
 5396TIP3    H116152   4.341   5.030   2.566  0.3400 -0.2519  1.6412
 5396TIP3    H216153   4.434   5.149   2.574  0.4698 -0.2243  0.0274
 5397TIP3   OH216154   0.200   3.070   4.197  0.1043 -0.4137  0.3915
 5397TIP3    H116155   0.263   3.009   4.159  0.4912 -0.5067  1.1471
 5397TIP3    H216156   0.248   3.153   4.203 -0.7728  0.2879 -1.6575
 5398TIP3   OH216157   4.569   3.509   3.275 -0.2671 -0.0723  0.5603
 5398TIP3    H116158   4.489   3.534   3.321 -0.7511 -1.7676  0.6893
 5398TIP3    H216159   4.595   3.426   3.315  1.6539  0.4965  0.6143
 5399TIP3   OH216160   1.869   6.351   1.102  0.2511 -0.1474 -0.4025
 5399TIP3    H116161   1.794   6.313   1.148 -0.7717  0.2980 -1.6475
 5399TIP3    H216162   1.910   6.408   1.167 -1.1518  0.4478  0.0105
 5400TIP3   OH216163   2.002   2.191   1.138 -0.2779  0.6785  0.3625
 5400TIP3    H116164   2.081   2.229   1.099  0.2240  1.6880  2.2492
 5400TIP3    H216165   1.977   2.253   1.206 -1.1572 -0.9435  1.5733
 5401TIP3   OH216166   3.368   0.268   3.989  0.0107 -0.0536  0.0863
 5401TIP3    H116167   3.442   0.220   3.952 -0.4026 -2.0644  1.6333
 5401TIP3    H216168   3.311   0.199   4.024 -1.6514  1.5246  0.6245
 5402TIP3   OH216169   5.511   6.471   0.133  0.1206 -0.5818 -0.1963
 5402TIP3    H116170   5.539   6.545   0.186 -1.5361  0.3315 -0.5278
 5402TIP3    H216171   5.515   6.396   0.192 -0.7519  0.2452  0.9556
 5403TIP3   OH216172   6.108   2.170   3.554 -0.4294  0.0964  0.1075
 5403TIP3    H116173   6.035   2.111   3.534 -0.2267 -0.1974  0.2204
 5403TIP3    H216174   6.184   2.131   3.509 -0.4580  0.7188 -0.4985
 5404TIP3   OH216175   4.761   5.415   2.030 -0.5821 -0.5586 -0.0438
 5404TIP3    H116176   4.815   5.351   1.983 -0.1683 -1.6716  1.8289
 5404TIP3    H216177   4.675   5.410   1.986  0.2636 -0.1721 -1.8281
 5405TIP3   OH216178   1.732   2.925   0.672 -0.1045 -0.0214 -0.7319
 5405TIP3    H116179   1.661   2.884   0.720  0.6100 -0.8388 -0.3270
 5405TIP3    H216180   1.711   2.909   0.580 -0.7093  0.2096 -0.6324
 5406TIP3   OH216181   6.550   2.293   3.161  0.6213  0.4517  0.0671
 5406TIP3    H116182   6.481   2.345   3.120  0.9835  1.4748  0.7001
 5406TIP3    H216183   6.514   2.269   3.247  1.2925  1.6027  0.6973
 5407TIP3   OH216184   2.191   3.006   4.992 -0.4014 -0.0619 -0.3848
 5407TIP3    H116185   2.152   2.966   5.070  0.0570 -1.6629 -0.9524
 5407TIP3    H216186   2.274   2.960   4.981  1.2589  2.5702  0.2092
 5408TIP3   OH216187   3.434   1.953   4.971  0.0124 -0.4620  0.2627
 5408TIP3    H116188   3.433   1.858   4.958 -1.9645 -0.3467 -0.9527
 5408TIP3    H216189   3.467   1.965   5.060  2.3127 -2.1335 -0.2692
 5409TIP3   OH216190   5.477   2.709   2.253  0.5090 -0.3333  0.5025
 5409TIP3    H116191   5.546   2.646   2.274  0.5874 -1.0731 -1.7231
 5409TIP3    H216192   5.504   2.790   2.297  2.5709 -0.7395  0.0804
 5410TIP3   OH216193   4.929   6.387   4.213 -0.0022  0.2250  0.1949
 5410TIP3    H116194   5.018   6.385   4.248 -0.7059 -1.0632  2.1354
 5410TIP3    H216195   4.887   6.461   4.259 -0.4641 -0.4308  0.8618
 5411TIP3   OH216196   1.690   3.025   1.380  0.0367 -0.0347  0.0553
 5411TIP3    H116197   1.695   2.943   1.331 -2.3254 -1.0793  1.3722
 5411TIP3    H216198   1.777   3.036   1.417  0.6394 -1.5132 -0.8252
 5412TIP3   OH216199   6.465   1.261   2.433  0.4778 -0.3798  0.0742
 5412TIP3    H116200   6.532   1.230   2.494 -0.1680 -0.0353  0.9875
 5412TIP3    H216201   6.469   1.357   2.440 -0.5613 -0.3627  0.6629
 5413TIP3   OH216202   3.568   4.484   2.384  0.1334  0.2947  0.5876
 5413TIP3    H116203   3.562   4.441   2.470  0.2087 -0.5961  0.1640
 5413TIP3    H216204   3.661   4.503   2.372  0.2778 -0.5784  0.2445
 5414TIP3   OH216205   2.522   0.104   4.017 -0.4242 -0.3918  0.3513
 5414TIP3    H116206   2.556   0.081   3.931  0.9045 -2.0163  1.2462
 5414TIP3    H216207   2.439   0.058   4.024 -1.4986  1.2748 -0.7402
 5415TIP3   OH216208   4.328   0.804   1.370 -0.1112 -0.2617 -0.2600
 5415TIP3    H116209   4.242   0.839   1.394 -0.0232 -1.2957  1.7875
 5415TIP3    H216210   4.390   0.862   1.414  0.1454 -0.9595  0.3028
 5416TIP3   OH216211   5.874   3.227   1.984  0.5180 -0.3896 -0.2198
 5416TIP3    H116212   5.786   3.205   1.953  0.6344 -0.0409 -0.8215
 5416TIP3    H216213   5.860   3.293   2.052  0.3460  0.1911 -0.8099
 5417TIP3   OH216214   2.264   1.590   5.491 -0.0314 -0.6971 -0.2640
 5417TIP3    H116215   2.239   1.669   5.539 -0.9647 -0.7991 -0.5534
 5417TIP3    H216216   2.359   1.586   5.498  0.2834  1.6229 -2.0864
 5418TIP3   OH216217   6.224   3.078   5.331  0.1335  0.0376  0.0508
 5418TIP3    H116218   6.238   3.031   5.413 -1.6997 -1.4525 -0.4333
 5418TIP3    H216219   6.297   3.051   5.275 -0.3955 -1.5729  0.0926
 5419TIP3   OH216220   3.929   1.729   1.445 -0.4460  0.1773  0.4008
 5419TIP3    H116221   3.835   1.736   1.429 -0.7388  0.0574  1.9322
 5419TIP3    H216222   3.965   1.698   1.361 -1.8048 -0.1198 -0.1051
 5420TIP3   OH216223   6.591   3.726   0.768  0.2275  0.2258  0.2137
 5420TIP3    H116224   6.627   3.808   0.802  0.3915  0.1685  0.1753
 5420TIP3    H216225   6.598   3.664   0.840 -0.2267  0.3412  0.3628
 5421TIP3   OH216226   6.004   1.207   4.241 -0.1369  0.5440  0.0761
 5421TIP3    H116227   6.087   1.229   4.283 -0.2661  0.1288  0.5647
 5421TIP3    H216228   5.949   1.284   4.255  0.5863  1.3576 -1.4148
 5422TIP3   OH216229   1.680   5.674   0.705  0.0789  0.5745  0.3486
 5422TIP3    H116230   1.767   5.634   0.705  0.7493  1.9709  0.4651
 5422TIP3    H216231   1.676   5.724   0.623  0.6793  3.0926  1.7244
 5423TIP3   OH216232   2.478   0.983   3.467 -0.1561  0.2009 -0.3094
 5423TIP3    H116233   2.553   1.000   3.410 -0.3625  0.1034 -0.6093
 5423TIP3    H216234   2.516   0.944   3.546  0.0261 -0.6568 -0.8087
 5424TIP3   OH216235   4.471   5.982   4.439 -0.0704 -0.0088 -0.0847
 5424TIP3    H116236   4.438   5.950   4.355  0.8831  0.6437 -0.7237
 5424TIP3    H216237   4.533   5.914   4.467  1.0877  0.6706 -0.8869
 5425TIP3   OH216238   3.515   6.379   1.122 -0.6172 -0.7830  0.4591
 5425TIP3    H116239   3.513   6.365   1.028  0.8566  1.3581  0.0284
 5425TIP3    H216240   3.601   6.418   1.139 -1.0751 -0.5613  2.6009
 5426TIP3   OH216241   2.687   5.309   3.826  0.4731  0.3535  0.0530
 5426TIP3    H116242   2.695   5.397   3.863  0.6169 -0.7165  2.8006
 5426TIP3    H216243   2.606   5.274   3.863 -0.6339 -0.0664 -2.5374
 5427TIP3   OH216244   1.297   6.635   4.647 -0.6522 -0.0191  0.1756
 5427TIP3    H116245   1.224   6.574   4.652 -0.8867  0.1619 -0.8076
 5427TIP3    H216246   1.365   6.597   4.703 -1.4253 -0.2856  0.9381
 5428TIP3   OH216247   2.957   6.484   0.400  0.3860  0.4019  0.2423
 5428TIP3    H116248   2.901   6.407   0.390  0.3627  0.5667 -1.0774
 5428TIP3    H216249   3.011   6.485   0.321  2.2857  0.2550  1.4693
 5429TIP3   OH216250   2.374   4.808   1.066 -0.3430 -0.8035  0.7247
 5429TIP3    H116251   2.329   4.892   1.069  1.0569 -0.0063 -0.1018
 5429TIP3    H216252   2.315   4.748   1.113 -0.5786  0.9827  2.8559
 5430TIP3   OH216253   6.024   4.713   0.871  0.0267  0.5510  0.3791
 5430TIP3    H116254   6.084   4.663   0.927  1.6817 -0.1066 -1.8480
 5430TIP3    H216255   5.996   4.787   0.926  0.1435 -0.9746  2.6337
 5431TIP3   OH216256   3.833   5.748   4.907  0.9350  0.3120  0.3489
 5431TIP3    H116257   3.873   5.663   4.923  0.8725 -0.0115 -1.1401
 5431TIP3    H216258   3.769   5.757   4.977  1.1488 -0.7296  0.7005
 5432TIP3   OH216259   5.279   4.817   4.584  0.4782  0.4662  0.4026
 5432TIP3    H116260   5.367   4.782   4.581  0.4048  0.2156  0.9732
 5432TIP3    H216261   5.263   4.833   4.677 -1.0259 -1.9451  0.6460
 5433TIP3   OH216262   0.046   0.131   3.384  0.7166  0.3908 -0.3452
 5433TIP3    H116263   0.049   0.101   3.293  1.9685 -1.8132  0.3454
 5433TIP3    H216264   0.054   0.051   3.436 -0.2697  1.5604  1.7312
 5434TIP3   OH216265   6.536   0.595   0.480 -0.2721  0.5599  0.2490
 5434TIP3    H116266   6.471   0.545   0.530 -1.4867  2.2960  0.4738
 5434TIP3    H216267   6.495   0.680   0.466  1.4879  1.2916 -0.6748
 5435TIP3   OH216268   5.608   0.182   0.510 -0.4866  0.1009  0.6275
 5435TIP3    H116269   5.651   0.126   0.445 -0.2659  2.0170 -1.0054
 5435TIP3    H216270   5.517   0.154   0.509 -0.5024  0.1013 -0.6112
 5436TIP3   OH216271   1.512   5.132   5.231  0.1080 -0.1939  0.1863
 5436TIP3    H116272   1.479   5.063   5.289  0.4846 -1.3181 -0.8887
 5436TIP3    H216273   1.440   5.149   5.170  0.1836  0.0143  0.1550
 5437TIP3   OH216274   1.240   5.522   1.160 -0.2662  0.1188 -0.4874
 5437TIP3    H116275   1.266   5.448   1.214  1.0298  1.0187  0.1763
 5437TIP3    H216276   1.318   5.578   1.158 -1.3830  1.7130 -0.5399
 5438TIP3   OH216277   6.902   4.770   5.575  0.0403 -0.9228  0.0234
 5438TIP3    H116278   6.916   4.687   5.529  0.0310 -2.3330  2.3685
 5438TIP3    H216279   6.811   4.767   5.604  0.3745 -0.7169  1.1776
 5439TIP3   OH216280   2.929   0.253   0.434 -0.5993 -0.1178  0.0548
 5439TIP3    H116281   2.948   0.161   0.453 -1.2407 -0.6039 -1.5221
 5439TIP3    H216282   2.854   0.274   0.489  1.8067  0.6855  3.3989
 5440TIP3   OH216283   0.619   6.501   1.342  0.4690 -0.0165 -0.3560
 5440TIP3    H116284   0.618   6.437   1.271  1.6630 -0.5132  0.0613
 5440TIP3    H216285   0.705   6.543   1.336 -0.0928  1.2058 -0.3016
 5441TIP3   OH216286   0.239   3.107   5.242 -0.0870 -0.1229 -0.0725
 5441TIP3    H116287   0.269   3.136   5.156 -0.2672  0.6458  0.1169
 5441TIP3    H216288   0.156   3.064   5.224 -0.5610  0.8083 -0.1956
 5442TIP3   OH216289   4.063   4.910   0.223 -0.0719  0.1959 -0.0151
 5442TIP3    H116290   4.062   4.816   0.239 -1.6511  0.1984 -0.0292
 5442TIP3    H216291   4.097   4.918   0.133 -0.2760 -0.3790 -0.1477
 5443TIP3   OH216292   6.514   1.227   4.752 -0.2129  0.4297 -0.0798
 5443TIP3    H116293   6.460   1.149   4.746 -1.1538  0.7377  2.8458
 5443TIP3    H216294   6.529   1.239   4.846  0.6613  3.2300 -0.4805
 5444TIP3   OH216295   4.830   2.818   0.483 -0.3396 -0.3314 -0.1059
 5444TIP3    H116296   4.867   2.904   0.503  1.4703 -1.1555  0.2388
 5444TIP3    H216297   4.841   2.768   0.563 -0.2618 -1.2688 -0.6923
 5445TIP3   OH216298   6.925   3.544   0.469 -0.0296  0.1503  0.1277
 5445TIP3    H116299   6.995   3.593   0.513  0.3102 -0.2349  0.0259
 5445TIP3    H216300   6.954   3.538   0.378  0.1148 -0.5547  0.2121
 5446TIP3   OH216301   6.275   3.455   4.884 -0.4324 -0.1419 -0.0084
 5446TIP3    H116302   6.345   3.397   4.856  1.2644  1.1576  1.3072
 5446TIP3    H216303   6.233   3.409   4.957  0.8665  0.2102  0.9885
 5447TIP3   OH216304   2.495   2.506   3.620 -0.1919 -0.2861 -0.2680
 5447TIP3    H116305   2.562   2.445   3.591  1.3816  1.7789 -1.2592
 5447TIP3    H216306   2.443   2.457   3.683  1.0334 -2.5727 -0.9241
 5448TIP3   OH216307   1.391   4.863   3.832 -0.9231 -0.7962 -0.1508
 5448TIP3    H116308   1.393   4.776   3.871 -1.7379 -0.7052  0.1182
 5448TIP3    H216309   1.479   4.898   3.848 -1.7585  0.0901  3.6786
 5449TIP3   OH216310   6.013   6.580   1.853 -0.0717 -0.4464  0.1161
 5449TIP3    H116311   6.016   6.525   1.931  0.6017 -3.1518 -1.6519
 5449TIP3    H216312   5.955   6.532   1.793  0.0410  1.1355 -1.3354
 5450TIP3   OH216313   0.982   3.985   1.292 -0.0608  0.1244  0.9862
 5450TIP3    H116314   0.892   4.009   1.272  0.4296  0.7752 -0.6760
 5450TIP3    H216315   0.992   4.005   1.385 -1.6822 -0.1792  1.2486
 5451TIP3   OH216316   0.317   1.795   1.891 -0.1412  0.0132  0.3330
 5451TIP3    H116317   0.345   1.882   1.921 -0.4695 -0.0513  0.8362
 5451TIP3    H216318   0.237   1.812   1.842  0.5066  0.1427 -0.7042
 5452TIP3   OH216319   6.618   0.431   4.725  0.4192 -0.4154 -0.3121
 5452TIP3    H116320   6.559   0.464   4.794  2.1230 -0.5600  1.2724
 5452TIP3    H216321   6.698   0.482   4.736  2.6333 -3.8797  1.2283
 5453TIP3   OH216322   3.833   2.459   4.026  0.4759  0.2106  0.0165
 5453TIP3    H116323   3.791   2.496   3.948 -1.2769  0.6531  1.1131
 5453TIP3    H216324   3.867   2.375   3.996 -0.5261  0.1779 -1.1344
 5454TIP3   OH216325   0.069   4.130   0.794  0.1358  0.2728 -0.0726
 5454TIP3    H116326  -0.011   4.182   0.802  0.6935  1.0989  0.3506
 5454TIP3    H216327   0.051   4.050   0.841 -0.0204  0.9792  1.1007
 5455TIP3   OH216328   6.052   3.986   5.005  0.0799  0.0338 -0.3159
 5455TIP3    H116329   6.088   3.933   4.934 -1.2738 -0.7108 -0.4759
 5455TIP3    H216330   5.965   4.010   4.975  0.3488  1.6682  0.1250
 5456TIP3   OH216331   4.297   6.689   5.333  0.2764  0.0168 -0.1188
 5456TIP3    H116332   4.282   6.616   5.273  0.7123 -0.2939  0.1363
 5456TIP3    H216333   4.311   6.647   5.418 -0.3267  0.4512  0.1991
 5457TIP3   OH216334   5.314   2.434   4.177  0.4020 -0.4673  0.1276
 5457TIP3    H116335   5.349   2.376   4.246  0.3139  0.0020  0.5714
 5457TIP3    H216336   5.223   2.447   4.201  0.7190  0.8287  0.7134
 5458TIP3   OH216337   4.798   2.533   4.799  0.0979 -0.0003 -0.4468
 5458TIP3    H116338   4.828   2.465   4.859  1.5822  0.4484 -0.6411
 5458TIP3    H216339   4.710   2.556   4.830  0.4131 -0.5285  0.8932
 5459TIP3   OH216340   1.901   3.230   5.076 -1.1066  0.0662 -0.1060
 5459TIP3    H116341   1.946   3.145   5.080 -0.3824  0.4485  0.0248
 5459TIP3    H216342   1.809   3.207   5.061 -1.2577 -0.8170  1.8706
 5460TIP3   OH216343   0.515   3.380   4.849 -0.2913  0.4270  0.2616
 5460TIP3    H116344   0.438   3.343   4.808 -0.1531 -0.1653  0.5342
 5460TIP3    H216345   0.578   3.391   4.778 -0.5164  0.6197  0.0944
 5461TIP3   OH216346   3.389   6.236   5.360 -0.1065 -0.1518  0.3739
 5461TIP3    H116347   3.357   6.325   5.343  3.4846  0.9768 -1.6511
 5461TIP3    H216348   3.444   6.245   5.438  0.8160 -0.4047 -0.2361
 5462TIP3   OH216349   3.645   6.221   4.286 -0.3036 -0.0028 -0.0197
 5462TIP3    H116350   3.652   6.174   4.368  0.1196  1.3671  0.7628
 5462TIP3    H216351   3.603   6.305   4.309  1.4330  1.1572 -0.8506
 5463TIP3   OH216352   3.142   5.871   5.033 -0.1544 -0.2840 -0.0685
 5463TIP3    H116353   3.175   5.912   4.953  0.7004 -0.6379  0.0886
 5463TIP3    H216354   3.168   5.931   5.103  1.0945 -1.0720  0.1614
 5464TIP3   OH216355   2.203   6.716   4.355 -0.4414 -0.5498 -0.3158
 5464TIP3    H116356   2.209   6.698   4.261  0.8934  1.8379 -0.7701
 5464TIP3    H216357   2.294   6.716   4.384 -0.6884  0.8620  0.5114
 5465TIP3   OH216358   2.568   4.657   4.766 -0.0434  0.1837 -0.2068
 5465TIP3    H116359   2.564   4.657   4.861  0.1394  0.0624 -0.1985
 5465TIP3    H216360   2.551   4.748   4.741  1.6359  0.5939  0.0167
 5466TIP3   OH216361   5.824   1.508   2.980 -0.6565 -0.1622  0.2676
 5466TIP3    H116362   5.867   1.500   2.895 -0.7040  1.7395  0.0293
 5466TIP3    H216363   5.892   1.484   3.043 -0.0400  0.2450 -0.2301
 5467TIP3   OH216364   2.679   1.922   0.610 -0.0650  0.2742  0.6870
 5467TIP3    H116365   2.616   1.954   0.675  1.1382 -0.0061  2.0261
 5467TIP3    H216366   2.764   1.949   0.644  0.7145 -1.2846  0.0422
 5468TIP3   OH216367   3.563   5.530   1.083  0.0950 -0.1688  0.4194
 5468TIP3    H116368   3.655   5.507   1.076 -0.2779 -1.4347 -0.7298
 5468TIP3    H216369   3.519   5.474   1.019 -1.3589  1.0997  0.2465
 5469TIP3   OH216370   1.754   5.224   1.735 -0.8589 -0.4924 -0.1711
 5469TIP3    H116371   1.686   5.246   1.672 -1.4019 -2.4915 -0.3631
 5469TIP3    H216372   1.710   5.170   1.800  0.1250 -0.1391  0.8092
 5470TIP3   OH216373   0.721   0.255   0.757 -0.2347  0.2464 -0.3804
 5470TIP3    H116374   0.695   0.320   0.823 -0.2997 -0.6290  0.4771
 5470TIP3    H216375   0.763   0.185   0.807  1.3342  0.3596 -1.4528
 5471TIP3   OH216376   4.825   0.654   3.812 -0.2189 -0.4925 -0.2363
 5471TIP3    H116377   4.809   0.569   3.854 -1.2071 -0.4558 -0.5169
 5471TIP3    H216378   4.828   0.716   3.885  0.9175 -0.8100  0.0079
 5472TIP3   OH216379   3.376   6.157   3.458 -0.5386  0.1135 -0.4332
 5472TIP3    H116380   3.332   6.198   3.533 -0.2556  0.9359 -0.7024
 5472TIP3    H216381   3.465   6.141   3.489 -0.0123  1.7206 -1.0000
 5473TIP3   OH216382   4.641   1.411   1.623  0.3669 -0.7347  0.1833
 5473TIP3    H116383   4.641   1.458   1.540  1.3951 -1.4437 -0.2334
 5473TIP3    H216384   4.664   1.477   1.689  1.2778 -0.5404 -0.3233
 5474TIP3   OH216385   5.747   3.940   3.172  0.0303 -0.2263 -0.1959
 5474TIP3    H116386   5.687   3.987   3.230 -0.1335  0.8733 -1.2238
 5474TIP3    H216387   5.832   3.945   3.215 -0.0362  0.8080 -0.1653
 5475TIP3   OH216388   1.894   4.831   0.070 -0.0552  0.4030 -0.4099
 5475TIP3    H116389   1.939   4.785  -0.001  0.3067 -2.7865  1.6554
 5475TIP3    H216390   1.822   4.772   0.094  0.4761  0.8000  2.4931
 5476TIP3   OH216391   6.160   3.200   4.156 -0.1529  0.0874 -0.3944
 5476TIP3    H116392   6.217   3.241   4.222 -1.0928  0.0491  0.4613
 5476TIP3    H216393   6.205   3.118   4.134  0.3979  0.3095 -0.1365
 5477TIP3   OH216394   0.774   1.959   5.588 -0.5007 -0.0327 -0.1435
 5477TIP3    H116395   0.724   2.040   5.592  0.2479  0.5872 -1.9533
 5477TIP3    H216396   0.708   1.891   5.575 -1.0647  0.4048  0.3581
 5478TIP3   OH216397   1.218   1.377   3.434 -0.3552  0.1846  0.4461
 5478TIP3    H116398   1.173   1.309   3.485 -0.7529  0.3215  0.2845
 5478TIP3    H216399   1.169   1.457   3.453 -1.1783  0.0546 -0.9795
 5479TIP3   OH216400   1.379   1.830   0.063  0.0995  0.3764  0.7885
 5479TIP3    H116401   1.405   1.794   0.148  0.1145 -0.4775  0.4259
 5479TIP3    H216402   1.300   1.782   0.040  1.2169 -0.8837 -0.6276
 5480TIP3   OH216403   1.647   2.742   2.175  0.4498 -0.7378 -0.1435
 5480TIP3    H116404   1.682   2.654   2.193 -0.2202 -0.6748  1.6164
 5480TIP3    H216405   1.563   2.744   2.220  0.7074  0.9937  0.3128
 5481TIP3   OH216406   5.524   5.893   2.946  0.1505 -0.1997  0.2490
 5481TIP3    H116407   5.474   5.866   2.869  0.0637 -0.3264  0.3498
 5481TIP3    H216408   5.592   5.951   2.911  0.6272 -0.9125 -0.0285
 5482TIP3   OH216409   6.148   1.462   2.892 -0.0335  0.3279 -0.4369
 5482TIP3    H116410   6.093   1.476   2.970 -0.7753  2.2932 -1.2506
 5482TIP3    H216411   6.107   1.388   2.847 -0.9698  0.6481 -0.1282
 5483TIP3   OH216412   5.929   2.162   1.478  0.4996 -0.2425  0.0803
 5483TIP3    H116413   6.021   2.140   1.461  0.7452 -0.5195  1.6320
 5483TIP3    H216414   5.881   2.122   1.405  1.4942 -1.1218 -0.1201
 5484TIP3   OH216415   2.549   0.866   5.098  0.2795  0.4827  0.0334
 5484TIP3    H116416   2.460   0.837   5.116  0.5921 -0.7163 -0.2482
 5484TIP3    H216417   2.584   0.892   5.183 -0.2438  0.7092  0.1826
 5485TIP3   OH216418   3.647   1.134   5.419  0.0412 -0.2207 -0.1204
 5485TIP3    H116419   3.564   1.110   5.460 -0.6474 -0.9955 -1.8674
 5485TIP3    H216420   3.694   1.050   5.411 -0.1716 -0.2212 -1.5696
 5486TIP3   OH216421   2.851   6.706   4.797  0.1160 -0.1561 -0.3671
 5486TIP3    H116422   2.942   6.718   4.770  0.2094 -1.5521 -0.7378
 5486TIP3    H216423   2.841   6.761   4.875  1.3141 -0.1185 -0.2314
 5487TIP3   OH216424   1.120   4.421   0.018  0.3089 -0.4782  0.0730
 5487TIP3    H116425   1.197   4.406   0.073  1.3622  0.7005 -1.0051
 5487TIP3    H216426   1.140   4.502  -0.029 -1.7531  0.0537  0.0099
 5488TIP3   OH216427   0.702   1.795   4.923  0.2695 -0.8128 -0.0208
 5488TIP3    H116428   0.754   1.727   4.965 -0.0902 -2.3776 -1.9715
 5488TIP3    H216429   0.737   1.801   4.834  0.7022  2.0526  0.2640
 5489TIP3   OH216430   0.325   4.614   4.068  0.2702 -0.1993  0.1063
 5489TIP3    H116431   0.293   4.552   4.134 -1.4018  1.9981  1.4902
 5489TIP3    H216432   0.277   4.591   3.989  0.3154 -1.1844  0.3463
 5490TIP3   OH216433   2.244   1.583   4.009 -0.1597  0.3237 -0.3417
 5490TIP3    H116434   2.292   1.525   3.950  0.2179  0.9141 -0.6276
 5490TIP3    H216435   2.312   1.623   4.063 -0.4734  0.0448  0.2699
 5491TIP3   OH216436   0.882   5.064   1.520 -0.2376 -0.1830 -0.1204
 5491TIP3    H116437   0.827   5.113   1.460 -1.0041  0.0707  0.7603
 5491TIP3    H216438   0.859   4.972   1.505 -1.7987 -0.0329  1.0238
 5492TIP3   OH216439   3.827   5.878   1.984  0.0008  0.1266  0.4942
 5492TIP3    H116440   3.904   5.921   1.948  1.3780 -1.7384  1.0228
 5492TIP3    H216441   3.753   5.917   1.938  1.4422  0.1655 -1.9320
 5493TIP3   OH216442   5.110   0.621   5.372  0.2950  0.3359  0.0160
 5493TIP3    H116443   5.106   0.672   5.291 -0.1951  0.7890  0.3120
 5493TIP3    H216444   5.131   0.686   5.439  2.5690 -0.3387  0.0098
 5494TIP3   OH216445   2.539   2.992   4.353 -0.2804  0.1504 -0.1667
 5494TIP3    H116446   2.530   3.044   4.274 -0.1842 -0.8188 -0.8389
 5494TIP3    H216447   2.620   2.942   4.339 -0.6325 -0.5439  0.2308
 5495TIP3   OH216448   5.121   4.886   2.163 -0.0275  0.1209  0.2086
 5495TIP3    H116449   5.201   4.907   2.115 -1.1030  2.1882 -0.8066
 5495TIP3    H216450   5.120   4.790   2.168  1.7494 -0.0057 -1.0507
 5496TIP3   OH216451   3.679   0.845   4.606  0.0596 -0.1245 -0.6307
 5496TIP3    H116452   3.748   0.909   4.589 -0.7945  1.4781  1.4168
 5496TIP3    H216453   3.639   0.829   4.521  2.2084 -0.2532 -1.6790
 5497TIP3   OH216454   5.502   2.170   2.330  0.4086 -0.1246 -0.2754
 5497TIP3    H116455   5.435   2.233   2.302  0.9477  1.8258  2.3933
 5497TIP3    H216456   5.453   2.090   2.347 -0.7384  0.3372 -1.2478
 5498TIP3   OH216457   6.422   0.927   0.825 -0.2204 -0.4198 -0.2037
 5498TIP3    H116458   6.401   0.977   0.903 -1.8245 -0.1054 -0.8065
 5498TIP3    H216459   6.469   0.989   0.769  0.4668 -0.4956  0.2684
 5499TIP3   OH216460   3.608   3.979   3.238  0.4993 -0.6591  0.1677
 5499TIP3    H116461   3.529   4.025   3.266  0.4061 -0.4128 -0.4789
 5499TIP3    H216462   3.578   3.889   3.223  0.4195 -0.6474  0.2514
 5500TIP3   OH216463   6.016   3.743   2.201 -0.1048  0.1066 -0.0237
 5500TIP3    H116464   6.076   3.725   2.129  0.6548 -1.1893  0.8706
 5500TIP3    H216465   6.068   3.792   2.264 -0.6313  0.8502 -0.1591
 5501TIP3   OH216466   4.415   0.513   1.564 -0.1671  0.4522 -0.0362
 5501TIP3    H116467   4.481   0.569   1.523  0.5382 -0.7206 -0.5866
 5501TIP3    H216468   4.391   0.451   1.495 -1.2007  0.3214  0.4324
 5502TIP3   OH216469   4.093   5.521   4.671 -0.0509  0.5272  0.2291
 5502TIP3    H116470   4.126   5.517   4.582 -0.4168 -0.0349  0.1127
 5502TIP3    H216471   4.004   5.556   4.663  0.2595  1.3947  0.4726
 5503TIP3   OH216472   0.708   4.543   4.663  0.4573  0.0552  0.0882
 5503TIP3    H116473   0.718   4.544   4.568  1.4795  0.2345  0.1896
 5503TIP3    H216474   0.614   4.535   4.677  0.3249 -0.3280 -0.9384
 5504TIP3   OH216475   2.989   3.750   4.721  0.3169  0.1756  0.3145
 5504TIP3    H116476   3.048   3.683   4.755 -1.5640 -2.6708 -1.6249
 5504TIP3    H216477   3.012   3.759   4.629 -0.4416  1.1235  0.1966
 5505TIP3   OH216478   6.166   3.589   0.369  0.2666  0.1995  0.0180
 5505TIP3    H116479   6.106   3.620   0.436  0.3032  0.6884 -0.1715
 5505TIP3    H216480   6.247   3.569   0.416  0.7712  1.8774 -0.0410
 5506TIP3   OH216481   0.516   4.177   0.164  0.0093 -0.0248 -0.0539
 5506TIP3    H116482   0.503   4.141   0.251  0.3637 -0.6770 -0.2611
 5506TIP3    H216483   0.576   4.250   0.177 -0.6215  0.4367  0.3545
 5507TIP3   OH216484   3.440   1.843   3.547 -0.2958 -0.0004 -0.1724
 5507TIP3    H116485   3.452   1.748   3.546 -0.7443 -0.0810 -2.3098
 5507TIP3    H216486   3.346   1.855   3.536 -0.0268  0.6449 -2.1911
 5508TIP3   OH216487   6.140   5.506   2.872  0.5469 -0.0130  0.4762
 5508TIP3    H116488   6.071   5.559   2.832  0.2761 -1.2234 -0.7393
 5508TIP3    H216489   6.111   5.496   2.963 -0.4044  0.2968  0.2273
 5509TIP3   OH216490   6.378   0.509   3.243 -0.0810 -0.1816 -0.2808
 5509TIP3    H116491   6.287   0.503   3.217 -0.5745  1.7519  0.7544
 5509TIP3    H216492   6.377   0.495   3.338  1.1958 -3.4677 -0.6174
 5510TIP3   OH216493   4.453   0.934   2.022  0.0295  0.2595 -0.6631
 5510TIP3    H116494   4.358   0.944   2.013 -0.1535 -0.9899 -0.2657
 5510TIP3    H216495   4.480   1.007   2.078 -1.1155 -0.9241  1.5339
 5511TIP3   OH216496   5.774   5.002   4.876 -0.9569  0.0633 -0.0147
 5511TIP3    H116497   5.869   5.013   4.872 -1.2682  3.5895 -1.1434
 5511TIP3    H216498   5.758   4.956   4.958  1.7308 -1.6975 -0.3661
 5512TIP3   OH216499   4.528   3.198   5.254  0.1694  0.0981  0.1489
 5512TIP3    H116500   4.611   3.231   5.221 -0.2465  0.4350 -0.5940
 5512TIP3    H216501   4.463   3.260   5.220 -0.1272  1.6741  3.2106
 5513TIP3   OH216502   5.234   5.509   2.853  0.1226  0.4003  0.2759
 5513TIP3    H116503   5.285   5.431   2.832 -2.9392 -1.5157 -0.6564
 5513TIP3    H216504   5.257   5.572   2.784  0.6064 -0.7102 -0.6058
 5514TIP3   OH216505   6.750   3.208   0.624  0.1724  0.1677 -0.3277
 5514TIP3    H116506   6.657   3.192   0.641 -0.0122  0.4004 -1.0815
 5514TIP3    H216507   6.754   3.227   0.531  1.1821 -1.3809 -0.6438
 5515TIP3   OH216508   6.776   5.969   0.570  0.3343 -0.1151 -0.1669
 5515TIP3    H116509   6.778   5.874   0.560 -0.7063 -0.2691  0.9305
 5515TIP3    H216510   6.732   6.001   0.491 -2.8973 -0.8741  1.2043
 5516TIP3   OH216511   5.528   0.627   5.620 -0.5173 -0.2206 -0.3339
 5516TIP3    H116512   5.477   0.551   5.592 -2.0939  0.6597  0.0353
 5516TIP3    H216513   5.551   0.609   5.711  2.7664 -2.1015 -1.3502
 5517TIP3   OH216514   2.587   1.655   0.259 -0.1945  0.1669  0.3189
 5517TIP3    H116515   2.626   1.653   0.171 -0.4016 -0.6416  0.2389
 5517TIP3    H216516   2.577   1.563   0.283 -0.8434  0.3750  0.8807
 5518TIP3   OH216517   4.987   0.607   2.013  0.0306  0.4461  0.0269
 5518TIP3    H116518   5.015   0.691   2.050  0.2966 -0.3107  1.5909
 5518TIP3    H216519   5.028   0.605   1.926  1.3587  1.2256  0.6002
 5519TIP3   OH216520   5.467   4.495   1.613 -0.6319  0.0469 -0.5121
 5519TIP3    H116521   5.453   4.539   1.529 -1.0632  1.8024  0.4302
 5519TIP3    H216522   5.488   4.566   1.674 -2.6036 -0.8793  1.3631
 5520TIP3   OH216523   3.891   5.954   3.205  0.0380 -0.2126  0.0639
 5520TIP3    H116524   3.959   6.021   3.197  0.2613 -0.6970 -3.2327
 5520TIP3    H216525   3.937   5.872   3.190 -1.2048 -0.5139 -2.6967
 5521TIP3   OH216526   3.526   3.082   0.108 -0.3376 -0.2616  0.1473
 5521TIP3    H116527   3.549   3.134   0.032  0.0045 -0.5949  0.0208
 5521TIP3    H216528   3.533   2.991   0.079  0.3516 -0.4105  0.7219
 5522TIP3   OH216529   4.952   1.070   3.435 -0.0361  0.3693 -0.8329
 5522TIP3    H116530   4.882   1.102   3.378 -1.4668 -0.5033  0.3548
 5522TIP3    H216531   4.954   0.975   3.420  0.8606  0.3762 -0.8047
 5523TIP3   OH216532   6.472   4.850   1.934  0.0152  0.1633  0.3308
 5523TIP3    H116533   6.455   4.840   2.027 -2.9965  0.0740 -0.1153
 5523TIP3    H216534   6.419   4.925   1.908 -1.0819 -1.1971 -1.6684
 5524TIP3   OH216535   5.491   4.700   0.839  0.0561 -0.1522 -0.0362
 5524TIP3    H116536   5.436   4.677   0.764  0.7941 -0.7051 -0.4189
 5524TIP3    H216537   5.429   4.728   0.907 -0.5557  3.8979 -1.9514
 5525TIP3   OH216538   4.666   0.476   5.491 -0.4001 -0.2780  0.2478
 5525TIP3    H116539   4.752   0.439   5.470 -0.4705 -0.1672 -0.2345
 5525TIP3    H216540   4.662   0.471   5.587  0.5291  0.5591  0.3489
 5526TIP3   OH216541   4.466   2.428   1.728 -0.0841  0.2405  0.1391
 5526TIP3    H116542   4.381   2.391   1.749 -0.6331  1.0709 -0.5388
 5526TIP3    H216543   4.504   2.452   1.813 -0.1556 -0.9005  0.4980
 5527TIP3   OH216544   3.631   6.627   4.057 -0.2046  0.0006 -0.6453
 5527TIP3    H116545   3.582   6.553   4.092  0.9008 -0.4704 -0.0533
 5527TIP3    H216546   3.684   6.658   4.131  0.1802  0.6692 -1.1890
 5528TIP3   OH216547   4.106   6.538   4.658 -0.2069  0.1145 -0.0917
 5528TIP3    H116548   4.144   6.598   4.722  0.8195 -1.7958  1.1983
 5528TIP3    H216549   4.062   6.471   4.711  0.6956 -1.5387 -1.3318
 5529TIP3   OH216550   4.189   4.521   2.362 -0.0254  0.6339 -0.1843
 5529TIP3    H116551   4.165   4.435   2.395  2.3250 -0.0384 -0.0132
 5529TIP3    H216552   4.189   4.578   2.439  1.1081  0.1084  0.2246
 5530TIP3   OH216553   3.530   6.507   1.592 -0.5224  0.2084 -0.4331
 5530TIP3    H116554   3.472   6.572   1.632 -0.5425  1.0527 -1.7978
 5530TIP3    H216555   3.497   6.423   1.625  0.2390  0.8862  2.3036
 5531TIP3   OH216556   0.387   3.488   1.881 -0.2485 -0.2909 -0.4568
 5531TIP3    H116557   0.388   3.578   1.915 -3.2571  0.2243 -1.4275
 5531TIP3    H216558   0.434   3.437   1.946  0.6258  1.8193  0.6542
 5532TIP3   OH216559   3.983   5.966   4.301  0.1819  0.0310 -0.0838
 5532TIP3    H116560   3.934   6.019   4.238  0.3908 -1.2057 -1.3306
 5532TIP3    H216561   4.073   5.966   4.268  0.2402 -0.8701  0.0651
 5533TIP3   OH216562   4.286   4.234   2.649 -0.2112  0.3530 -0.4016
 5533TIP3    H116563   4.338   4.308   2.616 -1.0515  1.4966  0.7384
 5533TIP3    H216564   4.318   4.221   2.738  2.3107 -2.9563 -1.5544
 5534TIP3   OH216565   5.650   4.050   2.092 -0.2604  0.2403  0.3113
 5534TIP3    H116566   5.556   4.048   2.075  0.0063 -0.6457 -1.2213
 5534TIP3    H216567   5.667   3.972   2.145 -0.1981 -0.3466 -0.5623
 5535TIP3   OH216568   4.476   0.257   4.919 -0.0644  0.2859 -0.0929
 5535TIP3    H116569   4.483   0.297   5.006  1.1601 -0.5610  0.2280
 5535TIP3    H216570   4.565   0.229   4.899 -0.3390  0.4330 -1.6165
 5536TIP3   OH216571   5.833   5.709   2.368 -0.3167 -0.2890  0.2438
 5536TIP3    H116572   5.869   5.784   2.414  0.0699  0.0616 -0.5952
 5536TIP3    H216573   5.895   5.638   2.386  0.7451  0.2561 -1.0152
 5537TIP3   OH216574   4.631   4.751   4.083  0.3083  0.3320 -0.0835
 5537TIP3    H116575   4.707   4.808   4.069  0.4270 -0.3536 -2.9934
 5537TIP3    H216576   4.587   4.750   3.998 -1.7774 -0.9837  0.9446
 5538TIP3   OH216577   2.384   5.711   4.742 -0.8009  0.1565  0.0597
 5538TIP3    H116578   2.364   5.711   4.835 -1.4059  1.2619 -0.0454
 5538TIP3    H216579   2.446   5.783   4.731 -0.2900 -0.3351 -0.3087
 5539TIP3   OH216580   2.945   4.191   1.174  0.4060  0.1263  0.0354
 5539TIP3    H116581   2.911   4.103   1.190  0.5660  0.1312  0.4142
 5539TIP3    H216582   3.034   4.177   1.142 -0.5312  0.0211 -2.8188
 5540TIP3   OH216583   5.595   0.799   4.039  0.1650  0.6170 -0.2615
 5540TIP3    H116584   5.569   0.883   4.077  0.4707  0.3926  0.4589
 5540TIP3    H216585   5.664   0.767   4.098  0.3817  0.0881 -0.8020
 5541TIP3   OH216586   2.536   5.449   1.314  0.0184  0.9049 -0.3820
 5541TIP3    H116587   2.510   5.518   1.375  0.4332  0.6543  0.0936
 5541TIP3    H216588   2.631   5.459   1.306  0.3797 -0.7433  1.1565
 5542TIP3   OH216589   0.446   5.940   3.522 -0.0040  0.1009  0.2976
 5542TIP3    H116590   0.480   5.910   3.438  0.3123 -1.8534  1.0495
 5542TIP3    H216591   0.351   5.934   3.513 -0.1069  2.3231 -0.6960
 5543TIP3   OH216592   5.895   5.093   1.116  0.1647  0.4923 -0.2878
 5543TIP3    H116593   5.873   5.002   1.093 -0.1276  0.6182 -0.5079
 5543TIP3    H216594   5.883   5.098   1.211  2.5692 -0.3779  0.1320
 5544TIP3   OH216595   0.100   4.326   4.307  0.3057 -0.3353  0.5727
 5544TIP3    H116596   0.142   4.399   4.352  0.0505 -0.0247  0.3109
 5544TIP3    H216597   0.132   4.331   4.217  0.6747 -0.8480  0.6671
 5545TIP3   OH216598   2.553   6.642   5.365 -0.9678 -0.0271 -0.4437
 5545TIP3    H116599   2.550   6.737   5.354  0.4357  0.4345  2.2803
 5545TIP3    H216600   2.634   6.615   5.322  0.8133  0.7232  2.1671
 5546TIP3   OH216601   4.190   2.095   1.478  0.2037  0.2830  0.0298
 5546TIP3    H116602   4.131   2.150   1.529  0.9217 -0.5257  1.8074
 5546TIP3    H216603   4.199   2.141   1.394  0.2401  2.4907  1.1827
 5547TIP3   OH216604   6.562   6.578   4.901 -0.5028  0.5117  0.3361
 5547TIP3    H116605   6.484   6.628   4.879 -1.0276 -0.2966  0.3301
 5547TIP3    H216606   6.557   6.566   4.996 -0.9786 -0.4915  0.1971
 5548TIP3   OH216607   4.588   3.004   4.749  0.6089 -0.0244  0.3013
 5548TIP3    H116608   4.599   3.069   4.681 -1.9579 -0.4959 -0.6842
 5548TIP3    H216609   4.529   3.045   4.812  1.1102 -0.4365  1.0558
 5549TIP3   OH216610   1.783   2.374   4.573  0.2128 -0.6450  0.3507
 5549TIP3    H116611   1.753   2.462   4.594 -0.2253 -0.6318 -0.2950
 5549TIP3    H216612   1.720   2.316   4.615  0.9961 -0.6842  1.5252
 5550TIP3   OH216613   5.596   4.629   1.178 -0.0691 -0.2864  0.6759
 5550TIP3    H116614   5.663   4.569   1.212  2.2357  1.9386  0.4070
 5550TIP3    H216615   5.595   4.613   1.084  1.3133  0.7181  0.4551
 5551TIP3   OH216616   5.934   5.408   3.635  0.2054 -0.4255  0.7220
 5551TIP3    H116617   5.953   5.368   3.720  1.9853 -2.0261 -0.3729
 5551TIP3    H216618   6.005   5.470   3.621 -0.8049  0.8387  0.9419
 5552TIP3   OH216619   0.332   0.387   2.336 -0.1111  0.5387 -0.8170
 5552TIP3    H116620   0.320   0.468   2.386 -0.6919  0.3895 -0.7028
 5552TIP3    H216621   0.368   0.325   2.399  2.7812  1.3703 -1.4822
 5553TIP3   OH216622   6.190   0.220   4.259  0.0153  0.5182 -0.0951
 5553TIP3    H116623   6.188   0.300   4.312 -1.2116 -0.0612  0.7611
 5553TIP3    H216624   6.268   0.230   4.204  1.6113  0.9264  2.1236
 5554TIP3   OH216625   1.508   6.560   5.279  0.0435 -0.1413 -0.9296
 5554TIP3    H116626   1.542   6.637   5.234  1.2525 -0.1399 -0.0716
 5554TIP3    H216627   1.571   6.491   5.258  0.4615 -0.2131  0.4875
 5555TIP3   OH216628   6.195   0.730   2.363 -0.0018  0.0416  0.1262
 5555TIP3    H116629   6.272   0.754   2.414  1.3239 -1.3585 -1.1210
 5555TIP3    H216630   6.211   0.640   2.336 -1.5480  0.1099 -1.1673
 5556TIP3   OH216631   4.829   2.438   1.588  0.0739 -0.1960  0.4604
 5556TIP3    H116632   4.835   2.532   1.574  1.3969 -0.2446  0.5150
 5556TIP3    H216633   4.863   2.400   1.507 -1.1283 -0.6538  0.1492
 5557TIP3   OH216634   5.008   6.589   4.904  0.4005  0.2311  0.3181
 5557TIP3    H116635   5.035   6.541   4.825 -0.2218 -1.0627  0.8588
 5557TIP3    H216636   5.002   6.680   4.876 -0.9998 -0.3481 -1.4519
 5558TIP3   OH216637   6.366   0.111   0.919  0.1705  0.0751 -0.3974
 5558TIP3    H116638   6.386   0.109   0.826 -0.7712 -0.6400 -0.6033
 5558TIP3    H216639   6.321   0.194   0.932  0.1279  0.0871 -0.6178
 5559TIP3   OH216640   4.776   1.062   2.506  0.6372 -0.1454  0.1058
 5559TIP3    H116641   4.769   1.146   2.461 -1.0908 -0.7038 -0.7698
 5559TIP3    H216642   4.725   1.002   2.452 -1.0062 -0.9995  2.4347
 5560TIP3   OH216643   0.970   3.165   4.241 -0.3725  0.2238  0.1380
 5560TIP3    H116644   0.991   3.244   4.291 -1.7632  0.7484 -0.0511
 5560TIP3    H216645   0.879   3.147   4.263 -0.4246 -0.6324 -0.7493
 5561TIP3   OH216646   3.641   4.262   5.334 -0.0335 -0.3748 -0.6097
 5561TIP3    H116647   3.706   4.244   5.402 -0.7004 -2.7375 -0.5004
 5561TIP3    H216648   3.686   4.245   5.252 -0.2765 -1.2457 -0.5687
 5562TIP3   OH216649   6.394   1.822   0.363 -0.0619 -0.4660 -0.0988
 5562TIP3    H116650   6.327   1.846   0.426  1.2231  0.4911  0.9777
 5562TIP3    H216651   6.436   1.905   0.340  0.2904 -0.9537 -1.2750
 5563TIP3   OH216652   4.729   1.321   0.065 -0.2024  0.4587  0.1162
 5563TIP3    H116653   4.743   1.230   0.090  0.9523  0.1921 -1.3413
 5563TIP3    H216654   4.641   1.324   0.027 -0.0433 -0.1615 -0.3011
 5564TIP3   OH216655   6.782   5.430   0.146 -0.1473 -0.1684  0.3726
 5564TIP3    H116656   6.828   5.347   0.135  0.5004  0.3798 -1.3799
 5564TIP3    H216657   6.697   5.417   0.105 -0.5524 -0.3478  1.2462
 5565TIP3   OH216658   2.227   6.682   4.078  0.3615  0.2759 -0.3024
 5565TIP3    H116659   2.190   6.596   4.097  1.7829 -0.8604 -2.2259
 5565TIP3    H216660   2.171   6.717   4.009  0.4465  0.3671 -0.3252
 5566TIP3   OH216661   1.184   0.047   1.573  1.1056  0.0599 -0.1229
 5566TIP3    H116662   1.153   0.121   1.521  1.7673 -0.2318 -0.9639
 5566TIP3    H216663   1.137  -0.028   1.537  3.3824 -0.5585 -2.1224
 5567TIP3   OH216664   0.209   4.548   0.617 -0.3022  0.4176 -0.5555
 5567TIP3    H116665   0.216   4.482   0.686 -0.3541 -0.7728 -1.6503
 5567TIP3    H216666   0.299   4.560   0.587 -0.3182  0.7274 -0.4859
 5568TIP3   OH216667   0.608   6.337   4.965 -0.2156  0.2509 -0.3025
 5568TIP3    H116668   0.648   6.277   5.027  2.1264  0.4766 -1.4795
 5568TIP3    H216669   0.571   6.407   5.018 -0.1469 -0.6090  0.9044
 5569TIP3   OH216670   3.002   6.716   0.047 -0.6630  0.2477 -0.1088
 5569TIP3    H116671   2.980   6.624   0.033 -0.8069  0.1303  0.7938
 5569TIP3    H216672   2.917   6.761   0.043 -0.6145  0.3174 -0.3653
 5570TIP3   OH216673   6.547   1.182   5.023  0.0983  0.4183  0.0049
 5570TIP3    H116674   6.630   1.184   5.070  1.0683 -0.4768 -1.5747
 5570TIP3    H216675   6.486   1.229   5.079  0.4259 -2.8880  3.4938
 5571TIP3   OH216676   6.758   2.410   4.061 -0.0292 -0.4379 -0.6095
 5571TIP3    H116677   6.663   2.421   4.064 -0.1217 -1.1209 -0.8277
 5571TIP3    H216678   6.792   2.485   4.110 -0.5104  1.6745 -3.2632
 5572TIP3   OH216679   1.907   4.902   0.538 -0.5738 -0.5002 -0.2187
 5572TIP3    H116680   1.914   4.991   0.573 -3.4603 -0.3754  0.3068
 5572TIP3    H216681   1.969   4.900   0.465  0.1756  1.6600  0.2842
 5573TIP3   OH216682   4.316   2.142   4.249 -0.0245 -0.0937 -0.2371
 5573TIP3    H116683   4.284   2.105   4.332 -1.0449  0.2953 -0.4432
 5573TIP3    H216684   4.294   2.075   4.184 -0.3907  0.1508 -0.3700
 5574TIP3   OH216685   1.267   6.780   2.750  0.0126 -0.7403 -0.0449
 5574TIP3    H116686   1.254   6.702   2.697 -1.3092 -1.0107  0.6351
 5574TIP3    H216687   1.182   6.823   2.751  0.4492  0.1458  0.4773
 5575TIP3   OH216688   1.419   3.229   0.532 -0.6625 -0.1563  0.6919
 5575TIP3    H116689   1.496   3.277   0.562 -0.0481  0.3297 -1.5116
 5575TIP3    H216690   1.450   3.176   0.458 -2.5348  0.5705 -0.7007
 5576TIP3   OH216691   1.436   1.048   2.312 -0.1449  0.4264  0.0552
 5576TIP3    H116692   1.522   1.089   2.312 -0.6368  1.5585 -1.3735
 5576TIP3    H216693   1.397   1.072   2.396  0.1532  1.6824 -0.1462
 5577TIP3   OH216694   1.076   6.252   2.553 -0.0127 -0.6526 -0.2419
 5577TIP3    H116695   1.081   6.214   2.640  1.7480  1.2529  0.5898
 5577TIP3    H216696   1.013   6.323   2.561 -0.4895 -1.0073 -0.7688
 5578TIP3   OH216697   3.500   0.370   0.170  0.2554 -0.4806 -0.5229
 5578TIP3    H116698   3.497   0.462   0.198 -0.0693 -0.0971 -1.7476
 5578TIP3    H216699   3.487   0.320   0.250 -0.0324  0.5518  0.0961
 5579TIP3   OH216700   0.889   0.843   3.028  0.3080 -0.3611 -0.1010
 5579TIP3    H116701   0.830   0.875   3.096  0.5271  1.6298 -0.7793
 5579TIP3    H216702   0.841   0.853   2.946  1.3041  0.7310 -0.5978
 5580TIP3   OH216703   6.811   5.634   4.431 -0.5326 -0.0678 -0.3320
 5580TIP3    H116704   6.768   5.593   4.506  0.4772  1.8608  1.4173
 5580TIP3    H216705   6.905   5.632   4.453 -0.2703  1.0814 -1.2281
 5581TIP3   OH216706   3.438   0.441   3.028 -0.2621 -0.6591 -0.0465
 5581TIP3    H116707   3.421   0.478   3.115  0.0395 -0.3668 -0.1082
 5581TIP3    H216708   3.462   0.517   2.975  1.4284 -1.0618  0.0945
 5582TIP3   OH216709   1.768   0.079   2.506 -0.4147 -0.5197  0.4352
 5582TIP3    H116710   1.735  -0.011   2.511 -0.1086 -0.5508  3.0921
 5582TIP3    H216711   1.862   0.069   2.489 -0.1620 -0.7955  1.8564
 5583TIP3   OH216712   2.547   6.177   4.814 -0.0995 -0.4497 -0.6690
 5583TIP3    H116713   2.486   6.109   4.841 -1.4786  0.9214 -0.1447
 5583TIP3    H216714   2.547   6.173   4.718  0.6600 -1.8435 -0.6319
 5584TIP3   OH216715   6.786   1.716   2.457 -0.3949  0.0056  0.1118
 5584TIP3    H116716   6.845   1.716   2.382 -1.1036 -2.5936 -0.5652
 5584TIP3    H216717   6.706   1.757   2.425 -0.5496 -0.7172 -0.4617
 5585TIP3   OH216718   0.338   3.713   2.399 -0.6643  0.4141  0.2611
 5585TIP3    H116719   0.407   3.760   2.352 -0.2151 -1.1903 -0.7689
 5585TIP3    H216720   0.268   3.701   2.335 -1.5326  1.1793  1.0222
 5586TIP3   OH216721   3.846   4.894   4.655  0.3066  1.0375 -0.2782
 5586TIP3    H116722   3.855   4.840   4.576  0.5655  2.3677 -1.1813
 5586TIP3    H216723   3.762   4.939   4.644 -1.1699 -0.9944  1.6674
 5587TIP3   OH216724   7.147   0.966   2.595  0.3555 -0.0658 -0.0902
 5587TIP3    H116725   7.126   1.004   2.510 -1.1035  0.7589  0.6156
 5587TIP3    H216726   7.161   1.041   2.652 -0.1059 -0.6060  0.7442
 5588TIP3   OH216727   4.022   5.312   5.406 -0.8182 -0.0199  0.1510
 5588TIP3    H116728   4.054   5.222   5.414  1.6513  0.8190  0.5961
 5588TIP3    H216729   3.969   5.326   5.484  0.3591 -0.5402  1.0745
 5589TIP3   OH216730   3.895   0.959   5.449 -0.2384  0.4188  0.3492
 5589TIP3    H116731   3.945   0.983   5.527 -0.3385 -0.3927  0.6748
 5589TIP3    H216732   3.915   1.027   5.385  0.5143  0.6331  0.8072
 5590TIP3   OH216733   0.099   4.336   3.330  0.1572 -0.0114 -0.3458
 5590TIP3    H116734   0.080   4.424   3.363 -1.2921  0.1096 -1.3974
 5590TIP3    H216735   0.142   4.351   3.246 -0.4316 -0.2881 -0.7045
 5591TIP3   OH216736   0.596   3.160   1.858  0.6071  0.2445 -0.1003
 5591TIP3    H116737   0.585   3.069   1.885  2.1638 -0.7752 -2.5816
 5591TIP3    H216738   0.608   3.208   1.940 -0.9762 -1.6203  1.3132
 5592TIP3   OH216739   4.206   5.047   0.436  0.3447 -0.5134  0.2104
 5592TIP3    H116740   4.154   5.006   0.504 -0.0056 -0.5012 -0.0489
 5592TIP3    H216741   4.170   5.012   0.354 -0.3749  0.7765 -0.0466
 5593TIP3   OH216742   2.875   6.109   3.380  0.0135  0.1007  0.1291
 5593TIP3    H116743   2.811   6.180   3.377 -0.8728 -0.5496  2.1070
 5593TIP3    H216744   2.826   6.031   3.356  0.6742 -0.0638 -0.7394
 5594TIP3   OH216745   7.178   5.663   3.997  0.0786  0.2897  0.1273
 5594TIP3    H116746   7.183   5.583   3.945  1.7350 -1.2858  2.5077
 5594TIP3    H216747   7.112   5.645   4.064  1.3518  0.3654  1.4500
 5595TIP3   OH216748   5.824   4.055   0.670 -0.4135  0.1240  0.5234
 5595TIP3    H116749   5.891   4.090   0.729 -0.2677  0.6647  0.0463
 5595TIP3    H216750   5.777   3.991   0.723  0.7959 -0.6313  0.7157
 5596TIP3   OH216751   5.339   6.795   1.235  0.4167 -0.0996  0.4003
 5596TIP3    H116752   5.267   6.750   1.278 -0.6817  0.3840 -0.8615
 5596TIP3    H216753   5.333   6.769   1.143 -0.3373  2.6416 -0.4053
 5597TIP3   OH216754   3.180   2.707   1.830  0.3621 -0.3163  0.3798
 5597TIP3    H116755   3.268   2.738   1.849  0.3308  0.1427 -0.2097
 5597TIP3    H216756   3.166   2.728   1.738 -0.5261  0.0194  0.5805
 5598TIP3   OH216757   4.338   5.446   2.622 -0.1649  0.0825 -0.4979
 5598TIP3    H116758   4.274   5.427   2.691  1.4678  0.7348  1.2890
 5598TIP3    H216759   4.291   5.429   2.540 -1.4544 -3.1871  0.7543
 5599TIP3   OH216760   5.761   6.533   2.223  0.0625 -0.1147 -0.0321
 5599TIP3    H116761   5.825   6.484   2.170 -0.9955 -1.2020 -0.3468
 5599TIP3    H216762   5.686   6.543   2.165 -0.5888 -0.0894  0.8086
 5600TIP3   OH216763   2.182   0.040   3.170  0.1980 -0.4297  0.7116
 5600TIP3    H116764   2.195   0.096   3.094 -0.0066 -1.2915  0.0214
 5600TIP3    H216765   2.091   0.011   3.163  0.7632 -2.1594  0.1243
 5601TIP3   OH216766   4.323   0.926   3.394 -0.6372 -0.5140 -0.1443
 5601TIP3    H116767   4.240   0.972   3.382 -0.7290 -0.2487  1.2369
 5601TIP3    H216768   4.375   0.949   3.318 -1.4837  0.1053 -0.5496
 5602TIP3   OH216769   4.542   0.215   2.351 -0.3395 -0.3785  0.0232
 5602TIP3    H116770   4.598   0.209   2.273  0.1814 -3.1288  0.5087
 5602TIP3    H216771   4.592   0.269   2.413  1.2093 -1.6793 -0.0389
 5603TIP3   OH216772   5.981   3.258   3.904 -0.3774 -0.3842 -0.0489
 5603TIP3    H116773   6.006   3.336   3.854 -0.4167  0.7451  1.6154
 5603TIP3    H216774   6.062   3.232   3.950 -0.7535 -0.3383  0.6538
 5604TIP3   OH216775   2.762   6.376   2.627 -0.4663  0.3840  0.1892
 5604TIP3    H116776   2.854   6.396   2.647 -0.2261 -0.7359  0.2698
 5604TIP3    H216777   2.757   6.281   2.633 -1.5235  0.4017 -0.3233
 5605TIP3   OH216778   1.419   0.657   2.890 -0.0341 -0.0257 -0.3040
 5605TIP3    H116779   1.424   0.576   2.839  1.9727  0.1317 -0.4649
 5605TIP3    H216780   1.486   0.713   2.851  0.1470  0.8722  1.2159
 5606TIP3   OH216781   5.820   1.532   5.871 -0.7164  0.2080 -0.1260
 5606TIP3    H116782   5.727   1.553   5.869 -0.6141  0.6257 -0.6645
 5606TIP3    H216783   5.854   1.562   5.787 -0.3563 -1.2021 -0.5064
 5607TIP3   OH216784   5.101   2.013   0.240 -0.1008  0.0410 -0.0790
 5607TIP3    H116785   5.105   2.104   0.271  1.2277 -0.0019 -0.0497
 5607TIP3    H216786   5.096   2.020   0.145 -2.2486  0.1517  0.0106
 5608TIP3   OH216787   2.097   1.324   3.066  0.5374 -0.2687  0.7132
 5608TIP3    H116788   2.146   1.250   3.028  0.0447 -0.5368  0.6012
 5608TIP3    H216789   2.143   1.401   3.034  0.5288 -0.5083  0.1085
 5609TIP3   OH216790   1.087   4.550   2.328 -0.5397  0.1176 -0.1264
 5609TIP3    H116791   1.007   4.584   2.367 -0.2376  1.4531 -0.6052
 5609TIP3    H216792   1.145   4.534   2.402 -1.3502 -1.2034  0.2530
 5610TIP3   OH216793   3.781   4.689   3.055 -0.3263 -0.7473 -0.6311
 5610TIP3    H116794   3.863   4.723   3.019  1.3190 -0.8181  2.6162
 5610TIP3    H216795   3.770   4.736   3.138 -1.4595 -3.4580  0.9070
 5611TIP3   OH216796   3.038   4.981   1.956 -0.1289  0.4291 -0.0112
 5611TIP3    H116797   3.129   4.977   1.986 -0.1581  0.3628  0.0698
 5611TIP3    H216798   2.992   4.918   2.012 -0.0566 -0.2105 -0.6568
 5612TIP3   OH216799   0.806   0.295   3.366  0.0506 -0.2634 -0.4669
 5612TIP3    H116800   0.815   0.388   3.384 -0.6987  0.5021 -3.5285
 5612TIP3    H216801   0.861   0.252   3.431  1.7948  2.4067 -0.0648
 5613TIP3   OH216802   1.982   0.903   1.847 -0.1466  0.4077 -0.2492
 5613TIP3    H116803   2.022   0.834   1.899 -1.1761 -0.7075 -0.8763
 5613TIP3    H216804   1.888   0.893   1.862 -0.3443  1.4181 -0.6782
 5614TIP3   OH216805  -0.018   1.702   4.937 -0.4182  0.4371  0.6151
 5614TIP3    H116806   0.024   1.734   5.016  3.6814  0.2559 -1.2480
 5614TIP3    H216807   0.037   1.629   4.908  1.2957  3.3404 -4.7674
 5615TIP3   OH216808   4.991   6.228   0.191 -0.3109 -0.4087  0.3562
 5615TIP3    H116809   5.079   6.237   0.227  0.3633 -1.1832 -1.0067
 5615TIP3    H216810   5.003   6.236   0.096 -1.8426  0.3748  0.1947
 5616TIP3   OH216811   2.358   4.587   3.231 -0.0796 -0.2720  0.0659
 5616TIP3    H116812   2.358   4.629   3.145 -0.1912  0.0561  0.2240
 5616TIP3    H216813   2.441   4.612   3.271 -1.1205  1.7742  1.1003
 5617TIP3   OH216814   4.491   2.463   3.044  0.5944  0.5207 -0.4310
 5617TIP3    H116815   4.506   2.372   3.069  0.9708  1.1236  1.7824
 5617TIP3    H216816   4.575   2.493   3.010  1.3961  0.8114  1.6351
 5618TIP3   OH216817   6.403   5.003   2.991 -0.1662 -0.4817  0.1574
 5618TIP3    H116818   6.419   5.084   2.943  0.4175 -0.0530  1.0501
 5618TIP3    H216819   6.365   5.031   3.074  1.2354 -0.9968  1.0121
 5619TIP3   OH216820   3.711   2.096   0.966 -0.0270 -0.1461  0.0559
 5619TIP3    H116821   3.674   2.125   0.883  1.1524  0.2587 -0.3373
 5619TIP3    H216822   3.634   2.073   1.019 -0.8094  0.0184 -0.9745
 5620TIP3   OH216823   1.683   6.293   2.250 -0.1750  0.0809  0.4845
 5620TIP3    H116824   1.656   6.344   2.326 -1.0495  0.0475  0.2143
 5620TIP3    H216825   1.742   6.227   2.285 -1.5532 -0.7431  1.3732
 5621TIP3   OH216826   6.528   1.157   0.350 -0.2546 -0.2510  0.1712
 5621TIP3    H116827   6.580   1.236   0.368 -1.1189  0.5290 -0.6112
 5621TIP3    H216828   6.444   1.174   0.391 -1.0712  0.0631 -1.5210
 5622TIP3   OH216829   5.683   5.617   3.741  0.6524  0.1329  0.2791
 5622TIP3    H116830   5.680   5.667   3.659  3.1697  1.2003  0.7566
 5622TIP3    H216831   5.704   5.528   3.714 -0.9193 -0.0718 -0.3666
 5623TIP3   OH216832   0.584   4.829   1.970  0.3044 -0.3668 -0.4757
 5623TIP3    H116833   0.658   4.888   1.983 -0.6448  1.0760 -1.2746
 5623TIP3    H216834   0.586   4.770   2.045 -0.4552  2.6275  2.1094
 5624TIP3   OH216835   4.151   4.156   1.946  0.1098 -0.3765  0.0920
 5624TIP3    H116836   4.175   4.195   2.030  1.4191 -0.5654 -0.1823
 5624TIP3    H216837   4.168   4.063   1.958 -0.5519 -0.5269 -0.1035
 5625TIP3   OH216838   6.482   6.340   0.740 -1.0267 -0.2143  0.2357
 5625TIP3    H116839   6.471   6.410   0.677 -0.3435 -0.7863 -0.5430
 5625TIP3    H216840   6.449   6.376   0.822 -1.2311  0.8005 -0.2774
 5626TIP3   OH216841   3.448   1.359   5.330 -0.4819 -0.6983  0.1352
 5626TIP3    H116842   3.498   1.288   5.372  0.4473  1.1330  2.2893
 5626TIP3    H216843   3.510   1.399   5.269 -0.5563 -0.8103 -0.0165
 5627TIP3   OH216844   2.070   1.575   3.368  0.2813  0.5366  0.0879
 5627TIP3    H116845   2.001   1.627   3.327  0.6338  1.4776  0.6512
 5627TIP3    H216846   2.144   1.636   3.376  0.5762  0.0712  1.1117
 5628TIP3   OH216847   3.937   0.548   3.924 -0.1436 -0.3422  0.0496
 5628TIP3    H116848   3.869   0.614   3.939  0.7325  0.9740 -1.4234
 5628TIP3    H216849   3.905   0.499   3.848 -0.0114 -0.4974  0.0966
 5629TIP3   OH216850   6.522   0.785   5.422  0.2568  0.0569  0.5468
 5629TIP3    H116851   6.486   0.709   5.467  0.0699  0.4042  0.9995
 5629TIP3    H216852   6.545   0.754   5.335 -0.6510 -0.2950  0.4330
 5630TIP3   OH216853   3.439   6.398   4.742  0.0572  0.7104  0.0865
 5630TIP3    H116854   3.472   6.400   4.832  2.4097  1.8827 -0.7122
 5630TIP3    H216855   3.396   6.482   4.731 -2.0974 -0.2422  0.6705
 5631TIP3   OH216856   3.798   4.804   1.300 -0.0012 -0.0268 -0.5102
 5631TIP3    H116857   3.760   4.866   1.237 -2.3455 -1.2909 -0.4492
 5631TIP3    H216858   3.837   4.736   1.246  2.0643  1.1149 -0.5675
 5632TIP3   OH216859   1.119   2.948   3.270  0.0979 -0.6420 -0.7111
 5632TIP3    H116860   1.071   3.013   3.321  1.5921 -0.6615  0.8349
 5632TIP3    H216861   1.057   2.917   3.205 -1.8351 -0.4257  0.9452
 5633TIP3   OH216862   2.484   2.265   1.286 -0.3778 -0.3991  0.0949
 5633TIP3    H116863   2.427   2.243   1.212 -0.2619  1.4513 -0.5915
 5633TIP3    H216864   2.563   2.301   1.245 -0.5447  1.1986  1.0998
 5634TIP3   OH216865   0.663   0.389   1.025  0.8692 -0.6440  0.2063
 5634TIP3    H116866   0.693   0.466   0.977  0.2112 -1.2603 -1.2389
 5634TIP3    H216867   0.634   0.423   1.110  0.6763  0.6885 -0.3769
 5635TIP3   OH216868   0.273   2.034   3.817 -0.3540 -0.4079 -0.5219
 5635TIP3    H116869   0.352   2.057   3.865 -0.1028 -2.4248  0.1013
 5635TIP3    H216870   0.205   2.027   3.884 -0.6257 -0.5708 -0.8124
 5636TIP3   OH216871   6.114   0.453   3.245 -0.2817  0.1948 -0.0114
 5636TIP3    H116872   6.050   0.524   3.254 -1.5836 -1.0936  1.6221
 5636TIP3    H216873   6.077   0.396   3.178 -0.8340 -0.5009  0.8655
 5637TIP3   OH216874   5.693   4.278   0.956 -0.3726 -0.1131 -0.0045
 5637TIP3    H116875   5.738   4.353   0.995 -1.5488 -0.2527  1.7061
 5637TIP3    H216876   5.688   4.300   0.863 -1.1512  2.1967  0.5062
 5638TIP3   OH216877   2.853   0.228   5.681 -0.6638 -0.0660  0.0396
 5638TIP3    H116878   2.938   0.271   5.678 -1.2268  1.1153  0.3663
 5638TIP3    H216879   2.828   0.231   5.773 -0.7088 -1.1217  0.0658
 5639TIP3   OH216880   0.485   2.944   2.644  0.0953 -0.1272  0.4923
 5639TIP3    H116881   0.497   3.015   2.707  0.6232 -0.2955  0.5846
 5639TIP3    H216882   0.390   2.930   2.642  0.0709 -0.1155  1.2507
 5640TIP3   OH216883   5.017   2.750   4.660 -0.1353 -0.0554  0.5163
 5640TIP3    H116884   4.922   2.743   4.666 -0.1031 -2.3014 -0.6830
 5640TIP3    H216885   5.048   2.660   4.651  1.9756  0.7200 -0.9198
 5641TIP3   OH216886   4.448   1.558   2.664  0.0712 -0.5476 -0.5683
 5641TIP3    H116887   4.467   1.584   2.574 -1.1242  0.0892 -0.6708
 5641TIP3    H216888   4.423   1.640   2.707  1.6374 -0.6567  0.6483
 5642TIP3   OH216889   0.876   3.835   1.535  0.1738  0.3167  0.1735
 5642TIP3    H116890   0.924   3.916   1.551 -1.5649  2.1499 -2.8785
 5642TIP3    H216891   0.846   3.806   1.621  2.1341  2.0352  1.5053
 5643TIP3   OH216892   2.958   3.374   5.322 -0.5246  0.0414  0.0148
 5643TIP3    H116893   2.921   3.373   5.410  0.2497 -3.8117  0.4698
 5643TIP3    H216894   2.931   3.291   5.283  1.7067  0.2334 -2.2277
 5644TIP3   OH216895   0.684   1.135   5.317 -0.2685  0.6575  0.0906
 5644TIP3    H116896   0.701   1.228   5.307 -1.9748  1.0286  0.2560
 5644TIP3    H216897   0.614   1.116   5.255 -0.2520 -0.4168  0.3650
 5645TIP3   OH216898   6.082   0.045   3.003 -0.3194  0.3182  0.3982
 5645TIP3    H116899   6.075   0.140   3.013 -0.2398  0.4452 -0.6623
 5645TIP3    H216900   6.176   0.028   3.007 -0.3763  0.1796  1.3782
 5646TIP3   OH216901   3.347   5.891   2.818  0.2144  0.3637  0.6191
 5646TIP3    H116902   3.366   5.907   2.910 -2.3060  1.8774  0.9832
 5646TIP3    H216903   3.343   5.978   2.779  0.6160 -0.2258 -0.7888
 5647TIP3   OH216904   6.946   1.882   0.284 -0.6785  0.3631  0.3708
 5647TIP3    H116905   6.897   1.816   0.236  0.3685 -0.0843 -0.0926
 5647TIP3    H216906   6.952   1.848   0.373 -0.4937  0.0254  0.2298
 5648TIP3   OH216907   3.887   5.144   5.068 -0.4775  0.3651  0.3982
 5648TIP3    H116908   3.937   5.096   5.134  0.3119  0.6452  0.0142
 5648TIP3    H216909   3.801   5.157   5.108 -0.0175  0.5218  1.3595
 5649TIP3   OH216910   2.944   6.093   5.567  0.1561 -0.0367  0.0729
 5649TIP3    H116911   2.864   6.053   5.535 -0.3891  1.6598 -0.8110
 5649TIP3    H216912   2.925   6.113   5.659 -0.4590  0.3803 -0.1370
 5650TIP3   OH216913   2.818   6.098   0.905  0.3265  0.4322  0.2653
 5650TIP3    H116914   2.895   6.040   0.911  1.0552  1.2394 -0.8863
 5650TIP3    H216915   2.830   6.145   0.822 -1.2644  0.8031  0.2158
 5651TIP3   OH216916   1.418   0.576   1.380  0.3770  0.0577  0.6073
 5651TIP3    H116917   1.342   0.576   1.437  0.1501  1.2068  0.3287
 5651TIP3    H216918   1.453   0.665   1.386  1.1819 -0.2050  0.0541
 5652TIP3   OH216919   1.376   6.018   2.281 -0.3739  0.4598  0.4174
 5652TIP3    H116920   1.359   6.085   2.348 -1.7547  0.2059  0.3443
 5652TIP3    H216921   1.458   5.977   2.309  0.3096  1.9244  0.6627
 5653TIP3   OH216922   2.915   1.726   5.382 -0.0996  0.4934  0.4149
 5653TIP3    H116923   2.837   1.770   5.349 -0.5426 -0.5254  0.0703
 5653TIP3    H216924   2.988   1.769   5.339 -0.5181  0.9685  0.1807
 5654TIP3   OH216925   6.925   0.543   3.348 -0.0110  0.3212  0.1053
 5654TIP3    H116926   6.844   0.495   3.366 -0.4034 -0.0961 -2.3497
 5654TIP3    H216927   6.993   0.476   3.347  0.3780  0.6422  1.9561
 5655TIP3   OH216928   4.241   4.675   2.920 -0.1461 -0.4131 -0.1547
 5655TIP3    H116929   4.230   4.581   2.908  0.5857 -0.3154 -1.8765
 5655TIP3    H216930   4.332   4.684   2.950 -0.2034 -0.2397 -0.0345
 5656TIP3   OH216931   5.052   6.228   3.833 -0.3413  0.9907  0.3192
 5656TIP3    H116932   4.974   6.222   3.888 -0.6111 -2.6057 -0.2331
 5656TIP3    H216933   5.123   6.249   3.894 -0.9614 -0.8562  1.7758
 5657TIP3   OH216934   1.960   5.221   4.136  0.4708 -0.2298 -0.1066
 5657TIP3    H116935   1.920   5.282   4.073  0.0896  0.7247  1.0217
 5657TIP3    H216936   1.914   5.238   4.218  1.4279 -0.9663  0.6023
 5658TIP3   OH216937   5.452   6.491   2.962 -0.3684  0.1576  0.4605
 5658TIP3    H116938   5.399   6.507   3.039 -1.5119  1.6805 -0.5784
 5658TIP3    H216939   5.535   6.535   2.980 -0.2468 -0.3701  1.2183
 5659TIP3   OH216940   5.289   6.719   2.355  0.3080  0.0878 -0.1944
 5659TIP3    H116941   5.220   6.688   2.413 -0.1663 -1.1958 -1.3983
 5659TIP3    H216942   5.252   6.713   2.268  1.3186  1.1462 -0.7248
 5660TIP3   OH216943   5.177   3.053   0.311 -0.2958 -0.1550  0.4404
 5660TIP3    H116944   5.204   3.018   0.226  0.2897 -0.9673  0.9505
 5660TIP3    H216945   5.181   3.148   0.300  1.7835 -0.2310  0.1626
 5661TIP3   OH216946   0.206   2.636   2.815 -0.3628 -0.4076  0.0777
 5661TIP3    H116947   0.169   2.639   2.727  1.1656 -1.3803 -0.6421
 5661TIP3    H216948   0.289   2.682   2.807 -0.5792  0.2124  1.2290
 5662TIP3   OH216949   1.512   6.611   4.843  0.6502 -0.0313 -0.1642
 5662TIP3    H116950   1.453   6.558   4.896  2.0603 -1.6232 -0.1135
 5662TIP3    H216951   1.578   6.642   4.905  0.6947  0.5100 -0.4790
 5663TIP3   OH216952   5.629   5.751   5.489  0.8696 -0.0604 -0.4296
 5663TIP3    H116953   5.717   5.752   5.528  1.8185  1.5628 -2.4670
 5663TIP3    H216954   5.637   5.805   5.411 -1.9604  0.0725 -0.7042
 5664TIP3   OH216955   3.634   5.917   2.198  0.2116  0.3565 -0.6384
 5664TIP3    H116956   3.704   5.879   2.145  0.2990  1.5039 -1.4021
 5664TIP3    H216957   3.603   5.991   2.145 -0.2010  1.0860  0.5954
 5665TIP3   OH216958   3.317   4.699   5.509 -0.3367 -0.0675  0.1743
 5665TIP3    H116959   3.355   4.661   5.430  0.4436  0.1004  0.4648
 5665TIP3    H216960   3.392   4.729   5.560 -0.8454  0.0145  0.8866
 5666TIP3   OH216961   1.657   3.281   2.592  0.6678 -0.0930  0.5574
 5666TIP3    H116962   1.727   3.217   2.587  0.5405 -0.1372 -1.8823
 5666TIP3    H216963   1.602   3.251   2.664  1.8266 -1.4169  0.9388
 5667TIP3   OH216964   6.458   1.530   1.908  0.2060 -0.4130 -0.3523
 5667TIP3    H116965   6.497   1.607   1.868  1.6997 -1.6467 -1.3874
 5667TIP3    H216966   6.427   1.561   1.993  0.4932  1.3846 -0.8549
 5668TIP3   OH216967   6.351   6.529   4.426  0.2305  0.2513  0.3619
 5668TIP3    H116968   6.418   6.463   4.446  1.8013  1.4323 -0.7695
 5668TIP3    H216969   6.310   6.497   4.345  0.6047  0.3833  0.1192
 5669TIP3   OH216970   2.599   0.168   2.537  0.2908  0.0160 -0.0671
 5669TIP3    H116971   2.645   0.084   2.538 -1.5228 -1.1084 -2.3820
 5669TIP3    H216972   2.549   0.169   2.619 -0.3837 -1.6240 -0.4215
 5670TIP3   OH216973   6.179   3.204   0.185 -0.1738 -0.4635  0.0218
 5670TIP3    H116974   6.094   3.248   0.188 -0.5167 -1.0982 -0.2378
 5670TIP3    H216975   6.230   3.246   0.254 -1.1530 -0.9763  1.1013
 5671TIP3   OH216976   5.405   6.119   0.804 -0.4000  0.2862 -0.4069
 5671TIP3    H116977   5.360   6.131   0.887  0.4801 -0.0609  0.1327
 5671TIP3    H216978   5.497   6.108   0.828 -0.1947 -0.2730 -1.3895
 5672TIP3   OH216979   4.293   2.572   2.013 -0.2158 -0.4935  0.0924
 5672TIP3    H116980   4.281   2.485   1.974  2.4663 -0.5001 -0.8868
 5672TIP3    H216981   4.326   2.554   2.101  1.1943 -0.5076 -0.4198
 5673TIP3   OH216982   6.061   3.367   0.417 -0.7195  0.4114 -0.4020
 5673TIP3    H116983   6.143   3.317   0.423 -0.9097 -0.3688 -3.1492
 5673TIP3    H216984   6.088   3.450   0.378 -1.0794  0.6536 -0.1357
 5674TIP3   OH216985   2.627   4.334   3.504 -0.2968 -0.2639  0.0581
 5674TIP3    H116986   2.650   4.291   3.422  0.0241  1.5285 -0.8403
 5674TIP3    H216987   2.544   4.378   3.486  0.3521  1.1086  0.2979
 5675TIP3   OH216988   2.239   0.758   3.549 -0.5150  0.5383 -0.0781
 5675TIP3    H116989   2.212   0.845   3.519 -1.3603  0.3394  0.0528
 5675TIP3    H216990   2.168   0.700   3.519 -0.0977 -0.0561  0.0733
 5676TIP3   OH216991   5.267   6.029   0.578  0.3068 -0.7383  0.1528
 5676TIP3    H116992   5.328   6.086   0.625  1.1269 -1.0579 -0.5030
 5676TIP3    H216993   5.184   6.041   0.623  0.4885  0.8782  0.1037
 5677TIP3   OH216994   0.650   2.721   5.032  0.3891  0.4633  0.1540
 5677TIP3    H116995   0.712   2.738   4.960  1.1867  1.1658  0.9819
 5677TIP3    H216996   0.604   2.641   5.005  0.0612  1.1873 -1.5333
 5678TIP3   OH216997   3.054   3.666   2.698  0.3011  0.1976  0.0418
 5678TIP3    H116998   3.049   3.646   2.792  0.3362 -0.1153 -0.0229
 5678TIP3    H216999   3.093   3.588   2.659 -1.0551 -0.2801 -0.4266
 5679TIP3   OH217000   5.892   4.908   4.575  0.4818  0.0297  0.3966
 5679TIP3    H117001   5.806   4.939   4.547  0.3544  0.8224  1.6097
 5679TIP3    H217002   5.883   4.893   4.669  1.0281 -2.1193  0.1616
 5680TIP3   OH217003   6.255   0.675   3.631 -0.1203 -0.5491  0.0614
 5680TIP3    H117004   6.185   0.720   3.583  0.7501  1.0113  0.1876
 5680TIP3    H217005   6.232   0.687   3.723 -0.0915 -0.7039  0.0884
 5681TIP3   OH217006   2.620   1.037   0.872  0.2350  0.3337 -0.0249
 5681TIP3    H117007   2.613   1.000   0.960  1.1135  0.5417  0.1502
 5681TIP3    H217008   2.713   1.062   0.864  0.1172  0.5329 -0.9210
 5682TIP3   OH217009   0.330   5.410   4.897  0.2107  0.5756  0.4380
 5682TIP3    H117010   0.248   5.417   4.848  0.4954 -0.7200 -0.2654
 5682TIP3    H217011   0.326   5.323   4.938  0.3637  1.2840  2.0590
 5683TIP3   OH217012   6.341   1.810   2.222  0.3150 -0.4455  0.1928
 5683TIP3    H117013   6.364   1.719   2.205  2.7412 -0.0803  1.1488
 5683TIP3    H217014   6.263   1.806   2.277  2.9713 -2.2563  4.3509
 5684TIP3   OH217015   0.977   2.909   1.291  0.5957 -0.0545  0.1589
 5684TIP3    H117016   1.008   2.989   1.335  0.7385 -1.2058  2.2742
 5684TIP3    H217017   0.902   2.881   1.342  0.7775 -1.4925 -0.3260
 5685TIP3   OH217018   3.037   1.804   3.337 -0.2034  0.3649  0.6914
 5685TIP3    H117019   3.070   1.853   3.261  0.1471  0.6887  1.0437
 5685TIP3    H217020   3.086   1.841   3.412 -2.0257  1.5541  1.3776
 5686TIP3   OH217021   6.577   1.875   2.361  0.3671  0.2245  0.1202
 5686TIP3    H117022   6.536   1.834   2.437  0.1838 -1.3925 -0.8011
 5686TIP3    H217023   6.510   1.872   2.293  0.6888  1.2208 -0.2565
 5687TIP3   OH217024   2.242   2.743   2.831  0.0280  0.4662  0.0643
 5687TIP3    H117025   2.228   2.656   2.792  1.3098  1.3564 -2.5916
 5687TIP3    H217026   2.336   2.759   2.823 -0.1159  1.9582  0.8900
 5688TIP3   OH217027   0.976   4.449   4.363  0.6976 -0.3438  0.5196
 5688TIP3    H117028   1.066   4.427   4.338  0.4980 -1.2529  0.5666
 5688TIP3    H217029   0.927   4.447   4.281  0.8114  0.6782  0.4146
 5689TIP3   OH217030   3.812   1.636   5.228  0.4655  0.3188 -0.3496
 5689TIP3    H117031   3.891   1.612   5.180  0.8046 -2.0767  1.2228
 5689TIP3    H217032   3.843   1.687   5.303  0.2298  1.4633 -1.0017
 5690TIP3   OH217033   5.437   1.970   1.244 -0.1371  0.5196 -0.2735
 5690TIP3    H117034   5.407   1.998   1.330  0.0698  0.5052 -0.1945
 5690TIP3    H217035   5.454   2.052   1.197 -1.1966  0.5397 -0.6474
 5691TIP3   OH217036   1.870   6.093   1.240 -0.3532  0.1716 -0.2472
 5691TIP3    H117037   1.873   5.998   1.229 -2.5137  0.1971 -1.8469
 5691TIP3    H217038   1.914   6.128   1.162 -0.9067  0.4457 -0.4464
 5692TIP3   OH217039   1.643   3.089   3.027 -0.3468  0.5824  0.0280
 5692TIP3    H117040   1.658   3.175   3.067  0.3023  0.2010  0.6126
 5692TIP3    H217041   1.716   3.036   3.056 -1.1608 -0.4105  0.3212
 5693TIP3   OH217042   1.463   3.375   3.122  0.3878 -0.4977  0.3148
 5693TIP3    H117043   1.557   3.364   3.137  0.8284  1.3420 -0.7654
 5693TIP3    H217044   1.437   3.297   3.073  1.2896 -1.1202  0.7982
 5694TIP3   OH217045   4.082   3.100   4.291 -0.1464  0.5778 -0.1327
 5694TIP3    H117046   4.170   3.069   4.309 -0.9127 -1.2512  0.7072
 5694TIP3    H217047   4.053   3.138   4.374 -0.2983  0.8276 -0.2975
 5695TIP3   OH217048   5.026   0.028   4.684  0.3384 -0.2421  0.3577
 5695TIP3    H117049   5.104  -0.027   4.680  1.2367  0.9649  0.5510
 5695TIP3    H217050   5.022   0.056   4.776 -2.4319 -3.1568  1.3026
 5696TIP3   OH217051   0.879   3.417   3.669  0.0780  0.3489 -0.0109
 5696TIP3    H117052   0.972   3.397   3.679  0.0984  0.4109 -0.0806
 5696TIP3    H217053   0.868   3.439   3.576 -0.1274 -0.3125 -0.1518
 5697TIP3   OH217054   5.112   2.185   1.692  0.2522  0.5590  0.6174
 5697TIP3    H117055   5.121   2.261   1.748  2.7772  0.3797  0.5737
 5697TIP3    H217056   5.042   2.134   1.731 -0.5040  2.1857  1.4641
 5698TIP3   OH217057   1.957   4.078   5.362  0.4249  0.2061  0.3275
 5698TIP3    H117058   1.962   3.983   5.377 -0.1145 -0.2854 -2.0338
 5698TIP3    H217059   1.875   4.105   5.403 -0.5032 -0.8189 -0.7574
 5699TIP3   OH217060   3.878   4.672   3.548  0.2832  0.0740 -0.0557
 5699TIP3    H117061   3.961   4.714   3.527  0.5342 -0.1602  0.4569
 5699TIP3    H217062   3.888   4.582   3.519  0.4306 -0.1085  0.5596
 5700TIP3   OH217063   2.656   4.349   4.090  0.1684 -0.4184  0.5048
 5700TIP3    H117064   2.640   4.399   4.171 -1.0489 -2.0444  1.3389
 5700TIP3    H217065   2.682   4.414   4.026 -1.8102  1.3806  1.4043
 5701TIP3   OH217066   6.933   3.400   1.827 -0.2474 -0.9518  0.0350
 5701TIP3    H117067   6.929   3.352   1.744 -0.9270  0.7970 -0.9920
 5701TIP3    H217068   6.993   3.348   1.882 -1.8136 -3.5840 -0.5482
 5702TIP3   OH217069   1.185   1.245   4.563 -0.0815  0.0997  0.1233
 5702TIP3    H117070   1.162   1.337   4.576  0.7114  0.4749 -0.9375
 5702TIP3    H217071   1.167   1.229   4.470  2.7550  0.1274 -0.5341
 5703TIP3   OH217072   6.942   6.053   0.279  0.0546  0.2923 -0.1320
 5703TIP3    H117073   6.872   6.026   0.219  0.9564  0.7188 -1.4395
 5703TIP3    H217074   7.011   5.988   0.266 -0.1671 -0.2622  1.3252
 5704TIP3   OH217075   2.921   6.500   1.814  0.7347  0.5693 -0.1555
 5704TIP3    H117076   2.917   6.564   1.885  3.1522  0.3533  0.2509
 5704TIP3    H217077   2.888   6.419   1.853  2.1729  0.4132  0.8340
 5705TIP3   OH217078   0.376   4.272   3.444  0.1955 -0.4226  0.0302
 5705TIP3    H117079   0.331   4.260   3.527 -1.0248 -0.2683 -0.5809
 5705TIP3    H217080   0.362   4.189   3.398  1.5999 -0.8305  0.2986
 5706TIP3   OH217081   1.821   5.597   4.328 -0.5363  0.1183 -0.1982
 5706TIP3    H117082   1.806   5.604   4.422  3.5990 -1.0559  0.7521
 5706TIP3    H217083   1.808   5.505   4.309  0.3830  0.0117 -0.3505
 5707TIP3   OH217084   5.981   4.615   1.986 -0.1600 -0.1581 -0.3991
 5707TIP3    H117085   6.047   4.684   1.983  1.3003 -1.5146 -0.6390
 5707TIP3    H217086   5.974   4.586   1.895 -0.1583 -0.8717 -0.1705
 5708TIP3   OH217087   1.966   3.438   0.375  0.3073  0.3306  0.0621
 5708TIP3    H117088   2.013   3.403   0.450 -1.9156 -0.2866  1.2614
 5708TIP3    H217089   1.957   3.364   0.314 -1.3980 -0.3443  1.0614
 5709TIP3   OH217090   4.449   6.537   1.408 -0.3732  0.0346 -0.0470
 5709TIP3    H117091   4.445   6.629   1.435 -1.2458  0.8369 -2.6185
 5709TIP3    H217092   4.538   6.526   1.373 -0.8043  0.4088 -1.2914
 5710TIP3   OH217093   4.400   2.524   0.578  0.3172 -0.1722 -0.9845
 5710TIP3    H117094   4.446   2.453   0.623 -0.9579 -1.0092 -0.9397
 5710TIP3    H217095   4.325   2.544   0.635 -1.2705 -1.1745 -2.6217
 5711TIP3   OH217096   2.930   2.398   0.842  0.3020  0.6376 -0.2552
 5711TIP3    H117097   2.915   2.472   0.901 -0.7370  1.8696 -1.9985
 5711TIP3    H217098   2.995   2.344   0.888 -0.5619  1.4518  2.0625
 5712TIP3   OH217099   3.370   4.778   1.895  0.5179 -0.4034 -0.0122
 5712TIP3    H117100   3.434   4.798   1.827 -1.5644  0.7426 -1.7788
 5712TIP3    H217101   3.356   4.860   1.941  0.0087 -0.5259  0.0600
 5713TIP3   OH217102   1.364   2.293   3.785 -0.6078  0.0719 -0.1060
 5713TIP3    H117103   1.402   2.365   3.836  0.3576 -0.8255  0.4788
 5713TIP3    H217104   1.272   2.289   3.814 -0.5585  0.7952  0.1585
 5714TIP3   OH217105   6.325   2.053   3.778 -0.5649  0.3483  0.0872
 5714TIP3    H117106   6.319   1.986   3.847 -0.2081 -2.2842 -2.2421
 5714TIP3    H217107   6.236   2.057   3.743 -0.3679  0.3747 -0.4082
 5715TIP3   OH217108   1.477   2.001   2.453  0.6592  0.6864  0.1251
 5715TIP3    H117109   1.570   1.997   2.476  0.2548 -4.1433  2.1831
 5715TIP3    H217110   1.433   2.027   2.534  0.0876  1.4185 -0.4043
 5716TIP3   OH217111   6.651   4.345   3.060  0.3126 -0.3809 -0.7013
 5716TIP3    H117112   6.675   4.431   3.025  0.9535 -0.2553  0.0375
 5716TIP3    H217113   6.721   4.287   3.031 -0.7750 -0.9766 -2.3453
 5717TIP3   OH217114   2.270   3.340   0.183  0.1376 -0.5328  0.0457
 5717TIP3    H117115   2.314   3.419   0.153 -0.9293 -0.4300 -1.3151
 5717TIP3    H217116   2.342   3.279   0.203  0.9289  0.2226 -0.4329
 5718TIP3   OH217117   1.568   6.389   4.273  0.0053 -0.3238 -0.0693
 5718TIP3    H117118   1.516   6.350   4.343 -1.2534 -0.9782 -1.3211
 5718TIP3    H217119   1.523   6.472   4.254 -0.3110 -0.6503 -0.8021
 5719TIP3   OH217120   0.241   3.342   4.251 -0.2583  0.1019  0.3448
 5719TIP3    H117121   0.212   3.335   4.342  0.3654 -0.4908  0.5018
 5719TIP3    H217122   0.165   3.377   4.205 -0.6352  0.2517  1.0652
 5720TIP3   OH217123   5.915   2.396   0.876  0.2658 -0.6238 -0.5433
 5720TIP3    H117124   5.979   2.462   0.903  0.1584 -0.6000 -0.3462
 5720TIP3    H217125   5.896   2.416   0.784 -1.7251  1.2255  0.1904
 5721TIP3   OH217126   2.844   6.426   5.575  0.6675  0.1621  0.3040
 5721TIP3    H117127   2.875   6.367   5.506  1.2149 -0.9009  1.4248
 5721TIP3    H217128   2.753   6.399   5.590  0.4679  0.5548 -0.1318
 5722TIP3   OH217129   1.271   4.703   2.139  0.2647 -0.1742  0.4472
 5722TIP3    H117130   1.190   4.683   2.091  1.4366 -0.8208 -1.3999
 5722TIP3    H217131   1.279   4.632   2.202 -0.0297 -0.7721 -0.1715
 5723TIP3   OH217132   2.462   4.181   4.305 -0.0149  0.1597  0.3846
 5723TIP3    H117133   2.498   4.256   4.259  0.4414 -0.0217  0.4406
 5723TIP3    H217134   2.424   4.217   4.385 -2.5095  0.7599 -0.9502
 5724TIP3   OH217135   2.852   5.237   5.154 -0.1061  0.0161  0.8553
 5724TIP3    H117136   2.834   5.256   5.246 -0.6363  1.0416  0.5517
 5724TIP3    H217137   2.864   5.323   5.113  1.8558 -0.4756  0.2864
 5725TIP3   OH217138   2.519   0.354   1.591 -0.2601  0.3856 -0.0898
 5725TIP3    H117139   2.473   0.273   1.614 -0.0318  0.5906  1.1448
 5725TIP3    H217140   2.460   0.424   1.618 -0.4811  0.6630 -1.2075
 5726TIP3   OH217141   2.871   4.217   5.691  0.1093 -0.0232 -0.5359
 5726TIP3    H117142   2.946   4.253   5.738  0.0750 -0.3433 -0.2399
 5726TIP3    H217143   2.797   4.272   5.717  0.0296 -0.3959  0.0295
 5727TIP3   OH217144   2.791   3.585   2.392 -0.7023  0.2486  0.3789
 5727TIP3    H117145   2.704   3.569   2.356 -0.3758 -1.7638  0.3671
 5727TIP3    H217146   2.847   3.520   2.350  0.8536  1.5551  0.3141
 5728TIP3   OH217147   2.276   1.551   0.720 -0.1625 -0.4266  0.5020
 5728TIP3    H117148   2.345   1.594   0.771  0.4449 -0.8149  0.0311
 5728TIP3    H217149   2.217   1.622   0.695 -0.4583 -0.2230  1.7040
 5729TIP3   OH217150   2.633   2.797   5.783  0.4482  0.0921 -0.1134
 5729TIP3    H117151   2.538   2.811   5.787  0.1924 -1.5306  0.4665
 5729TIP3    H217152   2.666   2.871   5.733 -0.8200  1.9642  1.6355
 5730TIP3   OH217153   2.527   5.074   1.399 -0.0024  0.1692  0.2626
 5730TIP3    H117154   2.528   4.980   1.381 -0.2688  0.1438  0.3742
 5730TIP3    H217155   2.582   5.084   1.476 -0.1136  0.0831  0.3533
 5731TIP3   OH217156   4.133   6.438   3.168  0.8255  0.1348  0.0466
 5731TIP3    H117157   4.178   6.512   3.127  0.3929  1.5265  1.9184
 5731TIP3    H217158   4.195   6.406   3.234  0.8543 -0.9518 -0.4879
 5732TIP3   OH217159   7.100   3.843   5.709 -0.8355  0.2537  0.0012
 5732TIP3    H117160   7.116   3.759   5.751 -2.1673  0.0543  0.1578
 5732TIP3    H217161   7.184   3.866   5.669 -0.8934 -2.0992 -1.7326
 5733TIP3   OH217162   3.182   2.845   1.525 -0.0923 -0.3045 -0.1247
 5733TIP3    H117163   3.130   2.843   1.445 -0.5402  1.0553  0.1135
 5733TIP3    H217164   3.157   2.927   1.569  2.3954  0.5455 -0.1301
 5734TIP3   OH217165   6.094   4.546   1.433 -0.0559  0.6440  0.2586
 5734TIP3    H117166   6.073   4.619   1.491  0.4044  0.0264  1.2371
 5734TIP3    H217167   6.187   4.530   1.448 -0.4381 -1.0243  1.1209
 5735TIP3   OH217168   1.944   4.988   3.519  0.0557  0.4310  0.3343
 5735TIP3    H117169   1.992   5.058   3.564  1.4142 -0.0014 -0.4107
 5735TIP3    H217170   1.991   4.976   3.437 -0.6765 -0.7844  0.0790
 5736TIP3   OH217171   6.682   6.385   3.854  0.3278 -0.1910 -0.0886
 5736TIP3    H117172   6.663   6.379   3.761 -0.0501 -1.7008  0.0595
 5736TIP3    H217173   6.763   6.334   3.865  1.3574  1.4325  0.1593
 5737TIP3   OH217174   0.233   1.865   2.450 -0.7939 -0.1426 -0.0742
 5737TIP3    H117175   0.247   1.957   2.472  1.1573 -0.4028  0.0113
 5737TIP3    H217176   0.149   1.842   2.491 -1.0516  1.4461  0.3438
 5738TIP3   OH217177   2.900   6.368   1.505 -0.2550 -0.0742  0.1896
 5738TIP3    H117178   2.860   6.299   1.558 -0.4964 -0.6717 -0.7550
 5738TIP3    H217179   2.972   6.325   1.460  0.5125  0.6460  0.7137
 5739TIP3   OH217180   6.709   1.451   1.924 -0.3539 -0.1140 -0.2797
 5739TIP3    H117181   6.618   1.477   1.912  0.0352  1.6143  0.2910
 5739TIP3    H217182   6.749   1.463   1.838 -0.4991 -0.2123 -0.3619
 5740TIP3   OH217183   4.854   0.838   2.192  0.6010 -0.2218 -0.4886
 5740TIP3    H117184   4.785   0.872   2.250  0.4327  0.3715 -1.0235
 5740TIP3    H217185   4.812   0.770   2.141  0.9368 -1.2738  0.5848
 5741TIP3   OH217186   2.776   4.373   1.281  0.0861  0.0086 -0.1290
 5741TIP3    H117187   2.828   4.296   1.262  0.5780 -0.1522  1.6378
 5741TIP3    H217188   2.825   4.419   1.350 -0.6630  1.3995 -0.4803
 5742TIP3   OH217189   4.483   4.964   0.818  0.6438  0.4171 -0.4830
 5742TIP3    H117190   4.473   5.048   0.775  3.2914  1.1512  0.1947
 5742TIP3    H217191   4.499   4.902   0.747  2.3305  1.1549 -0.7828
 5743TIP3   OH217192   1.980   1.596   0.485 -0.1452 -0.2548 -0.4433
 5743TIP3    H117193   1.912   1.663   0.482  1.3704  1.8903  3.9185
 5743TIP3    H217194   2.056   1.637   0.444 -0.6895 -1.7896 -3.2311
 5744TIP3   OH217195   1.456   5.678   3.969 -0.0902 -0.8662  0.2030
 5744TIP3    H117196   1.479   5.592   3.933  1.7712  0.3123 -1.7019
 5744TIP3    H217197   1.424   5.728   3.893  1.3015  0.8663  0.6803
 5745TIP3   OH217198   5.579   3.067   3.164  0.1949 -0.2726  0.5239
 5745TIP3    H117199   5.590   3.044   3.256 -2.7878 -1.2045  0.7869
 5745TIP3    H217200   5.486   3.089   3.156  0.7347  1.5794 -1.9355
 5746TIP3   OH217201   3.652   6.788   0.692 -0.4260  0.6306  0.3144
 5746TIP3    H117202   3.735   6.831   0.713 -0.2212  0.4378 -0.0922
 5746TIP3    H217203   3.661   6.700   0.729  0.0538  0.1870 -0.7819
 5747TIP3   OH217204   1.346   5.549   0.296 -0.2986  0.2276 -0.3040
 5747TIP3    H117205   1.384   5.637   0.298 -0.7093  0.4084 -0.2798
 5747TIP3    H217206   1.253   5.564   0.277 -0.8739 -0.0377  2.0492
 5748TIP3   OH217207   2.965   2.326   1.722 -0.7453  0.6803 -0.1184
 5748TIP3    H117208   3.032   2.394   1.711  0.2581 -0.0899  0.9210
 5748TIP3    H217209   2.957   2.316   1.817 -0.6750 -0.8204 -0.2484
 5749TIP3   OH217210   4.630   0.230   3.683  0.5864  0.3112 -0.4832
 5749TIP3    H117211   4.556   0.225   3.743  1.7370  1.5450  1.1000
 5749TIP3    H217212   4.627   0.320   3.649  0.8763  0.1062 -1.0715
 5750TIP3   OH217213   0.128   3.465   0.939 -0.2825  0.0127  0.0824
 5750TIP3    H117214   0.059   3.402   0.958 -0.0957 -0.5376 -0.9935
 5750TIP3    H217215   0.117   3.485   0.845  0.5816  0.4466  0.0652
 5751TIP3   OH217216   1.707   2.468   4.204  0.2455  0.6194 -1.0840
 5751TIP3    H117217   1.786   2.503   4.164  0.8413  0.0655 -0.4264
 5751TIP3    H217218   1.736   2.387   4.247  0.0874  2.0463  1.9662
 5752TIP3   OH217219   1.264   4.457   4.352 -0.3642  0.6071  0.1944
 5752TIP3    H117220   1.321   4.391   4.391 -1.8297 -1.1891 -0.5262
 5752TIP3    H217221   1.321   4.531   4.334  1.6414 -0.9223 -0.0674
 5753TIP3   OH217222   0.769   1.972   5.135  0.3823  0.2526  0.0674
 5753TIP3    H117223   0.743   1.909   5.067  0.1543 -1.0107  1.2887
 5753TIP3    H217224   0.850   2.010   5.102  0.0433  0.0005 -1.1166
 5754TIP3   OH217225   3.030   5.967   1.883  0.1184 -0.2893  0.0098
 5754TIP3    H117226   3.027   6.002   1.794  0.9373  0.4920  0.2669
 5754TIP3    H217227   3.077   5.884   1.874  1.4575  0.4544 -0.1131
 5755TIP3   OH217228   2.460   1.412   3.126 -0.0734 -0.0582  0.1836
 5755TIP3    H117229   2.436   1.333   3.175  1.7565 -2.0251 -1.8369
 5755TIP3    H217230   2.377   1.455   3.108 -1.8213 -3.9135 -2.3405
 5756TIP3   OH217231   7.012   4.410   1.254 -0.4442  0.8558  0.3564
 5756TIP3    H117232   6.948   4.420   1.184 -1.5916  0.8513  1.3738
 5756TIP3    H217233   7.038   4.318   1.249 -1.5875  0.4887  0.8033
 5757TIP3   OH217234   0.652   4.273   5.152  0.1604 -0.4826  0.4800
 5757TIP3    H117235   0.723   4.277   5.217  0.2693  0.8276  0.3044
 5757TIP3    H217236   0.660   4.354   5.102 -0.6700 -0.9186 -0.4029
 5758TIP3   OH217237   1.437   1.989   1.069 -0.0193  0.5944 -0.2843
 5758TIP3    H117238   1.423   1.923   1.000 -0.8326  0.9007 -0.4233
 5758TIP3    H217239   1.363   1.977   1.129  1.0476 -0.1539  0.9505
 5759TIP3   OH217240   6.775   0.873   4.888 -0.2589  0.2234  0.1777
 5759TIP3    H117241   6.798   0.918   4.806 -0.3836 -0.2055 -0.0994
 5759TIP3    H217242   6.684   0.899   4.905  0.4143  2.0027  1.3294
 5760TIP3   OH217243   3.923   4.583   5.095  0.0107 -0.3673  0.2787
 5760TIP3    H117244   3.844   4.531   5.107 -0.2331  0.1768  1.1416
 5760TIP3    H217245   3.898   4.650   5.031 -0.4125  0.1610  0.9860
 5761TIP3   OH217246   4.438   6.019   0.840 -0.2753 -0.3664 -0.0836
 5761TIP3    H117247   4.476   5.964   0.908 -0.3096  0.4164  0.5810
 5761TIP3    H217248   4.420   6.102   0.884 -1.5477 -0.2953 -0.7013
 5762TIP3   OH217249   3.142   2.866   3.402  0.0894 -0.3698 -0.9631
 5762TIP3    H117250   3.061   2.826   3.433 -0.3206  1.2592  0.1430
 5762TIP3    H217251   3.131   2.870   3.307 -1.2312  0.0104 -0.8180
 5763TIP3   OH217252   5.814   4.732   1.603  0.3173  0.0538  0.5205
 5763TIP3    H117253   5.828   4.640   1.579 -0.9785 -0.2425  0.8219
 5763TIP3    H217254   5.786   4.774   1.522  0.1864  0.0139  0.5444
 5764TIP3   OH217255   3.618   4.687   3.691 -0.1197  0.0289  0.1120
 5764TIP3    H117256   3.529   4.668   3.661  0.3924 -0.0116 -1.4189
 5764TIP3    H217257   3.670   4.613   3.660  0.2690 -0.6225  2.1036
 5765TIP3   OH217258   2.134   4.259   5.429 -0.1636 -0.2141  0.9051
 5765TIP3    H117259   2.199   4.225   5.491 -0.9535 -0.0274  1.8721
 5765TIP3    H217260   2.071   4.188   5.420 -0.6076  0.1387  1.1519
 5766TIP3   OH217261   5.701   1.463   0.215  0.3852  0.3631 -0.4297
 5766TIP3    H117262   5.728   1.554   0.223  1.2868  0.1760 -1.1246
 5766TIP3    H217263   5.715   1.441   0.123 -0.2262 -0.3532 -0.3622
 5767TIP3   OH217264   4.013   1.786   5.817 -0.0952 -0.9057 -0.1991
 5767TIP3    H117265   4.085   1.723   5.819 -0.8360 -1.7917 -0.6392
 5767TIP3    H217266   3.934   1.732   5.822 -0.7533 -0.0177 -0.7989
 5768TIP3   OH217267   3.660   5.900   5.686  0.1434  0.5820 -0.2607
 5768TIP3    H117268   3.693   5.829   5.631 -0.9833 -0.0347 -0.1801
 5768TIP3    H217269   3.724   5.907   5.757  0.1363 -0.5556 -0.1256
 5769TIP3   OH217270   0.555   0.581   3.499  0.3197 -0.4499  0.3399
 5769TIP3    H117271   0.560   0.570   3.594 -0.0923 -0.9310  0.3138
 5769TIP3    H217272   0.556   0.491   3.465  0.3234 -0.2833 -0.1032
 5770TIP3   OH217273   4.766   2.891   3.443 -0.3047  0.6557 -0.6920
 5770TIP3    H117274   4.748   2.823   3.507 -1.4769  1.8188  0.2658
 5770TIP3    H217275   4.792   2.967   3.495  0.8778  1.0072 -1.7240
 5771TIP3   OH217276   6.381   1.203   5.796 -0.1317 -0.2515  0.2502
 5771TIP3    H117277   6.367   1.109   5.782  1.8212 -0.8356  1.7225
 5771TIP3    H217278   6.439   1.207   5.872 -1.6049  2.2488  1.3579
 5772TIP3   OH217279   1.347   1.641   0.561  0.0433  0.4513  0.4975
 5772TIP3    H117280   1.256   1.665   0.579 -0.4163  0.0957 -1.1961
 5772TIP3    H217281   1.376   1.598   0.641 -2.3093 -2.2977  0.0381
 5773TIP3   OH217282   4.719   0.304   0.477 -0.1570  0.1276  0.4033
 5773TIP3    H117283   4.720   0.356   0.557  0.0584  0.0764  0.4343
 5773TIP3    H217284   4.686   0.219   0.504  0.5073 -0.0870  0.5614
 5774TIP3   OH217285   1.321   4.048   4.534 -0.0487 -0.4994  0.1205
 5774TIP3    H117286   1.246   4.032   4.477 -0.2638 -0.8448  0.5002
 5774TIP3    H217287   1.284   4.048   4.622 -0.1314  2.3261  0.1675
 5775TIP3   OH217288   4.159   6.254   0.566 -0.1214  0.0390 -0.3847
 5775TIP3    H117289   4.235   6.249   0.625 -0.9932  1.4314  0.9476
 5775TIP3    H217290   4.195   6.283   0.483  0.8247  0.7445  0.2405
 5776TIP3   OH217291   0.090   3.353   2.225 -0.2297 -0.1682 -0.0050
 5776TIP3    H117292   0.057   3.401   2.300 -0.3870 -1.2492  0.6426
 5776TIP3    H217293   0.170   3.399   2.200 -0.0842  0.1081  0.9399
 5777TIP3   OH217294   3.035   1.455   4.510 -0.2810 -0.3811  0.2489
 5777TIP3    H117295   2.948   1.416   4.518 -1.5766  1.7501 -2.0994
 5777TIP3    H217296   3.095   1.380   4.508 -2.2415 -2.0111  0.0538
 5778TIP3   OH217297   0.482   4.267   5.531  0.1553 -0.2291 -0.3287
 5778TIP3    H117298   0.490   4.330   5.603 -0.6931 -0.1159 -0.3209
 5778TIP3    H217299   0.426   4.198   5.567 -1.1093  0.3165 -1.1987
 5779TIP3   OH217300   2.025   1.691   5.678 -0.2297 -0.1450 -0.4078
 5779TIP3    H117301   1.944   1.709   5.632  0.4041  0.7598 -1.2112
 5779TIP3    H217302   2.068   1.776   5.686  1.1089 -0.7339 -0.9369
 5780TIP3   OH217303   3.524   4.234   1.077 -0.0629  0.5692  0.5674
 5780TIP3    H117304   3.607   4.216   1.033  2.0364  3.5109  2.8857
 5780TIP3    H217305   3.521   4.171   1.150 -0.5145 -0.2923 -0.1710
 5781TIP3   OH217306   4.885   6.277   0.825 -0.3099  0.2090  0.0022
 5781TIP3    H117307   4.883   6.370   0.803  1.1901  0.3162  0.1935
 5781TIP3    H217308   4.876   6.274   0.920 -0.8723  0.1098 -0.0476
 5782TIP3   OH217309   5.591   6.583   3.305 -0.6476  0.1343  0.0949
 5782TIP3    H117310   5.638   6.565   3.387  0.5093  1.5418 -0.2231
 5782TIP3    H217311   5.543   6.664   3.322 -0.7963  0.1668 -0.4636
 5783TIP3   OH217312   6.431   5.531   5.552  0.3942 -0.2101  0.0142
 5783TIP3    H117313   6.472   5.584   5.483 -0.3190 -1.4762 -1.4355
 5783TIP3    H217314   6.504   5.484   5.592  0.8300  0.6236  0.2192
 5784TIP3   OH217315   5.656   2.091   4.030  0.0621 -0.4152  0.0896
 5784TIP3    H117316   5.679   2.101   4.122 -0.8270 -1.0384  0.3932
 5784TIP3    H217317   5.574   2.042   4.031 -0.9452  1.1508 -0.9623
 5785TIP3   OH217318   6.361   1.358   5.094  0.2057  0.0015 -0.0489
 5785TIP3    H117319   6.342   1.428   5.156  2.0068  0.3967  0.1007
 5785TIP3    H217320   6.310   1.381   5.016 -0.6668  0.4600  0.6340
 5786TIP3   OH217321   3.545   2.954   2.563 -0.5983 -0.2478 -0.1019
 5786TIP3    H117322   3.457   2.984   2.585 -1.0591 -2.1819  0.8540
 5786TIP3    H217323   3.582   2.921   2.645  0.9239  0.2427 -0.5461
 5787TIP3   OH217324   1.835   5.357   3.919  0.6323 -0.0709 -0.1386
 5787TIP3    H117325   1.840   5.314   3.833  1.3772  2.2244 -1.3305
 5787TIP3    H217326   1.767   5.424   3.908  0.4602 -0.0149  1.1929
 5788TIP3   OH217327   0.440   4.378   1.671 -0.7701  0.4347  0.9186
 5788TIP3    H117328   0.444   4.454   1.612 -2.3459 -0.3657 -0.2999
 5788TIP3    H217329   0.511   4.321   1.642 -1.4763  0.0867 -0.1961
 5789TIP3   OH217330   6.484   4.592   2.434 -0.3331  0.2905  0.3708
 5789TIP3    H117331   6.552   4.572   2.369 -0.6206  1.2412 -0.2401
 5789TIP3    H217332   6.532   4.607   2.515  0.5183  3.5535 -0.5843
 5790TIP3   OH217333   6.931   5.709   5.351  0.1162 -0.8739  0.3440
 5790TIP3    H117334   6.841   5.700   5.381  0.0271 -1.2151 -0.0250
 5790TIP3    H217335   6.965   5.783   5.402 -1.0797  0.8121 -1.1712
 5791TIP3   OH217336   0.344   5.874   3.802 -0.3629 -0.0965 -0.2332
 5791TIP3    H117337   0.369   5.907   3.716  0.5588 -0.3946 -0.0958
 5791TIP3    H217338   0.250   5.862   3.797 -0.2724 -0.4402 -1.3080
 5792TIP3   OH217339   4.416   3.438   4.010 -0.4497  0.1864  0.0233
 5792TIP3    H117340   4.467   3.485   4.076  1.5378 -0.7539 -0.7671
 5792TIP3    H217341   4.479   3.380   3.967 -1.6285  0.8025 -2.7552
 5793TIP3   OH217342   4.517   6.184   0.226 -0.3317 -0.3037 -0.5294
 5793TIP3    H117343   4.503   6.113   0.288  0.6792 -0.8899 -0.9328
 5793TIP3    H217344   4.590   6.234   0.262 -0.3463 -0.1047 -0.7706
 5794TIP3   OH217345   7.170   4.926   2.434 -0.3127 -0.1289  0.3774
 5794TIP3    H117346   7.184   5.019   2.451 -0.5554 -0.3029  1.6618
 5794TIP3    H217347   7.104   4.900   2.499 -0.2580 -1.1881  0.0243
 5795TIP3   OH217348   2.591   5.370   0.216 -0.1635  0.0667  0.2982
 5795TIP3    H117349   2.610   5.354   0.308 -0.4730  0.4611  0.4336
 5795TIP3    H217350   2.675   5.356   0.171  0.0909  0.3143  0.6972
 5796TIP3   OH217351   0.699   0.346   2.123 -0.0603 -0.2709 -0.4097
 5796TIP3    H117352   0.726   0.287   2.052  0.4139 -0.4367 -0.0930
 5796TIP3    H217353   0.760   0.327   2.194 -0.0494  0.4418 -0.2265
 5797TIP3   OH217354   0.770   1.880   4.346 -0.0916  0.3425  0.0630
 5797TIP3    H117355   0.696   1.918   4.393  0.3106  0.1108  0.9148
 5797TIP3    H217356   0.835   1.861   4.415 -0.2944 -1.9254 -0.2862
 5798TIP3   OH217357   5.675   0.884   1.223 -0.3283  0.2089  0.5715
 5798TIP3    H117358   5.637   0.853   1.306 -2.5034  0.6759 -0.1767
 5798TIP3    H217359   5.611   0.947   1.190  0.6343  0.2446 -1.3502
 5799TIP3   OH217360   3.942   5.518   1.076 -0.0450  0.3960 -0.4342
 5799TIP3    H117361   4.028   5.494   1.040 -0.8620 -0.8273 -1.6234
 5799TIP3    H217362   3.926   5.606   1.042  0.6624  0.5876 -0.3060
 5800TIP3   OH217363   3.572   4.403   3.932 -0.3474 -0.2843  0.3480
 5800TIP3    H117364   3.640   4.461   3.964 -0.4644  0.3204 -0.4503
 5800TIP3    H217365   3.496   4.419   3.988 -0.1995 -0.0797  0.4853
 5801TIP3   OH217366   3.506   4.136   4.307 -0.2865  0.2316  0.3824
 5801TIP3    H117367   3.515   4.069   4.239  1.9869  0.0896  0.7325
 5801TIP3    H217368   3.568   4.204   4.282  0.2672  0.3890  2.0427
 5802TIP3   OH217369   5.369   3.742   2.837 -0.3863  0.3208 -0.4293
 5802TIP3    H117370   5.329   3.656   2.838  0.9925 -0.3916 -1.7101
 5802TIP3    H217371   5.300   3.802   2.866 -2.1141 -0.9172 -1.7787
 5803TIP3   OH217372   4.075   5.010   2.443  0.1914  0.0851 -0.7296
 5803TIP3    H117373   4.104   4.971   2.525 -1.7979  0.6682  0.2960
 5803TIP3    H217374   4.058   5.102   2.465  1.5897  0.7878 -2.3095
 5804TIP3   OH217375   2.142   6.720   3.013  0.0953  0.6033 -0.3400
 5804TIP3    H117376   2.213   6.658   2.997  0.4500  1.1295 -0.7965
 5804TIP3    H217377   2.062   6.671   2.991  0.3702  0.2916 -0.6504
 5805TIP3   OH217378   6.510   1.951   4.631 -0.0636  0.0965 -0.2865
 5805TIP3    H117379   6.437   2.002   4.666  0.2868 -0.0344  0.6705
 5805TIP3    H217380   6.568   1.938   4.706 -0.1983 -1.8113 -0.4696
 5806TIP3   OH217381   2.773   3.948   5.761  0.0891 -0.1109 -0.1172
 5806TIP3    H117382   2.823   3.893   5.701 -1.2607  0.0341 -1.4141
 5806TIP3    H217383   2.795   4.037   5.736  1.3133 -0.0102  1.1715
 5807TIP3   OH217384   2.921   3.334   2.400  0.1408 -0.4203 -0.2638
 5807TIP3    H117385   3.012   3.340   2.371 -0.0359  0.6631 -0.6665
 5807TIP3    H217386   2.923   3.275   2.475  0.9927 -1.3444 -0.9862
 5808TIP3   OH217387   0.640   5.789   4.321 -0.0010  0.0135 -0.0540
 5808TIP3    H117388   0.577   5.860   4.310 -1.0570 -1.0372 -1.0908
 5808TIP3    H217389   0.606   5.737   4.394 -0.2500 -0.4372 -0.4798
 5809TIP3   OH217390   5.828   0.525   5.071  0.2674  0.0353 -0.1222
 5809TIP3    H117391   5.832   0.526   5.166 -1.4529 -1.3341  0.0029
 5809TIP3    H217392   5.750   0.576   5.049 -0.9161 -1.9041 -0.6183
 5810TIP3   OH217393   0.649   1.896   0.134  0.0352 -0.4380 -0.0476
 5810TIP3    H117394   0.629   1.812   0.177  0.1732 -0.0935  0.7141
 5810TIP3    H217395   0.681   1.951   0.205  0.9384 -0.0620 -0.7325
 5811TIP3   OH217396   0.178   5.195   5.091 -0.2087 -0.2204 -0.0775
 5811TIP3    H117397   0.175   5.238   5.177 -0.1939 -0.1241 -0.1256
 5811TIP3    H217398   0.126   5.252   5.034  1.4319  0.7831 -0.6173
 5812TIP3   OH217399   1.488   6.638   0.828 -0.3362  0.6472 -0.0586
 5812TIP3    H117400   1.508   6.658   0.737 -1.2614  1.5255 -0.0797
 5812TIP3    H217401   1.405   6.590   0.824  0.1806 -0.3002  0.2488
 5813TIP3   OH217402   6.876   0.594   0.231 -0.1474 -0.0350 -0.2493
 5813TIP3    H117403   6.939   0.534   0.272  1.2293  0.2322 -1.8571
 5813TIP3    H217404   6.791   0.551   0.243  0.6700 -1.7998 -0.4027
 5814TIP3   OH217405   0.253   1.133   4.929 -0.1454 -0.3212 -0.3042
 5814TIP3    H117406   0.208   1.051   4.907 -0.6554 -0.3332  0.7309
 5814TIP3    H217407   0.254   1.183   4.847 -1.1609 -0.7429 -0.5828
 5815TIP3   OH217408   6.302   6.597   1.563 -0.0598 -0.2416 -0.2853
 5815TIP3    H117409   6.312   6.651   1.641 -4.7300  1.4196 -0.5328
 5815TIP3    H217410   6.269   6.513   1.597  1.4878 -0.8879 -0.3091
 5816TIP3   OH217411   2.214   0.029   4.581  0.3367 -0.1500  0.2227
 5816TIP3    H117412   2.298   0.072   4.599 -0.3113  1.6049 -0.6432
 5816TIP3    H217413   2.232  -0.031   4.509  0.7760  0.5676 -0.2781
 5817TIP3   OH217414   3.843   6.506   2.126  0.5020  0.5110  0.0716
 5817TIP3    H117415   3.822   6.599   2.141 -0.2072  0.4223 -0.3398
 5817TIP3    H217416   3.926   6.508   2.077 -0.5201  1.0188 -1.7354
 5818TIP3   OH217417   2.011   0.148   3.536  0.6252 -0.1892 -0.6196
 5818TIP3    H117418   2.057   0.185   3.611  0.8187 -0.5392 -0.5648
 5818TIP3    H217419   1.957   0.077   3.572 -0.3073  0.4969 -0.6140
 5819TIP3   OH217420   3.250   2.368   1.625  0.5275  0.0796 -0.4144
 5819TIP3    H117421   3.260   2.278   1.657 -0.9899  0.1779  0.4251
 5819TIP3    H217422   3.199   2.359   1.544  0.4444  0.1767 -0.3725
 5820TIP3   OH217423   2.904   3.345   0.479  0.1362 -0.1684 -0.5126
 5820TIP3    H117424   2.877   3.295   0.556  1.4246 -1.0967 -0.6311
 5820TIP3    H217425   2.825   3.348   0.424 -0.3532 -0.8703  0.1316
 5821TIP3   OH217426   4.224   4.521   1.462 -0.1705  0.2328 -0.0732
 5821TIP3    H117427   4.283   4.554   1.393 -1.6957  1.7395 -0.7259
 5821TIP3    H217428   4.149   4.485   1.414  0.5901 -2.6497  0.7039
 5822TIP3   OH217429   0.766   3.962   1.095  0.7407  0.0379  0.0188
 5822TIP3    H117430   0.759   4.020   1.019 -2.9242 -0.5261 -0.2602
 5822TIP3    H217431   0.809   3.884   1.060 -1.7877 -0.6336 -1.9236
 5823TIP3   OH217432   0.108   0.673   0.907  0.3325  0.0680 -0.2517
 5823TIP3    H117433   0.019   0.638   0.902  0.5808 -0.6209  0.0336
 5823TIP3    H217434   0.152   0.618   0.972  1.1021  0.0863 -0.7403
 5824TIP3   OH217435   5.115   2.667   3.671 -0.6019  0.1036 -0.8746
 5824TIP3    H117436   5.165   2.660   3.752  0.0431 -1.5514 -1.3610
 5824TIP3    H217437   5.063   2.746   3.681  0.2358  0.4927  0.7123
 5825TIP3   OH217438   5.185   2.266   2.475  0.5229  0.1771 -0.0510
 5825TIP3    H117439   5.162   2.253   2.383  0.3385 -1.4999  0.2155
 5825TIP3    H217440   5.103   2.251   2.523  1.3537 -2.6531  0.6451
 5826TIP3   OH217441   6.532   5.723   2.996 -0.2938  0.0260 -0.0472
 5826TIP3    H117442   6.436   5.713   2.998 -0.2117 -1.0976 -0.6351
 5826TIP3    H217443   6.559   5.668   2.922  0.6186  2.0915 -1.3222
 5827TIP3   OH217444   1.514   1.961   4.073  0.0650  0.1800  0.2774
 5827TIP3    H117445   1.526   1.965   4.168  3.1497  0.3296 -0.0107
 5827TIP3    H217446   1.517   1.868   4.053 -0.2504  0.1665  0.2919
 5828TIP3   OH217447   0.601   0.740   1.616 -0.3522  0.0687 -0.2405
 5828TIP3    H117448   0.630   0.789   1.693 -0.5339 -0.8031  0.3974
 5828TIP3    H217449   0.681   0.724   1.566  0.0357 -0.8246  0.6339
 5829TIP3   OH217450   1.697   5.990   4.795 -0.6526 -0.1886 -0.0714
 5829TIP3    H117451   1.783   6.019   4.766 -0.6079 -0.1821  0.0647
 5829TIP3    H217452   1.714   5.906   4.839 -0.8557 -0.7307 -0.9911
 5830TIP3   OH217453   5.883   0.600   3.229  0.3807  0.5304 -0.8498
 5830TIP3    H117454   5.924   0.639   3.152  0.5397  1.6553 -0.2244
 5830TIP3    H217455   5.789   0.599   3.208  0.4331  0.7389 -1.1078
 5831TIP3   OH217456   1.633   4.159   1.369 -0.5788  0.2410 -0.8084
 5831TIP3    H117457   1.575   4.234   1.354 -0.3201  0.6004 -0.0591
 5831TIP3    H217458   1.595   4.114   1.445  0.4833  0.8554  0.1117
 5832TIP3   OH217459   2.392   4.633   1.552 -0.2095  0.7534 -0.0067
 5832TIP3    H117460   2.421   4.542   1.545 -1.7091  0.3057 -1.0141
 5832TIP3    H217461   2.400   4.654   1.645  1.9886  0.2667 -0.0214
 5833TIP3   OH217462   7.098   4.256   5.422 -0.2329 -0.0860  0.3282
 5833TIP3    H117463   7.065   4.261   5.511 -0.7474  0.5302  0.1113
 5833TIP3    H217464   7.034   4.200   5.376  0.7364 -1.5019  0.6435
 5834TIP3   OH217465   2.249   5.709   5.756  0.0401 -0.1846 -0.0346
 5834TIP3    H117466   2.313   5.658   5.805 -1.1926 -2.1358 -0.3008
 5834TIP3    H217467   2.263   5.683   5.665 -0.5925 -0.0166 -0.1833
 5835TIP3   OH217468   6.352   4.828   0.639  0.1745  0.5181  0.7726
 5835TIP3    H117469   6.433   4.825   0.589  0.2358  1.2365  0.8148
 5835TIP3    H217470   6.379   4.835   0.730  0.0891  1.7952  0.7209
 5836TIP3   OH217471   5.561   3.988   1.339 -0.5830 -0.2077 -0.0065
 5836TIP3    H117472   5.642   4.027   1.307 -0.8435  0.9346  0.6679
 5836TIP3    H217473   5.577   3.972   1.432 -0.7665 -1.0028 -0.0983
 5837TIP3   OH217474   0.442   0.032   0.405 -0.1795  0.0544 -0.9229
 5837TIP3    H117475   0.426   0.124   0.386  2.0267  0.5759 -0.5347
 5837TIP3    H217476   0.495   0.033   0.485 -0.5761 -1.5890 -0.5963
 5838TIP3   OH217477   1.286   3.777   2.635  0.4173  0.1227 -0.2332
 5838TIP3    H117478   1.356   3.841   2.647  0.5384 -0.1977  0.8518
 5838TIP3    H217479   1.330   3.699   2.602  0.8135 -0.5395  1.7528
 5839TIP3   OH217480   4.852   5.733   3.819 -0.0034  0.3953  0.0711
 5839TIP3    H117481   4.889   5.771   3.899 -0.4598 -0.1164  0.5315
 5839TIP3    H217482   4.914   5.757   3.750 -0.3474  2.1156  0.3135
 5840TIP3   OH217483   0.675   2.910   3.090 -0.0739  0.1770  0.1823
 5840TIP3    H117484   0.668   2.987   3.033 -0.4024 -0.0169 -0.0430
 5840TIP3    H217485   0.766   2.882   3.080 -0.4365 -0.5912 -1.2331
 5841TIP3   OH217486   4.824   3.974   2.688  0.4562  0.1332 -0.2684
 5841TIP3    H117487   4.853   3.891   2.649 -1.0672  0.1843 -1.6435
 5841TIP3    H217488   4.881   4.040   2.650  1.0738 -0.1767  0.1105
 5842TIP3   OH217489   3.335   3.567   1.918  0.2089 -0.3190 -0.3407
 5842TIP3    H117490   3.243   3.576   1.942  0.2353  0.2846 -0.4478
 5842TIP3    H217491   3.334   3.545   1.825  0.1578 -0.8738 -0.2095
 5843TIP3   OH217492   6.394   0.213   5.129  0.2674 -0.0885  0.6726
 5843TIP3    H117493   6.363   0.290   5.178 -0.4003 -0.0494  0.1980
 5843TIP3    H217494   6.464   0.177   5.184  0.5086  0.7847  0.9594
 5844TIP3   OH217495   6.287   6.072   4.171  0.3961  0.2337  0.2361
 5844TIP3    H117496   6.312   5.981   4.157 -1.6846 -0.7961  2.4471
 5844TIP3    H217497   6.321   6.093   4.258 -0.0120  1.2129  0.1708
 5845TIP3   OH217498   2.147   3.684   3.991  0.1651  0.6360 -0.1040
 5845TIP3    H117499   2.128   3.693   4.084  0.3503  1.6360 -0.1468
 5845TIP3    H217500   2.212   3.753   3.973  0.3101  0.3007 -0.9165
 5846TIP3   OH217501   6.717   3.076   4.826  0.4047 -0.1730 -0.2689
 5846TIP3    H117502   6.726   3.043   4.916 -1.0410  2.1331  0.8146
 5846TIP3    H217503   6.792   3.135   4.815 -0.2579  0.7308  0.0079
 5847TIP3   OH217504   5.491   1.943   0.148 -0.1980  0.0757 -0.2127
 5847TIP3    H117505   5.523   1.964   0.236  0.1781 -2.7141  0.4137
 5847TIP3    H217506   5.420   1.880   0.163 -1.0763  0.6080 -1.8935
 5848TIP3   OH217507   4.669   1.748   5.650  0.4608  0.9572  0.0768
 5848TIP3    H117508   4.650   1.838   5.675  0.3563  1.2036 -0.8589
 5848TIP3    H217509   4.758   1.752   5.613  1.4669  0.2366  2.2412
 5849TIP3   OH217510   4.676   3.974   1.552 -0.4344  0.1402  0.6046
 5849TIP3    H117511   4.720   3.989   1.636 -0.7268  1.2617  0.5757
 5849TIP3    H217512   4.644   3.884   1.558 -0.1298  0.0805  1.5500
 5850TIP3   OH217513   5.170   0.986   3.954  0.1467  0.1627 -0.1091
 5850TIP3    H117514   5.094   0.974   3.897 -0.2038 -1.5301  0.6462
 5850TIP3    H217515   5.246   0.980   3.896 -0.2268 -0.8017 -0.5039
 5851TIP3   OH217516   5.945   5.813   4.734  0.0061  0.0028  0.7083
 5851TIP3    H117517   5.936   5.908   4.722 -0.5202 -0.2642 -1.4419
 5851TIP3    H217518   5.856   5.783   4.751  0.0567 -0.1826  0.6431
 5852TIP3   OH217519   2.132   1.547  -0.018  0.5392 -0.4664  0.1104
 5852TIP3    H117520   2.215   1.569   0.023 -0.2913  1.8259  0.7000
 5852TIP3    H217521   2.077   1.516   0.054  0.4013 -0.5414 -0.0261
 5853TIP3   OH217522   3.221   3.003   0.287 -0.3297 -0.8856 -0.2859
 5853TIP3    H117523   3.186   2.984   0.374  0.6040 -0.5432  0.1855
 5853TIP3    H217524   3.314   3.022   0.302  0.2310 -2.3486 -1.5496
 5854TIP3   OH217525   1.482   6.749   1.569 -0.3438 -0.3180 -0.0060
 5854TIP3    H117526   1.557   6.795   1.607 -0.4460  0.3343 -0.5811
 5854TIP3    H217527   1.506   6.736   1.477 -1.5843  1.3253 -0.6052
 5855TIP3   OH217528   2.691   2.874   5.455  0.5490  0.1046  0.9091
 5855TIP3    H117529   2.652   2.955   5.489 -1.7372 -0.0148 -1.2037
 5855TIP3    H217530   2.639   2.804   5.493 -0.8794 -0.0971 -1.2707
 5856TIP3   OH217531   4.640   3.482   1.335  0.1173  0.1170  0.3902
 5856TIP3    H117532   4.579   3.464   1.406 -0.6730 -1.2183 -0.5967
 5856TIP3    H217533   4.586   3.485   1.256  0.8710  2.2478 -0.1378
 5857TIP3   OH217534   2.814   3.774   2.597 -0.4516  0.0684  0.1297
 5857TIP3    H117535   2.893   3.738   2.637 -0.2791 -0.2672 -0.4996
 5857TIP3    H217536   2.795   3.715   2.524 -0.1665  1.2350 -0.9214
 5858TIP3   OH217537   4.222   3.241   3.459  0.1137 -0.2933  0.2445
 5858TIP3    H117538   4.205   3.177   3.390 -0.5807 -1.0945  1.1408
 5858TIP3    H217539   4.290   3.201   3.514  0.5298  0.2572  0.1462
 5859TIP3   OH217540   3.094   0.519   4.370 -0.0907 -0.6100  0.1000
 5859TIP3    H117541   3.024   0.472   4.325 -1.6621  0.3061  1.5038
 5859TIP3    H217542   3.160   0.534   4.302 -1.2908 -1.3831 -1.2871
 5860TIP3   OH217543   3.711   1.858   1.208 -0.2068 -0.5406  0.4240
 5860TIP3    H117544   3.647   1.886   1.273 -2.1677 -0.9246 -1.2274
 5860TIP3    H217545   3.783   1.920   1.216 -2.0227  1.6577  0.5164
 5861TIP3   OH217546   3.141   1.213   5.138  0.2385 -0.1638  0.0186
 5861TIP3    H117547   3.189   1.296   5.140 -1.0229  0.6662 -1.5921
 5861TIP3    H217548   3.152   1.181   5.048 -1.7657 -0.1832 -0.2638
 5862TIP3   OH217549   2.056   0.685   2.006 -0.3068 -0.3959 -0.2312
 5862TIP3    H117550   2.120   0.617   1.982 -2.0585 -1.7685 -1.2467
 5862TIP3    H217551   2.077   0.705   2.097  1.4978 -0.8489 -0.4939
 5863TIP3   OH217552   5.369   6.675   3.785 -0.2231 -0.2821 -0.7599
 5863TIP3    H117553   5.393   6.599   3.733  0.6418 -0.0145 -0.7659
 5863TIP3    H217554   5.315   6.728   3.727 -0.3869 -0.6353 -0.9306
 5864TIP3   OH217555   4.060   3.186   5.148 -0.6894 -0.0774  0.0134
 5864TIP3    H117556   4.064   3.091   5.159 -1.1027 -0.1970 -0.7868
 5864TIP3    H217557   4.142   3.218   5.183  1.1058 -1.0690 -2.9105
 5865TIP3   OH217558   1.031   5.930   1.885  0.0852  0.1567 -0.4133
 5865TIP3    H117559   1.063   5.993   1.949 -1.7022  0.4590  0.2267
 5865TIP3    H217560   1.109   5.907   1.834  1.1225  1.5505  0.4539
 5866TIP3   OH217561   4.054   4.316   0.821 -0.3784  0.4128 -0.5381
 5866TIP3    H117562   4.092   4.355   0.899  1.0050 -0.4570 -0.7444
 5866TIP3    H217563   4.019   4.389   0.771 -0.8653  1.0243  0.6589
 5867TIP3   OH217564   5.738   3.625   2.633 -0.5099 -0.7565  0.3321
 5867TIP3    H117565   5.673   3.686   2.668 -1.4632 -1.0245 -0.8903
 5867TIP3    H217566   5.741   3.555   2.698 -1.0057 -0.4390  0.7081
 5868TIP3   OH217567   1.756   1.473   0.942 -0.3334  0.4056 -0.2607
 5868TIP3    H117568   1.695   1.438   1.008  0.4819 -0.6162 -0.0279
 5868TIP3    H217569   1.827   1.409   0.939  0.8947  1.7198 -0.2952
 5869TIP3   OH217570   3.393   4.883   1.134  0.0613 -0.0239 -0.1829
 5869TIP3    H117571   3.357   4.924   1.212 -1.7995 -0.5176 -0.7290
 5869TIP3    H217572   3.347   4.924   1.061  2.8607  1.5700 -1.2338
 5870TIP3   OH217573   5.050   5.091   4.890  0.1301  0.0299 -0.0875
 5870TIP3    H117574   5.110   5.018   4.875 -0.2527 -0.9792  2.6123
 5870TIP3    H217575   5.078   5.128   4.974  0.1427  2.9068 -1.2495
 5871TIP3   OH217576   6.945   5.423   2.318 -0.1021  0.2923 -0.2909
 5871TIP3    H117577   6.859   5.436   2.359  0.7246  1.4814  1.1796
 5871TIP3    H217578   6.977   5.512   2.304  0.5416 -0.1362 -1.6163
 5872TIP3   OH217579   1.944   2.967   0.183 -0.6700 -0.5899  0.2367
 5872TIP3    H117580   1.944   2.874   0.204  0.9887 -0.8058 -0.5227
 5872TIP3    H217581   1.868   2.979   0.126 -1.0904 -1.4058  0.6134
 5873TIP3   OH217582   5.912   2.930   2.909 -0.3379 -1.1939 -0.2067
 5873TIP3    H117583   5.844   2.966   2.852  0.2966 -0.8663 -0.7555
 5873TIP3    H217584   5.984   2.907   2.851  0.8842  0.4272  0.5699
 5874TIP3   OH217585   2.620   1.744   2.091  0.0339  0.0273  0.1263
 5874TIP3    H117586   2.705   1.704   2.107 -0.5878 -1.7559 -0.7741
 5874TIP3    H217587   2.589   1.705   2.009 -1.9572  0.0376  0.8027
 5875TIP3   OH217588   4.968   2.917   4.450 -0.4046  0.4233  0.0480
 5875TIP3    H117589   4.963   2.851   4.519  0.7989 -0.7408 -0.9043
 5875TIP3    H217590   4.991   2.998   4.495 -0.6019 -0.0899  1.1075
 5876TIP3   OH217591   0.977   4.988   3.018 -0.0543  0.1506 -0.1301
 5876TIP3    H117592   0.954   4.895   3.018 -0.8834  0.3385  0.9485
 5876TIP3    H217593   0.936   5.022   2.939 -1.0984 -0.1038  0.2818
 5877TIP3   OH217594   3.269   1.579   5.204  0.3059  0.1765  0.0761
 5877TIP3    H117595   3.188   1.538   5.235  0.8301 -0.9325  0.0524
 5877TIP3    H217596   3.289   1.532   5.123  0.9617  0.4547  0.0716
 5878TIP3   OH217597   6.525   3.862   3.121 -0.0669 -0.2845 -0.0537
 5878TIP3    H117598   6.473   3.872   3.041  1.4462 -1.7492 -1.2918
 5878TIP3    H217599   6.614   3.886   3.095  0.5360 -1.1803  1.0831
 5879TIP3   OH217600   6.189   5.138   5.594 -0.4567  0.0668 -0.1738
 5879TIP3    H117601   6.148   5.059   5.561 -1.3935  0.6719 -0.4875
 5879TIP3    H217602   6.147   5.209   5.546 -0.6611  0.8565  1.1293
 5880TIP3   OH217603   6.366   2.301   5.533 -0.7173 -0.1554 -0.3520
 5880TIP3    H117604   6.416   2.320   5.613  0.8180  0.1648 -1.3451
 5880TIP3    H217605   6.275   2.307   5.561 -0.2305  0.1620  1.3341
 5881TIP3   OH217606   0.265   1.875   2.752 -0.0997 -0.3206  0.1837
 5881TIP3    H117607   0.223   1.896   2.835  0.5044 -1.6195  0.8511
 5881TIP3    H217608   0.204   1.906   2.685  0.1284  2.2574  1.0390
 5882TIP3   OH217609   5.159   0.203   4.237 -0.1707 -0.6887 -0.0330
 5882TIP3    H117610   5.235   0.243   4.194  0.0773 -1.7949 -0.6578
 5882TIP3    H217611   5.087   0.215   4.176 -0.9251  1.7127  1.1960
 5883TIP3   OH217612   4.501   1.643   5.186 -0.8603  0.2150  0.4968
 5883TIP3    H117613   4.481   1.605   5.271 -1.4221  0.9859  0.7193
 5883TIP3    H217614   4.476   1.735   5.194 -2.3559 -0.0022 -0.9493
 5884TIP3   OH217615   1.404   4.186   0.527 -0.5429 -0.1029 -0.0232
 5884TIP3    H117616   1.434   4.132   0.600 -4.1674 -1.0054  0.9680
 5884TIP3    H217617   1.372   4.267   0.567 -1.0616  0.0835 -0.7837
 5885TIP3   OH217618   0.321   2.871   2.341 -0.1702 -0.4673 -0.5547
 5885TIP3    H117619   0.242   2.922   2.358  0.6766 -0.4861  6.3987
 5885TIP3    H217620   0.392   2.936   2.339  0.2135 -0.8099  0.8235
 5886TIP3   OH217621   0.328   2.352   1.964  0.4344  0.3452 -0.3633
 5886TIP3    H117622   0.377   2.406   2.026  0.6673 -1.5726  1.1949
 5886TIP3    H217623   0.236   2.371   1.985  0.5081  0.5951 -0.2506
 5887TIP3   OH217624   3.666   0.213   3.183 -0.1650  0.0303  0.9049
 5887TIP3    H117625   3.683   0.278   3.115  0.6655 -0.1848  0.8949
 5887TIP3    H217626   3.647   0.132   3.136 -0.4332  0.0771  0.9279
 5888TIP3   OH217627   0.436   1.800   4.999  0.0571  0.3882  0.2536
 5888TIP3    H117628   0.522   1.798   4.958  0.3355 -0.1180  0.8489
 5888TIP3    H217629   0.403   1.711   4.994 -1.0070  0.8215 -1.1194
 5889TIP3   OH217630   5.797   1.672   5.108 -0.5928  0.3362  0.1402
 5889TIP3    H117631   5.758   1.655   5.194 -0.5073 -0.0002  0.1142
 5889TIP3    H217632   5.832   1.587   5.081 -0.3113  0.5185 -0.0716
 5890TIP3   OH217633   6.422   1.339   3.518 -0.0187  0.1140  0.1684
 5890TIP3    H117634   6.473   1.347   3.437  2.0986  0.3298  1.4544
 5890TIP3    H217635   6.351   1.402   3.507  0.0833 -0.0161 -1.6000
 5891TIP3   OH217636   5.256   0.193   2.202 -0.7344 -0.0532  0.1241
 5891TIP3    H117637   5.286   0.283   2.188 -0.1110 -0.3214 -0.3218
 5891TIP3    H217638   5.173   0.202   2.248 -1.1586  0.7727 -0.7806
 5892TIP3   OH217639   3.340   1.209   0.264  0.2766 -0.3749  0.2638
 5892TIP3    H117640   3.345   1.157   0.183 -1.7794  0.3705 -0.4035
 5892TIP3    H217641   3.248   1.207   0.288  0.7017  0.2444  2.0742
 5893TIP3   OH217642   6.795   4.150   2.723  0.2098 -0.0197 -0.4375
 5893TIP3    H117643   6.780   4.237   2.686  0.6906 -0.4079 -1.6069
 5893TIP3    H217644   6.720   4.099   2.693  0.2676 -0.1756 -0.3151
 5894TIP3   OH217645   4.852   1.162   1.318  0.0699  0.1417  0.4833
 5894TIP3    H117646   4.854   1.126   1.230  1.2806  0.3423  0.4132
 5894TIP3    H217647   4.872   1.255   1.307  0.4433  0.1261  0.9909
 5895TIP3   OH217648   5.335   4.173   2.785  0.1405  0.2305 -0.5076
 5895TIP3    H117649   5.288   4.159   2.703  0.5438  1.2319 -0.9239
 5895TIP3    H217650   5.297   4.253   2.821 -2.0077 -1.6277  1.7242
 5896TIP3   OH217651   2.119   4.926   5.065  0.3053 -0.1114 -0.5033
 5896TIP3    H117652   2.050   4.867   5.096  1.0152 -0.9032 -0.3885
 5896TIP3    H217653   2.169   4.947   5.144 -0.1462  0.9492 -0.4802
 5897TIP3   OH217654   2.186   3.264   1.316 -0.0448  0.4290 -0.4107
 5897TIP3    H117655   2.250   3.237   1.382 -0.5284 -0.9814 -0.4670
 5897TIP3    H217656   2.238   3.286   1.239  0.4426  0.5206 -0.0563
 5898TIP3   OH217657   6.604   3.722   3.377  0.3288 -0.1716 -0.0357
 5898TIP3    H117658   6.645   3.746   3.294 -0.7123 -0.4724 -0.6672
 5898TIP3    H217659   6.602   3.803   3.428  0.1525  0.2390 -0.6856
 5899TIP3   OH217660   5.124   6.563   0.434  0.7319  0.3933 -0.1479
 5899TIP3    H117661   5.033   6.559   0.402  0.2971 -0.2463  1.0935
 5899TIP3    H217662   5.146   6.656   0.431 -0.8711  0.9050  1.8998
 5900TIP3   OH217663   5.784   2.144   0.152  0.1407 -0.5130  0.3343
 5900TIP3    H117664   5.737   2.226   0.168  0.4812 -0.0671 -0.8766
 5900TIP3    H217665   5.834   2.160   0.072 -0.4807 -2.2061 -0.4338
 5901TIP3   OH217666   5.488   0.934   2.402 -0.2696 -0.5299  0.0415
 5901TIP3    H117667   5.485   0.988   2.480 -1.4632 -0.9725  0.3286
 5901TIP3    H217668   5.518   0.848   2.432  0.3772 -0.3899 -0.1900
 5902TIP3   OH217669   1.342   3.516   2.532  0.3562  0.3494 -0.1273
 5902TIP3    H117670   1.317   3.426   2.512 -0.7274  0.4697  0.6231
 5902TIP3    H217671   1.314   3.566   2.455 -1.0533  0.3599  0.3657
 5903TIP3   OH217672   4.769   1.168   3.223  0.0655  0.0795 -0.4658
 5903TIP3    H117673   4.728   1.252   3.242 -1.0193 -0.4291 -0.5220
 5903TIP3    H217674   4.743   1.148   3.133  3.0769  1.2487 -1.7470
 5904TIP3   OH217675   2.810   4.144   0.181 -0.1788 -0.1583 -0.2485
 5904TIP3    H117676   2.841   4.196   0.255 -1.8241 -1.1606  1.2281
 5904TIP3    H217677   2.845   4.189   0.104 -3.0269  4.3838  0.7237
 5905TIP3   OH217678   3.933   4.809   2.289  0.8886  0.5485  0.6357
 5905TIP3    H117679   3.984   4.810   2.208  1.8852 -2.0865  1.1360
 5905TIP3    H217680   3.978   4.871   2.347  2.8823 -0.8315  0.6442
 5906TIP3   OH217681   5.456   0.342   0.136 -0.4777 -0.3841  0.0136
 5906TIP3    H117682   5.372   0.387   0.151  0.7344  1.2971  2.3576
 5906TIP3    H217683   5.452   0.264   0.191 -0.5734 -0.4348 -0.0634
 5907TIP3   OH217684   0.570   3.253   2.496  0.2043  0.3037 -0.5897
 5907TIP3    H117685   0.631   3.215   2.559 -0.1695  0.0103 -0.4021
 5907TIP3    H217686   0.485   3.251   2.540  0.1630  1.2929 -0.6036
 5908TIP3   OH217687   1.212   2.006   1.265 -0.4351  0.0313 -0.0593
 5908TIP3    H117688   1.145   2.064   1.228 -0.4666  1.6576  2.3719
 5908TIP3    H217689   1.163   1.930   1.296 -0.8523  0.2210 -0.2453
 5909TIP3   OH217690   4.752   0.962   4.489  0.4414  1.1566 -0.4863
 5909TIP3    H117691   4.667   0.998   4.513  0.9212  3.3991 -1.8921
 5909TIP3    H217692   4.757   0.972   4.394  1.0640 -1.8269 -0.8730
 5910TIP3   OH217693   5.431   4.730   2.220  0.1092 -0.1111  0.2312
 5910TIP3    H117694   5.355   4.672   2.215  1.0620 -1.4400  0.6362
 5910TIP3    H217695   5.418   4.781   2.300 -0.4601 -0.1654  0.1748
 5911TIP3   OH217696   4.037   1.114   2.013 -0.1199 -0.1984  0.1637
 5911TIP3    H117697   4.125   1.142   2.037  0.0812  0.4992 -1.2436
 5911TIP3    H217698   4.033   1.021   2.038  0.7507 -0.0397  0.9071
 5912TIP3   OH217699   7.049   3.103   0.856 -0.3138  0.0998  0.2681
 5912TIP3    H117700   7.110   3.055   0.912  0.5408  0.0790 -0.6407
 5912TIP3    H217701   6.969   3.051   0.858  0.2985 -0.8887  0.0176
 5913TIP3   OH217702   7.015   1.748   1.687  0.6589 -0.1827 -1.0262
 5913TIP3    H117703   6.946   1.683   1.675 -0.1996  0.4178  0.4451
 5913TIP3    H217704   6.983   1.827   1.643  1.6365 -0.6576 -2.6825
 5914TIP3   OH217705   2.904   2.077   0.565  0.1798 -0.4154 -0.5059
 5914TIP3    H117706   2.848   2.154   0.563  1.5909  0.6648 -0.3743
 5914TIP3    H217707   2.988   2.108   0.531  1.1499 -1.5714  0.7161
 5915TIP3   OH217708   4.948   4.674   4.515  0.2674 -0.1432  0.4262
 5915TIP3    H117709   4.868   4.650   4.468  1.1420 -0.2549 -1.0781
 5915TIP3    H217710   4.989   4.591   4.537  0.0964 -0.0831  0.9926
 5916TIP3   OH217711   2.995   3.856   0.168  0.0870 -0.0383  0.1727
 5916TIP3    H117712   3.008   3.943   0.130  4.1335 -1.0203 -1.1794
 5916TIP3    H217713   2.926   3.817   0.114  0.0195  1.4667 -0.8996
 5917TIP3   OH217714   0.354   5.182   5.784  0.1876  0.3359 -0.3576
 5917TIP3    H117715   0.444   5.209   5.764  0.0755 -0.0094 -1.3993
 5917TIP3    H217716   0.360   5.087   5.797  0.1478  0.4656  0.6912
 5918TIP3   OH217717   7.221   4.493   3.625 -0.0880 -0.3302  0.2594
 5918TIP3    H117718   7.227   4.553   3.550  2.5449 -0.7517  0.0645
 5918TIP3    H217719   7.131   4.504   3.656 -0.4101  1.9618 -1.2169
 5919TIP3   OH217720   0.509   5.250   4.531  0.0032 -0.1646 -0.0811
 5919TIP3    H117721   0.458   5.172   4.509  1.0014 -0.6617 -0.7527
 5919TIP3    H217722   0.532   5.239   4.623 -1.3296  0.2163  0.3140
 5920TIP3   OH217723   0.899   1.584   3.166  0.5659 -0.3589  0.8711
 5920TIP3    H117724   0.917   1.677   3.152  1.1046 -0.4412  1.0030
 5920TIP3    H217725   0.815   1.582   3.212  0.1159  0.0272  0.0942
 5921TIP3   OH217726   6.720   5.102   2.007 -0.3510 -0.2140 -0.1918
 5921TIP3    H117727   6.756   5.076   2.091  1.7119 -0.5036 -1.1077
 5921TIP3    H217728   6.796   5.114   1.950 -1.5442  1.9465 -1.4873
 5922TIP3   OH217729   2.980   0.892   3.544  0.0665 -0.6263  0.0450
 5922TIP3    H117730   2.964   0.911   3.452 -0.0203  0.4088  0.2603
 5922TIP3    H217731   3.060   0.839   3.544  1.0121  0.7449 -0.5393
 5923TIP3   OH217732   0.259   0.211   2.154 -0.1385  0.1148 -0.1096
 5923TIP3    H117733   0.169   0.241   2.136 -0.2288 -0.3079 -0.4004
 5923TIP3    H217734   0.285   0.259   2.232 -0.2929  0.9067 -0.5250
 5924TIP3   OH217735   0.843   6.702   4.516  0.3322  0.4513 -0.1166
 5924TIP3    H117736   0.905   6.644   4.473 -1.1584 -0.1881 -1.4918
 5924TIP3    H217737   0.884   6.789   4.511  1.3952 -0.0598 -0.4194
 5925TIP3   OH217738   4.943   5.097   2.116  0.4782 -0.1882 -0.4135
 5925TIP3    H117739   4.965   5.150   2.193 -0.2153 -1.6816  0.8656
 5925TIP3    H217740   5.011   5.030   2.113 -0.4025 -1.1241 -0.1016
 5926TIP3   OH217741   0.114   3.832   0.841  0.1323 -0.1137  0.1886
 5926TIP3    H117742   0.089   3.773   0.913 -1.1981  1.4566  1.1037
 5926TIP3    H217743   0.203   3.806   0.818 -0.3718 -2.4117  0.5719
 5927TIP3   OH217744   2.757   0.452   1.020 -0.7494  0.4723 -0.0298
 5927TIP3    H117745   2.818   0.388   0.984 -0.0584  1.0877  0.0116
 5927TIP3    H217746   2.679   0.402   1.044 -0.7999 -0.1221 -1.3599
 5928TIP3   OH217747   2.259   5.919   2.673  0.3116 -0.3146  0.2443
 5928TIP3    H117748   2.192   5.858   2.643  0.9824 -0.3522 -1.2680
 5928TIP3    H217749   2.290   5.882   2.755 -2.0167  0.1029  1.3822
 5929TIP3   OH217750   0.457   6.185   3.651  0.2237 -0.0155 -0.2236
 5929TIP3    H117751   0.442   6.097   3.616  0.5314 -0.2856  0.3127
 5929TIP3    H217752   0.552   6.198   3.642  0.8195 -1.2049  2.9852
 5930TIP3   OH217753   6.114   3.411   1.551 -0.0966 -0.6165 -0.5886
 5930TIP3    H117754   6.056   3.437   1.622  0.8572  3.3777 -1.0018
 5930TIP3    H217755   6.056   3.385   1.480 -1.4776  2.2127 -0.6319
 5931TIP3   OH217756   6.731   0.643   4.006 -0.1168  0.0646 -0.0440
 5931TIP3    H117757   6.773   0.557   4.001  0.6169  0.3350  1.0309
 5931TIP3    H217758   6.686   0.653   3.922  1.4071 -0.5340 -0.9733
 5932TIP3   OH217759   6.523   2.545   0.872 -0.1630 -0.2702 -0.3514
 5932TIP3    H117760   6.542   2.598   0.949  1.0595  1.0634 -1.5012
 5932TIP3    H217761   6.506   2.457   0.906  0.2184  0.3123  1.4304
 5933TIP3   OH217762   2.682   4.880   3.174 -0.1109 -0.3281  0.6189
 5933TIP3    H117763   2.608   4.934   3.146  1.6877  2.2079  0.4064
 5933TIP3    H217764   2.678   4.802   3.118 -1.2964  0.8081 -0.9641
 5934TIP3   OH217765   5.467   6.183   5.882 -0.0249  0.7105 -0.5379
 5934TIP3    H117766   5.488   6.107   5.828 -1.1992 -2.4859  3.0582
 5934TIP3    H217767   5.548   6.235   5.884  1.6866 -1.7858 -1.1420
 5935TIP3   OH217768   6.162   2.992   0.397  0.1914 -0.1387  0.2624
 5935TIP3    H117769   6.170   3.037   0.312 -0.4007  0.2612  0.4072
 5935TIP3    H217770   6.232   2.927   0.397  2.8266  2.4648  1.0961
 5936TIP3   OH217771   5.155   3.570   3.295 -0.1264 -0.2636 -0.0092
 5936TIP3    H117772   5.171   3.595   3.386 -1.0166 -0.2629  0.1556
 5936TIP3    H217773   5.176   3.476   3.292  0.5901 -0.1067  0.0214
 5937TIP3   OH217774   2.052   4.961   0.949  0.0968 -0.4287 -0.0578
 5937TIP3    H117775   2.022   5.045   0.914  0.9553 -0.2924 -0.5019
 5937TIP3    H217776   1.996   4.944   1.024 -0.5099  0.2272 -0.3526
 5938TIP3   OH217777   5.554   0.560   2.002 -0.3200  0.3770  0.5039
 5938TIP3    H117778   5.501   0.625   1.955  0.5768  0.8004  0.0557
 5938TIP3    H217779   5.591   0.506   1.933  1.4492  1.3397  0.6537
 5939TIP3   OH217780   2.012   1.851   2.652 -0.7455  0.2310 -0.1408
 5939TIP3    H117781   1.944   1.883   2.712 -0.7150  1.0472 -0.5216
 5939TIP3    H217782   2.074   1.924   2.646 -0.4209 -0.0855 -0.6654
 5940TIP3   OH217783   0.434   2.844   1.683 -0.2076  0.1665 -0.2351
 5940TIP3    H117784   0.370   2.890   1.738  0.8764  0.8749  0.4884
 5940TIP3    H217785   0.475   2.913   1.631 -1.5698 -0.5535 -2.3898
 5941TIP3   OH217786   5.046   2.418   3.943  0.1669 -0.1288 -0.5032
 5941TIP3    H117787   5.029   2.398   3.851  0.6816 -2.8842 -0.1045
 5941TIP3    H217788   4.960   2.412   3.985  0.1166 -0.1821 -0.6120
 5942TIP3   OH217789   4.385   3.182   1.902  0.2189  0.2800 -0.3124
 5942TIP3    H117790   4.327   3.198   1.826  0.4149  1.7721 -0.1798
 5942TIP3    H217791   4.448   3.253   1.899  0.7853 -0.1582  0.7569
 5943TIP3   OH217792   4.994   6.061   2.742 -0.4716 -0.3648 -0.2026
 5943TIP3    H117793   4.916   6.094   2.786  0.2273 -1.1462  1.7690
 5943TIP3    H217794   4.972   5.970   2.720 -0.3092 -0.4310 -0.0953
 5944TIP3   OH217795   2.924   2.236   0.285 -0.1643 -0.6299  0.0552
 5944TIP3    H117796   2.877   2.159   0.252  0.3855 -1.3212  0.8629
 5944TIP3    H217797   3.008   2.202   0.316  0.6203  0.4931 -0.7513
 5945TIP3   OH217798   6.907   5.269   0.798  0.7725 -0.0619  0.0750
 5945TIP3    H117799   6.904   5.192   0.855 -2.1511  0.0617  0.1922
 5945TIP3    H217800   6.983   5.318   0.829  0.6542 -1.1677  2.3114
 5946TIP3   OH217801   1.271   1.487   5.459  0.3903  0.1316  0.1533
 5946TIP3    H117802   1.331   1.458   5.527  0.4947 -0.6199 -0.2446
 5946TIP3    H217803   1.294   1.434   5.382  0.1394  0.8133 -0.4071
 5947TIP3   OH217804   5.518   6.164   4.584  0.5393  0.7026  0.3227
 5947TIP3    H117805   5.500   6.173   4.491 -0.3906 -1.9708  0.1491
 5947TIP3    H217806   5.611   6.140   4.589  0.9391  2.1622  0.2236
 5948TIP3   OH217807   6.103   3.653   3.961  0.2109  0.6235  0.3183
 5948TIP3    H117808   6.176   3.595   3.937  0.3166  0.5692  0.7567
 5948TIP3    H217809   6.129   3.689   4.046 -0.6278  0.0039  0.8481
 5949TIP3   OH217810   7.108   3.154   5.523 -0.6763 -0.5463 -0.4739
 5949TIP3    H117811   7.045   3.214   5.482  0.9099  0.4783 -1.5159
 5949TIP3    H217812   7.144   3.204   5.596 -0.8219 -1.0089 -0.0784
 5950TIP3   OH217813   3.673   1.393   2.043  0.0580  0.5841  0.6449
 5950TIP3    H117814   3.593   1.375   2.094 -1.2120  2.8073 -0.3993
 5950TIP3    H217815   3.672   1.328   1.973  0.1823 -0.5578  1.6589
 5951TIP3   OH217816   6.416   1.163   2.908 -0.4443 -0.1097 -0.0631
 5951TIP3    H117817   6.353   1.145   2.838  0.8065 -0.1731 -1.2057
 5951TIP3    H217818   6.464   1.240   2.879 -0.1754  0.1036  0.9186
 5952TIP3   OH217819   6.055   4.706   4.940 -0.2099 -0.1858  0.2233
 5952TIP3    H117820   6.000   4.634   4.910  0.3144 -0.6964  0.4714
 5952TIP3    H217821   6.144   4.676   4.927  0.0221 -0.0125  1.3302
 5953TIP3   OH217822   3.641   1.131   2.568  0.4215  0.5627  0.3031
 5953TIP3    H117823   3.690   1.212   2.581 -0.7678  1.1656  1.1988
 5953TIP3    H217824   3.670   1.074   2.639  0.5597  0.5403  0.2303
 5954TIP3   OH217825   6.738   2.281   2.148  0.4879 -0.6711 -0.1218
 5954TIP3    H117826   6.817   2.236   2.178  1.0420  0.1813 -0.2541
 5954TIP3    H217827   6.700   2.318   2.228  0.9891  0.0892 -0.2255
 5955TIP3   OH217828   2.392   3.225   0.636 -0.0834  0.0720 -0.2743
 5955TIP3    H117829   2.396   3.133   0.608  0.3100 -0.2827  0.8763
 5955TIP3    H217830   2.368   3.273   0.557 -2.1432 -1.2101 -0.5258
 5956TIP3   OH217831   4.141   1.642   2.018 -0.0886  0.0864 -0.0807
 5956TIP3    H117832   4.189   1.644   1.935 -0.5057 -0.4468 -0.3488
 5956TIP3    H217833   4.119   1.549   2.030  0.3725  0.0966  0.8698
 5957TIP3   OH217834   3.052   3.795   3.969 -0.0542  0.0070  0.1415
 5957TIP3    H117835   3.113   3.849   3.919 -0.2573 -2.2541 -2.7448
 5957TIP3    H217836   2.973   3.792   3.916 -0.4053 -2.2599  0.6991
 5958TIP3   OH217837   4.531   0.704   0.922  0.4957 -0.5433 -0.1387
 5958TIP3    H117838   4.486   0.652   0.989  1.3647  1.3666  2.0202
 5958TIP3    H217839   4.623   0.682   0.932  0.7843  0.8090  0.2501
 5959TIP3   OH217840   2.285   1.632   0.273 -0.6506  0.3025  0.6675
 5959TIP3    H117841   2.371   1.590   0.283 -0.2002  1.0832  0.1516
 5959TIP3    H217842   2.224   1.559   0.265  0.2997 -0.3215 -1.8240
 5960TIP3   OH217843   6.517   3.540   4.664 -0.4383  0.0784  0.0984
 5960TIP3    H117844   6.563   3.457   4.678 -1.1486 -0.2622  0.4823
 5960TIP3    H217845   6.433   3.515   4.627 -0.5909  0.6446  0.0501
 5961TIP3   OH217846   6.934   4.066   2.306 -0.2383  0.1888  0.1836
 5961TIP3    H117847   6.967   4.012   2.234  1.9562  1.2083  0.3586
 5961TIP3    H217848   6.898   4.003   2.369 -0.9773 -0.7989 -1.1823
 5962TIP3   OH217849   3.832   3.371   2.249  0.1966  0.7762  0.0338
 5962TIP3    H117850   3.743   3.337   2.258  0.4469  0.0467 -0.1993
 5962TIP3    H217851   3.887   3.307   2.295  0.5888  1.2937  0.2981
 5963TIP3   OH217852   3.667   4.470   5.005  0.4309 -0.0194 -0.1521
 5963TIP3    H117853   3.659   4.375   5.003 -0.0920  0.0081  0.5208
 5963TIP3    H217854   3.675   4.495   4.913  1.9519 -0.8159 -0.2745
 5964TIP3   OH217855   3.131   5.248   4.821 -0.0143  0.1694 -0.2712
 5964TIP3    H117856   3.170   5.249   4.909  1.3172 -1.4831 -0.8081
 5964TIP3    H217857   3.055   5.190   4.828 -0.6604  1.0159  0.0421
 5965TIP3   OH217858   1.477   5.382   5.398 -0.1145  0.1982 -0.1369
 5965TIP3    H117859   1.468   5.326   5.321  2.3504 -1.0721  0.3752
 5965TIP3    H217860   1.409   5.448   5.388 -0.1809 -0.1785 -3.1660
 5966TIP3   OH217861   3.893   1.629   5.527 -0.5000  0.0428  0.3457
 5966TIP3    H117862   3.820   1.570   5.511  0.0941 -0.2887 -1.4179
 5966TIP3    H217863   3.852   1.709   5.561 -1.6221 -0.3347 -0.0677
 5967TIP3   OH217864   3.519   3.295   4.952 -0.5595  0.0653 -0.1480
 5967TIP3    H117865   3.498   3.384   4.981  1.3357  1.0109 -1.4287
 5967TIP3    H217866   3.450   3.274   4.889  0.0479  1.5312 -1.3919
 5968TIP3   OH217867   2.571   5.004   3.515 -0.3323 -0.1851 -0.3619
 5968TIP3    H117868   2.578   5.090   3.556  0.8026 -0.9958  1.2656
 5968TIP3    H217869   2.661   4.978   3.496 -0.4573 -1.7530  0.9036
 5969TIP3   OH217870   1.750   1.605   2.749 -0.2563 -0.0489 -0.2540
 5969TIP3    H117871   1.719   1.681   2.798  1.7299  0.1731  0.7329
 5969TIP3    H217872   1.758   1.636   2.659  0.7366  0.9802  0.1801
 5970TIP3   OH217873   2.229   2.230   2.423  0.0755 -0.1864 -0.5053
 5970TIP3    H117874   2.229   2.223   2.327 -3.6306 -0.3414 -0.6470
 5970TIP3    H217875   2.200   2.143   2.452  3.4470 -0.9450  1.0189
 5971TIP3   OH217876   4.460   4.201   0.876  0.1832  0.8800  0.2728
 5971TIP3    H117877   4.495   4.113   0.887 -0.5215  0.6238  0.5303
 5971TIP3    H217878   4.472   4.243   0.961 -0.5279  0.6397  0.5006
 5972TIP3   OH217879   6.344   4.840   2.515 -0.0380 -0.1550 -0.3782
 5972TIP3    H117880   6.316   4.836   2.607  0.8376  0.2517 -0.0837
 5972TIP3    H217881   6.332   4.751   2.483  0.2006 -0.4406  0.2964
 5973TIP3   OH217882   1.939   2.157   3.168  0.3440 -0.1452  0.1139
 5973TIP3    H117883   2.024   2.114   3.161  0.6711  0.3505  0.8894
 5973TIP3    H217884   1.940   2.199   3.254 -0.3923  0.4917 -0.1729
 5974TIP3   OH217885   3.927   2.528   0.414  0.2807 -0.6700  0.0970
 5974TIP3    H117886   3.948   2.605   0.466 -0.4160  0.4525 -1.2134
 5974TIP3    H217887   3.832   2.522   0.418  0.2624 -0.8882 -0.5746
 5975TIP3   OH217888   6.454   2.162   3.366  0.7057  0.0180 -0.2640
 5975TIP3    H117889   6.399   2.090   3.396  0.4959  0.3865  0.2540
 5975TIP3    H217890   6.459   2.221   3.441 -0.7140  1.5040 -1.2730
 5976TIP3   OH217891   5.309   3.461   5.755  0.2960 -0.1460 -1.0095
 5976TIP3    H117892   5.256   3.438   5.831 -0.6113 -0.0141 -1.5751
 5976TIP3    H217893   5.390   3.497   5.791 -0.4826  0.7491 -0.1101
 5977TIP3   OH217894   1.099   4.176   5.190 -0.0198  0.6294  0.4053
 5977TIP3    H117895   1.077   4.168   5.282  2.3986  0.4578  1.0333
 5977TIP3    H217896   1.091   4.087   5.155 -0.3637  0.5893  0.5815
 5978TIP3   OH217897   1.383   5.830   3.721  0.4093  0.2948  0.0999
 5978TIP3    H117898   1.429   5.898   3.670 -0.2908 -0.2680 -1.3127
 5978TIP3    H217899   1.381   5.754   3.664  0.6852 -0.7795  1.4601
 5979TIP3   OH217900   2.598   6.334   5.679  0.2128  0.1915 -0.2820
 5979TIP3    H117901   2.562   6.345   5.766  1.5837 -1.3931  0.5474
 5979TIP3    H217902   2.540   6.270   5.637  0.3630 -0.1077 -0.0312
 5980TIP3   OH217903   7.156   3.056   2.948  0.2269  0.3933  0.2235
 5980TIP3    H117904   7.131   3.141   2.910 -1.0476 -0.0731 -0.0129
 5980TIP3    H217905   7.120   2.991   2.888 -0.2577 -0.3345  1.2794
 5981TIP3   OH217906   2.900   3.735   3.200 -0.0761  0.1512 -0.2844
 5981TIP3    H117907   2.841   3.735   3.276  1.0528 -0.3118  0.6341
 5981TIP3    H217908   2.841   3.736   3.124 -1.3862 -2.5070  0.5352
 5982TIP3   OH217909   2.583   2.749   3.468 -0.0507 -0.0584 -0.6042
 5982TIP3    H117910   2.676   2.749   3.493 -0.1445  0.0228 -0.2492
 5982TIP3    H217911   2.549   2.667   3.505  0.1361 -0.6670 -1.7273
 5983TIP3   OH217912   5.602   0.210   3.996 -0.1283 -0.0250 -0.7100
 5983TIP3    H117913   5.509   0.224   4.014 -0.7946 -1.3537 -2.7785
 5983TIP3    H217914   5.625   0.134   4.049  0.1634  1.0771  0.8033
 5984TIP3   OH217915   3.798   4.804   0.016 -0.1618  0.1402  0.2087
 5984TIP3    H117916   3.789   4.777   0.108  0.0472  1.4962  0.6532
 5984TIP3    H217917   3.775   4.726  -0.034 -0.3663 -0.6058  1.4134
 5985TIP3   OH217918   4.118   2.837   4.857 -0.4654 -0.5481  0.1971
 5985TIP3    H117919   4.105   2.843   4.762 -0.0875  0.4692  0.2026
 5985TIP3    H217920   4.203   2.878   4.873 -0.8797  0.0098  1.0596
 5986TIP3   OH217921   6.899   2.624   5.271  0.1167 -0.3363 -0.7698
 5986TIP3    H117922   6.815   2.609   5.315  0.3985 -0.4185 -0.2487
 5986TIP3    H217923   6.918   2.717   5.288 -0.0719 -0.2037 -1.2551
 5987TIP3   OH217924   3.525   2.292   4.819 -0.1491  0.2824 -0.8098
 5987TIP3    H117925   3.473   2.306   4.740 -0.9224 -0.4505 -0.4454
 5987TIP3    H217926   3.600   2.351   4.809  0.2918 -0.4982 -2.5476
 5988TIP3   OH217927   3.616   0.441   3.392  0.0299  0.5692 -1.4330
 5988TIP3    H117928   3.628   0.376   3.322  2.1728 -0.6504 -0.0437
 5988TIP3    H217929   3.578   0.391   3.465  1.0545  1.0039 -0.5808
 5989TIP3   OH217930   3.618   1.056   4.817  0.4146 -0.1923  0.5328
 5989TIP3    H117931   3.671   1.038   4.739 -0.5882  1.8157 -0.6975
 5989TIP3    H217932   3.666   1.123   4.865  0.2526 -0.2638  0.8002
 5990TIP3   OH217933   5.755   0.055   1.312  0.1712  0.5033 -0.6197
 5990TIP3    H117934   5.837   0.008   1.294  1.0139  1.6252  0.1221
 5990TIP3    H217935   5.691  -0.014   1.328  0.6070 -0.4524 -2.5799
 5991TIP3   OH217936   0.125   5.164   2.404 -0.4391 -0.2184  0.2373
 5991TIP3    H117937   0.123   5.247   2.354 -2.2387 -0.2655  0.1840
 5991TIP3    H217938   0.193   5.178   2.470  1.6513  0.0599 -1.8158
 5992TIP3   OH217939   2.576   4.499   5.836  0.1461  0.1684 -0.7972
 5992TIP3    H117940   2.616   4.427   5.884  1.3585  0.1908 -1.7097
 5992TIP3    H217941   2.625   4.502   5.753 -1.1162  0.8487 -1.5475
 5993TIP3   OH217942   0.049   5.990   1.820  0.1881 -0.7956  0.1885
 5993TIP3    H117943  -0.012   6.051   1.779  1.1787  2.1473  2.6770
 5993TIP3    H217944  -0.006   5.934   1.875 -0.5405 -0.3012 -0.0239
 5994TIP3   OH217945   4.362   5.680   4.255 -0.4236  0.1279 -0.3880
 5994TIP3    H117946   4.447   5.723   4.259  0.3085 -1.3493  1.2890
 5994TIP3    H217947   4.381   5.591   4.223 -1.0652 -0.7420  1.5147
 5995TIP3   OH217948   2.967   0.132   4.284 -0.4740 -0.0918  0.5159
 5995TIP3    H117949   2.935   0.099   4.368  0.4956 -1.8691  0.2402
 5995TIP3    H217950   2.903   0.100   4.220 -1.2346  1.2941  0.5423
 5996TIP3   OH217951   3.496   5.880   0.358  0.1418  0.1839 -0.1555
 5996TIP3    H117952   3.570   5.822   0.341  0.5539  0.8412 -0.7041
 5996TIP3    H217953   3.514   5.956   0.303 -0.4101  0.8029  0.5088
 5997TIP3   OH217954   6.016   5.796   4.092 -0.6154  0.2128  0.2210
 5997TIP3    H117955   6.066   5.724   4.055  1.1333  2.2076 -1.5120
 5997TIP3    H217956   5.935   5.797   4.041 -0.6385 -0.4808  0.2326
 5998TIP3   OH217957   1.021   6.464   5.695 -0.1540  0.0483 -0.3214
 5998TIP3    H117958   1.102   6.414   5.697  0.4246  0.9393 -0.9885
 5998TIP3    H217959   1.015   6.498   5.606 -0.6717  0.9196  0.0278
 5999TIP3   OH217960   0.395   3.381   3.146  0.3806  0.0635  0.1979
 5999TIP3    H117961   0.369   3.469   3.174  0.9427  0.5730 -0.8275
 5999TIP3    H217962   0.326   3.324   3.179 -0.0139  0.8933  0.8454
 6000TIP3   OH217963   5.642   1.898   4.868 -0.1296  0.5949  0.4110
 6000TIP3    H117964   5.596   1.981   4.854 -0.6520  0.1804 -0.4465
 6000TIP3    H217965   5.723   1.908   4.817 -0.0817  0.6682  0.5012
 6001TIP3   OH217966   6.567   0.596   5.227  0.0711  0.8593 -0.0000
 6001TIP3    H117967   6.533   0.618   5.140  0.2772  1.0243 -0.0390
 6001TIP3    H217968   6.660   0.577   5.213  0.2612  1.5393  0.2862
 6002TIP3   OH217969   1.755   0.209   3.807  0.3449  0.4481 -0.0434
 6002TIP3    H117970   1.840   0.205   3.851  0.1635  2.4882  0.5825
 6002TIP3    H217971   1.692   0.225   3.877 -0.1414  2.1355 -0.7975
 6003TIP3   OH217972   4.949   4.241   3.262  0.5208 -0.3530 -0.1314
 6003TIP3    H117973   4.883   4.175   3.239  0.6178  0.1581 -2.0444
 6003TIP3    H217974   5.033   4.196   3.251  0.6240  0.2552 -2.2864
 6004TIP3   OH217975   4.619   2.687   2.273 -0.2801 -0.0802  0.4885
 6004TIP3    H117976   4.542   2.737   2.246 -0.4829 -0.3942  0.4796
 6004TIP3    H217977   4.587   2.630   2.343  0.1142  0.3193  1.0021
 6005TIP3   OH217978   1.093   1.115   0.625 -0.4172 -0.4922 -0.3171
 6005TIP3    H117979   1.151   1.096   0.698 -0.8829 -0.7196 -0.0002
 6005TIP3    H217980   1.146   1.102   0.547 -0.7311 -3.2764 -0.1606
 6006TIP3   OH217981   0.864   0.057   4.588  0.1874 -0.6478  0.5944
 6006TIP3    H117982   0.774   0.088   4.576 -0.2958 -2.0672  0.4563
 6006TIP3    H217983   0.886   0.083   4.677 -0.5716 -0.8159  0.8385
 6007TIP3   OH217984   5.586   1.822   1.075  0.5177 -0.1990 -0.3293
 6007TIP3    H117985   5.531   1.867   1.140  0.7427 -0.0548 -0.2342
 6007TIP3    H217986   5.659   1.882   1.061  1.1337 -0.7969  0.2462
 6008TIP3   OH217987   5.005   1.620   3.250 -0.3954 -0.2059  0.3317
 6008TIP3    H117988   5.065   1.555   3.213 -0.4403 -1.0517  1.6585
 6008TIP3    H217989   5.045   1.646   3.333 -0.6490  1.0836  0.0770
 6009TIP3   OH217990   4.613   1.384   3.229 -0.0490  0.2843 -0.7663
 6009TIP3    H117991   4.568   1.455   3.183 -1.0267 -0.1535 -0.4907
 6009TIP3    H217992   4.613   1.411   3.321 -0.5658 -0.1536 -0.6393
 6010TIP3   OH217993   4.197   6.659   2.974 -0.3847  0.1059 -0.6943
 6010TIP3    H117994   4.212   6.643   2.881  0.8328  0.9635 -0.6637
 6010TIP3    H217995   4.257   6.730   2.997 -0.4230 -0.3093  0.8262
 6011TIP3   OH217996   5.785   3.579   1.512  0.0435  0.1655 -0.3874
 6011TIP3    H117997   5.732   3.576   1.592  0.4973  0.2796 -0.0736
 6011TIP3    H217998   5.731   3.625   1.449 -0.0940  0.6022  0.0379
 6012TIP3   OH217999   2.235   0.553   3.107  0.1352  0.9496 -0.9378
 6012TIP3    H118000   2.160   0.497   3.084  0.4795 -0.1552  0.4682
 6012TIP3    H218001   2.229   0.627   3.046 -1.9070  0.7452 -1.0704
 6013TIP3   OH218002   2.636   1.648   1.222 -0.4181  0.0048 -0.4932
 6013TIP3    H118003   2.722   1.631   1.260  0.2690  0.1199 -1.9276
 6013TIP3    H218004   2.578   1.583   1.262  0.2078  0.2651  0.8863
 6014TIP3   OH218005   6.969   2.051   2.547 -0.2257 -0.1440  0.0948
 6014TIP3    H118006   6.913   1.990   2.595 -1.3604 -0.0116 -1.0141
 6014TIP3    H218007   7.043   2.067   2.606 -0.5274 -1.6034  0.9212
 6015TIP3   OH218008   5.300   1.203   3.692 -0.1266  0.3216 -0.5806
 6015TIP3    H118009   5.211   1.170   3.706  0.0816  0.0624  0.1473
 6015TIP3    H218010   5.300   1.289   3.736  0.9219 -1.0595  2.3958
 6016TIP3   OH218011   1.732   4.442   3.003 -0.3421 -0.6644 -0.1558
 6016TIP3    H118012   1.697   4.444   3.092  0.8850 -1.6223  0.3741
 6016TIP3    H218013   1.757   4.533   2.985 -2.9444  0.0548 -0.5498
 6017TIP3   OH218014   1.087   0.831   5.563  0.0541  0.0017  0.1147
 6017TIP3    H118015   1.057   0.758   5.509 -0.2743  1.2235 -1.4339
 6017TIP3    H218016   1.183   0.827   5.556  0.0121  0.3068 -0.8220
 6018TIP3   OH218017   0.455   3.997   4.637  0.0577 -0.3224  0.3799
 6018TIP3    H118018   0.371   3.959   4.663  0.1859  0.1712  1.5892
 6018TIP3    H218019   0.506   3.923   4.606 -1.0172 -0.5444 -0.9754
 6019TIP3   OH218020   6.053   6.220   0.956  0.4690 -0.1947 -0.0941
 6019TIP3    H118021   5.987   6.257   1.014  1.9404 -1.9330  2.9366
 6019TIP3    H218022   6.031   6.127   0.949  2.1169 -0.6620  0.4086
 6020TIP3   OH218023   2.495   4.167   2.094  0.4915 -0.5856  0.3795
 6020TIP3    H118024   2.531   4.121   2.169  0.2895  0.1496  0.9379
 6020TIP3    H218025   2.482   4.257   2.124  1.1613 -0.0689 -0.7703
 6021TIP3   OH218026   3.725   1.131   3.133  0.6346  0.1933 -0.2807
 6021TIP3    H118027   3.750   1.039   3.125 -1.8405 -0.5257 -0.5001
 6021TIP3    H218028   3.702   1.157   3.043 -1.5033  0.0957  0.1905
 6022TIP3   OH218029   4.049   3.760   2.564  0.3096 -0.1706 -0.1581
 6022TIP3    H118030   3.967   3.745   2.609  0.2501 -0.2762 -0.3002
 6022TIP3    H218031   4.088   3.836   2.608  0.4719 -0.5537  0.3702
 6023TIP3   OH218032   0.097   4.111   1.183  0.3057  0.1599  0.5959
 6023TIP3    H118033   0.150   4.039   1.150 -2.2597 -0.7293 -2.0006
 6023TIP3    H218034   0.067   4.081   1.269  0.2336 -1.3525  0.0653
 6024TIP3   OH218035   2.333   6.511   2.956 -0.3830  0.6715 -0.3112
 6024TIP3    H118036   2.417   6.497   2.913 -1.7411 -0.8421 -2.7419
 6024TIP3    H218037   2.297   6.422   2.966 -1.6078  1.2732  0.8615
 6025TIP3   OH218038   1.688   4.932   5.160  0.0676  0.2664  0.3322
 6025TIP3    H118039   1.617   4.996   5.168 -0.4103  0.0523 -1.5981
 6025TIP3    H218040   1.754   4.961   5.223 -0.8086  1.7469  0.6111
 6026TIP3   OH218041   3.715   1.383   5.531  0.2712 -0.3960 -0.2759
 6026TIP3    H118042   3.799   1.361   5.570 -0.7841 -1.5608  1.4767
 6026TIP3    H218043   3.675   1.298   5.510 -0.9997  0.0793  0.1309
 6027TIP3   OH218044   5.670   0.658   3.781  0.8054  0.0532  0.2358
 6027TIP3    H118045   5.640   0.714   3.852  1.4391 -1.2420  1.5886
 6027TIP3    H218046   5.715   0.586   3.825  0.8566 -1.0157 -1.4723
 6028TIP3   OH218047   3.678   3.630   4.016  0.9730  0.4261  0.2539
 6028TIP3    H118048   3.725   3.583   3.947 -0.9536 -0.7017 -0.3360
 6028TIP3    H218049   3.739   3.631   4.089  1.2504 -2.7462  0.1943
 6029TIP3   OH218050   3.817   1.607   0.948  0.4372  0.2441  0.6372
 6029TIP3    H118051   3.738   1.638   0.993 -0.2008 -1.5429  0.8595
 6029TIP3    H218052   3.867   1.686   0.930  1.0880  1.1294  5.1220
 6030TIP3   OH218053   2.794   1.963   4.772  0.2729  0.2599  0.0802
 6030TIP3    H118054   2.852   1.930   4.841 -0.9022 -0.8097  0.6073
 6030TIP3    H218055   2.745   2.034   4.813  1.6283  1.5949 -0.5567
 6031TIP3   OH218056   0.066   0.384   0.282  0.8399 -0.2162  0.3315
 6031TIP3    H118057  -0.025   0.377   0.313  1.4418 -1.0590  1.9889
 6031TIP3    H218058   0.063   0.455   0.218 -1.3219 -1.3366 -0.9550
 6032TIP3   OH218059   5.282   1.178   0.784 -0.2293 -0.1657 -0.3265
 6032TIP3    H118060   5.357   1.136   0.828 -0.0788  0.1197 -0.3049
 6032TIP3    H218061   5.286   1.269   0.813  0.2341  0.1768 -1.4073
 6033TIP3   OH218062   2.468   4.921   0.821  0.1292 -0.0469 -0.6536
 6033TIP3    H118063   2.490   4.867   0.897  1.1071  2.0149  0.5958
 6033TIP3    H218064   2.522   4.886   0.751  0.5244 -0.8598  0.0359
 6034TIP3   OH218065   3.223   4.981   1.479  0.3462 -0.6275 -0.3170
 6034TIP3    H118066   3.215   4.931   1.560  0.4235 -0.0805  0.0355
 6034TIP3    H218067   3.156   4.944   1.421 -2.5753  1.5730  1.3577
 6035TIP3   OH218068   2.356   2.890   5.522  0.2550  0.1274 -0.5836
 6035TIP3    H118069   2.283   2.932   5.568 -0.6117  0.0913 -1.8690
 6035TIP3    H218070   2.315   2.844   5.449  1.6338  0.6964 -1.7708
 6036TIP3   OH218071   4.971   6.189   3.136  0.6371  0.1464  0.0749
 6036TIP3    H118072   4.931   6.152   3.057 -0.8500 -0.5741  1.1047
 6036TIP3    H218073   4.917   6.265   3.157  0.4998 -0.1483  0.8361
 6037TIP3   OH218074   2.644   3.960   1.696 -0.3708 -0.4066  0.4668
 6037TIP3    H118075   2.605   4.037   1.737 -0.0781  0.6198 -1.0624
 6037TIP3    H218076   2.701   3.996   1.628 -0.3097 -1.9738 -0.3631
 6038TIP3   OH218077   0.192   6.501   0.112  0.4545  0.7046  0.6067
 6038TIP3    H118078   0.283   6.532   0.118  1.1016 -1.2572  2.2084
 6038TIP3    H218079   0.192   6.418   0.160 -1.5240 -0.9283 -1.9450
 6039TIP3   OH218080   1.923   2.126   0.652  0.4919  0.1774  0.1340
 6039TIP3    H118081   1.895   2.213   0.621 -0.5910  0.6031  2.1322
 6039TIP3    H218082   1.856   2.101   0.715  1.9595 -1.1558  1.2332
 6040TIP3   OH218083   6.288   4.582   4.228 -0.0305 -0.2489 -0.1403
 6040TIP3    H118084   6.293   4.593   4.133  0.0562  1.1822  0.0159
 6040TIP3    H218085   6.337   4.656   4.264 -3.4201  1.5881  1.0837
 6041TIP3   OH218086   4.285   1.925   0.724 -0.3320 -0.1921 -0.9145
 6041TIP3    H118087   4.197   1.958   0.708 -0.5584 -0.8277 -0.9952
 6041TIP3    H218088   4.313   1.888   0.640  0.1923  0.4125 -1.0174
 6042TIP3   OH218089   6.803   0.636   4.768 -0.1926 -0.5130  0.3841
 6042TIP3    H118090   6.883   0.601   4.808 -0.3956 -0.4439  0.8583
 6042TIP3    H218091   6.783   0.715   4.819  0.3222  0.3818 -0.7461
 6043TIP3   OH218092   2.845   5.359   2.886 -0.3705 -0.2345  0.3107
 6043TIP3    H118093   2.861   5.428   2.951  0.2727 -1.3219  1.3369
 6043TIP3    H218094   2.931   5.343   2.846 -0.6180 -0.1012 -0.2881
 6044TIP3   OH218095   2.884   0.260   4.904  0.0920  0.2275  0.0522
 6044TIP3    H118096   2.944   0.235   4.834 -0.5284  1.4272 -0.9422
 6044TIP3    H218097   2.940   0.307   4.967  0.1375  1.8500 -1.1470
 6045TIP3   OH218098   0.818   2.880   1.954 -0.4508  0.5352  0.3192
 6045TIP3    H118099   0.723   2.886   1.947 -0.5221 -0.6482 -0.0616
 6045TIP3    H218100   0.849   2.888   1.864 -0.3118 -0.4435  0.2611
 6046TIP3   OH218101   7.010   4.416   4.216 -0.1756  0.1900 -0.2261
 6046TIP3    H118102   7.072   4.350   4.247 -2.2781 -1.3059  1.0491
 6046TIP3    H218103   7.021   4.489   4.276 -1.1563 -0.9565  1.4191
 6047TIP3   OH218104   5.824   4.045   0.395 -0.2345  0.2571 -0.3461
 6047TIP3    H118105   5.835   4.137   0.371 -3.5728  1.0882  0.7443
 6047TIP3    H218106   5.826   4.045   0.491  0.5231 -0.9896 -0.3317
 6048TIP3   OH218107   6.055   4.825   0.635 -0.2966 -0.2779 -0.5889
 6048TIP3    H118108   6.027   4.794   0.722  0.9558 -0.0764 -0.0947
 6048TIP3    H218109   6.150   4.832   0.642 -0.3124  1.1957 -1.5101
 6049TIP3   OH218110   0.490   1.358   4.182 -0.0985 -0.1029 -0.1501
 6049TIP3    H118111   0.504   1.322   4.270 -1.4718 -1.9429 -0.6193
 6049TIP3    H218112   0.429   1.430   4.195  0.7396  0.5122  0.5246
 6050TIP3   OH218113   2.519   3.900   5.510  0.1060  0.4605  0.2821
 6050TIP3    H118114   2.535   3.939   5.595 -1.9662  2.9476 -0.3700
 6050TIP3    H218115   2.570   3.954   5.449 -1.3069  1.0172 -0.4326
 6051TIP3   OH218116   4.548   4.938   1.528  0.1205  0.0878 -0.0283
 6051TIP3    H118117   4.456   4.949   1.555 -0.7165 -1.7183 -1.8953
 6051TIP3    H218118   4.556   4.845   1.509  2.0820  0.3887 -0.8515
 6052TIP3   OH218119   1.291   1.415   1.460 -0.5006 -0.6234 -0.4681
 6052TIP3    H118120   1.273   1.335   1.411  2.1288 -0.1715 -2.3883
 6052TIP3    H218121   1.383   1.434   1.443  0.1618  0.5606  3.3587
 6053TIP3   OH218122   2.131   3.711   2.141  0.5191  0.0011  0.0530
 6053TIP3    H118123   2.164   3.661   2.066  1.4593  2.3928 -1.2386
 6053TIP3    H218124   2.066   3.654   2.182  0.5529 -1.7083 -2.1236
 6054TIP3   OH218125   0.230   5.543   1.917  0.4485  0.3995 -0.4380
 6054TIP3    H118126   0.206   5.456   1.888 -0.1534  0.4066  0.0248
 6054TIP3    H218127   0.313   5.561   1.873  0.3372 -0.2097 -0.9091
 6055TIP3   OH218128   4.559   0.982   0.478 -0.1636 -0.3533  0.1093
 6055TIP3    H118129   4.635   1.002   0.533  0.2959 -1.0767 -0.2514
 6055TIP3    H218130   4.492   0.953   0.540  0.0408 -0.2556  0.3810
 6056TIP3   OH218131   0.256   4.919   0.566 -0.8633  0.0401  0.1582
 6056TIP3    H118132   0.238   4.882   0.653  0.8425  1.5448  1.2275
 6056TIP3    H218133   0.318   4.990   0.583  0.9070 -0.7280 -2.4678
 6057TIP3   OH218134   6.583   0.416   1.090 -0.3494  0.4223 -0.2845
 6057TIP3    H118135   6.506   0.364   1.115 -0.4898 -0.0685 -1.6235
 6057TIP3    H218136   6.555   0.507   1.101 -1.2859  0.2583 -1.1362
 6058TIP3   OH218137   3.194   2.340   5.454  0.0814  0.2602 -0.2149
 6058TIP3    H118138   3.140   2.307   5.525  1.2572  1.3823  1.2680
 6058TIP3    H218139   3.224   2.262   5.408 -0.3464 -0.5107  0.7771
 6059TIP3   OH218140   1.487   3.866   4.440  0.6262  0.2962 -0.5474
 6059TIP3    H118141   1.437   3.806   4.385  1.6303 -0.8975 -0.2330
 6059TIP3    H218142   1.421   3.922   4.482 -0.4136 -0.9712 -0.4213
 6060TIP3   OH218143   0.901   4.885   4.625  0.2276 -0.3836  0.2460
 6060TIP3    H118144   0.952   4.825   4.570 -1.2456 -1.9135  0.4734
 6060TIP3    H218145   0.871   4.831   4.699 -0.4631  0.8462  0.9058
 6061TIP3   OH218146   6.268   4.476   5.890  0.3552 -0.7033 -0.0681
 6061TIP3    H118147   6.196   4.520   5.845  0.4441 -0.4166  0.0661
 6061TIP3    H218148   6.233   4.391   5.914 -0.7041  0.2520  1.9836
 6062TIP3   OH218149   0.121   3.106   0.840 -0.2007  0.2554  0.0006
 6062TIP3    H118150   0.142   3.032   0.784 -1.2329  0.0710 -0.1684
 6062TIP3    H218151   0.079   3.169   0.781  1.8851  1.5825 -0.1517
 6063TIP3   OH218152   6.734   0.871   2.000  0.3428 -0.2713 -0.6418
 6063TIP3    H118153   6.656   0.827   1.967  0.0425 -0.5802  0.4527
 6063TIP3    H218154   6.730   0.958   1.960 -0.9332 -0.0458 -0.0698
 6064TIP3   OH218155   0.202   2.937   1.519 -0.1258 -0.1789 -0.2332
 6064TIP3    H118156   0.109   2.936   1.496 -0.1270  0.9379 -0.3066
 6064TIP3    H218157   0.228   3.028   1.509  0.8514 -0.3903  0.3196
 6065TIP3   OH218158   1.564   5.105   3.237  0.3976 -0.2883  0.1806
 6065TIP3    H118159   1.488   5.112   3.180 -0.4120  2.2456  1.4420
 6065TIP3    H218160   1.639   5.119   3.179 -0.0468 -2.1545 -0.9493
 6066TIP3   OH218161   3.293   6.141   1.503  0.7323 -0.3970 -0.0304
 6066TIP3    H118162   3.307   6.092   1.422 -0.2769  0.4984 -0.7696
 6066TIP3    H218163   3.373   6.193   1.514  0.9720 -0.6994 -0.3294
 6067TIP3   OH218164   3.533   4.788   4.932  0.1570 -0.0594 -0.3798
 6067TIP3    H118165   3.603   4.748   4.984  0.2619  0.1154 -0.3875
 6067TIP3    H218166   3.540   4.744   4.847 -0.8926 -1.3403  0.1616
 6068TIP3   OH218167   2.269   3.916   5.822 -0.4281 -0.2317 -0.0672
 6068TIP3    H118168   2.315   3.922   5.906  0.9251 -0.1890 -0.7714
 6068TIP3    H218169   2.193   3.973   5.831 -1.3477 -1.6800  1.7594
 6069TIP3   OH218170   3.361   3.572   3.718 -0.2014 -0.1130  0.3990
 6069TIP3    H118171   3.360   3.600   3.626  0.3798 -2.1960 -0.2995
 6069TIP3    H218172   3.409   3.641   3.764  0.8596  0.2160 -1.1458
 6070TIP3   OH218173   3.773   3.723   2.376  0.2224 -0.5027  0.0833
 6070TIP3    H118174   3.826   3.802   2.368  1.8883 -1.6795 -1.4552
 6070TIP3    H218175   3.683   3.755   2.384  0.8646  1.5392 -0.2785
 6071TIP3   OH218176   0.811   3.755   4.015 -0.0233 -0.2793 -0.3057
 6071TIP3    H118177   0.862   3.707   3.950 -3.0868 -1.1972 -2.2547
 6071TIP3    H218178   0.753   3.690   4.054 -1.0205  1.0117  0.4613
 6072TIP3   OH218179   1.773   4.187   2.203 -0.4575  0.4669 -0.7924
 6072TIP3    H118180   1.808   4.201   2.115  1.9947  2.0443  0.3436
 6072TIP3    H218181   1.815   4.106   2.233  1.4981  1.7687  0.1539
 6073TIP3   OH218182   4.378   5.737   2.642  0.1172 -0.2412  0.3453
 6073TIP3    H118183   4.287   5.714   2.622  0.4575  0.3323 -2.1564
 6073TIP3    H218184   4.382   5.832   2.630  0.7273 -0.0157  2.0348
 6074TIP3   OH218185   4.306   1.520   1.765 -0.1260  0.2414  0.0455
 6074TIP3    H118186   4.222   1.551   1.731  0.2155  0.2219 -0.8176
 6074TIP3    H218187   4.343   1.596   1.810 -1.1130 -0.0604  1.4618
 6075TIP3   OH218188   5.106   0.621   0.914  0.0460 -0.0920  0.0403
 6075TIP3    H118189   5.176   0.559   0.893  0.2711  0.4214 -0.7586
 6075TIP3    H218190   5.151   0.694   0.957 -0.2734 -0.6471  1.3662
 6076TIP3   OH218191   1.689   5.442   4.561 -0.4263 -0.0979  0.2506
 6076TIP3    H118192   1.646   5.452   4.647 -0.8592  1.2437 -0.0965
 6076TIP3    H218193   1.775   5.482   4.572  0.0457 -1.1407  0.4264
 6077TIP3   OH218194   7.058   4.634   1.731  0.5351 -0.0209 -0.1041
 6077TIP3    H118195   7.072   4.543   1.758  0.4424  0.1815  0.6679
 6077TIP3    H218196   7.128   4.683   1.774 -0.2504  0.4660  0.6658
 6078TIP3   OH218197   2.832   3.491   1.911  0.4606 -0.0820  0.4849
 6078TIP3    H118198   2.753   3.508   1.961 -0.7642 -1.3860 -0.8823
 6078TIP3    H218199   2.827   3.552   1.837  0.4613 -0.4848  0.1462
 6079TIP3   OH218200   5.136   5.775   1.303  0.0873 -0.3413 -0.3976
 6079TIP3    H118201   5.213   5.831   1.306 -1.0962  1.4944 -2.0386
 6079TIP3    H218202   5.160   5.704   1.243  1.0520 -0.7908  0.4825
 6080TIP3   OH218203   2.213   4.045   2.000 -0.2324 -1.0147 -0.0631
 6080TIP3    H118204   2.231   4.089   2.083 -2.4806  2.9851 -1.3958
 6080TIP3    H218205   2.130   3.999   2.015 -0.2180 -0.9905  0.0991
 6081TIP3   OH218206   1.515   5.860   2.713 -0.5532  0.5929  0.7005
 6081TIP3    H118207   1.583   5.872   2.780  1.8291 -3.6398 -0.5852
 6081TIP3    H218208   1.552   5.899   2.634 -0.0433 -0.7555  0.2518
 6082TIP3   OH218209   5.956   3.992   1.217  0.7149  0.4083  0.1204
 6082TIP3    H118210   5.893   3.922   1.202  0.2568  0.8978 -0.3104
 6082TIP3    H218211   6.040   3.948   1.228  0.5769 -0.1617 -0.9823
 6083TIP3   OH218212   2.894   1.417   0.378  0.1664 -0.6177 -0.4339
 6083TIP3    H118213   2.838   1.346   0.346  0.4399 -1.0201 -0.0284
 6083TIP3    H218214   2.970   1.373   0.415 -0.1936 -0.1856  0.8705
 6084TIP3   OH218215   0.920   4.521   0.169 -0.0172  0.3041 -0.3668
 6084TIP3    H118216   0.972   4.596   0.198  0.9016 -0.6966  0.6410
 6084TIP3    H218217   0.980   4.471   0.113 -0.5957  0.2432 -0.9542
 6085TIP3   OH218218   3.499   1.090   3.298 -0.1969 -0.0673 -0.3231
 6085TIP3    H118219   3.574   1.133   3.259  0.4173 -1.5692 -0.8455
 6085TIP3    H218220   3.430   1.096   3.231 -0.7084  1.5995  0.2814
 6086TIP3   OH218221   5.471   2.585   5.304  0.0916  0.3178 -0.0194
 6086TIP3    H118222   5.565   2.571   5.315 -0.1553 -0.8831  0.8499
 6086TIP3    H218223   5.460   2.680   5.307  1.5514  0.6833 -2.7507
 6087TIP3   OH218224   1.408   2.353   4.336  0.6171  0.0254  0.0611
 6087TIP3    H118225   1.353   2.284   4.374 -0.0137  0.4601 -0.0574
 6087TIP3    H218226   1.446   2.312   4.258  3.1510 -1.4049  1.9065
 6088TIP3   OH218227   4.738   5.376   1.283 -0.3331 -0.5160 -0.2377
 6088TIP3    H118228   4.684   5.302   1.309 -1.6531  0.3315 -0.4516
 6088TIP3    H218229   4.756   5.423   1.364  0.2196 -0.8908 -0.1448
 6089TIP3   OH218230   6.187   3.818   4.821  0.1739  0.2286 -0.4570
 6089TIP3    H118231   6.228   3.737   4.793  0.6372  0.7128 -1.2285
 6089TIP3    H218232   6.118   3.833   4.756  1.2107  1.3279 -1.3618
 6090TIP3   OH218233   2.936   1.601   5.035 -0.2831  0.0734  0.8600
 6090TIP3    H118234   2.978   1.555   5.107 -1.1227 -0.4556  1.0282
 6090TIP3    H218235   2.915   1.533   4.971 -1.9166  0.1191  1.3016
 6091TIP3   OH218236   2.745   4.180   2.922  0.4572  0.5146  0.1647
 6091TIP3    H118237   2.695   4.136   2.853 -1.9207  0.7890  1.6131
 6091TIP3    H218238   2.837   4.166   2.897 -0.2761 -0.1156 -2.5641
 6092TIP3   OH218239   0.862   4.069   2.924 -0.0671  0.1352 -0.0782
 6092TIP3    H118240   0.848   4.086   3.018 -1.6335  1.9186 -0.5498
 6092TIP3    H218241   0.773   4.055   2.890  0.5557 -1.2704 -1.1763
 6093TIP3   OH218242   0.217   6.226   1.834 -0.5566  0.2861  0.6467
 6093TIP3    H118243   0.183   6.136   1.838 -1.5950  0.7183  2.2341
 6093TIP3    H218244   0.292   6.226   1.893 -0.2396  0.3408  0.2470
 6094TIP3   OH218245   3.722   0.320   0.519 -0.7778  0.0831  0.0662
 6094TIP3    H118246   3.748   0.268   0.443  1.2530  2.1974 -0.8247
 6094TIP3    H218247   3.633   0.348   0.500 -0.1710  0.8806 -1.7772
 6095TIP3   OH218248   2.411   5.005   5.650  0.0699  0.2957  0.0368
 6095TIP3    H118249   2.333   5.054   5.676 -0.2826 -1.1345  1.8851
 6095TIP3    H218250   2.377   4.922   5.616  0.7717  0.0001  0.0396
 6096TIP3   OH218251   3.222   0.108   2.266 -0.5881 -0.2913 -0.2976
 6096TIP3    H118252   3.271   0.078   2.342  0.1277 -0.6470 -0.8819
 6096TIP3    H218253   3.216   0.203   2.276 -1.0835 -0.4044  0.5330
 6097TIP3   OH218254   6.711   4.994   1.138 -0.2809 -0.3775  0.2456
 6097TIP3    H118255   6.642   4.948   1.185 -1.4231 -2.2407 -2.8869
 6097TIP3    H218256   6.667   5.032   1.062  1.9382 -0.9540 -1.4383
 6098TIP3   OH218257   0.870   5.118   5.111 -0.1692  0.3932 -0.5806
 6098TIP3    H118258   0.905   5.174   5.180  0.0343 -0.8609  0.3788
 6098TIP3    H218259   0.924   5.138   5.034  0.8279  0.5119  0.1284
 6099TIP3   OH218260   4.549   1.512   3.731 -0.1446 -0.8045  0.4558
 6099TIP3    H118261   4.642   1.495   3.714 -0.0387 -0.1792  0.3782
 6099TIP3    H218262   4.550   1.585   3.793 -0.5935  0.6022 -1.1068
 6100TIP3   OH218263   1.547   6.062   4.530  0.2964 -0.5062 -0.5083
 6100TIP3    H118264   1.621   6.009   4.499  0.2632  0.3245 -2.1242
 6100TIP3    H218265   1.587   6.138   4.572  0.3354 -1.2501  0.8711
 6101TIP3   OH218266   1.040   5.575   5.555  0.2399  0.2478 -0.2961
 6101TIP3    H118267   0.960   5.624   5.574 -0.0723  0.1369 -1.2753
 6101TIP3    H218268   1.029   5.492   5.603 -0.5474 -0.0417 -0.9501
 6102TIP3   OH218269   5.787   3.560   4.465  0.7331 -0.1434  0.2301
 6102TIP3    H118270   5.753   3.515   4.543  0.4083  0.4788  0.4520
 6102TIP3    H218271   5.750   3.648   4.469  1.4528  0.1909 -0.1423
 6103TIP3   OH218272   2.490   4.646   0.460  0.3279  0.1376 -0.2520
 6103TIP3    H118273   2.526   4.656   0.372 -0.3927 -1.6059 -0.7825
 6103TIP3    H218274   2.441   4.727   0.475 -0.0128  0.2196 -1.6864
 6104TIP3   OH218275   2.168   2.376   4.219  0.3756 -0.0006  0.3148
 6104TIP3    H118276   2.130   2.453   4.262 -0.7311  0.7524 -1.8744
 6104TIP3    H218277   2.254   2.366   4.260  0.2616  1.9598  1.1523
 6105TIP3   OH218278   0.949   1.513   4.162  0.3388  0.4304  0.1361
 6105TIP3    H118279   0.862   1.538   4.129  1.8923  3.2966 -2.3302
 6105TIP3    H218280   0.970   1.432   4.114 -0.2285  0.7953 -0.7674
 6106TIP3   OH218281   5.714   3.013   2.742 -0.3929  0.0186 -0.3472
 6106TIP3    H118282   5.737   3.094   2.697 -1.0537  0.0495 -0.6413
 6106TIP3    H218283   5.651   2.971   2.684 -2.0082  0.5095  0.9744
 6107TIP3   OH218284   3.863   4.241   2.983 -0.0333  0.0282 -0.6800
 6107TIP3    H118285   3.878   4.332   2.958 -0.5504  0.3283  0.0642
 6107TIP3    H218286   3.772   4.223   2.958  0.0810 -0.2946 -0.8673
 6108TIP3   OH218287   0.519   6.759   2.051 -0.3044 -0.2943  0.5999
 6108TIP3    H118288   0.445   6.718   2.006 -1.0254  1.4233  0.1631
 6108TIP3    H218289   0.590   6.756   1.987  0.5341 -3.1996  1.4870
 6109TIP3   OH218290   4.019   0.507   4.214 -0.0022 -0.2205  0.4238
 6109TIP3    H118291   4.095   0.456   4.243  0.1958 -0.1083  0.1154
 6109TIP3    H218292   4.016   0.493   4.119  0.2692  0.6086  0.2831
 6110TIP3   OH218293   6.235   3.578   0.092 -0.0955  0.5577  0.0357
 6110TIP3    H118294   6.213   3.611   0.179 -1.8444 -1.6754  0.5270
 6110TIP3    H218295   6.154   3.538   0.060  1.4539 -1.8931 -1.0942
 6111TIP3   OH218296   2.440   1.718   4.125 -0.1334  0.0631 -0.5010
 6111TIP3    H118297   2.491   1.662   4.183  2.2214  1.3600 -1.1485
 6111TIP3    H218298   2.439   1.803   4.168 -0.9415  0.3089 -0.9761
 6112TIP3   OH218299   4.272   0.314   0.145  0.6255 -0.1566 -0.2857
 6112TIP3    H118300   4.241   0.342   0.059  2.2550 -0.9171 -1.1705
 6112TIP3    H218301   4.336   0.245   0.126  0.3956 -0.9443  1.5818
 6113TIP3   OH218302   3.647   3.681   4.900  0.2288 -0.5144 -0.2676
 6113TIP3    H118303   3.573   3.664   4.958  0.0054  1.1038 -0.0233
 6113TIP3    H218304   3.608   3.721   4.822  0.7222 -0.8821 -0.7138
 6114TIP3   OH218305   0.857   2.945   2.547  0.7317 -0.3222 -0.5422
 6114TIP3    H118306   0.951   2.966   2.545  1.2792 -2.5120 -1.7825
 6114TIP3    H218307   0.836   2.924   2.456 -1.6367  2.4891 -0.7751
 6115TIP3   OH218308   1.489   1.659   1.166  0.4844  0.1452 -0.1170
 6115TIP3    H118309   1.555   1.728   1.157 -0.9251  1.4602 -0.8635
 6115TIP3    H218310   1.538   1.577   1.160  2.0238  1.0767 -0.7240
 6116TIP3   OH218311   3.470   0.773   4.796  0.5122  0.6257  0.8204
 6116TIP3    H118312   3.544   0.782   4.735  0.7490 -0.1442  0.9915
 6116TIP3    H218313   3.442   0.863   4.812  0.3795  0.8469 -0.5038
 6117TIP3   OH218314   0.519   2.689   4.339 -0.5814  0.2049 -0.1413
 6117TIP3    H118315   0.426   2.691   4.362 -0.1722  0.3214  1.6263
 6117TIP3    H218316   0.528   2.610   4.285 -1.7016  0.2085 -0.3641
 6118TIP3   OH218317   3.875   4.839   2.666 -0.2190 -0.1753  0.2053
 6118TIP3    H118318   3.905   4.749   2.673 -2.1338 -0.8796  0.0033
 6118TIP3    H218319   3.813   4.838   2.593 -0.8104  1.1427  0.6575
 6119TIP3   OH218320   6.262   3.444   0.745  0.1117  0.0598  0.6655
 6119TIP3    H118321   6.305   3.367   0.707 -0.6200  0.2115 -0.5302
 6119TIP3    H218322   6.170   3.418   0.753 -0.2671  1.0275 -0.3829
 6120TIP3   OH218323   0.588   0.053   0.636  0.1594 -0.2108  0.7488
 6120TIP3    H118324   0.624   0.135   0.670 -2.4433  2.0448 -1.4845
 6120TIP3    H218325   0.518   0.031   0.697 -0.2548  0.2093  0.4323
 6121TIP3   OH218326   0.284   3.923   1.061  0.1215  0.1296  0.2595
 6121TIP3    H118327   0.256   3.900   0.972 -1.2607 -0.2155  0.7551
 6121TIP3    H218328   0.348   3.857   1.084 -0.3298 -0.4365 -0.0838
 6122TIP3   OH218329   1.003   6.556   5.449  0.2017  0.4027  0.1169
 6122TIP3    H118330   0.948   6.567   5.371  1.3242 -2.1495 -1.1444
 6122TIP3    H218331   1.092   6.566   5.417  0.6301  1.1011  1.4679
 6123TIP3   OH218332   2.705   0.698   4.915  0.0995 -0.0220 -0.4359
 6123TIP3    H118333   2.783   0.675   4.965 -0.1990  0.5052  0.2826
 6123TIP3    H218334   2.664   0.769   4.965  0.2975  1.1873 -1.8986
 6124TIP3   OH218335   1.866   3.844   4.817 -0.0468 -0.6096 -0.2283
 6124TIP3    H118336   1.814   3.766   4.836 -0.0950  0.0811  3.2322
 6124TIP3    H218337   1.956   3.818   4.841  0.1434  0.0436 -0.2218
 6125TIP3   OH218338   5.345   0.236   1.426  0.9124 -0.7340 -0.5975
 6125TIP3    H118339   5.284   0.166   1.401 -0.4337  0.0893  0.2973
 6125TIP3    H218340   5.290   0.304   1.464  2.3754  0.1383  0.0427
 6126TIP3   OH218341   6.552   3.055   3.853  0.2158  0.2149 -0.1400
 6126TIP3    H118342   6.528   3.109   3.928 -1.0357  0.9056 -0.9974
 6126TIP3    H218343   6.523   2.967   3.876 -0.7675  0.5465 -0.0605
 6127TIP3   OH218344   2.087   1.817   0.349 -0.2749  0.2287 -0.2508
 6127TIP3    H118345   2.009   1.795   0.298 -0.0104 -1.1539 -0.1022
 6127TIP3    H218346   2.160   1.783   0.298  0.2917  1.8114 -0.5542
 6128TIP3   OH218347   3.226   4.622   4.398  0.1926 -0.4852 -0.1567
 6128TIP3    H118348   3.269   4.566   4.333 -0.1730 -1.0482  0.0807
 6128TIP3    H218349   3.245   4.581   4.482  0.6128  0.2096  0.1029
 6129TIP3   OH218350   4.203   0.019   3.370  0.2340  0.1652 -0.1469
 6129TIP3    H118351   4.287   0.060   3.349  0.6123 -0.3788  0.2911
 6129TIP3    H218352   4.196  -0.054   3.309  0.6288 -0.4916  0.5704
 6130TIP3   OH218353   5.719   6.325   5.364  0.3161  0.2946  0.1205
 6130TIP3    H118354   5.649   6.347   5.425  1.2572  0.6467  1.1136
 6130TIP3    H218355   5.677   6.324   5.278 -0.6807  1.5466  0.5605
 6131TIP3   OH218356   4.426   3.762   3.992 -0.1041  0.1718 -0.0838
 6131TIP3    H118357   4.399   3.742   3.903  1.3928  0.6709 -0.6891
 6131TIP3    H218358   4.347   3.752   4.044 -0.9820 -0.2529 -1.4432
 6132TIP3   OH218359   2.518   1.395   5.028  0.4362 -0.8690  0.6723
 6132TIP3    H118360   2.538   1.312   5.070 -0.7966 -2.0601 -0.9613
 6132TIP3    H218361   2.528   1.378   4.935 -1.5106  0.2776  0.1807
 6133TIP3   OH218362   3.436   5.486   1.394 -0.3651  0.3132  0.1131
 6133TIP3    H118363   3.425   5.399   1.432 -0.8096  0.9143  1.4076
 6133TIP3    H218364   3.481   5.470   1.311 -0.4173 -1.1419  0.3379
 6134TIP3   OH218365   1.041   0.434   4.003 -0.1061 -0.3843 -0.1588
 6134TIP3    H118366   1.054   0.415   4.096 -0.6682  2.0906  0.4897
 6134TIP3    H218367   1.109   0.498   3.981  0.2884 -1.2415 -1.5963
 6135TIP3   OH218368   6.126   4.985   0.942 -0.1649  0.1683 -0.2935
 6135TIP3    H118369   6.087   5.062   0.901  0.2207  0.7440  0.3846
 6135TIP3    H218370   6.199   5.020   0.993 -0.3168 -0.5737  0.4639
 6136TIP3   OH218371   3.085   0.181   0.041  0.4198  0.0675 -0.2117
 6136TIP3    H118372   3.180   0.182   0.051  0.8156 -1.9216 -2.7711
 6136TIP3    H218373   3.065   0.260  -0.008  0.7139  0.4967  0.3393
 6137TIP3   OH218374   3.962   6.131   5.631  0.4573  0.0898  0.5559
 6137TIP3    H118375   3.875   6.164   5.655 -0.4895 -0.8834 -1.3656
 6137TIP3    H218376   4.014   6.210   5.617 -1.1225  0.8279 -1.6997
 6138TIP3   OH218377   5.819   3.602   2.367 -0.0464 -0.1999  0.7718
 6138TIP3    H118378   5.862   3.688   2.370 -0.2429 -0.0961  0.6913
 6138TIP3    H218379   5.781   3.592   2.454 -0.2397 -0.0902  0.7009
 6139TIP3   OH218380   2.448   4.536   3.855  0.5774  0.1352 -0.5967
 6139TIP3    H118381   2.420   4.624   3.830  1.1105  0.5262  0.1591
 6139TIP3    H218382   2.541   4.533   3.833  0.6153 -0.1691 -0.4030
 6140TIP3   OH218383   5.218   0.299   2.918  0.1422 -0.1734  0.1366
 6140TIP3    H118384   5.238   0.218   2.964 -2.3688 -2.3395 -2.1825
 6140TIP3    H218385   5.132   0.326   2.951  0.1587  0.5412 -0.3563
 6141TIP3   OH218386   5.639   2.687   1.061 -0.4164 -0.5813 -1.0324
 6141TIP3    H118387   5.587   2.688   1.141 -1.0676  0.0541 -1.4466
 6141TIP3    H218388   5.702   2.616   1.074  0.8216  0.7990  0.8635
 6142TIP3   OH218389   1.601   4.467   0.886 -0.2654  0.5603  0.1003
 6142TIP3    H118390   1.605   4.372   0.871 -1.6130  0.5769 -0.5115
 6142TIP3    H218391   1.568   4.503   0.803 -1.0147  1.4236  0.7547
 6143TIP3   OH218392   5.913   5.943   4.309  0.2194  0.1509 -0.4575
 6143TIP3    H118393   5.842   5.883   4.287  2.0605 -1.8447 -1.2238
 6143TIP3    H218394   5.978   5.931   4.240  2.6161 -0.2982  1.7429
 6144TIP3   OH218395   0.605   1.744   5.700  0.5859 -0.0904 -0.2606
 6144TIP3    H118396   0.638   1.781   5.782 -1.1525 -1.5276  1.1595
 6144TIP3    H218397   0.510   1.755   5.705  0.3153 -1.6022 -1.3606
 6145TIP3   OH218398   4.375   6.398   4.964 -0.0192  0.1840  0.0344
 6145TIP3    H118399   4.280   6.411   4.968 -0.4227 -2.3881  2.3738
 6145TIP3    H218400   4.411   6.477   5.005 -1.2884  0.3780  0.8444
 6146TIP3   OH218401   0.029   3.222   1.245  0.0178 -0.2314  0.4303
 6146TIP3    H118402   0.093   3.279   1.203 -0.7239  1.2200  1.2004
 6146TIP3    H218403  -0.049   3.277   1.257 -0.8977 -1.5407  0.7894
 6147TIP3   OH218404   2.002   2.044   4.265  0.8298  0.6267  1.0630
 6147TIP3    H118405   1.932   1.992   4.305 -0.1328  0.8613 -0.2500
 6147TIP3    H218406   2.075   1.983   4.258 -0.1841 -0.5156 -0.1845
 6148TIP3   OH218407   6.197   4.644   2.175 -0.1196  0.4108  0.4326
 6148TIP3    H118408   6.190   4.712   2.108  0.4197 -0.2738 -0.3441
 6148TIP3    H218409   6.286   4.610   2.165 -0.7064 -1.1076  0.1117
 6149TIP3   OH218410   1.128   6.600   1.006 -0.2668  0.0534 -0.3306
 6149TIP3    H118411   1.146   6.545   0.930 -0.7102  0.2643 -0.5909
 6149TIP3    H218412   1.114   6.538   1.078 -1.3285 -0.2017 -0.7405
 6150TIP3   OH218413   1.050   3.913   5.752 -0.1696 -0.2664  0.2669
 6150TIP3    H118414   1.003   3.830   5.746  0.2323 -0.4750 -0.0677
 6150TIP3    H218415   1.001   3.965   5.816 -0.8343 -0.4890 -0.0605
 6151TIP3   OH218416   0.849   5.358   4.122  0.0573  0.1727 -0.2104
 6151TIP3    H118417   0.806   5.301   4.186  1.3823 -0.0099  0.5419
 6151TIP3    H218418   0.780   5.420   4.096 -1.3990 -1.6533 -0.9762
 6152TIP3   OH218419   1.807   4.878   4.271  0.4209 -0.1786 -0.5487
 6152TIP3    H118420   1.757   4.890   4.352  1.8648 -0.7096  0.4627
 6152TIP3    H218421   1.884   4.933   4.282 -0.2806  1.3253 -2.4674
 6153TIP3   OH218422   0.138   3.621   4.676  0.6071 -0.4437 -0.6960
 6153TIP3    H118423   0.223   3.622   4.631  0.4536 -2.4560 -1.1155
 6153TIP3    H218424   0.078   3.582   4.613 -0.6449  0.8867 -0.3729
 6154TIP3   OH218425   0.247   4.407   5.047 -0.0313 -0.1069 -0.1556
 6154TIP3    H118426   0.289   4.416   5.132 -0.8184 -0.0410  0.2326
 6154TIP3    H218427   0.196   4.488   5.037 -2.4509 -1.4164  0.7223
 6155TIP3   OH218428   0.744   1.097   1.191  0.5645 -0.1682  0.3744
 6155TIP3    H118429   0.824   1.077   1.143  1.4488  0.0965  1.6793
 6155TIP3    H218430   0.763   1.073   1.282 -0.4694  0.8590  0.9030
 6156TIP3   OH218431   5.574   3.577   2.174 -0.1278  0.0498 -0.8263
 6156TIP3    H118432   5.646   3.576   2.112  2.1052  0.6684  1.6007
 6156TIP3    H218433   5.553   3.485   2.189  1.7654 -0.2838  0.0925
 6157TIP3   OH218434   3.325   5.016   2.623  0.3317 -0.3152  0.1360
 6157TIP3    H118435   3.230   5.024   2.632  0.1802 -1.0332 -0.7277
 6157TIP3    H218436   3.359   5.045   2.708 -0.4978  2.2982 -0.3367
 6158TIP3   OH218437   4.583   1.155   2.134  0.3278 -0.0127 -0.1878
 6158TIP3    H118438   4.638   1.188   2.205 -0.1707 -0.2785  0.3385
 6158TIP3    H218439   4.631   1.175   2.054  0.6557  0.7771  0.1954
 6159TIP3   OH218440   4.810   3.516   0.239  0.1479  0.1392  0.8500
 6159TIP3    H118441   4.762   3.434   0.250 -1.1881  1.1191  2.8824
 6159TIP3    H218442   4.744   3.584   0.250  0.9356  1.5776 -2.1714
 6160TIP3   OH218443   4.198   2.592   0.744 -0.5800 -0.1768  0.1447
 6160TIP3    H118444   4.161   2.669   0.701 -1.1051  0.2148  1.2713
 6160TIP3    H218445   4.123   2.547   0.783 -0.0570 -0.1702  1.1981
 6161TIP3   OH218446   1.364   2.875   3.537 -0.4246 -0.0816  0.0340
 6161TIP3    H118447   1.368   2.925   3.619 -0.3405 -0.9410  0.5647
 6161TIP3    H218448   1.380   2.784   3.564 -1.7321 -0.5629 -0.7487
 6162TIP3   OH218449   0.551   2.854   1.917 -0.4327 -0.1944 -0.2418
 6162TIP3    H118450   0.486   2.799   1.961 -0.8040 -0.8861 -1.5806
 6162TIP3    H218451   0.544   2.829   1.825  0.3035  1.1995 -0.6998
 6163TIP3   OH218452   4.475   1.214   1.534 -0.5221  0.0039  0.3861
 6163TIP3    H118453   4.523   1.134   1.558  1.1475  0.9820  0.4940
 6163TIP3    H218454   4.516   1.283   1.586 -0.3368  1.3118 -1.3907
 6164TIP3   OH218455   6.950   2.420   2.930 -0.2084  0.7336  0.0228
 6164TIP3    H118456   6.907   2.358   2.990  0.7179 -0.4331 -0.4822
 6164TIP3    H218457   7.011   2.468   2.986  1.2325 -0.9013 -0.0685
 6165TIP3   OH218458   6.379   0.428   2.693  0.1806  0.2946  0.1805
 6165TIP3    H118459   6.444   0.494   2.668 -0.8852  1.4986  0.4747
 6165TIP3    H218460   6.333   0.467   2.768  0.3516 -1.3337  1.1972
 6166TIP3   OH218461   0.160   3.923   3.325  0.5958 -0.2156 -0.4673
 6166TIP3    H118462   0.237   3.972   3.296  0.0670  0.0740 -1.4333
 6166TIP3    H218463   0.191   3.870   3.398  1.3428  1.0667  0.1810
 6167TIP3   OH218464   3.600   1.791   0.975  0.3652 -0.2499 -0.2820
 6167TIP3    H118465   3.561   1.866   0.930  0.2121  0.2517  0.6573
 6167TIP3    H218466   3.631   1.826   1.058 -0.6153 -1.4121  0.6222
 6168TIP3   OH218467   4.519   6.002   4.737  0.1775 -0.1625 -0.2936
 6168TIP3    H118468   4.526   6.097   4.751 -0.4664 -0.2590  0.8081
 6168TIP3    H218469   4.603   5.977   4.697 -0.1120  1.0451 -1.7414
 6169TIP3   OH218470   3.873   0.178   2.900 -0.1902  0.5946  0.2513
 6169TIP3    H118471   3.879   0.127   2.981  0.9140  2.2884  1.2957
 6169TIP3    H218472   3.825   0.257   2.926 -2.6753 -0.2000 -1.5328
 6170TIP3   OH218473   5.793   2.659   1.420  0.0121  0.0420  0.5624
 6170TIP3    H118474   5.819   2.715   1.493  0.4882 -1.3542  1.4902
 6170TIP3    H218475   5.700   2.680   1.406  0.6344  2.4680 -0.4297
 6171TIP3   OH218476   6.508   3.937   0.092 -0.3169 -0.7674  0.0525
 6171TIP3    H118477   6.429   3.952   0.144  0.1706 -0.5077  0.7193
 6171TIP3    H218478   6.491   3.855   0.046 -0.1281 -1.8426  1.8207
 6172TIP3   OH218479   5.281   5.525   3.115  0.4713 -0.2874  0.5554
 6172TIP3    H118480   5.232   5.449   3.147 -2.2352  0.9842 -0.2355
 6172TIP3    H218481   5.256   5.532   3.023  2.1713  0.5005  0.1169
 6173TIP3   OH218482   6.949   1.133   1.155  0.0535  0.7291 -0.1492
 6173TIP3    H118483   6.871   1.131   1.100 -0.6898  1.2028  0.8520
 6173TIP3    H218484   6.954   1.045   1.193  0.9369  0.1931 -1.4251
 6174TIP3   OH218485   6.956   6.324   3.759  0.3757 -0.6413  0.3478
 6174TIP3    H118486   6.949   6.245   3.813  1.1135 -1.3669 -0.5733
 6174TIP3    H218487   7.019   6.300   3.690 -0.6548  0.1891 -0.9301
 6175TIP3   OH218488   5.087   2.424   0.127 -0.0505  0.2767 -0.4194
 6175TIP3    H118489   5.069   2.388   0.213  1.2192 -1.7571 -0.9278
 6175TIP3    H218490   5.002   2.423   0.082 -0.8579  1.9504  0.9210
 6176TIP3   OH218491   1.820   1.533   4.202  1.0711  0.3821 -0.2078
 6176TIP3    H118492   1.743   1.479   4.184  0.3795  1.9335 -2.2352
 6176TIP3    H218493   1.847   1.508   4.291 -1.5407 -0.4584  0.4211
 6177TIP3   OH218494   6.033   4.992   4.927  0.1814 -0.0042 -0.3945
 6177TIP3    H118495   6.053   4.899   4.934  1.4457  0.2291 -0.6586
 6177TIP3    H218496   6.075   5.031   5.004  0.1318  0.4268 -0.5837
 6178TIP3   OH218497   4.290   6.240   4.759 -0.0041 -0.3803  0.1785
 6178TIP3    H118498   4.338   6.272   4.836 -1.2010  0.5811  0.5755
 6178TIP3    H218499   4.307   6.306   4.692  1.9293 -1.7852 -0.7685
 6179TIP3   OH218500   5.788   3.730   2.018  0.1237 -0.3786 -1.1136
 6179TIP3    H118501   5.801   3.783   1.940 -0.2987  0.7695 -0.4240
 6179TIP3    H218502   5.839   3.774   2.086  0.6530 -1.4756 -0.7684
 6180TIP3   OH218503   7.126   6.218   3.557  0.1866  0.0139  0.3508
 6180TIP3    H118504   7.076   6.137   3.552 -0.6836  0.5998 -1.5443
 6180TIP3    H218505   7.169   6.225   3.471  0.6207  1.3282  0.6515
 6181TIP3   OH218506  -0.008   1.476   1.736 -0.2367 -0.7885  0.0903
 6181TIP3    H118507  -0.019   1.548   1.797 -2.9877  1.0352 -2.3311
 6181TIP3    H218508   0.086   1.457   1.739  0.2248  1.2913  2.4810
 6182TIP3   OH218509   0.016   0.949   0.760 -0.1194  0.7173  0.1318
 6182TIP3    H118510   0.075   0.937   0.685  1.2664 -0.8839  1.3960
 6182TIP3    H218511   0.017   0.865   0.805 -2.4544  1.0460  0.9050
 6183TIP3   OH218512   0.749   2.471   0.251  0.7002  0.3917  0.4374
 6183TIP3    H118513   0.783   2.382   0.244 -1.5153 -0.3963 -2.9611
 6183TIP3    H218514   0.694   2.470   0.330  0.2597 -1.4610  0.1397
 6184TIP3   OH218515   4.861   0.039   0.625  0.0386 -0.6121 -0.0318
 6184TIP3    H118516   4.788   0.067   0.679  1.7369  3.2944  0.5894
 6184TIP3    H218517   4.929   0.014   0.687  0.2883 -1.1294 -0.5056
 6185TIP3   OH218518   5.826   5.678   5.185 -0.1226 -0.1028  0.2702
 6185TIP3    H118519   5.737   5.644   5.196 -0.2630  0.1678 -0.0124
 6185TIP3    H218520   5.852   5.649   5.098 -0.6416  1.3902 -0.4152
 6186TIP3   OH218521   1.359   2.993   1.236  0.0341  0.3347 -0.1419
 6186TIP3    H118522   1.308   2.953   1.306  1.4194 -0.6270  0.3628
 6186TIP3    H218523   1.413   2.922   1.201  2.4959  1.6696  0.7036
 6187TIP3   OH218524   3.822   5.335   3.476 -0.5727  0.1824  0.1726
 6187TIP3    H118525   3.759   5.307   3.543 -0.3120 -0.5511  0.1231
 6187TIP3    H218526   3.906   5.299   3.505 -0.0748  1.5140  0.4600
 6188TIP3   OH218527   5.142   1.108   5.612 -0.2210 -0.4215 -0.2054
 6188TIP3    H118528   5.231   1.105   5.577 -0.5987 -3.2627 -1.1949
 6188TIP3    H218529   5.091   1.153   5.545 -0.2953 -2.7861 -1.8391
 6189TIP3   OH218530   6.269   1.907   3.992  0.3537 -0.4429 -0.5461
 6189TIP3    H118531   6.300   1.889   4.081 -2.4176 -1.4488  0.3443
 6189TIP3    H218532   6.177   1.881   3.994 -0.5030  1.9753 -3.0116
 6190TIP3   OH218533   3.766   2.577   2.425 -0.6938 -0.2676 -0.1088
 6190TIP3    H118534   3.785   2.514   2.356  2.7840 -0.1613  0.5437
 6190TIP3    H218535   3.765   2.525   2.505  1.1663  0.2463  0.3143
 6191TIP3   OH218536   7.046   0.574   0.866  0.6400 -0.0250  0.0113
 6191TIP3    H118537   6.999   0.653   0.840  0.2736 -0.1824  0.1818
 6191TIP3    H218538   7.068   0.531   0.783 -0.0936 -0.2782 -0.0620
 6192TIP3   OH218539   4.180   2.304   0.486  0.4773  0.3176 -0.3708
 6192TIP3    H118540   4.227   2.386   0.470  1.4849  0.0757  1.1339
 6192TIP3    H218541   4.210   2.276   0.572 -0.3120 -1.3321 -0.6003
 6193TIP3   OH218542   6.168   5.580   5.502  0.3546  0.5354  0.2615
 6193TIP3    H118543   6.256   5.542   5.513  0.5339  1.5353  3.7610
 6193TIP3    H218544   6.184   5.668   5.470  0.5039  0.2250 -0.5301
 6194TIP3   OH218545   4.575   3.784   0.681 -0.3696  0.0815 -0.6793
 6194TIP3    H118546   4.634   3.845   0.637 -2.1985  0.4607 -2.7609
 6194TIP3    H218547   4.612   3.698   0.662  1.2582  0.3918  0.8164
 6195TIP3   OH218548   0.912   6.680   0.156  0.0542 -0.2896  0.2275
 6195TIP3    H118549   0.854   6.670   0.231  0.4290 -0.4758  0.4975
 6195TIP3    H218550   0.932   6.591   0.129 -2.1187 -0.2649 -1.7162
 6196TIP3   OH218551   0.412   1.356   2.254  0.1650 -0.3027 -0.6211
 6196TIP3    H118552   0.348   1.342   2.325  0.7873 -1.9662 -0.3471
 6196TIP3    H218553   0.359   1.350   2.174 -0.5145  1.4180 -0.3505
 6197TIP3   OH218554   0.877   1.425   2.438  0.4873 -0.2344 -0.1346
 6197TIP3    H118555   0.823   1.410   2.361  0.8613  0.2031 -0.4886
 6197TIP3    H218556   0.830   1.491   2.488  1.4187  1.2760 -1.1967
 6198TIP3   OH218557   5.399   6.305   3.283 -0.1994  0.0491 -0.2295
 6198TIP3    H118558   5.387   6.227   3.337 -0.3214  0.0017 -0.3228
 6198TIP3    H218559   5.486   6.295   3.246 -0.8419 -0.9073 -1.5962
 6199TIP3   OH218560   3.766   6.573   0.831 -0.3911  0.2536  0.0086
 6199TIP3    H118561   3.705   6.499   0.828 -0.4454  0.2896  0.1678
 6199TIP3    H218562   3.850   6.536   0.804 -0.6175  0.3434 -0.8194
 6200TIP3   OH218563   0.917   4.543   5.146 -0.8010 -0.0464  0.2515
 6200TIP3    H118564   0.939   4.568   5.236  0.8268 -0.3944 -0.0076
 6200TIP3    H218565   0.964   4.607   5.092 -0.0668 -1.0737 -0.3582
 6201TIP3   OH218566   3.269   1.596   3.136  0.2098 -0.3213 -0.7915
 6201TIP3    H118567   3.243   1.688   3.128  0.8304  0.0186  0.8137
 6201TIP3    H218568   3.339   1.596   3.201 -0.9164 -2.1200  0.5121
 6202TIP3   OH218569   3.917   4.474   2.854 -0.8433  0.1401  0.6053
 6202TIP3    H118570   3.930   4.546   2.916  1.8506 -1.7354  2.4340
 6202TIP3    H218571   3.954   4.507   2.772 -0.2212  1.0719  1.2446
 6203TIP3   OH218572   4.866   3.136   5.450  0.3062 -0.2157 -0.3707
 6203TIP3    H118573   4.872   3.227   5.420  0.1588 -0.9005 -2.7039
 6203TIP3    H218574   4.830   3.142   5.538 -1.3575  1.9211 -1.1065
 6204TIP3   OH218575   1.402   0.480   0.608 -0.1218  0.3918  0.3474
 6204TIP3    H118576   1.459   0.411   0.642 -0.5148 -0.2397 -0.2773
 6204TIP3    H218577   1.364   0.521   0.686  1.9332  1.4931  0.8569
 6205TIP3   OH218578   5.057   5.727   3.098  0.4268  0.1116  0.3639
 6205TIP3    H118579   5.080   5.815   3.130  2.5414 -0.4225  0.5067
 6205TIP3    H218580   5.119   5.669   3.143  0.3830 -1.2155 -1.2088
 6206TIP3   OH218581   4.778   5.934   1.249 -0.0546  0.4096 -0.3434
 6206TIP3    H118582   4.716   6.007   1.249 -1.9162 -1.0978 -0.6277
 6206TIP3    H218583   4.803   5.923   1.158  1.7307  1.8376 -0.0820
 6207TIP3   OH218584   2.687   2.133   4.564  0.3167 -0.5848  0.6715
 6207TIP3    H118585   2.625   2.064   4.541  0.9821 -0.3242 -2.2481
 6207TIP3    H218586   2.766   2.087   4.593  0.0313 -0.9892  0.8067
 6208TIP3   OH218587   6.274   3.389   1.785  0.6984  0.4327 -0.1774
 6208TIP3    H118588   6.215   3.402   1.710  0.9669  4.1077  0.0727
 6208TIP3    H218589   6.344   3.333   1.750 -1.0861 -1.1297 -1.4769
 6209TIP3   OH218590   0.315   0.097   4.513  0.3115  0.1924 -0.2640
 6209TIP3    H118591   0.270   0.090   4.428 -0.1452 -0.1322 -0.0008
 6209TIP3    H218592   0.245   0.094   4.577  0.6519  0.5193  0.1278
 6210TIP3   OH218593   0.488   3.482   5.107 -0.4358  0.7593  0.2592
 6210TIP3    H118594   0.496   3.455   5.015  0.1253  1.4149  0.1045
 6210TIP3    H218595   0.523   3.571   5.108  3.7972 -0.7161  1.8966
 6211TIP3   OH218596   3.480   4.120   2.603  0.4019 -0.4175  0.6714
 6211TIP3    H118597   3.406   4.117   2.541  0.4586  0.0420  0.5742
 6211TIP3    H218598   3.445   4.166   2.679  1.1976  1.9066 -0.2618
 6212TIP3   OH218599   4.426   2.133   0.293  0.0669  0.4502  0.1664
 6212TIP3    H118600   4.493   2.190   0.255  1.1644 -1.6898 -1.3326
 6212TIP3    H218601   4.467   2.097   0.371  0.7220 -0.8179 -0.7219
 6213TIP3   OH218602   0.583   2.313   2.543 -0.1904 -0.4796  0.3463
 6213TIP3    H118603   0.589   2.270   2.458  1.9087  0.3261  0.0191
 6213TIP3    H218604   0.671   2.348   2.559 -1.3330  2.3268  1.2968
 6214TIP3   OH218605   4.431   1.363   5.812 -0.7019  0.1618 -0.3943
 6214TIP3    H118606   4.450   1.290   5.871 -1.7732  0.3403  0.2103
 6214TIP3    H218607   4.509   1.418   5.816 -0.5791 -0.0556  0.5402
 6215TIP3   OH218608   2.422   2.036   3.139  0.1786 -0.0232  0.4964
 6215TIP3    H118609   2.515   2.060   3.146  0.1601  0.3822 -0.4850
 6215TIP3    H218610   2.391   2.085   3.062 -0.5011 -1.2100 -0.0029
 6216TIP3   OH218611   3.829   1.193   0.382 -0.0258 -0.5561  0.2428
 6216TIP3    H118612   3.772   1.142   0.440 -1.5724  0.1561 -0.5870
 6216TIP3    H218613   3.770   1.255   0.339  0.7030 -1.9735 -3.2088
 6217TIP3   OH218614   2.675   1.606   5.649 -0.3957 -0.9801  0.7619
 6217TIP3    H118615   2.661   1.686   5.699  0.4908  0.8130 -1.6667
 6217TIP3    H218616   2.768   1.585   5.663  0.2859  0.4292 -1.2094
 6218TIP3   OH218617   5.253   5.331   4.184 -0.2242 -0.0347 -0.7438
 6218TIP3    H118618   5.277   5.367   4.270  1.6215 -1.0944 -0.7644
 6218TIP3    H218619   5.175   5.279   4.201  0.7397 -1.1332  0.5742
 6219TIP3   OH218620   4.706   1.407   0.710 -0.0848  0.6625  0.4041
 6219TIP3    H118621   4.771   1.433   0.777 -0.2112  0.6840  0.5189
 6219TIP3    H218622   4.646   1.349   0.756  0.5491 -0.3338 -0.0100
 6220TIP3   OH218623   4.997   1.028   2.056 -0.2041  0.5642  0.0858
 6220TIP3    H118624   4.959   0.956   2.105  0.0158  0.7407  0.5295
 6220TIP3    H218625   5.049   0.986   1.987  0.8774  0.2613  1.0623
 6221TIP3   OH218626   1.916   4.405   5.515 -0.4161  0.2788  0.2761
 6221TIP3    H118627   1.994   4.354   5.494  0.4478  1.5013  0.4507
 6221TIP3    H218628   1.949   4.485   5.556 -1.6572  1.5773 -1.1268
 6222TIP3   OH218629   1.029   1.209   2.358 -0.1495 -0.0976  0.0459
 6222TIP3    H118630   1.051   1.231   2.267  0.3631 -0.9334 -0.0341
 6222TIP3    H218631   0.983   1.287   2.390 -0.5138  0.1338 -0.9871
 6223TIP3   OH218632   6.639   1.995   1.292 -0.1443  0.2461  0.0758
 6223TIP3    H118633   6.554   1.999   1.336 -0.1686  0.4785  0.0123
 6223TIP3    H218634   6.671   1.906   1.307 -0.1135  0.3492  0.6350
 6224TIP3   OH218635   4.042   1.140   2.556 -0.2774 -0.1858  0.2034
 6224TIP3    H118636   4.134   1.166   2.553 -0.4770  0.3946 -2.1122
 6224TIP3    H218637   4.045   1.044   2.560  0.4561 -0.2274 -0.9156
 6225TIP3   OH218638   5.780   3.629   0.439 -0.0912 -0.0780  0.5133
 6225TIP3    H118639   5.737   3.631   0.525 -0.2781  1.5316  0.4203
 6225TIP3    H218640   5.873   3.618   0.459 -0.1257  0.3503  0.9309
 6226TIP3   OH218641   5.643   3.724   1.342  0.0670 -0.3130  0.2559
 6226TIP3    H118642   5.568   3.666   1.356 -1.2358  1.1224 -0.5374
 6226TIP3    H218643   5.605   3.807   1.314  1.7673  1.3490  2.4402
 6227TIP3   OH218644   5.738   6.356   5.050  0.4250 -0.0893 -0.4440
 6227TIP3    H118645   5.800   6.428   5.056  1.1765 -0.7982  0.7928
 6227TIP3    H218646   5.690   6.372   4.969  0.6802  1.6911 -0.2799
 6228TIP3   OH218647   0.032   2.610   2.247 -0.2200 -0.1940  0.1115
 6228TIP3    H118648   0.057   2.596   2.338 -0.3572 -0.1752  0.1520
 6228TIP3    H218649  -0.010   2.696   2.246 -0.4982 -0.3291  0.0870
 6229TIP3   OH218650   4.156   3.834   0.821 -0.0261  1.0731  0.7618
 6229TIP3    H118651   4.191   3.921   0.839 -0.4893  1.5685 -0.6304
 6229TIP3    H218652   4.201   3.805   0.742 -0.7207  0.5419  0.5436
 6230TIP3   OH218653   1.064   4.617   1.958 -0.7209  0.6825 -0.0528
 6230TIP3    H118654   1.042   4.524   1.953  1.8613  0.0557 -1.1308
 6230TIP3    H218655   1.042   4.652   1.872 -1.9836  1.1818  0.4510
 6231TIP3   OH218656   2.515   5.964   0.228 -0.1435 -0.3261  0.1073
 6231TIP3    H118657   2.561   6.002   0.153  0.3050 -0.4436  0.3208
 6231TIP3    H218658   2.446   5.910   0.189  1.7173 -2.5416 -0.3218
 6232TIP3   OH218659   6.641   3.656   1.037 -0.5631  0.5628 -0.2620
 6232TIP3    H118660   6.550   3.627   1.046 -0.3723  0.0623  0.0691
 6232TIP3    H218661   6.656   3.711   1.114  0.7086 -2.7852  2.1053
 6233TIP3   OH218662   6.209   4.892   2.785 -0.1064  0.0584 -0.0443
 6233TIP3    H118663   6.127   4.864   2.743  0.2336 -0.5794 -0.2990
 6233TIP3    H218664   6.232   4.820   2.843 -0.2430  0.6675  0.7881
 6234TIP3   OH218665   4.833   6.302   1.810 -0.0702  0.2394 -0.3740
 6234TIP3    H118666   4.805   6.212   1.796  1.7910 -0.5883  0.8220
 6234TIP3    H218667   4.928   6.299   1.804  0.2027  1.6838  1.8602
 6235TIP3   OH218668   4.938   1.926   0.996 -0.1492  0.7623  0.1175
 6235TIP3    H118669   4.907   1.931   0.906  0.6002  1.1989 -0.1272
 6235TIP3    H218670   5.033   1.941   0.990  0.1398 -0.6536  0.8285
 6236TIP3   OH218671   1.621   2.844   5.821  0.3350 -0.2168  0.3918
 6236TIP3    H118672   1.547   2.905   5.827  0.4216  0.1723 -1.5884
 6236TIP3    H218673   1.618   2.813   5.730  1.0200 -2.2588  1.0262
 6237TIP3   OH218674   6.639   2.902   5.306 -0.2847  0.2421  0.1482
 6237TIP3    H118675   6.684   2.840   5.363  1.0310  1.1157  0.1015
 6237TIP3    H218676   6.654   2.987   5.345 -1.4648  0.6208 -0.1803
 6238TIP3   OH218677   6.675   1.969   3.293  0.0200 -0.2505  0.0599
 6238TIP3    H118678   6.722   1.972   3.376 -0.5132 -1.3399  0.4142
 6238TIP3    H218679   6.612   2.041   3.299  0.2383 -0.0885  0.4449
 6239TIP3   OH218680   1.792   5.095   2.751 -0.0700  0.3203  0.3255
 6239TIP3    H118681   1.875   5.085   2.798 -0.3757  1.0083  1.0374
 6239TIP3    H218682   1.818   5.113   2.661  0.5643  0.7136  0.5745
 6240TIP3   OH218683   3.695   0.763   5.617 -0.3764  0.4434 -0.4213
 6240TIP3    H118684   3.745   0.681   5.621 -1.3007 -0.1356 -0.5356
 6240TIP3    H218685   3.754   0.824   5.573  1.1227  0.4346  1.4518
 6241TIP3   OH218686   2.911   2.975   1.371 -0.0531  0.7499 -0.3813
 6241TIP3    H118687   2.888   2.955   1.462  1.4817 -1.0561 -0.3364
 6241TIP3    H218688   2.830   3.007   1.332 -0.4495  2.9635  1.9555
 6242TIP3   OH218689   3.485   2.418   0.744  0.1175  0.6392  0.5417
 6242TIP3    H118690   3.486   2.430   0.839  1.0860  0.2609  0.5878
 6242TIP3    H218691   3.548   2.348   0.728  0.4310  1.1344 -0.4346
 6243TIP3   OH218692   3.996   6.284   2.997 -0.0988 -0.2194  0.2004
 6243TIP3    H118693   4.050   6.328   3.063 -1.0161 -1.9525  2.2272
 6243TIP3    H218694   4.033   6.196   2.991 -1.0712 -0.5987 -0.3833
 6244TIP3   OH218695   0.887   3.704   5.828  0.1182  0.2762 -0.0371
 6244TIP3    H118696   0.818   3.696   5.893  0.0612  0.7623 -0.0314
 6244TIP3    H218697   0.850   3.665   5.749 -0.4845  1.2714 -0.2675
 6245TIP3   OH218698   0.354   2.579   5.104  0.5780  0.4880 -0.5997
 6245TIP3    H118699   0.270   2.616   5.075  0.1648 -0.4433 -0.6302
 6245TIP3    H218700   0.376   2.515   5.037  0.1690 -0.8902  0.5449
 6246TIP3   OH218701   5.246   4.297   3.532  0.1312  0.0416 -0.1394
 6246TIP3    H118702   5.336   4.267   3.524  0.2334  0.2019  0.3850
 6246TIP3    H218703   5.193   4.218   3.523  0.3640 -0.1799  0.3739
 6247TIP3   OH218704   6.226   6.576   5.397 -0.4581  0.0491  0.3209
 6247TIP3    H118705   6.260   6.660   5.367 -1.0710 -0.4112 -1.8391
 6247TIP3    H218706   6.136   6.593   5.422 -0.4350  0.1267  0.3503
 6248TIP3   OH218707   2.908   0.626   5.072 -0.9728 -0.2635  0.1030
 6248TIP3    H118708   2.936   0.536   5.088 -0.7872 -0.4120 -0.9460
 6248TIP3    H218709   2.871   0.656   5.155  1.8039 -0.2133  1.4381
 6249TIP3   OH218710   4.889   1.366   3.444  0.3458 -0.1955  0.0614
 6249TIP3    H118711   4.874   1.272   3.457  0.5139  0.0658  2.7441
 6249TIP3    H218712   4.981   1.373   3.422  0.4353 -0.6440  0.2795
 6250TIP3   OH218713   3.582   3.788   4.540 -0.1599 -0.2091  0.7917
 6250TIP3    H118714   3.594   3.879   4.567 -1.8485  0.4894 -0.6474
 6250TIP3    H218715   3.532   3.793   4.459 -0.4252 -2.4416  0.7507
 6251TIP3   OH218716   5.267   5.872   0.330 -0.4458 -0.3524  0.2188
 6251TIP3    H118717   5.278   5.884   0.424  1.7092 -0.7430  0.0713
 6251TIP3    H218718   5.254   5.961   0.296  0.7474  0.0311  0.6972
 6252TIP3   OH218719   5.304   2.321   2.214 -0.2231 -0.1941  0.2594
 6252TIP3    H118720   5.313   2.302   2.120  1.0013 -0.6351  0.4376
 6252TIP3    H218721   5.286   2.414   2.218 -0.4344 -0.1995 -0.4267
 6253TIP3   OH218722   7.183   5.582   2.980 -0.1190  0.0297  0.8509
 6253TIP3    H118723   7.188   5.619   2.892 -1.9454 -1.2062  0.1531
 6253TIP3    H218724   7.090   5.563   2.993  0.2093 -0.5567  2.7423
 6254TIP3   OH218725   6.883   0.007   1.457  0.2128  0.5254 -0.6243
 6254TIP3    H118726   6.845   0.056   1.530  0.2642  0.2849 -0.4352
 6254TIP3    H218727   6.959   0.059   1.431  0.9972 -0.0753  0.3880
 6255TIP3   OH218728   3.724   3.378   3.875  0.3187  0.4852 -0.3662
 6255TIP3    H118729   3.754   3.292   3.844  0.4216  0.2697  0.3239
 6255TIP3    H218730   3.699   3.364   3.966 -0.0715  1.0959 -0.3726
 6256TIP3   OH218731   3.503   5.267   0.934 -0.4622  0.3696  0.1733
 6256TIP3    H118732   3.519   5.183   0.891  0.9255  1.3422 -1.3106
 6256TIP3    H218733   3.478   5.243   1.023  0.6122 -1.5970  0.0142
 6257TIP3   OH218734   3.045   3.254   1.450  0.4591  0.4787  0.3294
 6257TIP3    H118735   2.960   3.228   1.415  1.1511 -0.1457 -0.9558
 6257TIP3    H218736   3.057   3.200   1.528  0.5248 -0.8658 -0.5858
 6258TIP3   OH218737   1.647   0.769   0.299  0.6310 -0.2106 -0.7212
 6258TIP3    H118738   1.565   0.766   0.348 -0.0230  0.9334 -1.6976
 6258TIP3    H218739   1.644   0.692   0.242 -0.6663  0.8157 -2.0993
 6259TIP3   OH218740   6.568   1.222   1.558  0.0116  0.0541 -0.3648
 6259TIP3    H118741   6.655   1.224   1.598 -0.0138  2.8460 -0.2048
 6259TIP3    H218742   6.512   1.267   1.621 -1.2841 -0.6146 -1.0178
 6260TIP3   OH218743   2.191   5.546   0.109 -0.4661 -0.0851 -0.5764
 6260TIP3    H118744   2.219   5.499   0.187 -0.5846  1.0973  0.1917
 6260TIP3    H218745   2.234   5.500   0.037  0.3014 -0.6844  0.2464
 6261TIP3   OH218746   2.253   5.516   3.816 -0.0152 -0.2052 -0.4866
 6261TIP3    H118747   2.177   5.572   3.803 -0.2470 -0.6731 -1.1603
 6261TIP3    H218748   2.261   5.465   3.735  1.4590  0.3682 -0.7474
 6262TIP3   OH218749   4.473   3.410   5.594  0.0887  0.1508  0.0030
 6262TIP3    H118750   4.389   3.437   5.558 -0.3050 -1.7612 -0.6288
 6262TIP3    H218751   4.482   3.318   5.567  1.0994 -0.5150  2.3818
 6263TIP3   OH218752   0.700   6.040   2.737 -0.0583 -0.3168  0.0693
 6263TIP3    H118753   0.776   5.982   2.749  0.5713  0.2116 -1.1461
 6263TIP3    H218754   0.696   6.090   2.818  1.6849  0.5064 -0.2895
 6264TIP3   OH218755   4.481   1.221   4.318  0.2891 -0.2473  0.3593
 6264TIP3    H118756   4.484   1.316   4.311 -0.2507  0.0304  2.9660
 6264TIP3    H218757   4.423   1.194   4.246 -1.8528  1.6659  1.2498
 6265TIP3   OH218758   3.349   5.218   1.496  0.3356  0.3890 -0.1577
 6265TIP3    H118759   3.303   5.135   1.489  0.5349  0.3051 -0.4751
 6265TIP3    H218760   3.427   5.199   1.549  1.2405 -0.0025 -1.5581
 6266TIP3   OH218761   4.203   1.461   4.423 -0.2295 -0.2088  0.1641
 6266TIP3    H118762   4.170   1.377   4.391  0.3081 -0.8048  1.1150
 6266TIP3    H218763   4.242   1.502   4.346 -0.1889 -0.9894 -0.2411
 6267TIP3   OH218764   1.209   3.786   3.812 -0.4741 -0.0261 -0.0281
 6267TIP3    H118765   1.235   3.877   3.823 -0.8733  0.0384  0.4023
 6267TIP3    H218766   1.289   3.736   3.827  0.1930  0.3233 -2.0451
 6268TIP3   OH218767   4.748   3.798   3.805 -0.0826  0.0534 -0.7960
 6268TIP3    H118768   4.836   3.800   3.767 -0.1104 -1.3112 -0.9835
 6268TIP3    H218769   4.762   3.774   3.897 -0.1179  2.0167 -0.2430
 6269TIP3   OH218770   2.440   2.609   0.094 -0.1071 -0.1016  0.3314
 6269TIP3    H118771   2.527   2.587   0.127 -0.4644 -0.9395  0.7545
 6269TIP3    H218772   2.453   2.624   0.000  0.5902  0.3934  0.5057
 6270TIP3   OH218773   3.561   1.649   4.672  0.0570  0.1353 -0.0712
 6270TIP3    H118774   3.655   1.643   4.690 -0.0159  0.3141  0.3766
 6270TIP3    H218775   3.550   1.735   4.631 -0.0526  0.5523  0.8068
 6271TIP3   OH218776   1.232   6.786   3.021 -0.1441  0.4424 -0.7173
 6271TIP3    H118777   1.153   6.732   3.016  1.4460 -2.1025 -0.2114
 6271TIP3    H218778   1.271   6.779   2.934  0.1589  0.6532 -0.6004
 6272TIP3   OH218779   0.430   3.451   4.550 -0.4129 -0.0664  0.5422
 6272TIP3    H118780   0.384   3.531   4.527  0.3340 -0.0360 -1.0267
 6272TIP3    H218781   0.370   3.381   4.526 -0.4045  0.0051  0.3075
 6273TIP3   OH218782   1.953   5.320   5.697 -0.8198  0.5636  0.2066
 6273TIP3    H118783   1.940   5.363   5.781 -0.5764 -0.3338  0.7215
 6273TIP3    H218784   1.867   5.282   5.676 -1.0874  1.4406 -0.3434
 6274TIP3   OH218785   4.764   2.223   5.241  0.1442  0.5527 -0.0500
 6274TIP3    H118786   4.746   2.279   5.166 -1.1735  0.3074  0.0595
 6274TIP3    H218787   4.845   2.258   5.278  0.4696  1.0663 -1.2026
 6275TIP3   OH218788   5.680   4.984   2.560 -0.4031 -0.1680  0.0839
 6275TIP3    H118789   5.774   4.998   2.552 -0.5012 -0.0174 -0.9708
 6275TIP3    H218790   5.668   4.890   2.546 -0.3665 -0.2662  0.6977
 6276TIP3   OH218791   1.179   4.342   2.748 -0.3164 -0.7725  0.2693
 6276TIP3    H118792   1.200   4.365   2.838  2.8383  2.0616 -0.9611
 6276TIP3    H218793   1.166   4.427   2.704 -1.5172 -2.0289 -2.0080
 6277TIP3   OH218794   5.286   5.737   4.157  0.5424 -0.0239  0.1516
 6277TIP3    H118795   5.225   5.728   4.230  1.4761  1.1725  1.1006
 6277TIP3    H218796   5.358   5.677   4.178  0.0035 -1.0339 -0.7109
 6278TIP3   OH218797   3.509   4.450   0.782  0.8438 -0.7057 -0.1390
 6278TIP3    H118798   3.439   4.403   0.828  0.2078  1.3769  1.2075
 6278TIP3    H218799   3.510   4.412   0.694 -0.4588 -2.3124  0.4831
 6279TIP3   OH218800   4.701   3.912   0.421  0.4702  0.4230 -0.5741
 6279TIP3    H118801   4.649   3.984   0.457  1.3082 -0.5903  3.1481
 6279TIP3    H218802   4.791   3.945   0.421  0.9202 -0.5812  1.5480
 6280TIP3   OH218803   2.128   0.211   2.218 -0.3231  0.1560 -0.0266
 6280TIP3    H118804   2.166   0.186   2.303 -1.7286 -0.2931  0.5086
 6280TIP3    H218805   2.180   0.285   2.189  0.4546  0.0515  1.0327
 6281TIP3   OH218806   0.531   4.689   0.999  0.6838 -0.0453 -0.0195
 6281TIP3    H118807   0.561   4.719   0.913  2.4263 -2.7815 -0.4909
 6281TIP3    H218808   0.604   4.638   1.034 -1.6875 -3.2363  0.8283
 6282TIP3   OH218809   7.197   2.148   4.437  0.4239  0.1061 -0.1568
 6282TIP3    H118810   7.192   2.074   4.377 -1.4871  0.8850 -1.0363
 6282TIP3    H218811   7.136   2.126   4.508  0.9354  0.2211  0.3313
 6283TIP3   OH218812   4.380   3.217   0.322 -0.4135  0.3888  0.8141
 6283TIP3    H118813   4.284   3.223   0.319 -0.5897 -0.3373  2.9822
 6283TIP3    H218814   4.398   3.124   0.334  0.7421  0.1692 -1.9308
 6284TIP3   OH218815   0.810   4.863   4.981 -0.4219  0.2139  0.2605
 6284TIP3    H118816   0.815   4.954   5.012 -0.4597  0.3638 -0.1658
 6284TIP3    H218817   0.720   4.854   4.951 -0.3799  0.0755  0.1786
 6285TIP3   OH218818   5.004   2.682   5.348  0.1781  0.0715 -0.2242
 6285TIP3    H118819   4.991   2.660   5.256 -0.1232 -1.5845  0.1702
 6285TIP3    H218820   5.023   2.776   5.349 -0.2425  0.1967 -1.9177
 6286TIP3   OH218821   3.565   4.481   2.954 -0.1404 -0.7010  0.2901
 6286TIP3    H118822   3.620   4.522   3.021  0.1730 -1.1757  0.3241
 6286TIP3    H218823   3.503   4.427   3.004 -0.3965 -0.4640  0.2321
 6287TIP3   OH218824   0.235   2.732   3.358 -0.0754 -0.2845  0.1429
 6287TIP3    H118825   0.183   2.754   3.280 -2.1437  0.3053  1.5943
 6287TIP3    H218826   0.304   2.798   3.360 -0.3989  0.1030 -0.8424
 6288TIP3   OH218827   5.306   3.059   3.250 -0.0951  0.1552 -0.0702
 6288TIP3    H118828   5.263   3.054   3.335  0.8391 -1.0210  0.3593
 6288TIP3    H218829   5.317   2.968   3.223  2.2427  0.3754 -0.0875
 6289TIP3   OH218830   4.128   6.228   2.211 -0.7598 -0.3774  0.5305
 6289TIP3    H118831   4.052   6.209   2.156 -0.6855  1.3292 -0.2172
 6289TIP3    H218832   4.199   6.245   2.149 -0.2581 -0.0539  1.1774
 6290TIP3   OH218833   6.223   3.731   0.753  0.0716 -0.1978  0.7534
 6290TIP3    H118834   6.175   3.770   0.827 -0.1771  0.2218  0.3757
 6290TIP3    H218835   6.260   3.651   0.789 -2.2552 -1.4136  0.6420
 6291TIP3   OH218836   2.578   0.452   2.029 -0.1649 -0.6784 -0.1302
 6291TIP3    H118837   2.556   0.516   1.961 -0.3189 -2.4420 -1.8159
 6291TIP3    H218838   2.651   0.491   2.076 -0.3365  0.7956 -1.0238
 6292TIP3   OH218839   3.050   2.278   5.037  0.0045  0.0799  0.9742
 6292TIP3    H118840   3.026   2.236   5.119  2.0547 -1.4922  0.8460
 6292TIP3    H218841   3.097   2.210   4.988  0.7918  1.6526 -0.5613
 6293TIP3   OH218842   0.932   0.590   1.791 -0.3851  0.7522  0.3289
 6293TIP3    H118843   0.968   0.502   1.795  1.4152  1.4599  0.6859
 6293TIP3    H218844   0.936   0.622   1.881  1.4853  2.0969 -0.1711
 6294TIP3   OH218845   1.947   4.776   5.233 -0.8655  0.3542  0.1337
 6294TIP3    H118846   1.992   4.779   5.317 -0.2205 -0.8953 -0.1442
 6294TIP3    H218847   1.931   4.683   5.218 -0.7996  0.5466 -1.2143
 6295TIP3   OH218848   6.157   4.878   0.292 -0.5069 -0.1459 -0.0618
 6295TIP3    H118849   6.210   4.920   0.359 -0.1437 -0.6366 -0.0355
 6295TIP3    H218850   6.118   4.951   0.243  0.2700  0.2270 -0.1474
 6296TIP3   OH218851   6.228   0.389   2.317 -0.0471  0.1564 -0.2261
 6296TIP3    H118852   6.208   0.337   2.395 -0.5050  1.0962  0.3058
 6296TIP3    H218853   6.272   0.328   2.258  0.1890 -0.6097  0.7130
 6297TIP3   OH218854   4.544   2.181   3.072  0.5829 -0.6197  0.2087
 6297TIP3    H118855   4.467   2.134   3.040 -0.8853  0.5564  1.8128
 6297TIP3    H218856   4.564   2.141   3.157 -2.0945  2.7552  2.7431
 6298TIP3   OH218857   1.733   5.003   3.889  0.0554  0.2139 -0.1058
 6298TIP3    H118858   1.700   5.048   3.966  1.1012 -0.2564  0.6294
 6298TIP3    H218859   1.734   5.070   3.821 -3.6735 -0.0275 -0.6110
 6299TIP3   OH218860   4.613   4.670   2.249  0.2439 -0.0516  0.5650
 6299TIP3    H118861   4.657   4.752   2.275 -0.1900 -0.0362  1.2788
 6299TIP3    H218862   4.607   4.676   2.153  0.7336  0.4883  0.5579
 6300TIP3   OH218863   4.571   3.639   3.597  0.1426  0.3286  0.2467
 6300TIP3    H118864   4.626   3.706   3.640  0.4604 -0.3989  0.9965
 6300TIP3    H218865   4.482   3.673   3.605  0.2906  0.6253  0.6938
 6301TIP3   OH218866   0.859   5.873   0.218 -0.1125 -0.2689 -0.0206
 6301TIP3    H118867   0.913   5.818   0.276 -0.1523 -0.4170 -0.1244
 6301TIP3    H218868   0.851   5.956   0.265  0.1328 -0.2767  0.0360
 6302TIP3   OH218869   2.727   6.431   3.221  0.0204 -0.0233  1.0730
 6302TIP3    H118870   2.649   6.442   3.275 -0.2160  2.1524  0.3859
 6302TIP3    H218871   2.796   6.475   3.271  0.5643 -0.9158  1.1270
 6303TIP3   OH218872   5.158   4.967   3.991 -0.0288  0.4969 -0.2570
 6303TIP3    H118873   5.198   5.011   3.916  2.0201  1.0889  1.0798
 6303TIP3    H218874   5.217   4.893   4.009 -1.4242 -0.6470 -0.2354
 6304TIP3   OH218875   3.345   5.938   4.094 -0.5537 -0.3249  0.3606
 6304TIP3    H118876   3.338   5.843   4.094  0.8803 -0.4826  2.5261
 6304TIP3    H218877   3.313   5.965   4.180  0.3575  1.0152  0.3193
 6305TIP3   OH218878   3.402   5.367   5.764 -0.6407  0.4352  0.2272
 6305TIP3    H118879   3.413   5.462   5.769  0.2274  0.3368  0.4594
 6305TIP3    H218880   3.404   5.338   5.855  0.1844  0.0979  0.1112
 6306TIP3   OH218881   3.721   2.276   0.262  0.8516 -0.3683 -0.0782
 6306TIP3    H118882   3.725   2.344   0.195  0.8876  0.2644  0.5580
 6306TIP3    H218883   3.695   2.322   0.342  0.6022 -1.1481  0.2973
 6307TIP3   OH218884   3.413   1.250   1.639 -0.0565 -0.1621  0.1898
 6307TIP3    H118885   3.354   1.200   1.695 -2.3294  1.4856 -0.6006
 6307TIP3    H218886   3.395   1.219   1.551  0.9854 -0.3133  0.0179
 6308TIP3   OH218887   0.486   6.592   3.475 -0.3097  0.3848 -0.1509
 6308TIP3    H118888   0.574   6.563   3.500 -0.5537 -0.9862 -0.7745
 6308TIP3    H218889   0.466   6.664   3.535  2.2297  2.4698 -1.5723
 6309TIP3   OH218890   4.366   4.617   1.231  0.7509 -0.8870  0.0694
 6309TIP3    H118891   4.443   4.624   1.289  1.2381 -0.8046 -0.5811
 6309TIP3    H218892   4.349   4.706   1.202  1.2058 -1.0745 -0.8037
 6310TIP3   OH218893   5.015   0.891   2.506 -0.5631 -0.2440 -0.2725
 6310TIP3    H118894   4.960   0.967   2.522 -1.6603 -0.9421 -0.5838
 6310TIP3    H218895   5.015   0.880   2.411 -1.1105 -1.0947 -0.1946
 6311TIP3   OH218896   5.461   6.540   5.097 -0.7719  0.4461 -0.4046
 6311TIP3    H118897   5.528   6.552   5.165 -1.1278  0.3068 -0.0269
 6311TIP3    H218898   5.423   6.454   5.115 -1.2287  0.6339 -0.4599
 6312TIP3   OH218899   0.813   0.674   4.089  0.4518 -0.2134 -0.5536
 6312TIP3    H118900   0.829   0.764   4.062 -0.2231 -0.1164 -0.6309
 6312TIP3    H218901   0.822   0.623   4.008  0.9972 -0.2464 -0.4817
 6313TIP3   OH218902   4.490   6.109   5.447 -0.0548 -0.0612 -0.1473
 6313TIP3    H118903   4.497   6.170   5.374 -0.6509  0.2645  0.0650
 6313TIP3    H218904   4.525   6.027   5.412 -1.6312 -0.2961 -1.2712
 6314TIP3   OH218905   4.695   6.456   2.726  0.0067  0.4294  0.7123
 6314TIP3    H118906   4.665   6.442   2.816 -1.2720 -0.9318  0.1091
 6314TIP3    H218907   4.626   6.508   2.685 -0.2634 -0.4380  0.0496
 6315TIP3   OH218908   2.376   1.402   3.850 -0.1274  0.3260 -0.8741
 6315TIP3    H118909   2.415   1.381   3.765  0.3081 -0.8088 -0.4181
 6315TIP3    H218910   2.433   1.358   3.913  0.4859  2.4700  0.1436
 6316TIP3   OH218911   1.586   1.553   5.385  0.3296 -0.1376 -0.0139
 6316TIP3    H118912   1.650   1.563   5.315  0.2581 -0.3500 -0.1121
 6316TIP3    H218913   1.639   1.545   5.464  0.3706  1.5435  0.1475
 6317TIP3   OH218914   3.369   2.734   4.932 -0.5954 -0.2631 -0.1143
 6317TIP3    H118915   3.379   2.702   4.842 -1.4738 -0.8102 -0.0326
 6317TIP3    H218916   3.311   2.810   4.924  1.1264  1.1028 -0.2541
 6318TIP3   OH218917   4.208   1.556   5.839 -0.6532  0.2592  0.8331
 6318TIP3    H118918   4.276   1.531   5.776 -0.2114  2.0433  0.5362
 6318TIP3    H218919   4.220   1.495   5.912  1.4703  0.6464  0.8957
 6319TIP3   OH218920   0.927   4.228   2.718 -0.1099  0.0859 -0.3775
 6319TIP3    H118921   1.020   4.248   2.718  0.1911 -1.2044  0.1356
 6319TIP3    H218922   0.912   4.183   2.802 -0.7790 -1.4389 -1.2726
 6320TIP3   OH218923   5.369   4.876   4.325  0.2903  0.3059 -0.2722
 6320TIP3    H118924   5.291   4.893   4.273  0.9263 -0.7594 -1.6274
 6320TIP3    H218925   5.336   4.861   4.414 -1.0676 -0.3193 -0.8534
 6321TIP3   OH218926   6.070   2.383   5.147 -0.1805 -0.0723 -0.4213
 6321TIP3    H118927   6.062   2.478   5.158 -0.4556 -0.0174 -1.0564
 6321TIP3    H218928   6.113   2.372   5.063  1.6313 -0.4861  0.4973
 6322TIP3   OH218929   5.940   4.130   0.976  0.3836  0.2607  0.1353
 6322TIP3    H118930   5.850   4.161   0.986  0.1000  0.3858 -2.1859
 6322TIP3    H218931   5.962   4.093   1.062 -1.9116  0.1072  0.7438
 6323TIP3   OH218932   0.444   0.013   4.785 -0.2138  0.6679 -0.1571
 6323TIP3    H118933   0.393   0.036   4.708 -0.2696  1.6305  0.1464
 6323TIP3    H218934   0.459   0.097   4.829 -2.1023 -0.0368  2.0568
 6324TIP3   OH218935   1.416   6.738   3.731 -0.2328  0.1433 -0.0159
 6324TIP3    H118936   1.371   6.681   3.793 -0.1542 -0.1028 -0.1849
 6324TIP3    H218937   1.509   6.730   3.755 -0.2539  0.4834  0.1943
 6325TIP3   OH218938   2.039   2.604   1.396 -0.1901 -0.1888 -0.6722
 6325TIP3    H118939   1.976   2.581   1.464 -0.7433 -1.1119 -1.4667
 6325TIP3    H218940   2.123   2.571   1.428 -0.5315 -1.0577 -0.6503
 6326TIP3   OH218941   0.535   4.387   1.930 -0.0175 -0.1216 -0.0945
 6326TIP3    H118942   0.468   4.385   1.998 -0.7479 -0.3458 -0.8001
 6326TIP3    H218943   0.486   4.378   1.848  0.7955  0.6000 -0.6805
 6327TIP3   OH218944   6.837   3.982   1.801 -0.2883  0.0226  0.2080
 6327TIP3    H118945   6.760   3.958   1.748 -0.9999  1.2893  0.6254
 6327TIP3    H218946   6.805   3.979   1.891  1.0707 -2.7363  0.7122
 6328TIP3   OH218947   4.151   6.667   1.128  0.0976  0.3566  0.0241
 6328TIP3    H118948   4.172   6.575   1.138 -1.6426 -0.2501 -1.3528
 6328TIP3    H218949   4.114   6.693   1.213  1.8240  0.1845  0.8558
 6329TIP3   OH218950   2.435   5.962   5.153 -0.5832 -0.6316  0.2729
 6329TIP3    H118951   2.398   5.940   5.239 -0.7438 -1.3358  0.0266
 6329TIP3    H218952   2.520   6.002   5.174 -1.8450  1.9857  0.9073
 6330TIP3   OH218953   5.606   1.395   2.808  0.2350 -0.0078 -0.1025
 6330TIP3    H118954   5.626   1.413   2.717  2.6914 -0.4320  0.2851
 6330TIP3    H218955   5.681   1.429   2.857 -1.0492  0.2919  1.7891
 6331TIP3   OH218956   2.575   4.646   5.062  0.3196 -0.0622  0.4267
 6331TIP3    H118957   2.620   4.562   5.058  0.7118  0.1695 -3.2304
 6331TIP3    H218958   2.485   4.627   5.039  0.5979  0.5746 -1.3045
 6332TIP3   OH218959   4.054   0.459   3.160 -0.1396  0.0141 -0.8097
 6332TIP3    H118960   4.036   0.415   3.243 -0.7083  0.5994 -0.6112
 6332TIP3    H218961   4.135   0.419   3.128 -0.0281 -0.3580 -0.0778
 6333TIP3   OH218962   1.319   6.529   4.998  0.5320 -0.0986 -0.0504
 6333TIP3    H118963   1.327   6.469   5.072 -2.4475 -1.8990 -0.9891
 6333TIP3    H218964   1.224   6.537   4.984  0.9384  1.4344 -2.6649
 6334TIP3   OH218965   1.636   0.891   5.293 -0.4937  0.7576 -0.4299
 6334TIP3    H118966   1.550   0.861   5.266  0.1068 -0.5353 -1.0015
 6334TIP3    H218967   1.631   0.986   5.288 -1.5471  0.6669 -1.5056
 6335TIP3   OH218968   5.643   6.408   1.169  0.0808 -0.2297 -0.1104
 6335TIP3    H118969   5.633   6.433   1.077  0.9573  0.5899 -0.0047
 6335TIP3    H218970   5.640   6.492   1.216 -1.4418 -0.7220  0.7279
 6336TIP3   OH218971   4.298   5.945   0.302 -0.6151  0.2236  0.0551
 6336TIP3    H118972   4.226   5.944   0.239 -0.9207  1.9817  0.3287
 6336TIP3    H218973   4.376   5.927   0.249 -0.7869  2.2984 -0.9842
 6337TIP3   OH218974   3.161   1.275   4.204  0.0360  0.0736 -0.5779
 6337TIP3    H118975   3.188   1.183   4.200  3.1852  0.8901 -0.6688
 6337TIP3    H218976   3.123   1.292   4.118 -0.5143 -1.0843 -0.5928
 6338TIP3   OH218977   1.506   3.155   2.773  0.0851 -0.5342 -0.7170
 6338TIP3    H118978   1.520   3.080   2.715  0.6054 -1.1237  0.1494
 6338TIP3    H218979   1.541   3.127   2.857  3.0206  1.7101 -1.0449
 6339TIP3   OH218980   4.042   1.930   1.702  0.0657 -0.1832  0.1257
 6339TIP3    H118981   4.100   1.869   1.656  0.3500  0.5031 -0.4384
 6339TIP3    H218982   3.995   1.976   1.633 -1.3244 -0.8711  0.5857
 6340TIP3   OH218983   6.302   4.296   5.286  0.7423  0.1368 -0.4596
 6340TIP3    H118984   6.228   4.293   5.347  0.6820 -3.3803 -0.5119
 6340TIP3    H218985   6.275   4.360   5.220 -1.1714  0.7422  0.8010
 6341TIP3   OH218986   4.034   3.564   1.360 -0.0486  0.1366  0.1419
 6341TIP3    H118987   4.039   3.508   1.282  0.3533 -1.3887  1.2208
 6341TIP3    H218988   3.942   3.590   1.364 -0.4412 -1.1536  0.0686
 6342TIP3   OH218989   6.481   0.784   1.190  0.5802  0.3354 -0.2473
 6342TIP3    H118990   6.552   0.787   1.127  0.1749 -0.7156 -0.7709
 6342TIP3    H218991   6.509   0.719   1.255  0.2113  0.0923 -0.3279
 6343TIP3   OH218992   1.700   5.749   1.776 -0.0514 -0.1789 -0.0306
 6343TIP3    H118993   1.632   5.690   1.809  0.3868 -0.1579  0.9564
 6343TIP3    H218994   1.723   5.803   1.852 -0.5144  1.3491 -0.9405
 6344TIP3   OH218995   5.917   4.410   0.558 -0.0052  0.3503  0.1401
 6344TIP3    H118996   5.976   4.334   0.551  0.2208  0.6129 -1.0638
 6344TIP3    H218997   5.936   4.462   0.480 -0.6595  1.2964  0.5946
 6345TIP3   OH218998   0.351   3.461   2.215  0.1024  0.0851  0.0012
 6345TIP3    H118999   0.445   3.448   2.218 -0.1108 -1.5202  0.6401
 6345TIP3    H219000   0.340   3.556   2.206  1.7599  0.2712 -0.3959
 6346TIP3   OH219001   4.056   4.594   0.377 -0.3761  0.0650  0.1033
 6346TIP3    H119002   4.136   4.608   0.327  0.0565 -1.1903  0.3903
 6346TIP3    H219003   4.061   4.655   0.450 -0.5093  1.1790 -0.7970
 6347TIP3   OH219004   1.986   6.419   3.416  0.2043 -0.3013 -0.3106
 6347TIP3    H119005   1.986   6.413   3.321  1.4704 -1.4502 -0.2726
 6347TIP3    H219006   2.079   6.418   3.440 -0.1120 -0.7285  0.9764
 6348TIP3   OH219007   5.054   2.500   4.274  0.3651 -0.0422 -0.4408
 6348TIP3    H119008   4.984   2.506   4.339  1.3814 -0.7464  0.7631
 6348TIP3    H219009   5.054   2.585   4.231  0.5799  0.9832  1.4727
 6349TIP3   OH219010   5.433   1.980   0.514  0.2737  0.3012  0.5025
 6349TIP3    H119011   5.518   1.976   0.470  0.2782 -1.2865  0.6006
 6349TIP3    H219012   5.394   2.062   0.484  0.9769  0.0626 -1.1596
 6350TIP3   OH219013   5.620   3.745   2.985  0.3041 -0.4676  0.0690
 6350TIP3    H119014   5.607   3.822   3.041  1.3979  1.0732 -1.6833
 6350TIP3    H219015   5.540   3.740   2.933  0.4409 -0.1728 -0.1762
 6351TIP3   OH219016   5.895   0.184   0.904  0.0743  0.1553  0.0567
 6351TIP3    H119017   5.854   0.190   0.990  0.2824 -2.3654  0.4057
 6351TIP3    H219018   5.824   0.204   0.842 -0.4759  0.4145  0.7572
 6352TIP3   OH219019   4.027   0.807   0.929 -0.2489 -0.0341 -0.5264
 6352TIP3    H119020   3.968   0.741   0.967 -1.6847  0.0761 -2.4053
 6352TIP3    H219021   4.041   0.778   0.839  1.2487  0.8640 -0.6162
 6353TIP3   OH219022   1.645   5.042   0.494 -0.7375  0.4976 -0.2908
 6353TIP3    H119023   1.594   4.985   0.551  0.7990 -0.4992  0.1402
 6353TIP3    H219024   1.736   5.022   0.514 -0.1216  0.5593 -2.6433
 6354TIP3   OH219025   5.622   1.471   2.532  0.1220  0.0576  0.1318
 6354TIP3    H119026   5.576   1.418   2.467  1.7478 -0.9570 -0.2386
 6354TIP3    H219027   5.707   1.489   2.492  0.7371  0.3701  1.5229
 6355TIP3   OH219028   1.446   2.070   2.708 -0.0501 -0.4923  0.9229
 6355TIP3    H119029   1.412   2.039   2.792  1.6302 -1.8568  1.1405
 6355TIP3    H219030   1.533   2.105   2.729  0.3861 -0.8504 -0.2293
 6356TIP3   OH219031   0.943   1.105   5.205 -0.4450  0.3628  0.3134
 6356TIP3    H119032   0.974   1.086   5.293 -2.0222  0.5476  0.9562
 6356TIP3    H219033   0.847   1.101   5.212 -0.7563  3.2718 -0.6592
 6357TIP3   OH219034   1.163   2.995   1.775  0.4187  0.1878 -0.3553
 6357TIP3    H119035   1.246   2.975   1.732  0.6395  0.1936  0.0660
 6357TIP3    H219036   1.097   2.948   1.723  0.8007 -0.7074 -0.0471
 6358TIP3   OH219037   2.557   4.234  -0.002 -0.1239 -0.2993 -0.0031
 6358TIP3    H119038   2.537   4.269   0.085  0.0487  1.3933 -0.6129
 6358TIP3    H219039   2.550   4.309  -0.061 -0.5596 -1.4772 -1.5205
 6359TIP3   OH219040   1.188   5.037   4.652 -0.2622  0.0757  0.0021
 6359TIP3    H119041   1.189   5.112   4.592 -2.0459  0.7731  0.7753
 6359TIP3    H219042   1.191   4.960   4.595 -0.2723  0.7290 -0.8933
 6360TIP3   OH219043   6.919   3.892   0.944 -0.0417 -0.0314  0.5862
 6360TIP3    H119044   6.935   3.902   1.037  0.8984 -1.1564  0.5756
 6360TIP3    H219045   6.911   3.797   0.931 -2.3584  0.2020 -0.1541
 6361TIP3   OH219046   3.690   4.521   1.445 -0.2730 -0.0966  0.4881
 6361TIP3    H119047   3.678   4.604   1.399  0.8433 -0.0251  0.2908
 6361TIP3    H219048   3.778   4.493   1.421 -0.7289 -1.4828  0.3269
 6362TIP3   OH219049   7.216   6.289   5.650  0.0443 -0.0001 -0.3934
 6362TIP3    H119050   7.140   6.268   5.704 -0.3104 -0.3792 -1.0265
 6362TIP3    H219051   7.213   6.225   5.579  0.7635  0.1971 -0.6096
 6363TIP3   OH219052   1.295   4.298   0.962 -0.1941  0.5092  0.0017
 6363TIP3    H119053   1.329   4.384   0.984  2.6135 -0.7608  1.1932
 6363TIP3    H219054   1.270   4.304   0.870  0.1784  2.5054 -0.0057
 6364TIP3   OH219055   1.629   3.134   5.064 -0.4407  0.5266  0.0172
 6364TIP3    H119056   1.574   3.080   5.120  1.8135 -2.3829 -0.3526
 6364TIP3    H219057   1.688   3.072   5.021  2.2387  3.2811 -0.6003
 6365TIP3   OH219058   1.146   6.419   1.221  0.3121  0.3739  0.1824
 6365TIP3    H119059   1.114   6.451   1.306 -0.7734 -0.7980  0.2414
 6365TIP3    H219060   1.238   6.448   1.218 -0.0578  1.7662  1.0630
 6366TIP3   OH219061   2.503   1.390   1.242 -0.3051 -0.2268 -0.2421
 6366TIP3    H119062   2.444   1.349   1.304 -1.1677 -1.0395 -1.5629
 6366TIP3    H219063   2.566   1.322   1.218  0.4265  0.2691  0.1995
 6367TIP3   OH219064   0.073   2.413   2.540 -0.2813  0.2130 -0.3445
 6367TIP3    H119065  -0.008   2.435   2.586 -1.1171 -1.3630 -0.9887
 6367TIP3    H219066   0.112   2.497   2.518 -2.4759  1.0747 -1.2711
 6368TIP3   OH219067   2.866   0.474   5.854  0.1441 -0.1499 -0.3982
 6368TIP3    H119068   2.941   0.526   5.824  0.9731 -1.0360  0.0606
 6368TIP3    H219069   2.885   0.455   5.946 -0.7371 -0.2347 -0.2231
 6369TIP3   OH219070   7.154   3.102   4.312  0.3189  0.0867  0.0683
 6369TIP3    H119071   7.248   3.104   4.293  0.2832 -0.8149 -0.3055
 6369TIP3    H219072   7.148   3.095   4.407  0.6833 -0.9043  0.0378
 6370TIP3   OH219073   4.457   0.308   4.133  0.1800 -0.2620  0.2042
 6370TIP3    H119074   4.450   0.313   4.037  0.6782 -2.9602 -0.0548
 6370TIP3    H219075   4.548   0.283   4.149  0.0443 -0.0314  1.3867
 6371TIP3   OH219076   1.504   3.448   1.340 -0.3343  0.2775  0.2758
 6371TIP3    H119077   1.465   3.383   1.282  0.3872 -0.8548  1.0301
 6371TIP3    H219078   1.527   3.521   1.283  1.3800 -1.2465 -1.0644
 6372TIP3   OH219079   2.890   0.381   4.251  0.2898 -0.5325 -0.6850
 6372TIP3    H119080   2.814   0.417   4.298  1.9031  1.5798  0.4706
 6372TIP3    H219081   2.890   0.288   4.274  0.1800  0.1303  2.4339
 6373TIP3   OH219082   4.325   6.333   2.049 -0.2502 -0.0016 -0.8123
 6373TIP3    H119083   4.325   6.279   1.969 -0.0138  0.0287 -0.8328
 6373TIP3    H219084   4.417   6.352   2.064 -0.0215 -2.0356  0.8234
 6374TIP3   OH219085   6.928   0.607   1.148  0.2163  0.2173 -0.0479
 6374TIP3    H119086   6.949   0.574   1.061 -1.5191 -1.2375  0.0189
 6374TIP3    H219087   6.954   0.536   1.207 -0.0040  0.5641  0.4720
 6375TIP3   OH219088   4.698   1.345   0.444  0.0383  0.2638  0.0463
 6375TIP3    H119089   4.703   1.360   0.538  1.6806  0.0537  0.0249
 6375TIP3    H219090   4.609   1.370   0.420  0.2770  2.4849  1.2592
 6376TIP3   OH219091   6.632   2.811   0.603  0.0481  0.3942 -0.1261
 6376TIP3    H119092   6.726   2.822   0.619 -0.0204 -0.0241  0.5776
 6376TIP3    H219093   6.597   2.901   0.605  0.4536  0.5714 -0.5922
 6377TIP3   OH219094   5.528   0.337   4.933 -0.3945 -0.0752 -0.7692
 6377TIP3    H119095   5.503   0.246   4.951 -2.0134  0.4394 -0.1689
 6377TIP3    H219096   5.614   0.347   4.974 -0.8454 -0.9478  0.4482
 6378TIP3   OH219097   6.571   0.508   0.222 -0.1985 -0.3187  0.5437
 6378TIP3    H119098   6.480   0.494   0.195 -0.3770 -0.3142  1.1303
 6378TIP3    H219099   6.564   0.560   0.302  0.2624 -1.3447  1.2725
 6379TIP3   OH219100   2.469   5.600   2.865  0.6451 -0.0219 -0.1350
 6379TIP3    H119101   2.406   5.595   2.794  0.6346  0.6919 -0.1876
 6379TIP3    H219102   2.432   5.666   2.924 -0.7398 -2.4915  1.9480
 6380TIP3   OH219103   1.141   1.138   4.282  0.1906 -0.3552 -0.6061
 6380TIP3    H119104   1.084   1.153   4.207 -0.9260 -0.7871  0.1417
 6380TIP3    H219105   1.128   1.046   4.304 -0.4175  0.0551  0.8491
 6381TIP3   OH219106   5.891   6.782   2.306  0.0142  0.8760 -0.4869
 6381TIP3    H119107   5.849   6.710   2.260 -0.1716  1.2437 -0.9015
 6381TIP3    H219108   5.845   6.860   2.275  0.1133  1.1588  0.0654
 6382TIP3   OH219109   6.621   4.250   3.456  0.0966 -0.4273  0.2668
 6382TIP3    H119110   6.556   4.242   3.526  0.0819  2.7641  0.7760
 6382TIP3    H219111   6.675   4.325   3.483  1.5172 -0.5489 -2.0490
 6383TIP3   OH219112   1.147   1.102   2.729  0.2300  0.2836 -0.7098
 6383TIP3    H119113   1.229   1.137   2.763 -0.9126  0.7731  1.8340
 6383TIP3    H219114   1.149   1.009   2.754 -0.5442  0.6104  0.7188
 6384TIP3   OH219115   2.394   5.659   1.453 -0.5434 -0.0529  0.3517
 6384TIP3    H119116   2.311   5.612   1.461 -2.1092  2.0229 -2.0475
 6384TIP3    H219117   2.374   5.747   1.484  0.2749  0.9093 -1.7045
 6385TIP3   OH219118   5.634   3.494   3.140 -0.7534  0.7540 -0.2733
 6385TIP3    H119119   5.619   3.569   3.083  0.3406  0.6956 -0.6454
 6385TIP3    H219120   5.720   3.461   3.116 -0.1359  0.8960  1.5871
 6386TIP3   OH219121   4.094   0.139   0.735 -0.2797  0.1078  0.1899
 6386TIP3    H119122   4.133   0.227   0.740  0.1089 -0.1182  1.3555
 6386TIP3    H219123   4.001   0.155   0.718  0.0285  0.6918 -1.1088
 6387TIP3   OH219124   5.007   3.461   5.423  0.2000  1.1205  0.0593
 6387TIP3    H119125   4.934   3.416   5.465  1.5645 -0.4115  0.8925
 6387TIP3    H219126   5.040   3.521   5.490  0.1883  1.2366 -0.0395
 6388TIP3   OH219127   6.291   0.533   0.209 -0.4933 -0.3022  0.0098
 6388TIP3    H119128   6.219   0.470   0.208 -2.3122  1.6499  0.8861
 6388TIP3    H219129   6.264   0.600   0.271  3.2696 -0.7295  2.4682
 6389TIP3   OH219130   5.071   0.038   0.263  0.0858  0.5409 -0.2117
 6389TIP3    H119131   5.102   0.059   0.175  1.2420 -2.7695 -0.7352
 6389TIP3    H219132   4.992  -0.014   0.249 -0.3514  0.9126  0.7821
 6390TIP3   OH219133   6.120   3.205   3.008 -0.0069 -0.2099  0.6369
 6390TIP3    H119134   6.153   3.131   2.957 -1.5595 -1.3287  1.1794
 6390TIP3    H219135   6.103   3.273   2.944  2.4152  0.1224  0.2362
 6391TIP3   OH219136   4.762   1.065   0.168 -0.0565 -0.1308  0.6236
 6391TIP3    H119137   4.730   0.974   0.164  1.5796 -0.7360  0.3137
 6391TIP3    H219138   4.740   1.094   0.256 -1.2206 -0.5775  0.5004
 6392TIP3   OH219139   0.108   4.221   3.644 -0.2967  0.4479  0.2310
 6392TIP3    H119140   0.097   4.312   3.619  2.2949  0.7679  0.0093
 6392TIP3    H219141   0.190   4.218   3.693  0.0033 -1.8491 -0.2618
 6393TIP3   OH219142   1.695   1.019   1.501 -0.2207 -0.1360  0.2507
 6393TIP3    H119143   1.762   0.973   1.552 -1.8544 -1.6454  1.1561
 6393TIP3    H219144   1.687   1.104   1.544 -0.1540 -0.6285  1.2584
 6394TIP3   OH219145   2.199   6.131   1.934  0.3524 -0.2473 -0.0461
 6394TIP3    H119146   2.180   6.218   1.900 -1.6465 -0.0339  1.3987
 6394TIP3    H219147   2.116   6.083   1.926  1.1353 -1.6982  0.1021
 6395TIP3   OH219148   2.637   3.243   1.195  0.5996 -0.2570  0.1957
 6395TIP3    H119149   2.618   3.292   1.115  1.5666 -0.7022 -0.3195
 6395TIP3    H219150   2.586   3.287   1.262  0.2351  0.4926 -0.5528
 6396TIP3   OH219151   2.027   4.480   4.396  0.1534  0.5114  0.3796
 6396TIP3    H119152   2.040   4.562   4.349 -0.8871  0.9338  0.7877
 6396TIP3    H219153   1.956   4.499   4.458 -0.4370 -0.8191  0.1550
 6397TIP3   OH219154   3.484   5.361   4.805 -0.4158  0.3871 -0.4707
 6397TIP3    H119155   3.528   5.282   4.838  1.0978  1.6323  0.6315
 6397TIP3    H219156   3.453   5.336   4.718  3.9259 -0.2085 -2.1061
 6398TIP3   OH219157   3.464   0.344   0.478  0.6945 -0.3054 -0.4617
 6398TIP3    H119158   3.441   0.378   0.564  1.2873 -1.6011  0.2296
 6398TIP3    H219159   3.387   0.361   0.424 -0.7522 -1.7959  1.0071
 6399TIP3   OH219160   6.941   1.374   2.766  0.0879 -0.2169  0.0141
 6399TIP3    H119161   7.020   1.426   2.779  0.4517 -0.6996 -0.2203
 6399TIP3    H219162   6.898   1.414   2.690  0.8553 -0.8310 -0.7620
 6400TIP3   OH219163   5.337   3.287   1.677  0.0070  0.0813 -0.1461
 6400TIP3    H119164   5.300   3.210   1.722 -0.0528  0.9783  1.4107
 6400TIP3    H219165   5.428   3.263   1.660  0.0587 -0.2427  0.5517
 6401TIP3   OH219166   1.803   0.412   0.666  0.0951 -0.2381  1.1554
 6401TIP3    H119167   1.817   0.408   0.572  1.2731 -0.7030  1.3319
 6401TIP3    H219168   1.715   0.376   0.679  0.3628 -1.2446  0.3297
 6402TIP3   OH219169   5.866   3.887   1.803 -0.3778  0.1792  0.3538
 6402TIP3    H119170   5.895   3.978   1.812 -0.9795  0.3234  0.9025
 6402TIP3    H219171   5.896   3.861   1.716  0.9188  0.4892  0.6804
 6403TIP3   OH219172   4.283   3.000   3.698 -0.1529  0.1358  0.0276
 6403TIP3    H119173   4.204   2.963   3.658  0.8139 -2.2070  0.1166
 6403TIP3    H219174   4.330   3.041   3.625 -1.2759  1.2984 -0.0735
 6404TIP3   OH219175   0.063   5.613   1.366  0.1746 -0.1414 -0.0595
 6404TIP3    H119176   0.042   5.562   1.444 -2.5217  0.6278 -0.1965
 6404TIP3    H219177   0.132   5.673   1.394  0.0033 -0.5994  1.4021
 6405TIP3   OH219178   1.252   5.148   0.964  0.2043 -0.2044  0.3098
 6405TIP3    H119179   1.222   5.227   0.918 -0.2306 -0.6568 -0.1945
 6405TIP3    H219180   1.193   5.079   0.935 -0.2294 -0.4605  1.7455
 6406TIP3   OH219181   2.878   0.846   4.714  0.4833  0.1459 -0.0227
 6406TIP3    H119182   2.817   0.797   4.769  1.4540 -0.0533  0.8958
 6406TIP3    H219183   2.934   0.779   4.674  1.3166  0.4405  0.6327
 6407TIP3   OH219184   2.103   3.866   0.173  0.1885  0.4732  0.0996
 6407TIP3    H119185   2.175   3.816   0.134 -0.4345  0.5333 -1.1783
 6407TIP3    H219186   2.129   3.958   0.161  0.2525  0.4831  0.3217
 6408TIP3   OH219187   0.343   4.482   3.258 -0.2195  0.0495  0.1582
 6408TIP3    H119188   0.366   4.392   3.281  1.9247  0.6134  0.5075
 6408TIP3    H219189   0.341   4.528   3.342  0.1241  0.5921 -0.1239
 6409TIP3   OH219190   4.520   0.316   5.196 -0.0590  0.6500  0.4305
 6409TIP3    H119191   4.456   0.251   5.225 -1.4486  1.6717 -0.2212
 6409TIP3    H219192   4.555   0.353   5.277 -2.1719  1.8309  0.8578
 6410TIP3   OH219193   7.035   0.425   4.855 -0.1779  0.0708 -0.7621
 6410TIP3    H119194   7.066   0.514   4.874  0.5061 -0.0483 -1.2712
 6410TIP3    H219195   6.974   0.405   4.926  1.6822 -0.0778  0.8779
 6411TIP3   OH219196   1.733   2.618   4.674  0.3138 -0.2983  0.1411
 6411TIP3    H119197   1.701   2.708   4.663 -1.4520 -0.6547  1.8095
 6411TIP3    H219198   1.732   2.604   4.768  3.3711 -1.1594  0.1313
 6412TIP3   OH219199   1.841   3.140   0.813  0.0465  0.4236 -0.2565
 6412TIP3    H119200   1.799   3.066   0.770 -1.1722 -0.2948  1.9850
 6412TIP3    H219201   1.781   3.213   0.796  0.9204  0.8127 -1.9157
 6413TIP3   OH219202   1.973   0.993   5.409 -0.4944  0.7170  0.2240
 6413TIP3    H119203   1.881   0.985   5.433 -0.4238 -0.8834  0.0385
 6413TIP3    H219204   2.020   0.988   5.492 -0.4809 -0.4984  0.1554
 6414TIP3   OH219205   3.434   5.716   4.360  0.0585  0.4093 -0.8201
 6414TIP3    H119206   3.390   5.682   4.282  0.6855 -1.9586 -0.2175
 6414TIP3    H219207   3.378   5.689   4.433  1.6562 -1.3346 -0.1649
 6415TIP3   OH219208   1.631   4.628   1.824 -0.7977  0.1853 -0.3417
 6415TIP3    H119209   1.575   4.576   1.882  0.3955 -2.2805 -1.2576
 6415TIP3    H219210   1.599   4.609   1.736 -0.8031  1.6618 -0.6866
 6416TIP3   OH219211   1.147   2.319   1.834  0.2035 -0.0367  0.2145
 6416TIP3    H119212   1.145   2.294   1.741  1.2558  0.9396 -0.0889
 6416TIP3    H219213   1.070   2.375   1.844  0.0558 -0.1850 -0.0491
 6417TIP3   OH219214   3.099   4.350   2.377  0.0330 -0.5475  0.2631
 6417TIP3    H119215   3.004   4.350   2.389  0.0412  1.6977  0.8765
 6417TIP3    H219216   3.126   4.437   2.407  2.2459 -1.0200 -0.2215
 6418TIP3   OH219217   6.343   2.370   2.106  0.4812 -0.2417  0.1206
 6418TIP3    H119218   6.408   2.341   2.043  0.2064 -0.5495 -0.0181
 6418TIP3    H219219   6.319   2.458   2.077  0.0797 -0.5259 -0.4199
 6419TIP3   OH219220   2.932   4.795   2.173  0.0696 -0.1483  0.4349
 6419TIP3    H119221   2.953   4.737   2.099 -0.7816  1.0217 -0.7612
 6419TIP3    H219222   2.999   4.774   2.239  1.6067 -0.3728 -1.1169
 6420TIP3   OH219223   2.583   3.377   5.356 -0.2970 -0.0138 -0.3656
 6420TIP3    H119224   2.650   3.441   5.331  0.0742  0.2450  1.1946
 6420TIP3    H219225   2.618   3.334   5.434 -1.8862  0.0341  0.4118
 6421TIP3   OH219226   0.749   4.258   2.276  0.9618 -0.3079  0.6791
 6421TIP3    H119227   0.746   4.269   2.371  2.2754  0.4577  0.6627
 6421TIP3    H219228   0.838   4.227   2.259  0.7929 -0.2701 -0.3188
 6422TIP3   OH219229   2.495   4.355   1.274 -0.0520  0.8826  0.5592
 6422TIP3    H119230   2.590   4.343   1.275 -0.1670 -0.5524 -0.9443
 6422TIP3    H219231   2.475   4.375   1.183 -1.4787 -2.0707  0.1175
 6423TIP3   OH219232   4.054   3.629   3.600 -0.0887 -0.0803 -0.2269
 6423TIP3    H119233   4.020   3.541   3.588 -0.0069  0.0884 -1.7990
 6423TIP3    H219234   4.050   3.669   3.514 -0.0139  1.4268  0.4400
 6424TIP3   OH219235   1.284   3.885   0.079 -0.0161  0.1257 -0.3089
 6424TIP3    H119236   1.267   3.793   0.096  1.9847 -0.0271  1.2205
 6424TIP3    H219237   1.303   3.922   0.166 -2.0228  2.2946 -0.6910
 6425TIP3   OH219238   6.667   1.761   3.915  0.3055 -0.0546  0.7694
 6425TIP3    H119239   6.626   1.843   3.943 -1.0445 -0.7989  1.0874
 6425TIP3    H219240   6.740   1.788   3.860 -0.4258  1.3592  0.4423
 6426TIP3   OH219241   5.279   1.887   4.324  0.1625 -0.1113  0.4802
 6426TIP3    H119242   5.240   1.946   4.388 -1.3162 -0.6641  0.1385
 6426TIP3    H219243   5.350   1.844   4.370  1.4074  2.0366  0.6828
 6427TIP3   OH219244   6.286   6.154   3.798  0.3719  0.0644  0.2334
 6427TIP3    H119245   6.363   6.100   3.813  1.3054  1.3994  0.4147
 6427TIP3    H219246   6.226   6.098   3.748  1.4764 -0.9719  0.0389
 6428TIP3   OH219247   0.088   5.700   4.570  0.6645  0.2486  0.5053
 6428TIP3    H119248   0.140   5.755   4.511 -1.7712  2.2506  0.0318
 6428TIP3    H219249   0.074   5.755   4.647  1.4135 -1.2619  1.7646
 6429TIP3   OH219250   6.825   3.238   2.992  0.0187  0.3995  0.0831
 6429TIP3    H119251   6.802   3.158   3.040  1.0336 -0.0274 -0.1088
 6429TIP3    H219252   6.869   3.207   2.913  0.6895  1.1452  0.1452
 6430TIP3   OH219253   0.672   1.455   1.968 -0.7233  0.0178 -0.2967
 6430TIP3    H119254   0.615   1.506   1.911 -1.0980  0.2756  0.2918
 6430TIP3    H219255   0.749   1.437   1.915 -1.6689 -0.9999 -1.3607
 6431TIP3   OH219256   4.506   1.988   5.641 -0.2259  0.1809 -0.2546
 6431TIP3    H119257   4.546   1.999   5.554 -0.3357 -0.2482 -0.3613
 6431TIP3    H219258   4.546   2.058   5.694 -0.3140  0.5766 -0.7004
 6432TIP3   OH219259   5.292   6.230   3.630  0.0286 -0.3262 -0.1966
 6432TIP3    H119260   5.348   6.181   3.690 -0.2462  0.6624  0.9039
 6432TIP3    H219261   5.210   6.179   3.626 -0.0294 -0.2845  0.4375
 6433TIP3   OH219262   0.729   4.461   2.108 -0.1569  0.4819  0.3929
 6433TIP3    H119263   0.733   4.380   2.157  1.0225 -0.9003 -1.8270
 6433TIP3    H219264   0.661   4.446   2.041  0.2760  1.1994 -0.2344
 6434TIP3   OH219265   5.543   5.627   3.978  0.1229  0.6439  0.0033
 6434TIP3    H119266   5.606   5.625   3.906  0.3704  0.2825  0.2249
 6434TIP3    H219267   5.534   5.535   4.004  0.1559  0.7920  0.5379
 6435TIP3   OH219268   1.676   4.721   4.969 -0.4797  0.5064  0.0795
 6435TIP3    H119269   1.637   4.638   4.997  2.3009  0.0838  3.3393
 6435TIP3    H219270   1.663   4.779   5.044  1.9098  1.4113 -0.1358
 6436TIP3   OH219271   6.572   1.366   0.908 -0.5037 -0.2243 -0.0729
 6436TIP3    H119272   6.604   1.456   0.897 -0.1716 -0.3739 -0.3353
 6436TIP3    H219273   6.513   1.371   0.983 -1.4346  0.4626 -0.8254
 6437TIP3   OH219274   0.565   2.481   4.135 -0.1481 -0.0456 -0.2685
 6437TIP3    H119275   0.637   2.439   4.182  0.2953  0.8857 -0.0995
 6437TIP3    H219276   0.492   2.419   4.142  0.9701 -1.6055 -1.5341
 6438TIP3   OH219277   6.663   5.727   1.498  0.1474 -0.6090 -0.1543
 6438TIP3    H119278   6.647   5.821   1.492 -0.8175 -0.7719 -0.2651
 6438TIP3    H219279   6.615   5.689   1.424 -0.2313 -1.2709  0.4125
 6439TIP3   OH219280   4.182   6.353   4.167  0.2156 -0.4736 -0.1935
 6439TIP3    H119281   4.087   6.353   4.154  0.5296 -0.6193 -2.9696
 6439TIP3    H219282   4.198   6.426   4.227 -1.7612 -1.6238  1.8921
 6440TIP3   OH219283   6.102   2.229   4.580  0.6350  0.2834 -0.1510
 6440TIP3    H119284   6.123   2.294   4.514 -1.6169 -0.6423 -1.9578
 6440TIP3    H219285   6.022   2.262   4.622  0.5956 -0.3439  0.2912
 6441TIP3   OH219286   3.592   6.386   2.760  0.6559  0.3375 -0.3538
 6441TIP3    H119287   3.529   6.443   2.804  1.0239  1.7482 -1.5687
 6441TIP3    H219288   3.677   6.424   2.782  0.8683  0.7165 -1.7504
 6442TIP3   OH219289   1.616   2.698   0.341  0.0269 -0.0492 -0.3114
 6442TIP3    H119290   1.697   2.707   0.290 -0.4436 -1.6617 -1.4125
 6442TIP3    H219291   1.563   2.774   0.317  0.7557  0.4356 -0.4118
 6443TIP3   OH219292   0.133   0.101   4.742  0.1256 -0.7631  0.3813
 6443TIP3    H119293   0.044   0.069   4.731  0.1097 -0.9439  0.9942
 6443TIP3    H219294   0.123   0.193   4.766  0.1401 -0.5284 -0.5022
 6444TIP3   OH219295   0.011   6.300   4.602 -0.4666  0.7060  0.1619
 6444TIP3    H119296   0.003   6.240   4.675  0.6366  0.3913  0.0494
 6444TIP3    H219297   0.077   6.364   4.630 -1.2896  1.6222  0.1036
 6445TIP3   OH219298   0.297   4.118   4.177 -0.0721  0.3243  0.0049
 6445TIP3    H119299   0.330   4.204   4.203 -0.5303  0.8428 -1.0474
 6445TIP3    H219300   0.336   4.103   4.090 -0.1110 -0.4695  0.1122
 6446TIP3   OH219301   0.370   4.303   3.739  0.1180  0.1956  0.1255
 6446TIP3    H119302   0.356   4.380   3.794  0.6345  0.7888 -0.5465
 6446TIP3    H219303   0.452   4.321   3.694 -0.1541 -0.4086 -0.6263
 6447TIP3   OH219304   3.447   4.718   2.299 -0.1623  0.0189  0.0410
 6447TIP3    H119305   3.364   4.735   2.342  0.3573 -0.4436  1.2628
 6447TIP3    H219306   3.473   4.631   2.329  1.5364  0.8104  0.9717
 6448TIP3   OH219307   1.085   2.015   0.140 -0.5179 -0.9643  0.3592
 6448TIP3    H119308   1.093   1.961   0.218 -0.8373 -0.9304  0.4131
 6448TIP3    H219309   1.045   2.097   0.170 -1.3312 -1.2372  0.0361
 6449TIP3   OH219310   5.659   6.596   5.293 -0.2583  0.4961  0.7069
 6449TIP3    H119311   5.753   6.586   5.278 -0.4374 -1.8471  0.7843
 6449TIP3    H219312   5.647   6.570   5.385 -0.9343  1.1730  0.8181
 6450TIP3   OH219313   1.541   5.117   0.976  0.1112  0.5181 -0.7524
 6450TIP3    H119314   1.446   5.126   0.969 -0.3022 -1.6537  1.0982
 6450TIP3    H219315   1.573   5.207   0.982 -1.6272  1.3710 -2.9282
 6451TIP3   OH219316   6.208   6.698   0.940 -0.0270 -0.5869  0.2220
 6451TIP3    H119317   6.234   6.606   0.949 -1.4381 -0.8577  2.1208
 6451TIP3    H219318   6.226   6.736   1.026 -0.1237  0.7585 -0.3238
 6452TIP3   OH219319   2.283   5.871   0.479  0.2664  0.6609 -0.1029
 6452TIP3    H119320   2.310   5.790   0.522  1.8068  0.9917 -0.3953
 6452TIP3    H219321   2.297   5.940   0.544 -0.7927  0.7568  0.0554
 6453TIP3   OH219322   2.043   2.800   2.648 -0.2043  0.6922 -0.8097
 6453TIP3    H119323   2.068   2.789   2.740 -0.3641 -1.7222 -0.9887
 6453TIP3    H219324   2.056   2.893   2.630 -0.0363  1.1807  1.6081
 6454TIP3   OH219325   6.627   0.096   0.971  0.1152 -0.2094 -0.0837
 6454TIP3    H119326   6.533   0.083   0.959 -0.9159  2.1183  3.7398
 6454TIP3    H219327   6.648   0.053   1.053  2.1135  0.4389 -0.1818
 6455TIP3   OH219328   7.062   0.219   0.034  0.2473 -0.4925 -0.6628
 6455TIP3    H119329   7.035   0.309   0.014  0.1164 -0.4504 -0.3182
 6455TIP3    H219330   6.986   0.165   0.013  0.8578 -0.7283 -2.3912
 6456TIP3   OH219331   3.784   6.217   0.949  0.7367  0.0700  0.2143
 6456TIP3    H119332   3.861   6.269   0.972  1.6076 -0.9119 -0.3756
 6456TIP3    H219333   3.809   6.173   0.867 -0.8066  0.4552 -0.4956
 6457TIP3   OH219334   6.398   4.411   4.479 -0.1241 -0.2037 -0.2341
 6457TIP3    H119335   6.383   4.448   4.392  1.2636 -0.9406 -0.8304
 6457TIP3    H219336   6.481   4.362   4.470  0.4289  0.2954  1.6866
 6458TIP3   OH219337   4.760   1.406   1.076 -0.0043  0.4448  0.2311
 6458TIP3    H119338   4.667   1.403   1.054 -0.0471 -1.5250  0.4986
 6458TIP3    H219339   4.793   1.319   1.053  1.5523  0.7765  1.0773
 6459TIP3   OH219340   1.242   0.758   4.313  0.3564 -0.0965  0.7147
 6459TIP3    H119341   1.283   0.672   4.308  1.4028  0.3138  1.6469
 6459TIP3    H219342   1.163   0.745   4.365  0.3942 -0.5274  0.6638
 6460TIP3   OH219343   4.762   0.473   5.790  0.6018  0.2557  0.0939
 6460TIP3    H119344   4.813   0.531   5.847  0.6996 -0.2274  0.5002
 6460TIP3    H219345   4.798   0.386   5.806  0.6432  0.1164 -0.7266
 6461TIP3   OH219346   6.466   6.110   5.446  0.1355  0.0968  0.2976
 6461TIP3    H119347   6.523   6.120   5.371 -0.1732  2.1363  0.2948
 6461TIP3    H219348   6.449   6.199   5.477  0.2003 -0.6635  2.7582
 6462TIP3   OH219349   1.518   1.211   1.400  0.5722 -0.2774 -0.0879
 6462TIP3    H119350   1.449   1.201   1.465  0.5596  0.6426  0.0543
 6462TIP3    H219351   1.517   1.129   1.351  1.5276 -1.5949  1.9731
 6463TIP3   OH219352   3.788   2.815   5.911  0.6587 -0.2091 -0.4190
 6463TIP3    H119353   3.834   2.801   5.829  0.0233 -0.5455 -0.7253
 6463TIP3    H219354   3.728   2.888   5.893 -0.9776 -1.6018 -0.9057
 6464TIP3   OH219355   0.789   1.179   2.063  0.4608  0.0030 -0.1752
 6464TIP3    H119356   0.731   1.251   2.036  0.6355  0.4660  0.6371
 6464TIP3    H219357   0.876   1.219   2.069  0.7894 -0.5772 -0.9111
 6465TIP3   OH219358   0.263   3.733   5.109  0.5566  0.0436 -0.4817
 6465TIP3    H119359   0.217   3.774   5.182 -0.7151 -1.2549 -0.5072
 6465TIP3    H219360   0.214   3.760   5.031 -0.0860 -1.1774 -0.5303
 6466TIP3   OH219361   6.638   5.725   3.850  0.4858  0.1211  0.4009
 6466TIP3    H119362   6.715   5.774   3.878 -0.0001  1.3104 -0.2834
 6466TIP3    H219363   6.674   5.650   3.802  1.2363  1.6160 -1.4884
 6467TIP3   OH219364   5.238   0.125   1.810  0.0668 -0.3486  0.2533
 6467TIP3    H119365   5.220   0.056   1.874 -1.9203 -0.9845 -0.9027
 6467TIP3    H219366   5.315   0.093   1.761  0.0544 -1.0538  0.6832
 6468TIP3   OH219367   5.501   5.334   1.603 -0.0598  0.2140  1.0371
 6468TIP3    H119368   5.529   5.336   1.695  1.0685  0.7576  0.6925
 6468TIP3    H219369   5.472   5.424   1.585  2.3941  0.9083  0.0942
 6469TIP3   OH219370   1.786   1.407   1.431 -0.0653 -0.0221  0.0357
 6469TIP3    H119371   1.695   1.397   1.460  0.1980  0.2479  0.9797
 6469TIP3    H219372   1.783   1.479   1.368 -0.1723  1.5824  1.7782
 6470TIP3   OH219373   2.023   6.340   4.513 -0.1528  0.1242  0.5385
 6470TIP3    H119374   1.976   6.420   4.536 -1.7956 -0.1369 -1.6011
 6470TIP3    H219375   2.001   6.278   4.583  0.3188  1.2145  1.6799
 6471TIP3   OH219376   0.752   0.867   5.480 -0.4478  0.1764  0.0689
 6471TIP3    H119377   0.732   0.957   5.455 -1.6601  0.0039  0.3500
 6471TIP3    H219378   0.667   0.822   5.477  0.2270 -1.1066 -0.6689
 6472TIP3   OH219379   1.942   2.639   4.058 -0.0667  0.4685 -0.3985
 6472TIP3    H119380   2.007   2.621   3.990  1.2388 -0.1725  0.9561
 6472TIP3    H219381   1.988   2.620   4.140 -1.9764 -0.0203  0.6151
 6473TIP3   OH219382   2.962   6.294   5.376 -0.4969  0.3000 -0.9273
 6473TIP3    H119383   2.969   6.218   5.434  1.4983 -0.3759 -1.9853
 6473TIP3    H219384   2.921   6.260   5.297  0.9568  0.1388 -1.6402
 6474TIP3   OH219385   5.749   2.201   2.472  0.1468 -0.5092  0.3850
 6474TIP3    H119386   5.759   2.148   2.393 -1.4147  0.6747 -0.6583
 6474TIP3    H219387   5.658   2.230   2.471  1.0330  2.6554  0.5711
 6475TIP3   OH219388   4.454   4.882   3.395 -0.1516 -0.0735 -0.6975
 6475TIP3    H119389   4.391   4.952   3.415  2.4515  3.0386 -2.3727
 6475TIP3    H219390   4.417   4.838   3.318 -0.1222  2.0840 -2.0337
 6476TIP3   OH219391   2.259   5.791   5.012 -0.7361 -0.1265  0.3271
 6476TIP3    H119392   2.195   5.825   5.075  0.0296 -0.6291  1.3886
 6476TIP3    H219393   2.343   5.826   5.042 -0.4219  0.0173 -0.6987
 6477TIP3   OH219394   0.358   1.840   5.763 -0.1221 -0.2605  0.1256
 6477TIP3    H119395   0.309   1.920   5.744 -1.1585 -0.8654  0.1763
 6477TIP3    H219396   0.375   1.845   5.857  0.4712  0.2501 -0.0037
 6478TIP3   OH219397   2.643   2.050   2.827  0.4941  0.1451 -0.3816
 6478TIP3    H119398   2.691   1.991   2.884  1.3610 -0.8928 -2.1159
 6478TIP3    H219399   2.609   1.995   2.757 -2.1706  1.0637  0.0769
 6479TIP3   OH219400   2.283   0.791   5.003 -0.0477 -0.4456  0.0687
 6479TIP3    H119401   2.284   0.795   4.907 -0.1464  1.5147  0.1021
 6479TIP3    H219402   2.227   0.716   5.023  1.6073 -2.1714 -1.3802
 6480TIP3   OH219403   3.509   3.356   2.294  0.3403  0.2408 -0.1308
 6480TIP3    H119404   3.565   3.288   2.330 -1.1214 -0.7629  0.3326
 6480TIP3    H219405   3.529   3.356   2.201 -0.4337 -1.6446 -0.3404
 6481TIP3   OH219406   6.590   2.708   1.699 -0.5091  0.1225 -0.5775
 6481TIP3    H119407   6.533   2.639   1.732  0.3013 -1.2425 -1.9597
 6481TIP3    H219408   6.546   2.740   1.620  0.5603 -0.8804 -1.6020
 6482TIP3   OH219409   2.396   3.759   0.688 -0.2241 -1.0411  0.3948
 6482TIP3    H119410   2.357   3.831   0.639  0.9246  0.0803  1.0500
 6482TIP3    H219411   2.323   3.718   0.734 -0.9823 -0.6865 -0.4769
 6483TIP3   OH219412   0.038   5.037   1.302  0.0111  0.3910 -0.0315
 6483TIP3    H119413   0.059   4.953   1.262 -0.3740 -0.3645  1.2732
 6483TIP3    H219414   0.038   5.099   1.230  0.6184 -0.6700 -0.9785
 6484TIP3   OH219415   5.288   2.677   2.696 -0.2130 -0.7284 -0.2987
 6484TIP3    H119416   5.225   2.685   2.624  0.7210 -0.2223 -1.0970
 6484TIP3    H219417   5.339   2.758   2.691 -0.7004 -0.2608  1.5269
 6485TIP3   OH219418   3.313   0.502   2.650 -0.5788 -0.2186 -0.0794
 6485TIP3    H119419   3.233   0.554   2.644  1.3390  2.8401 -2.7007
 6485TIP3    H219420   3.356   0.532   2.730 -1.7723 -1.6068  1.1365
 6486TIP3   OH219421   1.365   2.639   2.264  0.5996 -0.9160  0.1770
 6486TIP3    H119422   1.387   2.546   2.271  2.2646 -0.6125 -0.4290
 6486TIP3    H219423   1.387   2.674   2.351 -0.1769 -1.0975  0.4561
 6487TIP3   OH219424   6.903   3.410   0.746 -0.1079  0.6492 -0.3459
 6487TIP3    H119425   6.923   3.419   0.652 -0.3804  0.0350 -0.4696
 6487TIP3    H219426   6.853   3.329   0.752  1.9703 -0.6600  0.6352
 6488TIP3   OH219427   6.575   0.236   0.190  0.5644 -0.8058  0.8182
 6488TIP3    H119428   6.587   0.326   0.221  0.4714 -0.9803  1.3795
 6488TIP3    H219429   6.508   0.242   0.122  1.7871 -0.2149 -0.3604
 6489TIP3   OH219430   2.197   2.539   5.695 -0.3478  0.9121 -0.0685
 6489TIP3    H119431   2.203   2.615   5.753 -1.9511  0.5554  0.6157
 6489TIP3    H219432   2.107   2.508   5.705  0.0938 -0.7267 -0.7800
 6490TIP3   OH219433   3.442   3.544   4.104  0.2098 -0.5202  0.9818
 6490TIP3    H119434   3.462   3.451   4.088  0.4836 -0.6214  1.8637
 6490TIP3    H219435   3.520   3.590   4.075  0.0554 -0.5557  0.4967
 6491TIP3   OH219436   4.861   1.639   2.835 -0.0308 -1.1413 -0.1854
 6491TIP3    H119437   4.836   1.556   2.877  0.4071 -1.8722 -1.3085
 6491TIP3    H219438   4.957   1.640   2.839 -0.0403 -0.5740  0.0147
 6492TIP3   OH219439   1.638   0.506   3.216  0.5771  0.1940 -0.0038
 6492TIP3    H119440   1.576   0.449   3.171 -0.2878  0.9603  0.1807
 6492TIP3    H219441   1.720   0.457   3.217  0.2645 -0.3863 -1.2286
 6493TIP3   OH219442   4.953   5.979   1.886  0.2790  0.0055 -0.4106
 6493TIP3    H119443   4.919   5.940   1.967  1.5387  1.3177  0.8001
 6493TIP3    H219444   4.875   6.001   1.835 -0.5325 -0.8570  0.4322
 6494TIP3   OH219445   4.692   2.065   2.637  0.1984  0.4469  0.2550
 6494TIP3    H119446   4.710   1.988   2.690  1.4092  0.4954 -0.0612
 6494TIP3    H219447   4.655   2.031   2.556  2.2002  0.0204 -0.5496
 6495TIP3   OH219448   6.244   5.728   3.045 -0.0550  0.1568 -0.2344
 6495TIP3    H119449   6.204   5.669   3.110 -1.0661  1.4161  0.3356
 6495TIP3    H219450   6.217   5.693   2.961 -0.6854 -0.1780  0.0998
 6496TIP3   OH219451   6.771   2.258   3.526  0.0619 -0.0526 -0.5863
 6496TIP3    H119452   6.714   2.198   3.574 -0.4521  0.1069 -0.9823
 6496TIP3    H219453   6.857   2.248   3.567 -0.0769 -0.8562 -0.4732
 6497TIP3   OH219454   2.459   4.439   2.647 -0.0338 -0.3874 -0.2620
 6497TIP3    H119455   2.470   4.390   2.728 -0.8002 -1.1178 -0.5847
 6497TIP3    H219456   2.375   4.484   2.657  0.5323  0.6480 -0.0837
 6498TIP3   OH219457   5.755   1.098   4.372 -0.1937  0.8187  0.0118
 6498TIP3    H119458   5.719   1.079   4.458 -0.4934  2.3426  0.2599
 6498TIP3    H219459   5.771   1.193   4.373 -1.6057  1.1585 -2.1046
 6499TIP3   OH219460   2.036   3.838   0.622 -0.2067 -0.4120  0.0197
 6499TIP3    H119461   2.120   3.885   0.620  0.2003 -1.1301 -0.4450
 6499TIP3    H219462   1.991   3.867   0.542 -0.2113 -0.3679  0.0381
 6500TIP3   OH219463   4.587   2.122   4.826 -0.4787  0.6297  0.0663
 6500TIP3    H119464   4.610   2.053   4.764 -1.7196  0.1082  0.1621
 6500TIP3    H219465   4.671   2.152   4.860  0.0766 -2.6951  2.0665
 6501TIP3   OH219466   4.239   3.808   1.093  0.2508 -0.6959 -0.0325
 6501TIP3    H119467   4.151   3.778   1.071  0.1273  0.1730 -0.7807
 6501TIP3    H219468   4.248   3.892   1.048  0.7887  0.1266  1.5074
 6502TIP3   OH219469   6.130   4.847   2.005 -0.0989 -0.6283 -0.0920
 6502TIP3    H119470   6.191   4.921   2.001  1.6141 -2.0143 -2.0039
 6502TIP3    H219471   6.046   4.886   2.026  1.4158  1.3772  2.9726
 6503TIP3   OH219472   6.381   4.350   0.182 -0.7645 -0.6787  0.0623
 6503TIP3    H119473   6.466   4.387   0.161 -1.1177  0.9961  1.3648
 6503TIP3    H219474   6.380   4.344   0.278 -1.4318 -2.4229 -0.0081
 6504TIP3   OH219475   4.247   3.015   5.582 -0.4396  0.5174  0.3938
 6504TIP3    H119476   4.177   3.074   5.554 -1.5218 -0.6021  0.6384
 6504TIP3    H219477   4.224   2.992   5.672  0.3296  0.2439  0.5250
 6505TIP3   OH219478   0.188   5.553   4.283 -0.5275  0.2401  0.3390
 6505TIP3    H119479   0.153   5.638   4.256 -1.6744 -0.0254  0.9277
 6505TIP3    H219480   0.261   5.575   4.342 -1.4082  0.8459  1.2378
 6506TIP3   OH219481   2.138   0.898   2.501 -0.2497 -0.3807  0.2789
 6506TIP3    H119482   2.167   0.911   2.411  2.9659  1.3123  1.3774
 6506TIP3    H219483   2.089   0.978   2.522 -1.7320 -1.1444 -0.1611
 6507TIP3   OH219484   6.510   2.120   2.899  0.1963 -0.1045  0.1629
 6507TIP3    H119485   6.592   2.098   2.854  0.5817  1.8284 -0.1348
 6507TIP3    H219486   6.538   2.146   2.987 -0.3525 -1.6662  0.8416
 6508TIP3   OH219487   3.769   0.989   2.779 -0.4214 -0.0016 -0.1036
 6508TIP3    H119488   3.734   0.952   2.860 -0.7538 -0.5184 -0.4822
 6508TIP3    H219489   3.860   0.959   2.777 -0.5189 -0.2959 -0.1098
 6509TIP3   OH219490   3.008   4.666   3.629 -0.4992  0.5638  0.0272
 6509TIP3    H119491   2.930   4.709   3.666 -0.8082  0.5519 -0.5914
 6509TIP3    H219492   2.973   4.603   3.566 -0.0203 -0.2011  0.5121
 6510TIP3   OH219493   3.479   3.909   4.794  0.1831 -0.1122 -0.0144
 6510TIP3    H119494   3.510   3.964   4.723  0.4295 -1.8292 -1.3057
 6510TIP3    H219495   3.394   3.877   4.765  1.2261 -2.6023 -0.6553
 6511TIP3   OH219496   5.959   5.964   0.886  0.0265  0.1141  0.0125
 6511TIP3    H119497   5.899   5.912   0.833  1.2191 -0.7563 -0.5003
 6511TIP3    H219498   6.041   5.916   0.885  0.7533  1.2895  0.7050
 6512TIP3   OH219499   4.921   5.538   0.353  0.3873  0.9163 -0.2666
 6512TIP3    H119500   4.940   5.626   0.320  1.8977  0.5793 -0.3549
 6512TIP3    H219501   5.003   5.509   0.393 -1.2685  1.2510  3.8099
 6513TIP3   OH219502   2.867   1.256   3.367  0.0850  0.1586  0.0661
 6513TIP3    H119503   2.864   1.239   3.272 -1.3556  0.6136  0.0027
 6513TIP3    H219504   2.896   1.347   3.374  0.4966  0.0272  0.0779
 6514TIP3   OH219505   5.710   2.337   5.768 -0.8755 -0.0960 -0.1778
 6514TIP3    H119506   5.689   2.249   5.736 -0.4954 -0.6348  0.9977
 6514TIP3    H219507   5.634   2.362   5.821  0.0042 -0.7499  1.4810
 6515TIP3   OH219508   0.055   2.294   4.058 -0.0469 -0.0491 -0.2128
 6515TIP3    H119509   0.015   2.354   3.995 -1.0305 -0.0098  0.4203
 6515TIP3    H219510   0.064   2.212   4.010  0.9222  0.4655 -0.9568
 6516TIP3   OH219511   3.589   5.083   4.309 -0.2577  0.2191  0.4163
 6516TIP3    H119512   3.676   5.068   4.273 -1.0253 -0.4191 -1.2594
 6516TIP3    H219513   3.603   5.148   4.378  1.2403  2.1053 -1.4947
 6517TIP3   OH219514   5.344   0.783   0.623 -0.3666  0.0515 -0.1242
 6517TIP3    H119515   5.310   0.868   0.649  0.4830  0.3612 -0.0172
 6517TIP3    H219516   5.420   0.769   0.679 -1.5631 -1.6252  1.1908
 6518TIP3   OH219517   0.388   5.331   3.224 -0.3342 -0.2293 -0.0277
 6518TIP3    H119518   0.360   5.328   3.132  0.1296 -0.2480 -0.1691
 6518TIP3    H219519   0.429   5.417   3.234 -1.5594  0.3148  0.5127
 6519TIP3   OH219520   3.311   5.648   5.093 -0.0815 -0.8068 -0.6821
 6519TIP3    H119521   3.243   5.700   5.050  0.1087 -0.5769 -0.7048
 6519TIP3    H219522   3.287   5.648   5.186  0.6252  0.4273 -0.4721
 6520TIP3   OH219523   6.129   3.591   4.582  0.0163  0.4349 -0.1770
 6520TIP3    H119524   6.080   3.548   4.512  0.6636  0.2058 -0.5033
 6520TIP3    H219525   6.078   3.574   4.661 -0.4583  0.2583 -0.5149
 6521TIP3   OH219526   7.097   6.498   4.171 -0.2964  0.4298  0.3555
 6521TIP3    H119527   7.151   6.430   4.211 -1.9155  0.0578  2.0295
 6521TIP3    H219528   7.061   6.456   4.093 -0.0044 -0.0797  0.4879
 6522TIP3   OH219529   6.284   4.197   1.161  0.2644 -0.1843  0.8778
 6522TIP3    H119530   6.371   4.234   1.175  0.6118 -0.1926 -1.0356
 6522TIP3    H219531   6.299   4.104   1.147 -0.2468 -0.4780  2.1038
 6523TIP3   OH219532   7.072   5.048   4.726  0.1574 -0.4525  0.0497
 6523TIP3    H119533   7.017   5.119   4.693  2.3555  1.7277  0.7518
 6523TIP3    H219534   7.012   4.974   4.737 -1.9159  0.7237 -2.3681
 6524TIP3   OH219535   2.767   0.025   4.112 -0.0735 -0.7281 -0.4888
 6524TIP3    H119536   2.729  -0.060   4.133  0.8235 -1.1148 -0.4019
 6524TIP3    H219537   2.696   0.073   4.070 -0.7715 -1.2969  0.0162
 6525TIP3   OH219538   5.139   5.280   3.280  0.0670  0.2860 -0.4459
 6525TIP3    H119539   5.067   5.225   3.313 -0.2261  0.6259 -0.5160
 6525TIP3    H219540   5.157   5.245   3.193 -1.1489  1.2626 -1.1076
 6526TIP3   OH219541   4.501   0.886   2.620  0.2795 -0.3847 -0.1715
 6526TIP3    H119542   4.543   0.859   2.702  0.6991  1.2466  0.1800
 6526TIP3    H219543   4.413   0.914   2.646  0.7853  1.1940 -0.0732
 6527TIP3   OH219544   6.594   2.690   1.082 -0.6689 -0.3438  0.1310
 6527TIP3    H119545   6.537   2.767   1.090  0.2321  0.2289  1.3667
 6527TIP3    H219546   6.606   2.659   1.172  2.0740  0.4096  0.1175
 6528TIP3   OH219547   3.632   2.620   1.757 -0.0195 -0.3736  0.1931
 6528TIP3    H119548   3.668   2.575   1.680 -0.3831 -1.1261  0.4559
 6528TIP3    H219549   3.702   2.616   1.822 -0.7666 -2.4817  0.9586
 6529TIP3   OH219550   2.603   6.106   0.013 -0.2780  0.0954  0.0406
 6529TIP3    H119551   2.630   6.133  -0.074 -1.9125 -0.8090 -0.7835
 6529TIP3    H219552   2.650   6.165   0.072  1.4585  0.2269 -1.3849
 6530TIP3   OH219553   2.059   6.334   5.523  0.4327 -0.2185 -0.1540
 6530TIP3    H119554   2.095   6.283   5.595  2.0036 -0.4819 -1.0911
 6530TIP3    H219555   2.052   6.273   5.450 -2.2390 -0.2531  0.0344
 6531TIP3   OH219556   5.622   0.300   3.191  0.3755 -0.5207 -0.1773
 6531TIP3    H119557   5.660   0.212   3.189 -0.1690 -0.7720  0.2129
 6531TIP3    H219558   5.609   0.323   3.099 -0.6665 -1.3769 -0.2678
 6532TIP3   OH219559   5.435   5.607   5.609  0.5328 -0.4706  0.0807
 6532TIP3    H119560   5.366   5.619   5.543  0.1040  3.7816  1.0140
 6532TIP3    H219561   5.516   5.631   5.565  1.1232 -2.8023 -0.2410
 6533TIP3   OH219562   0.805   0.691   2.437 -0.2341  0.0883 -0.2973
 6533TIP3    H119563   0.875   0.626   2.429  0.2053  0.6909 -1.7565
 6533TIP3    H219564   0.850   0.775   2.426 -0.6984  0.7169  2.1239
 6534TIP3   OH219565   2.402   2.246   0.147  0.0158  0.2358  0.2745
 6534TIP3    H119566   2.437   2.256   0.236 -0.7390  1.3933  0.4577
 6534TIP3    H219567   2.355   2.327   0.130 -0.2112 -0.1445 -1.0360
 6535TIP3   OH219568   6.787   1.190   0.619 -0.3488 -0.4653 -0.2189
 6535TIP3    H119569   6.712   1.179   0.679  0.2883 -2.4496  0.2945
 6535TIP3    H219570   6.856   1.136   0.658  0.4382 -0.9470 -2.1868
 6536TIP3   OH219571   3.609   1.928   1.876  0.3538 -0.5820  0.0198
 6536TIP3    H119572   3.589   1.994   1.943  1.9599 -1.4217  1.4173
 6536TIP3    H219573   3.695   1.894   1.901  1.8822  0.2551 -3.4463
 6537TIP3   OH219574   5.353   4.690   0.599 -0.4055  0.6045 -0.7532
 6537TIP3    H119575   5.295   4.761   0.574  1.8111  2.2497 -1.5440
 6537TIP3    H219576   5.298   4.612   0.598 -2.3794  1.9259 -2.2884
 6538TIP3   OH219577   3.424   1.918   0.421  0.0206 -0.6637  0.2625
 6538TIP3    H119578   3.488   1.949   0.485 -2.3936  0.6752  2.2564
 6538TIP3    H219579   3.370   1.995   0.402 -0.1964 -1.3796 -2.4210
 6539TIP3   OH219580   3.782   5.306   0.299 -0.2837  0.0515 -0.3656
 6539TIP3    H119581   3.743   5.264   0.223  1.3114 -0.0055 -1.2106
 6539TIP3    H219582   3.781   5.400   0.278  0.0973  0.0422 -0.4357
 6540TIP3   OH219583   1.573   4.797   2.323  0.5210 -0.7067 -0.1629
 6540TIP3    H119584   1.651   4.848   2.344  1.0863 -1.2514 -0.8817
 6540TIP3    H219585   1.587   4.769   2.233 -0.2777 -1.2347 -0.1284
 6541TIP3   OH219586   3.388   1.129   3.932 -0.2194 -0.2781  0.2275
 6541TIP3    H119587   3.321   1.078   3.885  1.6729 -3.0259  0.2916
 6541TIP3    H219588   3.354   1.137   4.021 -0.4860 -1.6880  0.2762
 6542TIP3   OH219589   6.203   4.585   2.451  0.6337  0.3429  0.0280
 6542TIP3    H119590   6.192   4.572   2.357 -1.4924 -1.0223  0.3873
 6542TIP3    H219591   6.297   4.571   2.467  0.6761 -1.6297 -1.6079
 6543TIP3   OH219592   3.976   3.373   3.541 -0.2897 -0.0664  0.6985
 6543TIP3    H119593   3.960   3.352   3.633  0.3468  0.7040  0.9924
 6543TIP3    H219594   4.051   3.320   3.517 -0.7190 -0.5937  0.4868
 6544TIP3   OH219595   2.269   3.461   5.072 -0.1167  0.3068 -0.4688
 6544TIP3    H119596   2.347   3.515   5.083 -0.2436  0.3070  0.5148
 6544TIP3    H219597   2.301   3.379   5.033  0.8214 -0.7308  2.2595
 6545TIP3   OH219598   1.309   4.386   2.304 -0.5130 -0.1426 -0.5146
 6545TIP3    H119599   1.316   4.319   2.372 -0.4300  1.4919  1.1564
 6545TIP3    H219600   1.330   4.468   2.349 -1.6434  1.1600 -2.2395
 6546TIP3   OH219601   1.470   6.178   2.091  0.2241 -0.1076  0.8285
 6546TIP3    H119602   1.542   6.215   2.142  0.0353 -0.9192  1.7172
 6546TIP3    H219603   1.445   6.098   2.138 -2.9570  1.4116  2.0395
 6547TIP3   OH219604   7.040   2.568   1.020 -0.0621  0.3497  0.1605
 6547TIP3    H119605   7.067   2.593   1.108  0.8691 -2.1550  0.6835
 6547TIP3    H219606   6.946   2.548   1.028  0.0080  0.1866  0.5857
 6548TIP3   OH219607   3.796   5.148   2.112 -0.4234 -0.6968 -0.3111
 6548TIP3    H119608   3.883   5.189   2.110 -0.6195 -0.0914  1.7914
 6548TIP3    H219609   3.812   5.058   2.140 -0.2155 -1.5785 -2.9485
 6549TIP3   OH219610   2.107   3.815   3.650  0.0146 -0.3933  0.0126
 6549TIP3    H119611   2.017   3.824   3.683  0.2496 -2.0693  1.2142
 6549TIP3    H219612   2.120   3.721   3.642  1.7817 -0.1897  0.1557
 6550TIP3   OH219613   3.817   3.944   1.738  0.1121 -0.0327 -0.0157
 6550TIP3    H119614   3.741   3.993   1.769  0.6188  0.9156 -0.2064
 6550TIP3    H219615   3.882   4.012   1.719  1.1824 -0.8539  0.6247
 6551TIP3   OH219616   0.264   5.236   0.264  0.4983 -0.1581  0.5762
 6551TIP3    H119617   0.207   5.238   0.342  2.0655  2.2926  1.7880
 6551TIP3    H219618   0.258   5.324   0.228 -0.5805 -1.3548 -2.5209
 6552TIP3   OH219619   0.540   2.659   1.505 -0.5605 -0.3747 -0.2098
 6552TIP3    H119620   0.497   2.688   1.586 -0.6994  0.5441 -0.5971
 6552TIP3    H219621   0.468   2.640   1.445 -0.4504  0.0947 -0.4979
 6553TIP3   OH219622   5.961   2.135   2.640 -0.1698  0.1071  0.1575
 6553TIP3    H119623   5.896   2.155   2.572  1.0791 -1.5625 -1.6650
 6553TIP3    H219624   5.913   2.086   2.706 -1.4277  1.7813  0.5415
 6554TIP3   OH219625   4.550   4.626   0.378  0.2408  0.3920  0.2193
 6554TIP3    H119626   4.584   4.577   0.303 -1.4701  0.5150 -0.6930
 6554TIP3    H219627   4.560   4.566   0.452  1.0853 -0.1087 -0.2844
 6555TIP3   OH219628   3.443   6.458   0.263 -0.5245 -0.4637 -0.1795
 6555TIP3    H119629   3.485   6.405   0.331  0.6941 -0.9652 -1.2746
 6555TIP3    H219630   3.389   6.396   0.214 -2.2950  0.1033  0.9694
 6556TIP3   OH219631   2.341   0.723   3.819 -0.0019 -0.2139  0.0551
 6556TIP3    H119632   2.270   0.703   3.880 -0.4158  2.4812  0.5823
 6556TIP3    H219633   2.299   0.731   3.734 -0.0360 -0.2902  0.0644
 6557TIP3   OH219634   2.852   1.106   3.623  0.4674 -0.3869 -0.0427
 6557TIP3    H119635   2.888   1.018   3.614 -0.1573 -0.5029 -1.8458
 6557TIP3    H219636   2.879   1.152   3.543 -1.3120  0.2584 -0.3315
 6558TIP3   OH219637   2.372   6.030   2.444  0.6372 -0.2740 -0.2430
 6558TIP3    H119638   2.308   5.999   2.508  1.3760  0.0486  0.6653
 6558TIP3    H219639   2.321   6.086   2.385 -0.2650 -1.4346 -0.6027
 6559TIP3   OH219640   3.666   3.957   3.656 -0.1510  0.1081  0.3157
 6559TIP3    H119641   3.603   3.910   3.601  0.8369  0.1218 -0.8671
 6559TIP3    H219642   3.628   4.043   3.669 -1.0104 -0.3265  0.7727
 6560TIP3   OH219643   6.548   6.478   1.374  0.2585 -0.0388 -0.7008
 6560TIP3    H119644   6.622   6.527   1.339  1.0981 -0.4496  0.4429
 6560TIP3    H219645   6.487   6.545   1.405  1.3001  0.3181  0.6598
 6561TIP3   OH219646   4.534   4.982   0.175 -0.1285  0.2743 -0.5050
 6561TIP3    H119647   4.623   4.966   0.146 -0.1855  0.5680 -0.8536
 6561TIP3    H219648   4.532   5.076   0.196 -0.5860  0.4595 -1.3385
 6562TIP3   OH219649   3.063   4.226   0.081 -0.3025 -0.4510 -0.7516
 6562TIP3    H119650   3.012   4.305   0.099  2.4333  1.3342 -0.3071
 6562TIP3    H219651   3.103   4.203   0.165  2.7848  0.6869 -1.7484
 6563TIP3   OH219652   5.730   0.011   1.732 -0.2316  0.3122 -0.1327
 6563TIP3    H119653   5.682  -0.062   1.770  0.6029  0.4993  1.3784
 6563TIP3    H219654   5.662   0.071   1.701 -0.9854  0.2351  1.2892
 6564TIP3   OH219655   6.518   6.388   5.799  0.1456  0.0907  0.1952
 6564TIP3    H119656   6.571   6.466   5.788 -0.9151  1.2033  2.3312
 6564TIP3    H219657   6.461   6.387   5.722 -1.0580  2.4842  0.9572
 6565TIP3   OH219658   3.483   2.202   1.363 -0.6151 -0.7098  0.4838
 6565TIP3    H119659   3.530   2.276   1.325  0.1945 -0.9719  0.9497
 6565TIP3    H219660   3.455   2.232   1.449 -1.0212 -0.6661  0.3382
 6566TIP3   OH219661   1.321   5.624   0.569  0.2694  0.4917  0.4803
 6566TIP3    H119662   1.415   5.609   0.581  0.4250  1.0912  0.0442
 6566TIP3    H219663   1.299   5.575   0.490  0.3979  1.0600  0.0901
 6567TIP3   OH219664   0.267   1.227   4.677 -0.8697 -0.1924  0.2357
 6567TIP3    H119665   0.290   1.148   4.627 -0.5024 -0.5344  0.9270
 6567TIP3    H219666   0.241   1.291   4.611 -0.1413 -0.5530 -0.4128
 6568TIP3   OH219667   6.701   1.131   1.061  0.5285  0.1227 -0.2941
 6568TIP3    H119668   6.663   1.218   1.050 -1.9598 -0.9745 -0.8948
 6568TIP3    H219669   6.683   1.108   1.152  1.2354  0.2249 -0.1187
 6569TIP3   OH219670   2.358   5.948   3.589  0.1926 -0.1319 -0.3866
 6569TIP3    H119671   2.450   5.921   3.584  0.3910  0.7046 -1.7201
 6569TIP3    H219672   2.322   5.928   3.502 -0.1765  1.9260 -0.7560
 6570TIP3   OH219673   0.952   2.633   2.021  0.0372  0.2510  0.3712
 6570TIP3    H119674   1.039   2.672   2.018  0.6254 -0.8182  2.2144
 6570TIP3    H219675   0.893   2.707   2.007  1.2061  0.9309 -1.2993
 6571TIP3   OH219676   6.419   1.963   1.517 -0.0391  0.1190  0.8159
 6571TIP3    H119677   6.413   1.892   1.580  1.4768  1.7848  2.9956
 6571TIP3    H219678   6.329   1.974   1.484 -0.9405 -0.6492  2.8775
 6572TIP3   OH219679   3.634   6.045   4.063 -0.2190 -0.3512  0.2960
 6572TIP3    H119680   3.543   6.035   4.033 -0.0598  0.8908 -0.6804
 6572TIP3    H219681   3.626   6.086   4.149 -0.5855  1.0421 -0.3678
 6573TIP3   OH219682   5.407   4.029   4.097  0.4354 -0.5498 -0.6922
 6573TIP3    H119683   5.363   4.006   4.015  1.3658  0.8306 -1.6159
 6573TIP3    H219684   5.339   4.068   4.151  0.3345  1.0007 -1.8724
 6574TIP3   OH219685   0.376   3.398   0.704  0.5599 -0.2172 -0.5172
 6574TIP3    H119686   0.405   3.377   0.615 -0.1453 -0.4652 -0.6993
 6574TIP3    H219687   0.296   3.448   0.692  2.0954  2.5262 -0.0832
 6575TIP3   OH219688   6.377   3.104   1.600 -0.5894  0.5220 -0.0714
 6575TIP3    H119689   6.320   3.118   1.524 -0.7580  1.1050  0.1583
 6575TIP3    H219690   6.465   3.125   1.569 -0.4339 -0.7815 -0.5428
 6576TIP3   OH219691   4.725   5.312   5.652  0.6367 -0.4185 -0.5867
 6576TIP3    H119692   4.769   5.387   5.692  2.9737 -1.1806 -1.5863
 6576TIP3    H219693   4.666   5.280   5.720 -0.3361  2.2033 -0.0878
 6577TIP3   OH219694   6.165   4.483   4.620  0.0137  0.1374 -0.3801
 6577TIP3    H119695   6.229   4.436   4.566  0.7031  0.0662  0.4927
 6577TIP3    H219696   6.082   4.439   4.601  0.1974  0.2670 -1.5621
 6578TIP3   OH219697   1.397   4.004   3.834  0.1547  0.3206  0.1906
 6578TIP3    H119698   1.363   4.037   3.918  0.8029  1.6398 -0.0373
 6578TIP3    H219699   1.490   4.022   3.837  0.5153 -1.3157 -0.0799
 6579TIP3   OH219700   2.180   5.702   0.926  0.4967 -0.6720 -0.1694
 6579TIP3    H119701   2.182   5.787   0.882 -1.5401  0.5206  1.8472
 6579TIP3    H219702   2.227   5.715   1.007  0.8462 -1.7256 -0.1844
 6580TIP3   OH219703   2.985   3.588   3.493 -0.1923 -0.1024  0.7659
 6580TIP3    H119704   3.078   3.592   3.514 -0.5575 -0.2564  2.4986
 6580TIP3    H219705   2.983   3.592   3.397  1.5599  0.3515  0.7062
 6581TIP3   OH219706   3.840   6.299   2.317 -0.9645 -0.3355 -0.6181
 6581TIP3    H119707   3.890   6.379   2.302 -1.3700  0.3342  1.3562
 6581TIP3    H219708   3.760   6.311   2.266 -0.7484  0.2292 -0.8391
 6582TIP3   OH219709   5.340   3.038   1.107 -0.2060 -0.6400  0.1540
 6582TIP3    H119710   5.270   3.097   1.079 -0.0695 -0.2274  0.6660
 6582TIP3    H219711   5.388   3.018   1.027 -0.0542  0.2126  0.0212
 6583TIP3   OH219712   0.909   2.675   2.743  0.8544  0.4822 -0.3032
 6583TIP3    H119713   0.942   2.674   2.832  3.1261  2.0438 -1.0323
 6583TIP3    H219714   0.903   2.768   2.720 -1.4070  0.1875 -1.2344
 6584TIP3   OH219715   2.944   5.920   0.329 -0.5774  0.1370  0.5537
 6584TIP3    H119716   2.944   5.907   0.234 -0.6373  1.0951  0.4091
 6584TIP3    H219717   3.022   5.972   0.346 -0.9118  0.5281  0.9353
 6585TIP3   OH219718   6.643   4.283   1.894  0.9458  0.3491 -0.2416
 6585TIP3    H119719   6.611   4.370   1.917  1.3878  0.5900 -0.5148
 6585TIP3    H219720   6.660   4.288   1.800  0.8920 -0.0610 -0.2744
 6586TIP3   OH219721   6.291   6.499   4.147 -0.4541 -0.0911  0.0272
 6586TIP3    H119722   6.199   6.478   4.134 -0.8583  2.4560 -1.9156
 6586TIP3    H219723   6.334   6.473   4.066  0.2909 -0.0185  0.3845
 6587TIP3   OH219724   7.099   4.898   5.727 -0.2648 -0.4067 -0.2442
 6587TIP3    H119725   7.112   4.985   5.689 -0.5512 -0.1861  0.1600
 6587TIP3    H219726   7.042   4.853   5.664 -2.7503  0.7623  1.0118
 6588TIP3   OH219727   1.650   1.597   1.845  0.3731 -0.0555 -0.1118
 6588TIP3    H119728   1.734   1.621   1.807  0.9287 -1.1454  0.3824
 6588TIP3    H219729   1.587   1.658   1.806  1.3881  0.7709 -0.4801
 6589TIP3   OH219730   2.190   3.170   4.241  0.6212 -0.5430  0.0166
 6589TIP3    H119731   2.182   3.097   4.179 -0.8581  0.4977 -1.0833
 6589TIP3    H219732   2.147   3.138   4.320  1.2416 -1.3654  0.0376
 6590TIP3   OH219733   4.923   3.896   1.399 -0.5579 -0.4157 -0.0623
 6590TIP3    H119734   4.839   3.933   1.427  0.8597  0.8878  2.8018
 6590TIP3    H219735   4.963   3.965   1.346 -0.8948 -0.7241 -0.7406
 6591TIP3   OH219736   5.261   4.008   3.850 -0.1850 -0.1072 -0.1564
 6591TIP3    H119737   5.184   3.967   3.811  0.4787  0.6825 -2.4836
 6591TIP3    H219738   5.246   4.102   3.838  1.5360  0.0362 -1.6017
 6592TIP3   OH219739   7.150   1.781   2.478  0.1170 -0.0494  0.4214
 6592TIP3    H119740   7.111   1.762   2.393  2.3628 -1.2624 -0.4301
 6592TIP3    H219741   7.125   1.872   2.496  1.6656  1.2071 -2.8335
 6593TIP3   OH219742   3.483   3.030   0.781 -0.0628 -0.0774 -0.3287
 6593TIP3    H119743   3.462   2.978   0.703  0.2719 -2.3511  0.9981
 6593TIP3    H219744   3.465   2.971   0.854 -0.3059  1.9606  1.3444
 6594TIP3   OH219745   1.228   0.609   3.893 -0.3501 -0.0417  0.4232
 6594TIP3    H119746   1.275   0.535   3.855 -0.4021 -1.0468  2.1547
 6594TIP3    H219747   1.296   0.669   3.922 -0.1507 -0.7614  1.5205
 6595TIP3   OH219748   7.193   6.187   5.404  0.1057 -0.4490 -0.2540
 6595TIP3    H119749   7.235   6.262   5.362  1.1994 -1.6672 -1.4656
 6595TIP3    H219750   7.107   6.181   5.361 -1.0362  1.4528  1.5319
 6596TIP3   OH219751   5.385   5.007   3.131  0.2864 -0.3094  0.3435
 6596TIP3    H119752   5.438   4.941   3.087  0.8693 -0.5887  1.4315
 6596TIP3    H219753   5.446   5.078   3.151 -0.1646  0.2137 -0.1084
 6597TIP3   OH219754   7.196   6.237   0.908 -0.4032 -0.1543  0.6325
 6597TIP3    H119755   7.214   6.155   0.954 -0.7107 -0.0310  0.9729
 6597TIP3    H219756   7.198   6.304   0.975  0.0431  0.1484  0.3199
 6598TIP3   OH219757   2.850   1.707   4.214 -0.5583  0.4307  0.1209
 6598TIP3    H119758   2.830   1.733   4.304  1.7101  0.7854  0.6034
 6598TIP3    H219759   2.880   1.788   4.172 -0.0274 -0.0458 -0.4478
 6599TIP3   OH219760   2.344   1.210   3.275  0.3210 -0.0644  0.0121
 6599TIP3    H119761   2.327   1.280   3.338  0.2271 -1.2516  1.3567
 6599TIP3    H219762   2.364   1.133   3.329 -2.3123 -1.8120 -1.3047
 6600TIP3   OH219763   2.992   2.288   3.945 -0.4136  0.2271  0.0819
 6600TIP3    H119764   2.976   2.377   3.913  1.7059 -0.0660 -2.0665
 6600TIP3    H219765   3.061   2.298   4.011 -0.7284  0.2268  0.4174
 6601TIP3   OH219766   6.502   3.496   0.047 -0.4886  0.3290 -0.2416
 6601TIP3    H119767   6.555   3.509   0.125 -0.3073 -1.1932 -0.0821
 6601TIP3    H219768   6.412   3.493   0.079 -0.4403  0.0771 -0.1235
 6602TIP3   OH219769   5.842   6.050   1.763 -0.0693  0.1005  0.4602
 6602TIP3    H119770   5.877   6.022   1.848 -1.2787  1.2353  1.3730
 6602TIP3    H219771   5.851   5.973   1.707 -1.2854 -1.4173  2.2495
 6603TIP3   OH219772   0.826   2.426   2.630  0.4378  0.6186  0.2002
 6603TIP3    H119773   0.807   2.512   2.666 -0.7338  0.2011  0.6385
 6603TIP3    H219774   0.910   2.402   2.669  0.5907  1.4022  0.3649
 6604TIP3   OH219775   1.176   0.554   1.570 -0.1706  0.5512  0.0253
 6604TIP3    H119776   1.140   0.630   1.525 -1.5735  0.4192  0.8917
 6604TIP3    H219777   1.178   0.578   1.662  1.9645  0.5337  0.0372
 6605TIP3   OH219778   0.038   0.739   2.441  0.1800 -0.3694  0.1402
 6605TIP3    H119779   0.012   0.818   2.489  1.1665 -0.7302  1.3224
 6605TIP3    H219780   0.119   0.765   2.396  0.0097 -0.4394 -0.2048
 6606TIP3   OH219781   3.549   5.405   5.353 -0.3959  0.5615 -0.0292
 6606TIP3    H119782   3.587   5.356   5.426 -1.4649 -1.4236 -0.7066
 6606TIP3    H219783   3.480   5.458   5.393 -0.9845 -0.5153  0.4505
 6607TIP3   OH219784   1.146   5.233   3.732 -0.6208  0.0984 -0.0242
 6607TIP3    H119785   1.111   5.185   3.808  0.5653 -1.1471 -0.2397
 6607TIP3    H219786   1.068   5.260   3.683 -1.4035  0.7377  1.5019
 6608TIP3   OH219787   2.037   3.459   2.733  0.2971  0.2219 -0.4027
 6608TIP3    H119788   2.042   3.391   2.666 -1.0024 -0.2009 -0.0930
 6608TIP3    H219789   2.128   3.479   2.753  0.7244  0.1810 -2.1100
 6609TIP3   OH219790   2.527   1.536   5.412 -0.5889  0.0770 -0.2657
 6609TIP3    H119791   2.581   1.560   5.487 -1.2742  1.3185 -0.1443
 6609TIP3    H219792   2.562   1.451   5.383 -0.6350 -0.6724  1.7438
 6610TIP3   OH219793   1.013   4.864   4.305 -0.0478  0.4607  0.7284
 6610TIP3    H119794   1.025   4.780   4.261 -0.9706 -1.2603  3.5072
 6610TIP3    H219795   1.101   4.901   4.310  0.2072  0.3806 -1.6634
 6611TIP3   OH219796   7.173   5.969   1.484  0.1026  0.2428 -0.1777
 6611TIP3    H119797   7.100   5.947   1.542 -0.0606  1.7605  0.2372
 6611TIP3    H219798   7.139   6.038   1.427  1.7406  2.5058  1.3804
 6612TIP3   OH219799   3.982   6.202   3.853 -0.3158 -0.4101  0.4565
 6612TIP3    H119800   4.032   6.283   3.860 -0.1862 -0.2998 -1.3141
 6612TIP3    H219801   3.913   6.222   3.790  0.7398 -2.1237 -1.3465
 6613TIP3   OH219802   3.361   2.111   3.838  0.0505 -0.3325  0.4643
 6613TIP3    H119803   3.344   2.088   3.929 -0.1465 -0.7391  0.3262
 6613TIP3    H219804   3.456   2.105   3.829  0.2185  1.0518  0.9982
 6614TIP3   OH219805   2.648   6.105   5.195 -0.2062  0.3658 -0.6431
 6614TIP3    H119806   2.606   6.189   5.177 -0.9315 -0.0158 -0.7622
 6614TIP3    H219807   2.726   6.104   5.138  0.1711  1.2312 -0.1525
 6615TIP3   OH219808   1.676   1.855   1.174  0.2457  0.4593 -0.0174
 6615TIP3    H119809   1.602   1.908   1.145 -0.6114 -0.2313  0.8707
 6615TIP3    H219810   1.737   1.918   1.213  1.1368  1.3350 -2.6115
 6616TIP3   OH219811   6.618   4.298   0.968 -0.0513 -0.0403 -0.1929
 6616TIP3    H119812   6.542   4.319   0.913  0.4058  0.5571 -0.5997
 6616TIP3    H219813   6.678   4.253   0.909  0.0963 -0.1384  0.0304
 6617TIP3   OH219814   5.260   1.529   0.022  0.0921 -0.3816  0.4097
 6617TIP3    H119815   5.254   1.442  -0.019  0.3015 -0.8462  1.3161
 6617TIP3    H219816   5.332   1.520   0.084  1.1465  0.9221 -0.5725
 6618TIP3   OH219817   5.018   1.252   4.066  0.0182  0.5516 -0.0924
 6618TIP3    H119818   5.100   1.292   4.095 -0.6336  0.7406  1.6482
 6618TIP3    H219819   5.026   1.160   4.091  1.5910 -0.6254 -4.2545
 6619TIP3   OH219820   5.667   6.125   0.364  0.2684 -1.0882  0.6762
 6619TIP3    H119821   5.748   6.177   0.363 -0.0495 -0.5456  1.7700
 6619TIP3    H219822   5.628   6.143   0.449 -1.1107 -1.1807  0.0897
 6620TIP3   OH219823   1.352   6.213   2.481  0.2876  0.1905 -0.2526
 6620TIP3    H119824   1.264   6.247   2.497 -0.6654 -1.5546 -1.4430
 6620TIP3    H219825   1.382   6.183   2.566 -1.1771 -1.1529 -0.1633
 6621TIP3   OH219826   2.165   2.047   0.862  0.4796 -0.3472 -0.5999
 6621TIP3    H119827   2.192   2.021   0.774  1.5832  0.8759 -0.6462
 6621TIP3    H219828   2.122   1.969   0.898 -0.0293 -0.8588 -2.2160
 6622TIP3   OH219829   0.082   5.369   3.214 -0.2917  0.1980 -0.4489
 6622TIP3    H119830   0.044   5.456   3.213  1.4866  1.0297  0.3937
 6622TIP3    H219831   0.175   5.383   3.199  0.4177 -1.3146  1.9655
 6623TIP3   OH219832   2.919   2.941   2.137  0.6566 -0.1237  0.4374
 6623TIP3    H119833   2.934   3.030   2.104 -0.3078  0.3968  1.3318
 6623TIP3    H219834   2.917   2.951   2.232  0.7738 -1.1505  0.5582
 6624TIP3   OH219835   4.902   5.906   2.511 -0.1678 -0.1832  0.1209
 6624TIP3    H119836   4.993   5.878   2.512  0.5031  1.6899 -1.7189
 6624TIP3    H219837   4.891   5.949   2.426 -2.8159 -0.5027  0.2325
 6625TIP3   OH219838   6.964   3.104   1.622  0.0610  0.3839  0.6585
 6625TIP3    H119839   6.931   3.038   1.561  2.6860 -1.8771  1.5210
 6625TIP3    H219840   6.898   3.108   1.692 -2.3063  2.0361 -1.4679
 6626TIP3   OH219841   5.544   6.449   5.521 -0.1055 -0.6197  0.0316
 6626TIP3    H119842   5.482   6.518   5.499  0.7415 -0.2002 -1.1712
 6626TIP3    H219843   5.562   6.460   5.614 -0.8718  0.0370  0.1000
 6627TIP3   OH219844   5.180   3.272   1.101  0.3100  0.2675  0.4233
 6627TIP3    H119845   5.129   3.350   1.082  0.1648  0.0818  0.0171
 6627TIP3    H219846   5.116   3.207   1.131  0.3717  0.1830  0.3752
 6628TIP3   OH219847   1.897   5.987   5.493  0.2454  0.1232 -0.1397
 6628TIP3    H119848   1.868   5.913   5.440 -1.0786 -0.7296  1.6423
 6628TIP3    H219849   1.924   5.948   5.576 -1.5723  1.6900  1.2817
 6629TIP3   OH219850   6.849   6.199   4.411 -0.5179  0.7350  0.2543
 6629TIP3    H119851   6.825   6.122   4.360 -1.3887  0.8180  0.5229
 6629TIP3    H219852   6.932   6.228   4.373 -0.8582  0.4605 -0.7362
 6630TIP3   OH219853   1.360   1.195   5.662  0.2260  0.6827 -0.2002
 6630TIP3    H119854   1.411   1.243   5.597  0.1682 -0.4770 -1.1319
 6630TIP3    H219855   1.426   1.158   5.721  0.2790  1.7044  0.4177
 6631TIP3   OH219856   4.735   2.983   1.689 -0.2004  0.4511  0.2293
 6631TIP3    H119857   4.735   3.021   1.776  0.4961 -0.9292  0.8672
 6631TIP3    H219858   4.660   2.923   1.688 -0.7045  1.0684 -0.4224
 6632TIP3   OH219859   2.476   5.231   3.959  0.0708  0.3066  0.0816
 6632TIP3    H119860   2.394   5.247   3.912 -0.2819 -0.0203  0.5741
 6632TIP3    H219861   2.457   5.156   4.016  1.3331 -1.1352 -1.3059
 6633TIP3   OH219862   3.346   3.698   5.515 -0.2080  0.3038 -0.0848
 6633TIP3    H119863   3.253   3.689   5.533 -0.3931  1.0430 -0.6566
 6633TIP3    H219864   3.383   3.728   5.598  0.0172 -2.7678  1.0649
 6634TIP3   OH219865   0.775   2.169   3.356  0.2012 -0.0250  0.0994
 6634TIP3    H119866   0.697   2.221   3.341  0.6721  0.5380 -0.4434
 6634TIP3    H219867   0.746   2.078   3.347 -0.4596  0.1698  0.2629
 6635TIP3   OH219868   0.812   6.344   4.158 -0.3733 -0.0435 -0.2546
 6635TIP3    H119869   0.765   6.270   4.197  0.2289  0.3971  1.3999
 6635TIP3    H219870   0.743   6.403   4.129 -0.8949  0.2731  1.5131
 6636TIP3   OH219871   0.761   3.785   1.845 -0.8772 -0.3647 -0.0139
 6636TIP3    H119872   0.737   3.716   1.907  0.4206 -2.0267 -1.2382
 6636TIP3    H219873   0.848   3.813   1.873 -0.6328 -0.5456 -0.5564
 6637TIP3   OH219874   3.517   0.872   2.295 -0.7490 -0.7646  0.2078
 6637TIP3    H119875   3.550   0.813   2.227 -2.7635 -0.6094 -0.9797
 6637TIP3    H219876   3.572   0.950   2.289 -0.6323 -0.9205 -0.9816
 6638TIP3   OH219877   1.377   6.016   1.258 -0.0475  0.5675  0.3307
 6638TIP3    H119878   1.299   6.068   1.279 -2.4370 -1.2049 -3.1748
 6638TIP3    H219879   1.360   5.931   1.297  0.1805  0.2043 -0.3481
 6639TIP3   OH219880   3.837   6.590   5.000 -0.0452  0.6902  0.4775
 6639TIP3    H119881   3.841   6.616   5.093 -1.5271  0.7995  0.5402
 6639TIP3    H219882   3.829   6.673   4.953 -0.3993  0.5891  0.3515
 6640TIP3   OH219883   4.817   3.277   4.817  0.0439 -0.0767 -0.2991
 6640TIP3    H119884   4.773   3.249   4.736 -0.6784 -1.1796  0.4447
 6640TIP3    H219885   4.863   3.358   4.793 -0.4748 -0.1752 -1.7065
 6641TIP3   OH219886   0.127   4.042   2.047 -0.0965 -0.0566 -0.6743
 6641TIP3    H119887   0.211   4.020   2.007 -0.6280 -2.7242 -0.4845
 6641TIP3    H219888   0.068   4.055   1.973 -0.4005 -2.1634 -0.8728
 6642TIP3   OH219889   4.453   2.436   2.196 -0.0621 -0.6985 -0.0010
 6642TIP3    H119890   4.403   2.467   2.271  0.0954 -1.6049  0.4932
 6642TIP3    H219891   4.499   2.358   2.228  1.9824  0.2969 -0.3102
 6643TIP3   OH219892   0.184   0.126   2.701 -0.2871 -0.4892 -0.3691
 6643TIP3    H119893   0.124   0.198   2.717 -0.8218 -0.6891 -1.3370
 6643TIP3    H219894   0.249   0.161   2.640 -0.6752 -0.8743 -1.0157
 6644TIP3   OH219895   4.097   4.281   0.166  0.2055 -0.8946 -0.1798
 6644TIP3    H119896   4.078   4.361   0.117 -0.8872 -1.7091 -1.1127
 6644TIP3    H219897   4.149   4.311   0.241 -1.2422  0.8715  0.1876
 6645TIP3   OH219898   6.012   2.563   5.406  0.5509 -0.2861  0.0029
 6645TIP3    H119899   6.067   2.488   5.430  1.5204 -0.5985 -2.8187
 6645TIP3    H219900   6.073   2.635   5.393  0.1727 -0.2266 -1.6596
 6646TIP3   OH219901   0.833   3.989   2.097 -0.4701  0.2433 -0.0082
 6646TIP3    H119902   0.886   3.935   2.040  0.0756  0.7640 -0.0109
 6646TIP3    H219903   0.820   4.070   2.048  2.1780  1.7480  1.5265
 6647TIP3   OH219904   5.876   3.865   2.446 -0.6498 -0.1592 -0.1615
 6647TIP3    H119905   5.967   3.881   2.422 -0.5140  0.0127  0.4450
 6647TIP3    H219906   5.873   3.884   2.540 -1.1939 -0.6535 -0.0746
 6648TIP3   OH219907   0.178   5.450   0.882 -0.4229 -0.4358  0.0793
 6648TIP3    H119908   0.166   5.491   0.968 -0.2043  0.3106 -0.2389
 6648TIP3    H219909   0.251   5.389   0.895 -0.1033 -0.0101  0.3212
 6649TIP3   OH219910   1.717   3.965   0.590 -0.4412  0.5905  0.3744
 6649TIP3    H119911   1.791   3.976   0.531 -0.6605  1.8170  0.2994
 6649TIP3    H219912   1.707   3.870   0.599  0.0653  0.3909 -0.9605
 6650TIP3   OH219913   6.205   0.678   5.328  0.2692  0.4212  0.1436
 6650TIP3    H119914   6.154   0.648   5.403 -1.0090  0.4497 -0.6849
 6650TIP3    H219915   6.211   0.773   5.340 -0.1377  0.4559  0.0992
 6651TIP3   OH219916   5.990   3.723   3.306  0.5113  0.9317 -0.1776
 6651TIP3    H119917   6.075   3.680   3.297  0.5163  0.6076  1.1001
 6651TIP3    H219918   6.010   3.816   3.308  0.6311  0.9646 -1.7006
 6652TIP3   OH219919   0.315   5.791   0.050 -0.1895 -0.9323 -0.1376
 6652TIP3    H119920   0.292   5.847   0.124  0.9577 -0.2393 -0.2894
 6652TIP3    H219921   0.233   5.745   0.029 -0.5214 -1.2362  1.6137
 6653TIP3   OH219922   3.957   2.272   1.565  0.1178  0.0988 -0.4237
 6653TIP3    H119923   3.907   2.201   1.604  1.6667 -0.9287 -0.2351
 6653TIP3    H219924   3.891   2.337   1.541 -1.2858 -1.1783 -0.1699
 6654TIP3   OH219925   1.134   6.423   0.783  0.3225 -0.2691  0.0254
 6654TIP3    H119926   1.056   6.368   0.778  0.9532 -1.3243  1.2735
 6654TIP3    H219927   1.207   6.364   0.768  1.1018 -0.1234  2.7424
 6655TIP3   OH219928   5.285   2.247   0.042 -0.0191  0.4345 -0.2588
 6655TIP3    H119929   5.315   2.285  -0.040  0.5947  0.6355  0.0538
 6655TIP3    H219930   5.226   2.312   0.079  0.6368  0.8793  0.0316
 6656TIP3   OH219931   0.813   3.317   4.492 -0.0693  0.2112  0.1195
 6656TIP3    H119932   0.834   3.277   4.577  1.0041  1.5330  0.5169
 6656TIP3    H219933   0.898   3.331   4.451 -0.6091 -1.0220 -1.5001
 6657TIP3   OH219934   3.094   0.601   2.191 -0.3509  0.1099 -0.2835
 6657TIP3    H119935   3.114   0.566   2.104 -0.5211  0.2996 -0.3986
 6657TIP3    H219936   3.150   0.678   2.200  0.3828 -0.4640  0.1644
 6658TIP3   OH219937   0.738   2.655   0.631  0.7871  0.3822  0.1807
 6658TIP3    H119938   0.799   2.582   0.622 -0.3858 -0.4242 -1.8538
 6658TIP3    H219939   0.750   2.706   0.551 -0.6052  0.6565  0.1219
 6659TIP3   OH219940   7.119   0.197   4.049 -0.2972 -0.3008 -0.4922
 6659TIP3    H119941   7.117   0.103   4.065  0.6800 -0.0243  1.5480
 6659TIP3    H219942   7.181   0.208   3.977  1.2515 -1.0973  0.6617
 6660TIP3   OH219943   2.206   2.146   3.513 -0.0942  0.5112  0.5991
 6660TIP3    H119944   2.167   2.114   3.595  0.5311 -1.5298  0.1578
 6660TIP3    H219945   2.180   2.082   3.447  0.9470  1.1092 -0.4310
 6661TIP3   OH219946   2.083   6.150   3.205 -0.1226 -0.2525  0.1739
 6661TIP3    H119947   2.106   6.126   3.295  3.3624 -0.6271 -0.6664
 6661TIP3    H219948   2.037   6.073   3.171 -0.1705 -0.7044  1.2250
 6662TIP3   OH219949   2.443   6.622   3.492 -0.3093 -0.0884 -0.2130
 6662TIP3    H119950   2.532   6.589   3.482  0.1148  0.8520  0.3259
 6662TIP3    H219951   2.430   6.628   3.587 -1.8426 -2.5113 -0.1803
 6663TIP3   OH219952   6.456   3.928   2.420 -0.1464 -0.2609 -0.1117
 6663TIP3    H119953   6.434   3.841   2.387 -0.6798 -0.8169  1.5741
 6663TIP3    H219954   6.531   3.913   2.477  0.5737  0.6062 -0.8191
 6664TIP3   OH219955   2.990  -0.014   2.387 -0.8340 -0.3566  0.1211
 6664TIP3    H119956   2.947   0.057   2.434 -1.5464 -0.6538 -0.0727
 6664TIP3    H219957   3.059   0.029   2.337 -1.0011  0.1468  0.3167
 6665TIP3   OH219958   0.231   3.160   3.548 -0.3628  0.1233  0.3341
 6665TIP3    H119959   0.291   3.202   3.610 -0.8358  0.4261  0.5975
 6665TIP3    H219960   0.169   3.113   3.604 -0.4528 -0.0662  0.0733
 6666TIP3   OH219961   5.770   3.822   0.892 -0.3088  0.0055 -0.3775
 6666TIP3    H119962   5.790   3.747   0.947  0.9028 -0.4241 -1.3560
 6666TIP3    H219963   5.725   3.883   0.950  1.7290 -0.0342  1.3627
 6667TIP3   OH219964   2.053   1.171   2.464  0.1847  0.1496  1.0379
 6667TIP3    H119965   2.066   1.196   2.373 -0.7391 -0.5262  0.7105
 6667TIP3    H219966   2.029   1.253   2.508 -2.1172  0.0440  0.1136
 6668TIP3   OH219967   5.490   0.268   0.896  0.1018 -0.0650  0.5378
 6668TIP3    H119968   5.459   0.202   0.834  1.8695 -0.7303  0.2759
 6668TIP3    H219969   5.502   0.220   0.978  0.9148  0.0226  0.4805
 6669TIP3   OH219970   4.634   3.222   4.307  0.5096 -0.3933  0.3155
 6669TIP3    H119971   4.664   3.136   4.279  1.5248  0.3787 -1.1160
 6669TIP3    H219972   4.713   3.277   4.302 -0.5507  1.0986 -0.8927
 6670TIP3   OH219973   5.270   5.903   3.610  0.3808 -0.2470 -0.4118
 6670TIP3    H119974   5.308   5.932   3.693  2.4035  0.0566 -1.3832
 6670TIP3    H219975   5.264   5.808   3.617 -2.4062 -0.0631  1.2081
 6671TIP3   OH219976   7.117   5.136   4.012  0.1341  0.1562 -0.1193
 6671TIP3    H119977   7.146   5.045   4.017 -0.3624 -0.0962 -1.3320
 6671TIP3    H219978   7.197   5.187   4.000  0.2526 -0.4561 -2.6375
 6672TIP3   OH219979   4.572   6.423   2.969 -0.1108  0.2179 -0.0283
 6672TIP3    H119980   4.590   6.381   3.053  1.7705 -1.0913 -1.0023
 6672TIP3    H219981   4.481   6.401   2.949 -0.6381  0.6821  1.6855
 6673TIP3   OH219982   2.103   6.575   4.889 -0.1348  0.2428 -0.2002
 6673TIP3    H119983   2.025   6.519   4.886 -0.5962  0.7734  1.0136
 6673TIP3    H219984   2.172   6.522   4.850 -0.2204 -1.7594  2.1090
 6674TIP3   OH219985   4.364   6.041   1.260  0.3255 -0.5772  0.0066
 6674TIP3    H119986   4.452   6.074   1.280  0.3418  0.8086 -2.0310
 6674TIP3    H219987   4.310   6.069   1.333  0.9874  1.3372 -0.1979
 6675TIP3   OH219988   0.771  -0.011   0.915 -0.3170  0.2262 -0.4472
 6675TIP3    H119989   0.679  -0.028   0.934 -1.0552  1.6990 -2.3400
 6675TIP3    H219990   0.802   0.043   0.988 -1.4866  1.1717 -0.6218
 6676TIP3   OH219991   2.545   5.513   4.667 -0.5352  0.4097  0.2677
 6676TIP3    H119992   2.601   5.543   4.595  0.5167  0.4633  1.0852
 6676TIP3    H219993   2.498   5.592   4.694 -1.4776  0.2431 -0.8057
 6677TIP3   OH219994   5.766   2.834   4.269 -0.5847  0.0182 -0.0838
 6677TIP3    H119995   5.779   2.758   4.212  0.4248 -0.2360  0.4733
 6677TIP3    H219996   5.723   2.799   4.347 -2.2097  0.4085 -0.7587
 6678TIP3   OH219997   3.528   1.368   0.610 -0.0990  0.4514 -0.2420
 6678TIP3    H119998   3.475   1.419   0.671  0.7360 -0.7948  1.6518
 6678TIP3    H219999   3.493   1.388   0.524 -1.1552  2.5439  0.6054
 6679TIP3   OH220000   5.707   3.451   0.242  0.0104 -0.4540 -0.6613
 6679TIP3    H120001   5.758   3.383   0.287 -0.0088  0.0652  0.1675
 6679TIP3    H220002   5.699   3.521   0.306  1.8586  1.2764 -2.2115
 6680TIP3   OH220003   2.495   6.134   5.503  0.3757  0.9736  0.0968
 6680TIP3    H120004   2.446   6.204   5.459  0.3391  0.7929 -0.1510
 6680TIP3    H220005   2.428   6.070   5.528  0.4871  0.7113 -0.2683
 6681TIP3   OH220006   6.706   0.504   0.745 -0.0367  0.5258 -0.3524
 6681TIP3    H120007   6.633   0.551   0.786  1.4195  0.9387  2.0369
 6681TIP3    H220008   6.750   0.460   0.818  0.3533 -2.2675 -2.1253
 6682TIP3   OH220009   5.018   4.683   4.069  0.0810 -0.2496  0.1458
 6682TIP3    H120010   4.988   4.592   4.080 -0.4681 -0.0106  0.6887
 6682TIP3    H220011   5.070   4.681   3.989 -0.3227 -0.9518 -0.1150
 6683TIP3   OH220012   0.398   3.198   0.904 -0.5129 -0.6273  0.4163
 6683TIP3    H120013   0.399   3.244   0.820  1.6552 -0.2951  0.5754
 6683TIP3    H220014   0.309   3.163   0.911 -1.3527  1.0703 -1.0427
 6684TIP3   OH220015   4.229   0.850   1.702 -0.1345  0.5269  0.0692
 6684TIP3    H120016   4.281   0.799   1.763 -0.3393  0.9052  0.5626
 6684TIP3    H220017   4.284   0.925   1.681 -0.9330  1.5617  1.5272
 6685TIP3   OH220018   0.548   3.880   0.343  0.3194 -0.2757 -0.1047
 6685TIP3    H120019   0.620   3.900   0.402 -0.2000 -1.7252  1.0762
 6685TIP3    H220020   0.474   3.932   0.377  0.3965  0.0042 -0.3631
 6686TIP3   OH220021   6.026   3.143   5.135 -0.1564  0.1905 -0.0767
 6686TIP3    H120022   6.100   3.118   5.188  0.9198  1.2633 -1.0039
 6686TIP3    H220023   6.023   3.078   5.064  0.7439  0.8831 -0.7751
 6687TIP3   OH220024   0.678   2.202   5.269  0.2862  0.2064  0.1967
 6687TIP3    H120025   0.723   2.125   5.234 -0.7302  0.1239 -1.0027
 6687TIP3    H220026   0.707   2.274   5.213 -0.7885  0.2102 -0.3774
 6688TIP3   OH220027   2.135   5.730   2.319  0.1465 -0.0711  0.4379
 6688TIP3    H120028   2.220   5.687   2.328 -0.3226 -1.3874 -1.0035
 6688TIP3    H220029   2.106   5.745   2.409  0.8004 -1.8541  0.9902
 6689TIP3   OH220030   2.893   0.850   0.377  0.3386  0.2166 -0.1680
 6689TIP3    H120031   2.799   0.863   0.370  0.4085  0.8672 -0.0060
 6689TIP3    H220032   2.918   0.809   0.294 -0.2398 -0.9740  0.2302
 6690TIP3   OH220033   6.035   1.439   3.137  0.8118 -0.5495  0.1673
 6690TIP3    H120034   5.987   1.441   3.220 -0.6057  0.1108 -0.6282
 6690TIP3    H220035   6.094   1.364   3.144  0.4214 -0.7382  1.5997
 6691TIP3   OH220036   0.790   0.526   4.600 -0.3911 -0.1687  0.3128
 6691TIP3    H120037   0.836   0.523   4.516 -0.3255  0.5946  0.3113
 6691TIP3    H220038   0.704   0.487   4.581  0.1181 -1.2961  0.2403
 6692TIP3   OH220039   4.795   4.439   0.757 -0.1131  0.7101  1.0360
 6692TIP3    H120040   4.762   4.394   0.835  0.0427  1.5252  1.5831
 6692TIP3    H220041   4.775   4.532   0.772  0.0322  0.8949  0.1609
 6693TIP3   OH220042   1.713   5.858   2.073 -0.1017 -0.2848 -0.0756
 6693TIP3    H120043   1.751   5.791   2.130  2.8486 -0.7266 -2.3289
 6693TIP3    H220044   1.620   5.858   2.095  0.0988 -3.7133  1.4269
 6694TIP3   OH220045   0.685   1.439   2.237 -0.3937  0.4739 -0.3561
 6694TIP3    H120046   0.596   1.421   2.267 -0.4356  0.1858 -0.6461
 6694TIP3    H220047   0.676   1.454   2.143  0.0306 -0.8341 -0.6293
 6695TIP3   OH220048   7.056   4.085   2.773 -0.3314 -0.0076 -0.3047
 6695TIP3    H120049   6.965   4.116   2.770 -1.0516 -1.9850 -0.5993
 6695TIP3    H220050   7.080   4.073   2.681  0.3501  0.7702 -0.2400
 6696TIP3   OH220051   3.740   1.239   4.992  0.0824 -0.0915 -0.4884
 6696TIP3    H120052   3.824   1.247   4.947 -0.5461 -1.0577 -1.8759
 6696TIP3    H220053   3.759   1.181   5.066  0.8174  0.3938 -0.2785
 6697TIP3   OH220054   6.437   5.590   3.479 -0.2394  0.2635  0.8393
 6697TIP3    H120055   6.383   5.615   3.553  0.0401  0.6090  0.9269
 6697TIP3    H220056   6.498   5.662   3.467  0.5451 -0.3447  1.0703
 6698TIP3   OH220057   6.439   2.901   3.132 -0.2035 -0.2481 -0.3279
 6698TIP3    H120058   6.476   2.815   3.113  0.5018 -0.1233  0.4254
 6698TIP3    H220059   6.345   2.891   3.113 -0.5618 -1.8689  1.8201
 6699TIP3   OH220060   0.413   5.111   2.313 -0.0408 -0.2028  0.2694
 6699TIP3    H120061   0.391   5.068   2.396 -3.6791  1.6675  0.4685
 6699TIP3    H220062   0.346   5.082   2.252  2.0229 -0.8137 -1.8624
 6700TIP3   OH220063   3.094   1.858   3.828 -0.5545  0.6170 -0.1507
 6700TIP3    H120064   3.045   1.926   3.875 -1.0936  0.8904 -1.0936
 6700TIP3    H220065   3.129   1.801   3.898  2.8978  3.7278  0.9846
 6701TIP3   OH220066   6.355   1.188   2.018  0.3504  0.2756 -0.2115
 6701TIP3    H120067   6.261   1.172   2.029 -0.3119  3.4713 -0.1649
 6701TIP3    H220068   6.392   1.174   2.106 -0.1490 -0.5274 -0.1195
 6702TIP3   OH220069   2.931   3.027   5.495 -0.2902 -0.2758  0.1872
 6702TIP3    H120070   2.855   2.970   5.483  0.9772 -2.1994  0.6532
 6702TIP3    H220071   3.005   2.966   5.506  1.2153  1.4883  0.4434
 6703TIP3   OH220072   6.205   1.519   3.528  0.2726 -0.0028 -0.5890
 6703TIP3    H120073   6.207   1.599   3.582 -1.3081 -0.1015 -0.3439
 6703TIP3    H220074   6.131   1.469   3.562  0.2846 -0.8527 -1.7690
 6704TIP3   OH220075   0.475   0.301   5.647  0.1823 -0.4754 -0.5011
 6704TIP3    H120076   0.536   0.358   5.600  0.6517  0.6394  1.3418
 6704TIP3    H220077   0.389   0.338   5.628  0.4081  0.2833 -0.1119
 6705TIP3   OH220078   0.851   2.181   4.463  0.2716 -0.1878 -0.5136
 6705TIP3    H120079   0.907   2.241   4.413  0.0453  0.4922  0.0222
 6705TIP3    H220080   0.904   2.102   4.473  0.7459  0.0760 -0.8734
 6706TIP3   OH220081   1.841   0.390   5.034 -0.2398  0.1492  0.3509
 6706TIP3    H120082   1.822   0.483   5.047 -2.3025  0.0557 -1.4180
 6706TIP3    H220083   1.881   0.385   4.947  0.0426 -0.6133  0.5104
 6707TIP3   OH220084   0.529   4.256   0.797  0.1409  0.6218  0.0785
 6707TIP3    H120085   0.436   4.279   0.805 -0.1503 -0.2647 -0.5071
 6707TIP3    H220086   0.529   4.178   0.740  1.4403  2.2925 -2.3798
 6708TIP3   OH220087   4.662   3.761   3.265  0.1116  0.2038 -0.0771
 6708TIP3    H120088   4.667   3.788   3.357 -0.1660  1.4877 -0.4165
 6708TIP3    H220089   4.658   3.666   3.268 -1.0610  0.2612  1.3045
 6709TIP3   OH220090   0.537   5.512   1.844  0.4283  0.3761  0.7592
 6709TIP3    H120091   0.559   5.427   1.882  0.3286  0.6295  1.3966
 6709TIP3    H220092   0.579   5.576   1.901  1.7599  0.7314 -0.5619
 6710TIP3   OH220093   3.357   1.404   4.994 -0.0711  0.5258  0.1292
 6710TIP3    H120094   3.451   1.401   5.011 -0.0387 -1.6746 -0.1810
 6710TIP3    H220095   3.350   1.403   4.899 -0.4099  0.1194  0.1584
 6711TIP3   OH220096   3.720   4.319   4.224  0.4694  0.6734 -0.0892
 6711TIP3    H120097   3.738   4.379   4.152  0.5322  1.1364  0.3034
 6711TIP3    H220098   3.746   4.367   4.302  1.1612 -0.1244  0.1888
 6712TIP3   OH220099   3.999   1.738   3.548 -0.0514 -0.0045 -0.3718
 6712TIP3    H120100   3.957   1.672   3.493 -0.0675  1.0517 -1.7061
 6712TIP3    H220101   4.014   1.695   3.631  1.8443 -2.3862 -1.8130
 6713TIP3   OH220102   7.146   1.904   4.249 -0.2246 -0.3814  0.3039
 6713TIP3    H120103   7.228   1.886   4.203 -1.0285  0.8928 -1.8043
 6713TIP3    H220104   7.083   1.841   4.213 -0.6182 -0.0791  0.4485
 6714TIP3   OH220105   7.063   5.602   0.991 -0.0175 -0.5372 -0.2304
 6714TIP3    H120106   7.055   5.509   1.009 -1.8019 -0.5604 -0.9454
 6714TIP3    H220107   7.036   5.644   1.073 -1.3254 -0.6639 -0.5772
 6715TIP3   OH220108   6.686   2.028   0.803  0.6945  0.0074  0.4392
 6715TIP3    H120109   6.664   2.069   0.886 -1.4509  1.0160 -0.5457
 6715TIP3    H220110   6.602   2.018   0.757  1.6184 -1.8854 -1.0155
 6716TIP3   OH220111   4.812   4.328   4.339 -0.2975 -0.0392 -0.0611
 6716TIP3    H120112   4.885   4.348   4.397 -1.9916 -0.8357  2.5017
 6716TIP3    H220113   4.755   4.405   4.345 -0.5337 -0.1625 -0.6422
 6717TIP3   OH220114   2.361   3.523   1.220  0.3921  0.0911  0.2084
 6717TIP3    H120115   2.326   3.512   1.132 -0.0107  2.8494 -0.0816
 6717TIP3    H220116   2.362   3.618   1.233  0.5738 -0.2247  3.1324
 6718TIP3   OH220117   1.285   3.326   1.529  0.0039  0.3890 -0.0932
 6718TIP3    H120118   1.294   3.231   1.519  1.3642  0.1324  2.6166
 6718TIP3    H220119   1.324   3.362   1.449 -0.0674 -1.3027 -0.9419
 6719TIP3   OH220120   6.658   1.779   0.580 -0.1525 -0.4348 -0.4379
 6719TIP3    H120121   6.681   1.828   0.501  1.6347 -1.6660 -0.7334
 6719TIP3    H220122   6.672   1.841   0.651 -0.9875  0.4336 -1.0002
 6720TIP3   OH220123   4.760   1.630   5.064 -0.0345  0.1720  0.2622
 6720TIP3    H120124   4.668   1.626   5.091  0.0460  1.6413  0.8534
 6720TIP3    H220125   4.810   1.619   5.145  0.2807  0.3764  0.0987
 6721TIP3   OH220126   1.592   6.168   1.198  0.0756 -0.2536 -0.0869
 6721TIP3    H120127   1.531   6.124   1.258 -0.1605 -0.6410 -0.5986
 6721TIP3    H220128   1.674   6.120   1.208 -0.0507 -0.5208 -0.2922
 6722TIP3   OH220129   1.471   5.935   0.428  0.2429  0.4211  0.0315
 6722TIP3    H120130   1.436   5.891   0.350  1.0927  3.7697 -2.4523
 6722TIP3    H220131   1.397   5.984   0.463 -0.0037 -0.6652  1.1009
 6723TIP3   OH220132   4.321   2.968   0.210 -0.6926 -0.1861  1.0574
 6723TIP3    H120133   4.266   3.005   0.141  0.5863  0.9083  0.5654
 6723TIP3    H220134   4.326   2.875   0.190  0.2005  0.2076 -0.7559
 6724TIP3   OH220135   5.760   0.605   4.761  0.1447  0.6361  0.8460
 6724TIP3    H120136   5.853   0.621   4.775  0.0901  0.5264  1.3488
 6724TIP3    H220137   5.747   0.515   4.792  0.0214  0.3855  0.0705
 6725TIP3   OH220138   5.464   1.070   4.109  0.9915 -0.1051 -0.3536
 6725TIP3    H120139   5.396   1.007   4.133  1.0059 -0.2508 -0.6919
 6725TIP3    H220140   5.470   1.128   4.184  0.7629 -0.3241 -0.1631
 6726TIP3   OH220141   1.290   5.513   1.915  0.5136 -0.1394 -0.1761
 6726TIP3    H120142   1.240   5.522   1.997 -0.7095 -1.5853 -0.7156
 6726TIP3    H220143   1.260   5.587   1.862  0.6835  0.3252  0.3629
 6727TIP3   OH220144   4.087   3.207   2.732 -0.2792 -0.0997 -0.1101
 6727TIP3    H120145   4.020   3.208   2.801  1.6582 -1.2359  1.9572
 6727TIP3    H220146   4.125   3.295   2.734  0.3991 -0.3907  1.0244
 6728TIP3   OH220147   5.335   0.438   5.581 -0.4185  0.0333 -0.5127
 6728TIP3    H120148   5.403   0.372   5.590  0.1017  0.7014  0.7994
 6728TIP3    H220149   5.289   0.415   5.500 -1.2271 -2.8310  0.6104
 6729TIP3   OH220150   2.137   3.488   1.971  0.4166  0.4275  0.3589
 6729TIP3    H120151   2.187   3.481   1.890  1.6397 -3.6335  1.2087
 6729TIP3    H220152   2.063   3.428   1.959 -0.2049  0.8642  1.7322
 6730TIP3   OH220153   1.727   2.227   3.883 -0.7822 -0.0662 -0.2018
 6730TIP3    H120154   1.782   2.151   3.900  0.2244  0.6105 -0.3416
 6730TIP3    H220155   1.642   2.203   3.919 -0.6277 -1.4410 -0.6650
 6731TIP3   OH220156   5.177   3.988   0.416  0.3890 -0.0690 -0.6404
 6731TIP3    H120157   5.246   4.016   0.477 -0.2394 -0.6946  0.3895
 6731TIP3    H220158   5.182   4.051   0.344 -0.8362  2.6015  1.4517
 6732TIP3   OH220159   0.646   4.153   1.593 -0.7884 -0.3244 -0.4054
 6732TIP3    H120160   0.626   4.159   1.499 -0.6543  1.0553 -0.3645
 6732TIP3    H220161   0.602   4.073   1.622 -0.1613 -1.2074 -1.8077
 6733TIP3   OH220162   2.260   5.286   2.746 -0.8511 -0.1035 -0.1177
 6733TIP3    H120163   2.327   5.281   2.814 -1.4787  0.7662  0.5965
 6733TIP3    H220164   2.262   5.377   2.716 -0.6079 -0.4657 -1.2556
 6734TIP3   OH220165   0.388   2.834   5.331 -0.0214 -0.0989 -0.1861
 6734TIP3    H120166   0.410   2.924   5.308  0.2385 -0.2491 -0.5411
 6734TIP3    H220167   0.463   2.782   5.302 -0.5766 -0.5462 -0.8649
 6735TIP3   OH220168   3.844   1.086   5.176  0.3159  0.1018  0.3137
 6735TIP3    H120169   3.871   1.138   5.252 -0.2662  1.9912 -0.7000
 6735TIP3    H220170   3.926   1.064   5.132  0.6057 -0.3069  1.0489
 6736TIP3   OH220171   5.817   3.248   2.595  0.5417 -0.3203  0.0501
 6736TIP3    H120172   5.909   3.247   2.568  1.0493 -0.0701  1.6335
 6736TIP3    H220173   5.817   3.300   2.675 -1.0955  0.2034 -0.2632
 6737TIP3   OH220174   3.250   6.646   4.127  0.0205  0.1561  0.2282
 6737TIP3    H120175   3.291   6.723   4.166  0.7136 -0.5471  0.9343
 6737TIP3    H220176   3.169   6.635   4.176 -0.9163  1.3809 -0.9783
 6738TIP3   OH220177   2.516   2.685   5.535  0.0619  0.1771 -0.3849
 6738TIP3    H120178   2.439   2.740   5.551  0.5819  0.4118  1.4774
 6738TIP3    H220179   2.496   2.602   5.579  1.5623  0.8531  1.7036
 6739TIP3   OH220180   4.367   3.459   1.411 -0.1367 -0.5054  0.0984
 6739TIP3    H120181   4.383   3.539   1.360  0.6198 -1.8327 -1.8793
 6739TIP3    H220182   4.276   3.436   1.393 -0.7769  0.5480  1.7211
 6740TIP3   OH220183   0.479   2.109   1.002 -0.2736  0.6435  0.2611
 6740TIP3    H120184   0.456   2.027   1.045  1.3401  0.8017  1.5512
 6740TIP3    H220185   0.405   2.128   0.945 -1.6032 -0.6402  1.4628
 6741TIP3   OH220186   2.970   4.935   3.057 -0.2119 -0.0745 -0.0014
 6741TIP3    H120187   2.892   4.897   3.016  1.2580 -1.1636 -1.9955
 6741TIP3    H220188   2.982   4.883   3.136 -0.3386 -1.3406 -0.7779
 6742TIP3   OH220189   0.703   5.057   4.774  0.2302 -0.7016  0.3076
 6742TIP3    H120190   0.617   5.041   4.736  0.2976 -2.0516  0.6726
 6742TIP3    H220191   0.760   4.991   4.734  1.2749  0.6205 -0.4714
 6743TIP3   OH220192   0.245   6.555   4.127 -0.4340  0.3782  0.0464
 6743TIP3    H120193   0.221   6.539   4.218  1.2925  2.1243  0.8815
 6743TIP3    H220194   0.307   6.484   4.105 -0.4211  0.2744  0.4166
 6744TIP3   OH220195   1.885   4.212   3.403 -1.1474  0.5115 -0.5367
 6744TIP3    H120196   1.839   4.207   3.319 -2.7780 -2.8938  0.3723
 6744TIP3    H220197   1.928   4.127   3.411  1.9236  2.0460  0.6045
 6745TIP3   OH220198   6.168   0.662   1.628 -0.1905  0.7850  0.1742
 6745TIP3    H120199   6.251   0.675   1.673 -0.0177  1.1482 -0.2480
 6745TIP3    H220200   6.190   0.614   1.548 -0.4518  0.4437  0.3028
 6746TIP3   OH220201   5.628   4.967   4.482  0.0185 -0.5544  0.2874
 6746TIP3    H120202   5.573   5.044   4.496 -0.1694 -0.8223  1.0279
 6746TIP3    H220203   5.624   4.952   4.388 -0.8534 -0.3363  0.2852
 6747TIP3   OH220204   3.255   4.871   4.475 -0.0549 -0.3796 -0.0229
 6747TIP3    H120205   3.349   4.862   4.492 -0.1301  0.3468  0.8538
 6747TIP3    H220206   3.231   4.790   4.430  1.0004 -0.5414 -0.3238
 6748TIP3   OH220207   0.056   3.766   3.798 -0.5200 -0.2170  0.5936
 6748TIP3    H120208   0.144   3.775   3.833 -0.3284  1.0183 -0.1587
 6748TIP3    H220209   0.009   3.843   3.830 -0.7092  0.2489 -0.7557
 6749TIP3   OH220210   3.684   4.725   5.213 -0.5118  0.2404  0.0011
 6749TIP3    H120211   3.765   4.746   5.166 -1.7236  0.4224 -2.1327
 6749TIP3    H220212   3.667   4.802   5.268 -1.4869  2.2389 -2.8623
 6750TIP3   OH220213   2.602   3.504   3.223  0.2679  0.0368 -0.0086
 6750TIP3    H120214   2.652   3.579   3.191  0.6814  0.3870  1.3668
 6750TIP3    H220215   2.599   3.443   3.149  2.3133  0.2142 -0.2914
 6751TIP3   OH220216   0.871   6.525   5.210  0.4562  0.1012 -0.1469
 6751TIP3    H120217   0.830   6.610   5.195 -0.8165 -0.2567  1.1029
 6751TIP3    H220218   0.802   6.462   5.193  0.6203 -0.5441  1.3844
 6752TIP3   OH220219   6.834   4.060   4.008 -0.2761  0.4703  0.4113
 6752TIP3    H120220   6.928   4.046   4.017 -0.5162 -0.8259  1.2135
 6752TIP3    H220221   6.824   4.154   3.997  1.0560  0.7269  1.1906
 6753TIP3   OH220222   1.909   4.281   1.961 -0.0446 -0.0462 -0.0960
 6753TIP3    H120223   1.910   4.368   2.000  4.1111 -0.0134  0.1973
 6753TIP3    H220224   1.854   4.291   1.883  0.1374  2.7792  0.0173
 6754TIP3   OH220225   4.916   4.663   4.951  0.7347  0.0606 -0.2810
 6754TIP3    H120226   4.869   4.738   4.916  0.4016  0.5634  1.2059
 6754TIP3    H220227   4.889   4.590   4.895  0.4278  0.8681 -1.2192
 6755TIP3   OH220228   6.670   2.579   2.632 -0.2499 -0.5208  0.0357
 6755TIP3    H120229   6.579   2.595   2.604  0.4461  2.5770 -0.8921
 6755TIP3    H220230   6.722   2.595   2.553  1.1984 -0.9852  0.8566
 6756TIP3   OH220231   2.250   6.539   0.503 -0.4679 -0.2128  0.5193
 6756TIP3    H120232   2.182   6.599   0.473 -0.2772 -0.8608 -1.2966
 6756TIP3    H220233   2.211   6.494   0.578 -2.5383 -1.4616 -1.2100
 6757TIP3   OH220234   6.491   3.398   5.620  0.1877 -0.3688 -0.0559
 6757TIP3    H120235   6.443   3.436   5.546  0.9479 -0.5068 -0.6289
 6757TIP3    H220236   6.526   3.475   5.667 -0.8669 -0.2549  0.5616
 6758TIP3   OH220237   5.026   1.430   1.559  0.4187 -0.0060  0.3111
 6758TIP3    H120238   4.995   1.461   1.474  1.2946  1.1134  0.3807
 6758TIP3    H220239   4.995   1.494   1.622 -3.3255 -2.6193  1.4468
 6759TIP3   OH220240   4.729   5.722   0.086  0.1101  0.3824 -0.1345
 6759TIP3    H120241   4.811   5.684   0.053 -0.2916 -0.4741 -0.1556
 6759TIP3    H220242   4.749   5.746   0.176 -0.1521 -1.5958  0.4977
 6760TIP3   OH220243   2.862   4.094   3.754 -0.6618 -0.0243 -0.3075
 6760TIP3    H120244   2.879   4.004   3.725  1.1909 -0.3990  1.7061
 6760TIP3    H220245   2.888   4.095   3.846  1.0198  2.9788 -0.6899
 6761TIP3   OH220246   3.343   2.558   1.454  0.5499 -0.3442  0.1076
 6761TIP3    H120247   3.265   2.612   1.444  0.9575  0.2272  0.0048
 6761TIP3    H220248   3.321   2.498   1.525  0.3526  0.4191  0.7007
 6762TIP3   OH220249   2.974   1.326   0.852  0.3492  0.0149  0.0108
 6762TIP3    H120250   2.929   1.361   0.929  0.1933 -1.1946  0.4905
 6762TIP3    H220251   2.925   1.360   0.778  0.2951  0.9212  0.4465
 6763TIP3   OH220252   4.215   3.738   1.884 -0.5211  0.5193  0.3490
 6763TIP3    H120253   4.310   3.729   1.871 -0.5076  1.0898  0.0464
 6763TIP3    H220254   4.186   3.796   1.814 -1.5776 -1.9938 -1.4238
 6764TIP3   OH220255   4.899   0.144   1.226 -0.2536  0.2263  0.0812
 6764TIP3    H120256   4.914   0.089   1.149  0.1506 -2.2793  1.8578
 6764TIP3    H220257   4.980   0.138   1.276 -0.5258  1.7964  0.7549
 6765TIP3   OH220258   5.590   3.372   4.962 -0.1795  0.1026  0.3916
 6765TIP3    H120259   5.572   3.279   4.970  1.4960 -0.2559  0.3251
 6765TIP3    H220260   5.520   3.414   5.013 -1.0643 -1.1576  0.2697
 6766TIP3   OH220261   0.673   4.134   1.890 -0.1731  0.4818  0.0170
 6766TIP3    H120262   0.639   4.223   1.875  0.3221  0.4470 -1.5232
 6766TIP3    H220263   0.691   4.101   1.802  1.7171 -0.3426  0.6757
 6767TIP3   OH220264   2.113   1.852   4.942 -0.3933  0.2452  0.6265
 6767TIP3    H120265   2.177   1.921   4.958  0.0324  0.1351 -0.5256
 6767TIP3    H220266   2.071   1.877   4.859 -0.3311 -0.8007  0.2692
 6768TIP3   OH220267   1.863   3.839   0.863 -0.0454  0.1949  0.0615
 6768TIP3    H120268   1.920   3.824   0.788  1.4730 -0.4390  1.2667
 6768TIP3    H220269   1.880   3.764   0.920 -0.9334  0.8015  1.1559
 6769TIP3   OH220270   2.678   5.755   2.219  0.2573 -0.2815  0.7944
 6769TIP3    H120271   2.767   5.768   2.254  0.8785  0.0665 -0.8207
 6769TIP3    H220272   2.665   5.661   2.221  0.7258 -0.3471  0.9036
 6770TIP3   OH220273   6.844   3.899   2.523 -0.0121 -0.2044  0.3339
 6770TIP3    H120274   6.910   3.842   2.563 -0.0858 -0.0167  0.7301
 6770TIP3    H220275   6.794   3.933   2.598  0.9808  1.5763  0.2574
 6771TIP3   OH220276   0.487   1.331   0.411  0.2459  0.1577  0.2829
 6771TIP3    H120277   0.443   1.314   0.494  1.3958  2.3148  1.4014
 6771TIP3    H220278   0.425   1.386   0.362 -0.0704 -0.3939  0.0546
 6772TIP3   OH220279   1.064   2.309   2.778 -0.3496  0.3863  0.3135
 6772TIP3    H120280   1.076   2.240   2.712 -0.3692  1.8107 -1.2380
 6772TIP3    H220281   1.136   2.295   2.840  0.6015 -0.0726 -0.8428
 6773TIP3   OH220282   4.262   2.253   1.946  0.7339 -0.1505  0.5097
 6773TIP3    H120283   4.218   2.269   2.029  2.5653  3.5756  0.9742
 6773TIP3    H220284   4.319   2.178   1.963 -0.0400 -0.4018  2.1431
 6774TIP3   OH220285   2.555   4.797   1.386 -0.3003  0.2028  0.0336
 6774TIP3    H120286   2.509   4.733   1.441  0.4597 -0.3123  0.0761
 6774TIP3    H220287   2.601   4.744   1.320  0.5137  0.6845  0.2021
 6775TIP3   OH220288   1.897   4.412   0.242 -0.4059  0.6431  0.3844
 6775TIP3    H120289   1.916   4.318   0.246 -1.6329  0.2826 -1.4664
 6775TIP3    H220290   1.976   4.453   0.278  0.5768 -1.0518  0.2784
 6776TIP3   OH220291   1.829   1.853   1.796  0.5548  0.9939 -0.0482
 6776TIP3    H120292   1.820   1.887   1.885  0.4727  2.1075 -0.4579
 6776TIP3    H220293   1.871   1.925   1.748  0.8090  0.3190 -0.8505
 6777TIP3   OH220294   5.149   0.409   1.559  0.1029 -0.0882  0.5702
 6777TIP3    H120295   5.171   0.500   1.581 -1.6938  1.1015 -2.0390
 6777TIP3    H220296   5.075   0.416   1.499  0.4324 -3.2689 -0.3898
 6778TIP3   OH220297   0.916   2.821   0.807  0.3043 -0.1243 -0.7435
 6778TIP3    H120298   0.870   2.843   0.888  1.0217 -1.6924  0.1322
 6778TIP3    H220299   0.847   2.799   0.745 -0.2093 -0.3449 -0.1054
 6779TIP3   OH220300   1.747   6.240   2.961 -0.0928 -0.4767 -0.6098
 6779TIP3    H120301   1.701   6.285   2.890 -2.3117 -2.0283 -0.2335
 6779TIP3    H220302   1.785   6.162   2.920  0.2987 -0.3646 -0.4671
 6780TIP3   OH220303   4.980   5.284   2.599 -0.1496  0.0113 -0.4268
 6780TIP3    H120304   4.911   5.238   2.646  1.8019 -1.3796  1.2438
 6780TIP3    H220305   5.060   5.265   2.648  1.3498  2.1576 -1.8370
 6781TIP3   OH220306   0.461   0.083   3.585  0.4729 -0.7988  0.0129
 6781TIP3    H120307   0.497   0.012   3.532 -0.1956 -1.4967  0.4675
 6781TIP3    H220308   0.452   0.156   3.524 -0.0030 -1.4985 -0.7771
 6782TIP3   OH220309   4.663   5.078   3.371  0.1896  0.1645  0.3182
 6782TIP3    H120310   4.597   5.025   3.325  0.6769  0.2159 -0.4543
 6782TIP3    H220311   4.646   5.061   3.464  0.4227 -1.4579  0.0945
 6783TIP3   OH220312   0.411   2.937   4.075  0.0405  0.5600 -0.0905
 6783TIP3    H120313   0.349   2.870   4.046  0.4483  0.3065 -0.3980
 6783TIP3    H220314   0.471   2.890   4.133  0.1067  0.7412 -0.0123
 6784TIP3   OH220315   4.188   0.433   0.715 -0.3300  0.1696 -0.4064
 6784TIP3    H120316   4.120   0.494   0.688  1.2491  1.1946 -2.2848
 6784TIP3    H220317   4.244   0.423   0.638  1.5011 -0.8240  0.9722
 6785TIP3   OH220318   2.024   0.587   0.101  0.0371 -0.3992 -0.2278
 6785TIP3    H120319   2.117   0.575   0.120 -0.1174 -0.5730  0.4506
 6785TIP3    H220320   1.987   0.622   0.182 -0.5822 -0.8014 -0.3293
 6786TIP3   OH220321   4.618   0.927   2.331 -0.4291  0.2668 -0.1407
 6786TIP3    H120322   4.551   0.858   2.332 -0.0030 -0.1655 -0.7088
 6786TIP3    H220323   4.587   0.989   2.265 -1.3599  1.1996  1.1167
 6787TIP3   OH220324   0.897   6.408   0.159  0.3780 -0.0943  0.8629
 6787TIP3    H120325   0.813   6.370   0.184  1.5163 -1.3440  3.1217
 6787TIP3    H220326   0.913   6.376   0.070  0.1051 -2.9379  1.7508
 6788TIP3   OH220327   4.312   4.018   3.059  0.1114 -0.1801 -0.5032
 6788TIP3    H120328   4.325   4.033   3.152  0.0036  1.4867 -0.7289
 6788TIP3    H220329   4.218   4.030   3.045 -0.5754 -3.9600 -0.2932
 6789TIP3   OH220330   0.576   1.812   0.883  0.1362  0.3225  0.2069
 6789TIP3    H120331   0.483   1.794   0.891  0.3747 -0.6814  1.0154
 6789TIP3    H220332   0.582   1.907   0.880 -0.9453  0.3876 -0.4353
 6790TIP3   OH220333   0.166   5.601   5.685 -0.2244  0.1826  0.1817
 6790TIP3    H120334   0.181   5.573   5.595  1.2161  0.6073  0.2651
 6790TIP3    H220335   0.211   5.536   5.739  2.0716  1.8091  0.4170
 6791TIP3   OH220336   6.318   6.765   4.220  0.6192  0.0731 -0.1208
 6791TIP3    H120337   6.259   6.751   4.146  2.2835 -1.3691 -1.2318
 6791TIP3    H220338   6.356   6.679   4.238  0.8556  0.5422  1.9381
 6792TIP3   OH220339   5.711   1.142   0.720  0.9240 -0.1720 -0.1591
 6792TIP3    H120340   5.699   1.061   0.670 -1.1868 -1.0818  1.6332
 6792TIP3    H220341   5.633   1.194   0.700 -0.0427 -0.6071  2.1199
 6793TIP3   OH220342   4.419   2.358   1.069 -0.0450 -0.1269  0.4079
 6793TIP3    H120343   4.410   2.432   1.009  2.6690  0.5958  0.7284
 6793TIP3    H220344   4.454   2.288   1.015  1.4802  0.2231  0.8910
 6794TIP3   OH220345   5.821   5.466   0.101 -0.5692 -1.0939  0.4258
 6794TIP3    H120346   5.871   5.536   0.060 -1.7096  0.1519  1.1061
 6794TIP3    H220347   5.868   5.448   0.182 -0.2752 -1.1415  0.2496
 6795TIP3   OH220348   1.842   2.184   3.591 -0.1923  0.2639 -0.7685
 6795TIP3    H120349   1.813   2.257   3.535  0.9717  1.1602 -0.2479
 6795TIP3    H220350   1.789   2.192   3.670 -0.8185 -0.1260 -1.1350
 6796TIP3   OH220351   4.864   6.561   0.767 -0.6037 -0.1807 -0.0155
 6796TIP3    H120352   4.846   6.640   0.817 -1.4876 -0.2799 -0.1718
 6796TIP3    H220353   4.958   6.566   0.748 -0.5765  0.6346  0.3012
 6797TIP3   OH220354   6.434   5.797   0.757 -0.7852  0.2913  1.1650
 6797TIP3    H120355   6.451   5.885   0.724  0.3301 -0.4919 -0.4929
 6797TIP3    H220356   6.364   5.808   0.821 -0.1326  2.4797  1.5794
 6798TIP3   OH220357   0.977   2.709   3.484  0.1577 -0.7184 -0.0077
 6798TIP3    H120358   1.007   2.727   3.573  0.7704 -1.3626 -0.0754
 6798TIP3    H220359   0.944   2.793   3.452 -0.3220 -0.5440  0.9238
 6799TIP3   OH220360   7.085   0.677   4.936 -0.6085 -0.2257  0.3081
 6799TIP3    H120361   7.166   0.727   4.948 -0.3045 -0.8333  0.8754
 6799TIP3    H220362   7.024   0.716   4.999 -0.7442  0.1853 -0.0691
 6800TIP3   OH220363   2.672   5.286   2.657 -0.1362 -0.3563 -0.7598
 6800TIP3    H120364   2.742   5.284   2.591 -0.5426  1.1509 -1.2797
 6800TIP3    H220365   2.717   5.296   2.740  0.3492 -1.5556 -0.8572
 6801TIP3   OH220366   4.236   3.408   5.455  0.1285 -0.1195 -0.2462
 6801TIP3    H120367   4.281   3.434   5.375  1.7650  1.1511  1.0175
 6801TIP3    H220368   4.170   3.345   5.426  0.1236  0.8887 -2.6780
 6802TIP3   OH220369   6.606   3.971   1.212  0.2295 -0.7050 -0.1794
 6802TIP3    H120370   6.540   3.944   1.149  1.1025  0.0508 -1.4793
 6802TIP3    H220371   6.603   4.067   1.211  0.5553 -0.6784  0.6026
 6803TIP3   OH220372   2.079   5.891   5.191 -0.1720 -0.6668  0.2646
 6803TIP3    H120373   2.046   5.814   5.238 -1.6538 -0.8070 -0.9352
 6803TIP3    H220374   2.000   5.942   5.171  0.6324  0.3663 -0.3562
 6804TIP3   OH220375   5.398   1.149   2.068 -0.3524  0.0299 -0.2547
 6804TIP3    H120376   5.336   1.166   2.139  0.8868  0.7947  0.6670
 6804TIP3    H220377   5.466   1.095   2.107 -1.4737 -2.7476 -1.8074
 6805TIP3   OH220378   3.050   4.830   1.053 -0.3118 -0.3329 -0.0182
 6805TIP3    H120379   3.040   4.736   1.068 -0.4706 -0.1294  1.2967
 6805TIP3    H220380   3.048   4.868   1.141  1.5603  0.7425 -0.4075
 6806TIP3   OH220381   5.043   0.953   2.940 -0.2271 -0.1562 -0.3456
 6806TIP3    H120382   5.091   0.940   2.858  0.2771  1.7485 -0.3886
 6806TIP3    H220383   4.967   1.006   2.915  0.4692  1.3194  0.5530
 6807TIP3   OH220384   6.875   1.569   1.377 -0.1046  0.9853  0.1230
 6807TIP3    H120385   6.929   1.612   1.311 -0.4797  1.9054  0.3890
 6807TIP3    H220386   6.931   1.502   1.415 -0.5059 -0.9453 -2.4842
 6808TIP3   OH220387   1.065   1.977   1.666  0.1784  0.8290  0.7148
 6808TIP3    H120388   1.123   2.014   1.733  0.4794  1.2194  0.2461
 6808TIP3    H220389   1.038   1.893   1.702  1.2533  0.5116  0.8324
 6809TIP3   OH220390   6.607   5.391   5.690 -0.2163  0.1807  0.2083
 6809TIP3    H120391   6.669   5.401   5.763 -1.1440 -0.8844  1.1650
 6809TIP3    H220392   6.593   5.297   5.683 -1.1901  0.3680 -0.4579
 6810TIP3   OH220393   6.952   6.153   2.412 -0.2715  0.1873  0.1141
 6810TIP3    H120394   6.971   6.102   2.334  0.4335  0.3316  0.1879
 6810TIP3    H220395   6.931   6.241   2.380 -0.1440  0.2033  0.0739
 6811TIP3   OH220396   4.993   5.404   5.393  0.2894 -0.0981  0.4960
 6811TIP3    H120397   4.986   5.382   5.300 -1.7597  0.4442  0.4653
 6811TIP3    H220398   5.010   5.320   5.437 -1.6972 -0.8975 -0.1378
 6812TIP3   OH220399   2.708   4.423   0.393 -0.4213 -0.0880 -0.8859
 6812TIP3    H120400   2.743   4.494   0.446 -0.0423  1.7003 -3.3400
 6812TIP3    H220401   2.652   4.373   0.453  1.0438  0.9350  1.4650
 6813TIP3   OH220402   5.119   4.253   1.853  0.1105 -0.1306 -0.2244
 6813TIP3    H120403   5.210   4.227   1.870  0.0394  0.5651  1.3541
 6813TIP3    H220404   5.128   4.335   1.804  0.3072 -0.9725 -1.6687
 6814TIP3   OH220405   5.796   1.883   2.055 -0.1538  0.2534  0.1697
 6814TIP3    H120406   5.743   1.962   2.044  1.3201  1.6105  2.0303
 6814TIP3    H220407   5.778   1.830   1.977 -2.0270  1.9162 -0.6061
 6815TIP3   OH220408   5.569   6.104   1.731  0.0228 -0.0036 -0.1016
 6815TIP3    H120409   5.534   6.031   1.781 -0.2174 -0.3677 -0.7773
 6815TIP3    H220410   5.664   6.099   1.743 -0.0273 -0.1572  0.2167
 6816TIP3   OH220411   6.429   3.577   3.569 -0.4110 -0.0149  0.4227
 6816TIP3    H120412   6.464   3.578   3.658 -0.2226 -0.7738  0.3658
 6816TIP3    H220413   6.494   3.624   3.517 -0.0830 -0.3265  0.5425
 6817TIP3   OH220414   3.110   6.341   3.302 -0.0776  0.4947  0.3782
 6817TIP3    H120415   3.061   6.405   3.249 -1.5698  0.0036  1.1043
 6817TIP3    H220416   3.074   6.351   3.390  0.9585 -0.0913  0.8776
 6818TIP3   OH220417   3.922   4.636   1.138  0.4367  0.6323 -0.1147
 6818TIP3    H120418   3.989   4.662   1.075  0.3405  1.5132  0.1228
 6818TIP3    H220419   3.947   4.548   1.165  0.0073 -0.1109 -1.9954
 6819TIP3   OH220420   5.784   5.735   1.331 -0.1370 -0.2189  0.1191
 6819TIP3    H120421   5.698   5.746   1.371  0.2063  0.4474  0.6876
 6819TIP3    H220422   5.766   5.722   1.238 -0.8199  0.6662  0.1199
 6820TIP3   OH220423   6.103   0.799   2.070 -0.1242  0.1001  0.1662
 6820TIP3    H120424   6.019   0.767   2.103 -0.0353 -0.1311  0.1748
 6820TIP3    H220425   6.168   0.749   2.120  0.0561  1.5423  1.4639
 6821TIP3   OH220426   4.396   1.809   2.138  0.8985  0.2281 -0.0130
 6821TIP3    H120427   4.391   1.777   2.048  2.8373  1.7996 -0.7601
 6821TIP3    H220428   4.489   1.806   2.161  0.6329  1.2197  1.3925
 6822TIP3   OH220429   0.386   5.878   2.726 -0.8520  0.6340  0.2732
 6822TIP3    H120430   0.349   5.911   2.644 -0.7224 -1.1337 -0.5317
 6822TIP3    H220431   0.468   5.926   2.735 -2.0268  2.6832  0.7216
 6823TIP3   OH220432   0.329   5.988   5.791  0.1558  0.3822  0.2212
 6823TIP3    H120433   0.415   6.027   5.812 -0.2438  0.6891  1.3588
 6823TIP3    H220434   0.324   5.910   5.846 -0.7007  0.9113  0.9195
 6824TIP3   OH220435   6.566   4.621   4.992 -0.6900  0.3238 -0.1644
 6824TIP3    H120436   6.533   4.595   4.906 -0.5148 -1.9514  0.3828
 6824TIP3    H220437   6.491   4.664   5.034 -0.7440  1.5537 -1.4611
 6825TIP3   OH220438   5.543   2.963   1.260  0.4530 -0.1684 -0.1691
 6825TIP3    H120439   5.480   3.012   1.207 -1.2606  1.0692  2.7597
 6825TIP3    H220440   5.491   2.899   1.307  1.7968 -0.8515  0.4499
 6826TIP3   OH220441   2.297   5.998   3.858 -0.4265  0.2306  0.6939
 6826TIP3    H120442   2.271   5.911   3.887 -0.7348 -0.0326 -0.3268
 6826TIP3    H220443   2.342   5.984   3.775 -0.3651  1.0349  0.5783
 6827TIP3   OH220444   2.726   2.228   5.327 -0.6746 -0.6836 -0.2841
 6827TIP3    H120445   2.717   2.268   5.413  1.5101  0.3373 -0.4522
 6827TIP3    H220446   2.639   2.193   5.307 -1.5503  0.1681  1.7610
 6828TIP3   OH220447   0.386   3.523   1.021 -0.4770 -0.6354  0.2857
 6828TIP3    H120448   0.294   3.514   0.998 -0.6689  0.2228  0.6563
 6828TIP3    H220449   0.422   3.434   1.017 -1.5078 -1.0959  0.9087
 6829TIP3   OH220450   4.549   5.185   5.370 -0.0234  0.3284 -0.3566
 6829TIP3    H120451   4.501   5.201   5.451  1.9143  0.4263  0.8308
 6829TIP3    H220452   4.559   5.271   5.330 -3.4137 -0.0088 -2.2464
 6830TIP3   OH220453   3.611   1.103   0.529  0.2663  0.6911 -0.5074
 6830TIP3    H120454   3.591   1.195   0.550  0.3177  0.3961  0.9212
 6830TIP3    H220455   3.614   1.059   0.614  0.4761 -0.5985 -1.1589
 6831TIP3   OH220456   0.144   2.382   4.451  0.4356  0.0028  0.3159
 6831TIP3    H120457   0.080   2.423   4.508  0.6853 -0.1482  0.7106
 6831TIP3    H220458   0.100   2.305   4.415 -1.0045  1.9547 -2.5374
 6832TIP3   OH220459   6.289   2.824   1.778 -0.3232 -0.1925 -0.0922
 6832TIP3    H120460   6.205   2.844   1.735 -0.7844 -0.1730  0.8029
 6832TIP3    H220461   6.352   2.882   1.735 -0.7584 -0.2198 -0.7863
 6833TIP3   OH220462   6.818   4.016   0.473  0.3848  0.6440  0.1708
 6833TIP3    H120463   6.746   4.052   0.421 -0.3129 -0.3691  0.4093
 6833TIP3    H220464   6.782   3.937   0.512  1.6230  0.1452  0.3410
 6834TIP3   OH220465   6.909   3.186   5.116 -0.3673  0.5405 -0.1371
 6834TIP3    H120466   6.863   3.105   5.095  2.7383 -1.7222  0.9643
 6834TIP3    H220467   6.950   3.213   5.034  0.8943 -0.6951  0.0522
 6835TIP3   OH220468   6.754   4.519   5.622  0.2485 -0.1234  0.0589
 6835TIP3    H120469   6.700   4.598   5.610  1.2540  0.6004  0.1834
 6835TIP3    H220470   6.690   4.449   5.633 -0.6831  0.7739  0.6369
 6836TIP3   OH220471   3.115   5.020   3.412  0.6058 -0.1110  0.2788
 6836TIP3    H120472   3.147   5.102   3.376  1.3512 -0.0664  1.0064
 6836TIP3    H220473   3.183   4.993   3.474  1.3142 -2.2316 -1.3052
 6837TIP3   OH220474   3.882   6.115   0.688 -0.2759 -0.2459 -0.6039
 6837TIP3    H120475   3.917   6.112   0.599  0.0776  1.7173 -0.5745
 6837TIP3    H220476   3.955   6.091   0.744  0.2890  1.1210 -0.7135
 6838TIP3   OH220477   6.473   0.961   2.623 -0.4247  0.3968 -0.3260
 6838TIP3    H120478   6.454   0.911   2.544  0.9373  0.8213 -0.9667
 6838TIP3    H220479   6.569   0.962   2.627 -0.4743  0.2548  1.4285
 6839TIP3   OH220480   6.125   1.513   2.016  0.0990 -0.5416  0.5051
 6839TIP3    H120481   6.144   1.430   2.058 -0.2002 -1.1741 -0.5768
 6839TIP3    H220482   6.096   1.490   1.928 -1.4542  0.6198  0.6569
 6840TIP3   OH220483   6.094   4.281   4.988 -0.2779 -0.0594  0.7206
 6840TIP3    H120484   6.160   4.255   4.923 -1.0945 -1.1496  0.2933
 6840TIP3    H220485   6.058   4.198   5.020  0.1222  0.4346  2.6198
 6841TIP3   OH220486   5.276   2.190   1.976 -0.4276 -1.1213 -0.3752
 6841TIP3    H120487   5.348   2.224   1.923 -1.9047  1.7207 -0.7787
 6841TIP3    H220488   5.247   2.111   1.929  0.7204 -0.8224 -1.6712
 6842TIP3   OH220489   6.066   0.983   3.946  0.8816 -0.0273 -0.2231
 6842TIP3    H120490   6.019   1.036   3.881  1.9193  1.3910  0.1538
 6842TIP3    H220491   6.023   1.003   4.029  1.3949  0.3737 -0.0518
 6843TIP3   OH220492   5.497   4.498   5.063  0.7648  0.1501  0.1669
 6843TIP3    H120493   5.412   4.531   5.091 -0.3222 -2.0339 -0.3783
 6843TIP3    H220494   5.510   4.537   4.977  2.1405  3.4434  1.6715
 6844TIP3   OH220495   0.612   0.174   1.423  0.1826 -0.0319 -0.0754
 6844TIP3    H120496   0.563   0.104   1.379  0.7043 -1.1082  0.9844
 6844TIP3    H220497   0.675   0.127   1.479  0.7823  1.2986  0.3958
 6845TIP3   OH220498   5.423   0.479   3.026 -0.2030 -0.3084 -0.2721
 6845TIP3    H120499   5.388   0.401   2.984 -1.9908  1.1556 -1.6810
 6845TIP3    H220500   5.411   0.549   2.962  1.6132  1.1069  0.8050
 6846TIP3   OH220501   7.202   2.357   1.332 -0.3024  0.1546 -0.3447
 6846TIP3    H120502   7.239   2.290   1.275  0.0561  1.4208 -1.6509
 6846TIP3    H220503   7.161   2.420   1.273 -2.3510  0.1205  0.9288
 6847TIP3   OH220504   1.083   0.284   1.480 -0.3966 -0.9185 -0.3176
 6847TIP3    H120505   0.992   0.280   1.511 -1.0044 -1.7639 -2.0999
 6847TIP3    H220506   1.116   0.366   1.514 -2.0536 -0.2696 -0.1845
 6848TIP3   OH220507   0.170   4.316   5.705  0.1398 -0.2389  0.3437
 6848TIP3    H120508   0.230   4.330   5.778  1.9043 -2.1468 -0.6261
 6848TIP3    H220509   0.205   4.369   5.634 -1.7082  1.7990  0.8498
 6849TIP3   OH220510   0.469   6.554   0.088 -0.6015  0.4481  0.6729
 6849TIP3    H120511   0.513   6.504   0.019 -1.0504  2.1169 -0.9136
 6849TIP3    H220512   0.530   6.625   0.107 -1.8961  1.9359 -0.4845
 6850TIP3   OH220513   5.425   4.262   0.733 -0.0294 -0.0396 -0.3225
 6850TIP3    H120514   5.406   4.270   0.827 -1.3555  2.4138 -0.7089
 6850TIP3    H220515   5.505   4.313   0.720 -0.6117  0.8106 -0.6901
 6851TIP3   OH220516   6.129   1.159   5.611  0.1842  0.5311 -0.2037
 6851TIP3    H120517   6.192   1.095   5.644 -0.1465 -0.0294 -0.6468
 6851TIP3    H220518   6.089   1.196   5.690 -1.0830 -1.2819  0.0808
 6852TIP3   OH220519   4.747   2.514   2.924  0.1531  0.7738  0.8624
 6852TIP3    H120520   4.824   2.482   2.970 -0.0710 -0.0093  0.7109
 6852TIP3    H220521   4.714   2.437   2.877 -0.3365  1.2604  0.4035
 6853TIP3   OH220522   3.185   2.076   1.460 -0.0761  0.2735 -0.0903
 6853TIP3    H120523   3.136   2.152   1.429 -0.7851 -0.1905 -0.1344
 6853TIP3    H220524   3.191   2.088   1.554  0.7744  0.9296 -0.2150
 6854TIP3   OH220525   6.994   1.966   3.896  0.1215 -0.2324  0.5826
 6854TIP3    H120526   6.906   2.002   3.907  0.7840  0.8205  3.2528
 6854TIP3    H220527   6.982   1.890   3.840 -2.1823  0.9184 -0.6478
 6855TIP3   OH220528   5.269   6.258   5.428 -0.3504 -0.0183 -0.3502
 6855TIP3    H120529   5.340   6.295   5.481 -0.1085 -0.9463 -0.0104
 6855TIP3    H220530   5.212   6.215   5.492 -2.8114  3.0944 -0.2270
 6856TIP3   OH220531   2.207   3.563   4.461  1.0740 -0.3673 -0.3305
 6856TIP3    H120532   2.115   3.555   4.484  1.3617 -0.4025  0.8855
 6856TIP3    H220533   2.211   3.537   4.369  0.1380 -2.1361  0.0791
 6857TIP3   OH220534   6.546   3.422   2.347  0.1868 -0.1575 -0.0310
 6857TIP3    H120535   6.612   3.476   2.390  1.2129 -0.8272 -0.7063
 6857TIP3    H220536   6.469   3.478   2.341  1.1170  1.1281 -0.4331
 6858TIP3   OH220537   4.588   1.605   5.882 -0.7637 -0.3815 -0.2929
 6858TIP3    H120538   4.676   1.570   5.900  0.3624  1.0912 -2.4212
 6858TIP3    H220539   4.594   1.639   5.793 -3.1715  0.8933 -0.0470
 6859TIP3   OH220540   4.992   2.300   2.722 -0.4265 -0.1231  0.1861
 6859TIP3    H120541   4.927   2.282   2.790 -0.2681  1.0116  0.6747
 6859TIP3    H220542   4.975   2.235   2.655 -1.5185 -0.3902  0.6861
 6860TIP3   OH220543   0.218   2.977   2.706  0.0295 -0.0310 -0.0402
 6860TIP3    H120544   0.212   2.964   2.801 -2.4823  0.7050 -0.0376
 6860TIP3    H220545   0.156   2.914   2.669  1.5741 -0.8927 -1.2995
 6861TIP3   OH220546   0.345   0.869   2.311 -0.3747  0.0464 -0.1443
 6861TIP3    H120547   0.398   0.804   2.356 -0.3414  0.2736  0.1478
 6861TIP3    H220548   0.396   0.893   2.233 -1.5166 -2.1576 -1.6722
 6862TIP3   OH220549   2.412   2.255   4.298 -0.4151 -0.0573  0.1086
 6862TIP3    H120550   2.464   2.209   4.364 -0.4348  2.6281  2.2166
 6862TIP3    H220551   2.471   2.265   4.223  0.3244 -1.4597  0.4712
 6863TIP3   OH220552   3.512   5.980   4.509 -0.3615 -0.6633  0.1297
 6863TIP3    H120553   3.556   6.010   4.589 -0.4253  0.2476 -0.1681
 6863TIP3    H220554   3.510   5.885   4.517  0.1662 -0.6139  0.9339
 6864TIP3   OH220555   6.953   6.178   5.755 -0.5647  0.6720 -0.5164
 6864TIP3    H120556   6.903   6.178   5.837 -0.8995  1.8422 -0.7037
 6864TIP3    H220557   6.890   6.153   5.688  0.0106 -1.6544 -0.3005
 6865TIP3   OH220558   6.138   5.654   0.521 -0.3501  0.1865  1.0491
 6865TIP3    H120559   6.217   5.658   0.574  0.5170 -1.1920 -0.0514
 6865TIP3    H220560   6.077   5.600   0.572  0.9148 -2.1870  0.2094
 6866TIP3   OH220561   3.737   6.384   0.440  0.1988 -0.2620 -0.1446
 6866TIP3    H120562   3.793   6.307   0.445 -0.8907 -1.2252 -1.9884
 6866TIP3    H220563   3.777   6.439   0.373 -1.2334 -1.1704 -1.8150
 6867TIP3   OH220564   4.990   3.418   2.605 -0.4108  0.2891 -0.0855
 6867TIP3    H120565   4.931   3.378   2.540 -0.9311 -1.3094  1.3022
 6867TIP3    H220566   5.056   3.463   2.552 -0.4836 -1.4253 -1.7579
 6868TIP3   OH220567   6.455   1.469   4.665  0.3719 -0.4758  0.0289
 6868TIP3    H120568   6.522   1.523   4.706  0.1913  0.2070 -0.5381
 6868TIP3    H220569   6.482   1.379   4.682  1.2068 -0.2078  0.1698
 6869TIP3   OH220570   6.660   2.938   5.754  0.3044 -0.3972  0.1678
 6869TIP3    H120571   6.638   2.941   5.847  0.4378  3.1280  0.2058
 6869TIP3    H220572   6.613   3.011   5.715  2.0587 -0.3640 -2.1151
 6870TIP3   OH220573   4.894   2.205   5.887  0.0694 -0.2516  0.5866
 6870TIP3    H120574   4.947   2.145   5.939  0.6526  0.2659  0.6004
 6870TIP3    H220575   4.901   2.171   5.797  1.5449  0.5732  0.3597
 6871TIP3   OH220576   3.994   3.734   3.089 -0.2558  0.4060  0.0991
 6871TIP3    H120577   3.929   3.750   3.157 -0.8902 -0.1203 -0.3712
 6871TIP3    H220578   4.068   3.694   3.135 -1.7664 -2.6063  0.1520
 6872TIP3   OH220579   5.340   6.371   2.467 -0.0710  0.7321 -0.2745
 6872TIP3    H120580   5.372   6.409   2.549  1.4264  0.8776 -0.8979
 6872TIP3    H220581   5.328   6.446   2.409  0.1730  0.5030 -0.6198
 6873TIP3   OH220582   2.037   1.459   5.826 -0.0994 -0.3334  0.7737
 6873TIP3    H120583   2.072   1.475   5.914  1.8236  1.4854 -0.2452
 6873TIP3    H220584   2.032   1.545   5.786 -1.4863 -1.0676 -0.7609
 6874TIP3   OH220585   4.137   5.939   1.582  0.2525  0.1287 -0.1086
 6874TIP3    H120586   4.228   5.960   1.563  0.0920 -0.2747 -1.3835
 6874TIP3    H220587   4.129   5.846   1.560 -0.0139 -0.3405  1.7872
 6875TIP3   OH220588   3.313   4.988   0.839 -0.3057 -0.1989  0.0064
 6875TIP3    H120589   3.264   4.937   0.775 -1.9155 -0.3801  1.2892
 6875TIP3    H220590   3.403   4.958   0.831 -0.6693 -0.9957 -1.3826
 6876TIP3   OH220591   2.347   6.645   2.524 -0.2008 -0.4709  0.1434
 6876TIP3    H120592   2.314   6.620   2.437 -0.9616 -1.2891  0.6449
 6876TIP3    H220593   2.438   6.615   2.525  0.4762  1.3731 -1.0856
 6877TIP3   OH220594   1.001   5.337   5.247  0.0750  0.2775 -0.0417
 6877TIP3    H120595   1.094   5.355   5.264 -0.0821 -0.0786  1.2909
 6877TIP3    H220596   0.981   5.386   5.167  1.5724 -0.1627 -0.7263
 6878TIP3   OH220597   3.025   5.585   3.482 -0.5616 -0.0307  0.0589
 6878TIP3    H120598   3.038   5.618   3.393 -0.0318 -0.6366 -0.0939
 6878TIP3    H220599   3.071   5.648   3.538  0.7030 -0.6674 -0.2546
 6879TIP3   OH220600   0.359   1.161   5.427  0.0030 -0.1141  0.4779
 6879TIP3    H120601   0.349   1.243   5.378 -1.7370  0.8447  2.2722
 6879TIP3    H220602   0.306   1.097   5.379 -2.2489  0.9847  1.3622
 6880TIP3   OH220603   4.135   3.283   4.060 -0.5805  0.3861 -0.0429
 6880TIP3    H120604   4.085   3.243   3.988 -1.0034  1.3678 -0.3088
 6880TIP3    H220605   4.072   3.339   4.105  0.3943  2.1848 -0.7994
 6881TIP3   OH220606   7.167   1.548   1.035  0.1181  0.6718 -0.4372
 6881TIP3    H120607   7.180   1.488   0.961 -0.2240  0.6546 -0.4872
 6881TIP3    H220608   7.255   1.565   1.068  0.1953 -0.1898 -0.1631
 6882TIP3   OH220609   1.833   4.338   2.734  0.5765 -0.1830 -0.4105
 6882TIP3    H120610   1.815   4.351   2.827  1.1544 -0.6291 -0.2246
 6882TIP3    H220611   1.864   4.423   2.702 -0.6543  0.2666 -0.4609
 6883TIP3   OH220612   3.758   5.717   3.001 -0.3635  0.3081 -0.5262
 6883TIP3    H120613   3.815   5.716   3.078 -1.5198  1.9091  0.4205
 6883TIP3    H220614   3.761   5.807   2.970 -1.4535  0.1478 -1.1677
 6884TIP3   OH220615   6.051   0.254   4.596  0.3298  0.3375  0.0755
 6884TIP3    H120616   6.074   0.300   4.515  0.5046  0.5905  0.2695
 6884TIP3    H220617   6.135   0.225   4.632  0.4853  2.1083  1.2954
 6885TIP3   OH220618   7.049   2.536   2.657 -0.4591 -0.3618  0.7932
 6885TIP3    H120619   6.985   2.533   2.585  0.0415 -2.0721  0.3682
 6885TIP3    H220620   6.996   2.531   2.736 -1.0162  1.4599  0.5699
 6886TIP3   OH220621   3.267   4.740   3.117 -0.3134 -0.7383  0.1198
 6886TIP3    H120622   3.177   4.714   3.098 -0.8076 -0.4959  1.9295
 6886TIP3    H220623   3.298   4.782   3.037 -2.7037  1.5791  0.2929
 6887TIP3   OH220624   2.211   4.318   0.004 -0.3934  0.2154  0.0424
 6887TIP3    H120625   2.166   4.259   0.065  1.6672  0.5645  2.0234
 6887TIP3    H220626   2.233   4.394   0.057 -0.1058  1.3499 -1.6433
 6888TIP3   OH220627   1.201   0.066   3.786  0.1714  0.5023  0.2378
 6888TIP3    H120628   1.141   0.107   3.724 -1.9657 -0.4640  1.5535
 6888TIP3    H220629   1.258   0.137   3.816 -2.0090  2.0820  0.8363
 6889TIP3   OH220630   5.347   1.470   2.757 -0.7170 -0.4971  0.5676
 6889TIP3    H120631   5.432   1.432   2.780 -0.2868 -0.7693 -1.3038
 6889TIP3    H220632   5.291   1.395   2.738 -0.9756 -0.2793  0.4562
 6890TIP3   OH220633   1.313   5.242   1.805  0.9673  0.4914 -0.2136
 6890TIP3    H120634   1.331   5.232   1.711 -1.5745  0.6870 -0.7758
 6890TIP3    H220635   1.274   5.329   1.813 -0.4653 -0.1945  0.7219
 6891TIP3   OH220636   4.511   1.909   4.460  0.1856  0.1028  0.2955
 6891TIP3    H120637   4.599   1.913   4.421 -0.0986  1.0445 -0.2773
 6891TIP3    H220638   4.518   1.841   4.527  0.9235 -0.9593 -0.8075
 6892TIP3   OH220639   4.473  -0.017   0.527 -0.1397  0.5601 -0.0453
 6892TIP3    H120640   4.438   0.061   0.484  0.1824  0.6806 -0.0944
 6892TIP3    H220641   4.520   0.018   0.604  0.9950  0.5175 -0.7046
 6893TIP3   OH220642   1.159   6.567   2.614  0.2642 -0.0238 -0.4619
 6893TIP3    H120643   1.071   6.529   2.607  1.0854 -2.1457 -0.0051
 6893TIP3    H220644   1.203   6.541   2.533  0.6686  0.5371 -0.4321
 6894TIP3   OH220645   6.143   5.789   2.292  0.1356 -0.2453 -0.1411
 6894TIP3    H120646   6.184   5.817   2.373 -1.6009  2.1528  0.0294
 6894TIP3    H220647   6.061   5.748   2.318 -0.4167  0.5021 -0.6436
 6895TIP3   OH220648   3.219   2.102   4.223  0.5562  0.1500 -0.0415
 6895TIP3    H120649   3.198   2.193   4.243 -0.7962 -0.6515  2.5788
 6895TIP3    H220650   3.134   2.061   4.207  1.2442 -0.3686 -3.1284
 6896TIP3   OH220651   3.131   2.816   5.581  1.0490  0.0662  0.0298
 6896TIP3    H120652   3.208   2.765   5.556  0.7399 -0.1262 -0.5625
 6896TIP3    H220653   3.059   2.753   5.576  1.0277 -0.0997  1.8943
 6897TIP3   OH220654   0.457   0.283   3.399 -0.0018  0.1265 -0.6281
 6897TIP3    H120655   0.387   0.345   3.376 -1.3426 -1.7487 -1.9067
 6897TIP3    H220656   0.502   0.267   3.317  1.3395  0.5368  0.0027
 6898TIP3   OH220657   1.455   1.838   3.287  0.4146 -0.3407 -0.3820
 6898TIP3    H120658   1.504   1.902   3.235 -0.8114  0.6050 -0.4240
 6898TIP3    H220659   1.384   1.810   3.229  0.8834 -1.6920 -0.3288
 6899TIP3   OH220660   6.607   3.068   3.471  0.4059  0.3111 -0.0279
 6899TIP3    H120661   6.534   3.119   3.506 -0.1791  0.2206 -1.0739
 6899TIP3    H220662   6.571   2.980   3.459  0.8479  0.1316 -0.0545
 6900TIP3   OH220663   6.639   5.560   4.231 -0.2721  0.4159  0.0925
 6900TIP3    H120664   6.708   5.597   4.286  0.1705 -1.9491  1.2675
 6900TIP3    H220665   6.682   5.538   4.149 -0.1814  1.0662 -0.0355
 6901TIP3   OH220666   1.764   0.091   4.788  0.0246 -0.8398  0.4575
 6901TIP3    H120667   1.801   0.127   4.707  0.4194  2.0169  1.7806
 6901TIP3    H220668   1.807   0.007   4.799  0.3680 -1.0506 -2.0002
 6902TIP3   OH220669   5.451   6.442   0.442 -0.3753 -0.1032 -0.7381
 6902TIP3    H120670   5.506   6.517   0.464 -0.9139 -0.1007  0.6880
 6902TIP3    H220671   5.483   6.371   0.497  0.1221 -0.9492 -2.0660
 6903TIP3   OH220672   1.445   0.989   1.262  0.1464 -0.0589 -0.4989
 6903TIP3    H120673   1.489   0.956   1.184 -0.2654 -1.3139 -0.2082
 6903TIP3    H220674   1.356   1.010   1.233  0.4338  0.9680 -0.7086
 6904TIP3   OH220675   2.847   2.176   4.315 -0.7590  0.8914  0.6378
 6904TIP3    H120676   2.842   2.254   4.260  0.1729  1.6704  1.6028
 6904TIP3    H220677   2.808   2.203   4.399  0.7168  0.7511  1.4104
 6905TIP3   OH220678   0.644   6.103   0.941  0.1224 -0.4537  0.3606
 6905TIP3    H120679   0.599   6.102   1.026 -0.6574 -0.3002 -0.0460
 6905TIP3    H220680   0.635   6.013   0.909  0.0283 -0.4040  0.2457
 6906TIP3   OH220681   4.841   5.534   5.772  0.3104  0.2120  0.2023
 6906TIP3    H120682   4.932   5.547   5.746  0.1445  2.0344  0.4314
 6906TIP3    H220683   4.835   5.569   5.860 -0.5757 -0.0502  0.2585
 6907TIP3   OH220684   6.694   3.563   4.334  0.4103 -0.5257  0.5484
 6907TIP3    H120685   6.709   3.656   4.350  2.2731 -0.7284  0.1337
 6907TIP3    H220686   6.679   3.526   4.422 -0.2225  0.1181  0.7227
 6908TIP3   OH220687   3.488   4.306   3.152  0.2515 -0.1783 -0.1811
 6908TIP3    H120688   3.579   4.330   3.131 -0.3559  0.6471 -2.1679
 6908TIP3    H220689   3.455   4.381   3.202  0.4444 -0.1114 -0.1508
 6909TIP3   OH220690   7.077   5.995   0.622 -0.3678 -0.6134 -0.2219
 6909TIP3    H120691   7.073   5.928   0.690 -1.9210 -0.3263 -0.0032
 6909TIP3    H220692   6.997   6.046   0.633  0.3819  0.7787 -0.9148
 6910TIP3   OH220693   0.853   3.296   2.154 -0.3757 -0.0081 -0.0845
 6910TIP3    H120694   0.882   3.250   2.075 -0.5584 -1.2818  0.5601
 6910TIP3    H220695   0.893   3.247   2.226 -0.8516  0.6645  0.6543
 6911TIP3   OH220696   6.473   1.891   0.022  0.1523 -0.2169  0.1343
 6911TIP3    H120697   6.428   1.967   0.057  0.3059  0.3266 -0.8159
 6911TIP3    H220698   6.565   1.906   0.042  0.2788  0.2497 -0.7513
 6912TIP3   OH220699   4.909   2.990   3.207  0.3156 -0.1471  0.0939
 6912TIP3    H120700   4.879   2.947   3.287 -1.5884  0.8668 -0.0103
 6912TIP3    H220701   4.924   3.081   3.232 -0.5387  0.2440 -0.7047
 6913TIP3   OH220702   6.821   3.178   2.440  0.0531 -0.0958  0.1326
 6913TIP3    H120703   6.805   3.193   2.347  1.0515 -1.3644 -0.2669
 6913TIP3    H220704   6.737   3.200   2.482 -0.4775  0.2789 -1.0762
 6914TIP3   OH220705   3.116   6.362   3.876 -0.4450 -0.4815 -0.1866
 6914TIP3    H120706   3.044   6.311   3.914 -0.0441 -1.0714 -0.2061
 6914TIP3    H220707   3.090   6.453   3.888 -0.9125 -0.6823  0.3541
 6915TIP3   OH220708   1.294   6.111   0.917  0.3094 -0.1796  0.1351
 6915TIP3    H120709   1.287   6.134   0.825 -0.8061 -1.0545 -0.0218
 6915TIP3    H220710   1.352   6.178   0.955  1.5509 -0.3479 -1.3651
 6916TIP3   OH220711   0.779   3.101   0.033  0.4450  0.0918 -0.1414
 6916TIP3    H120712   0.762   3.190   0.002  0.3194  0.0437 -0.2146
 6916TIP3    H220713   0.729   3.045  -0.027 -1.2563  0.0915  1.1896
 6917TIP3   OH220714   4.671   1.242   5.107  0.0366  0.1121  0.7734
 6917TIP3    H120715   4.733   1.169   5.106  1.1003  0.9886 -0.4531
 6917TIP3    H220716   4.707   1.305   5.045 -0.7298  1.7922  1.9650
 6918TIP3   OH220717   4.865   1.434   3.069 -0.4291 -0.4877  0.4096
 6918TIP3    H120718   4.773   1.410   3.076 -0.8070  0.6715 -0.3589
 6918TIP3    H220719   4.890   1.458   3.158 -0.9486 -0.5379  0.5745
 6919TIP3   OH220720   7.178   2.465   3.847 -0.1747 -0.2175 -0.6490
 6919TIP3    H120721   7.221   2.478   3.763 -0.4372 -2.9270 -1.2909
 6919TIP3    H220722   7.085   2.453   3.825 -0.2793 -0.7454  0.0601
 6920TIP3   OH220723   4.071   2.403   3.195  0.3749  0.3511 -0.1108
 6920TIP3    H120724   4.132   2.473   3.173  1.1379  0.5070  2.2184
 6920TIP3    H220725   3.995   2.420   3.140  1.1649  2.0608 -0.7636
 6921TIP3   OH220726   4.994   5.197   4.635 -0.0961 -0.7250 -0.0124
 6921TIP3    H120727   4.998   5.144   4.714 -0.9841  0.7037  1.0444
 6921TIP3    H220728   5.059   5.266   4.649 -1.7704  0.8420  0.5460
 6922TIP3   OH220729   3.851   0.208   3.636  0.2286  0.2386 -0.0350
 6922TIP3    H120730   3.806   0.125   3.647  0.5053  0.2358  1.3043
 6922TIP3    H220731   3.943   0.188   3.655 -0.0089  1.2354  2.5627
 6923TIP3   OH220732   2.825   5.043   2.214 -0.2203 -0.1467  0.4008
 6923TIP3    H120733   2.891   5.056   2.282  0.1204 -2.6379  0.6220
 6923TIP3    H220734   2.835   4.952   2.187 -1.9719  0.0895 -1.2807
 6924TIP3   OH220735   5.033   1.044   4.431 -0.0498  0.1242  0.4437
 6924TIP3    H120736   5.040   1.131   4.470 -0.4724  0.9134 -1.1403
 6924TIP3    H220737   4.966   1.000   4.482  1.9591 -0.2779  2.9479
 6925TIP3   OH220738   6.359   3.810   4.432 -0.2049 -0.3300  0.0770
 6925TIP3    H120739   6.357   3.902   4.460 -0.7776 -0.3932  0.2475
 6925TIP3    H220740   6.321   3.762   4.506 -0.0537 -0.6891 -0.0770
 6926TIP3   OH220741   1.486   0.144   0.254  0.0382  0.2663  0.0950
 6926TIP3    H120742   1.460   0.056   0.283  2.1323 -1.2118 -2.0327
 6926TIP3    H220743   1.467   0.201   0.328  0.9113 -2.4226  2.5795
 6927TIP3   OH220744   1.168   0.759   2.867  0.0502 -0.2320 -0.0827
 6927TIP3    H120745   1.255   0.722   2.876  1.2359  1.1153 -4.0336
 6927TIP3    H220746   1.113   0.686   2.838  1.0082 -0.2274 -2.0494
 6928TIP3   OH220747   1.706   1.248   2.463  0.2132  0.2385  0.4721
 6928TIP3    H120748   1.641   1.177   2.468 -2.2129  2.2472 -0.4341
 6928TIP3    H220749   1.675   1.314   2.525  1.2861  1.3585 -0.1297
 6929TIP3   OH220750   6.769   2.012   5.694  0.1117 -0.2962  0.3115
 6929TIP3    H120751   6.756   1.919   5.715 -1.2272 -0.1233  0.3372
 6929TIP3    H220752   6.718   2.059   5.761  0.4068  0.4433  0.0244
 6930TIP3   OH220753   2.422   5.326   5.065 -0.3236 -0.3115  0.6507
 6930TIP3    H120754   2.451   5.355   4.978 -1.3365 -2.4317 -0.4697
 6930TIP3    H220755   2.449   5.234   5.069 -0.2836 -0.2419  2.6201
 6931TIP3   OH220756   0.873   0.897   4.770  0.2321  0.2735  0.1759
 6931TIP3    H120757   0.906   0.987   4.763  0.8326  0.2004  1.6908
 6931TIP3    H220758   0.797   0.895   4.712 -0.2083  1.9569  0.6348
 6932TIP3   OH220759   2.748   2.379   3.329  0.2439  0.5610 -0.4862
 6932TIP3    H120760   2.751   2.474   3.315 -0.4319  0.4467 -1.5882
 6932TIP3    H220761   2.678   2.349   3.271  1.1193 -0.7317 -0.9361
 6933TIP3   OH220762   6.985   6.094   1.651  0.2908  0.4661  0.0881
 6933TIP3    H120763   6.975   6.149   1.574  0.0491 -1.8582 -1.6622
 6933TIP3    H220764   6.897   6.088   1.688 -0.1936 -0.6276 -1.1495
 6934TIP3   OH220765   2.919   2.013   3.973 -0.1963  0.1210  0.4297
 6934TIP3    H120766   2.935   2.016   4.067 -0.7125  2.4288  0.5101
 6934TIP3    H220767   2.943   2.101   3.942  2.9162 -1.4293 -2.1467
 6935TIP3   OH220768   2.210   3.898   1.395  0.2440 -0.2206  0.2168
 6935TIP3    H120769   2.210   3.987   1.360  0.1178 -0.2166  0.2254
 6935TIP3    H220770   2.126   3.861   1.366  0.8648 -0.7829 -0.9208
 6936TIP3   OH220771   0.884   5.834   3.310 -0.7147 -0.0555  0.1011
 6936TIP3    H120772   0.837   5.911   3.279  0.5894  0.2405 -1.2846
 6936TIP3    H220773   0.937   5.865   3.383 -0.6501  0.2321 -0.0674
 6937TIP3   OH220774   0.910   3.136   3.610  0.5051  0.2683 -0.1838
 6937TIP3    H120775   0.995   3.101   3.636  2.0376  2.4148 -1.9279
 6937TIP3    H220776   0.888   3.199   3.680 -0.1164 -0.8883  0.6977
 6938TIP3   OH220777   2.555   6.484   1.334  0.1223  0.3494 -0.1116
 6938TIP3    H120778   2.504   6.413   1.373  1.1566 -0.2524  0.1772
 6938TIP3    H220779   2.555   6.553   1.400  0.7239 -0.1375  0.4017
 6939TIP3   OH220780   1.591   6.374   2.494  0.1099 -0.2424 -0.1549
 6939TIP3    H120781   1.528   6.304   2.477  0.1607 -0.4958  0.6701
 6939TIP3    H220782   1.541   6.442   2.539 -0.0551  0.4890 -1.3869
 6940TIP3   OH220783   7.180   3.847   4.255  0.2455  0.1642 -0.0102
 6940TIP3    H120784   7.221   3.913   4.311  0.3957 -0.4085  0.5597
 6940TIP3    H220785   7.089   3.844   4.284  0.0596  0.6235 -0.5181
 6941TIP3   OH220786   2.583   1.279   4.730  0.4367  0.1717  0.0189
 6941TIP3    H120787   2.494   1.248   4.712  0.5208 -0.2075  0.2596
 6941TIP3    H220788   2.636   1.200   4.735  0.2464  0.1344  3.0572
 6942TIP3   OH220789   4.459   3.004   1.257 -0.2352 -0.8547 -0.1557
 6942TIP3    H120790   4.399   3.075   1.281  0.4993 -0.0731 -0.5427
 6942TIP3    H220791   4.523   3.002   1.329 -0.1385 -0.9765 -0.2449
 6943TIP3   OH220792   3.214   4.727   2.730 -0.3683  0.5661 -0.8755
 6943TIP3    H120793   3.306   4.720   2.756 -0.4891  1.3496 -0.2056
 6943TIP3    H220794   3.198   4.821   2.721 -1.4675  0.5190  0.3570
 6944TIP3   OH220795   0.216   5.130   1.482  0.6902  0.4915  0.0177
 6944TIP3    H120796   0.300   5.089   1.465  1.1055  1.3865 -0.1565
 6944TIP3    H220797   0.153   5.078   1.432  1.2502  0.3026 -0.5012
 6945TIP3   OH220798   1.005   1.703   2.195  0.2162 -0.3174  0.0376
 6945TIP3    H120799   0.927   1.724   2.145  0.2776 -1.1231 -0.4023
 6945TIP3    H220800   1.048   1.633   2.146  1.4736  0.4403  0.0118
 6946TIP3   OH220801   6.654   5.897   1.070 -0.5196  0.0339  0.4022
 6946TIP3    H120802   6.655   5.832   0.999  0.7902  1.1293 -0.6436
 6946TIP3    H220803   6.747   5.911   1.091 -0.8638 -0.1963  2.3128
 6947TIP3   OH220804   6.091   4.309   5.455  0.0156  0.1701 -0.1201
 6947TIP3    H120805   6.006   4.322   5.411  1.1385  0.3566 -2.3593
 6947TIP3    H220806   6.083   4.359   5.537 -1.5782  1.2989 -0.9112
 6948TIP3   OH220807   3.382   5.569   5.501  0.0718 -1.1635 -0.2745
 6948TIP3    H120808   3.294   5.559   5.465 -0.1980 -0.6138  0.2196
 6948TIP3    H220809   3.368   5.600   5.591  0.7755  0.3455 -0.6503
 6949TIP3   OH220810   5.272   3.493   2.521 -0.0652  0.3233  0.2376
 6949TIP3    H120811   5.226   3.451   2.449 -1.5234  0.3421  1.1153
 6949TIP3    H220812   5.304   3.575   2.485  0.4849 -0.3171 -0.7646
 6950TIP3   OH220813   5.689   5.149   4.017 -0.3427 -0.4338  0.1972
 6950TIP3    H120814   5.648   5.063   4.028  0.5231 -1.1120 -1.5071
 6950TIP3    H220815   5.756   5.154   4.085 -1.2166 -0.5766  1.0803
 6951TIP3   OH220816   0.715   6.258   3.899 -0.1426  0.1010 -0.1731
 6951TIP3    H120817   0.744   6.333   3.848 -1.7694  0.5249 -0.5290
 6951TIP3    H220818   0.795   6.210   3.919  0.8319  1.4900 -0.6272
 6952TIP3   OH220819   6.502   2.490   4.027 -0.0224  0.1141 -0.0883
 6952TIP3    H120820   6.489   2.399   3.999 -1.2637  0.4608 -0.7179
 6952TIP3    H220821   6.418   2.515   4.066  0.8225  0.5070  1.5513
 6953TIP3   OH220822   2.290   4.541   4.476  0.4983 -0.4811  0.0057
 6953TIP3    H120823   2.262   4.616   4.529 -0.3423  0.6278 -1.8761
 6953TIP3    H220824   2.211   4.488   4.466 -0.2445  0.9654 -2.6376
 6954TIP3   OH220825   1.102   4.176   1.841  0.0211 -0.2100 -0.3494
 6954TIP3    H120826   1.163   4.243   1.808  1.0772 -0.3027  1.3330
 6954TIP3    H220827   1.158   4.111   1.882 -1.2180  0.3932  2.5174
 6955TIP3   OH220828   4.945   0.712   1.646 -0.8364  0.1363 -0.3395
 6955TIP3    H120829   4.963   0.706   1.552 -0.1496  0.2590 -0.2230
 6955TIP3    H220830   5.007   0.778   1.678 -2.5628  1.7615 -0.1791
 6956TIP3   OH220831   1.550   0.480   5.798 -0.1749  0.6767  0.7248
 6956TIP3    H120832   1.470   0.438   5.829  0.2240  0.8409  2.0603
 6956TIP3    H220833   1.520   0.552   5.742 -0.9983  1.1217  1.7114
 6957TIP3   OH220834   0.323   4.774   2.228 -1.4066 -0.5677 -0.1357
 6957TIP3    H120835   0.382   4.700   2.244 -0.5944 -0.0386 -0.5793
 6957TIP3    H220836   0.265   4.776   2.304  0.2527 -0.0706  1.1865
 6958TIP3   OH220837   4.246   5.265   0.095  0.4837  0.3137  0.1807
 6958TIP3    H120838   4.185   5.257   0.168  0.3077  0.2041  0.0233
 6958TIP3    H220839   4.201   5.223   0.022  1.4677 -1.3380  0.4914
 6959TIP3   OH220840   1.077   4.610   2.652  0.3252 -0.2537 -0.4658
 6959TIP3    H120841   1.145   4.678   2.663 -0.2994  0.3202 -0.0707
 6959TIP3    H220842   1.006   4.655   2.607 -0.0714 -0.6695 -0.2617
 6960TIP3   OH220843   4.861   5.059   0.864 -0.0299 -0.1202 -0.0252
 6960TIP3    H120844   4.941   5.104   0.839  0.5383 -1.0421  0.0613
 6960TIP3    H220845   4.868   4.973   0.823 -0.6226 -0.4743  0.5850
 6961TIP3   OH220846   5.896   0.988   3.150 -0.0930  0.1346 -0.0405
 6961TIP3    H120847   5.874   0.979   3.243 -1.2831  0.2828 -0.2991
 6961TIP3    H220848   5.931   0.902   3.125 -0.2754 -0.0733  0.4067
 6962TIP3   OH220849   6.930   2.014   1.969  0.3648  0.0588 -0.2074
 6962TIP3    H120850   6.968   2.100   1.953  1.3590  0.0274  1.6933
 6962TIP3    H220851   6.880   1.994   1.890  0.6530  2.0817 -0.9408
 6963TIP3   OH220852   0.669   3.175   1.246  0.4251  0.0240 -0.2354
 6963TIP3    H120853   0.706   3.193   1.159 -0.6768  0.2572 -0.6765
 6963TIP3    H220854   0.588   3.128   1.228  0.4448 -0.3807  0.7016
 6964TIP3   OH220855   1.230   1.779   3.127 -0.3884  0.2385 -0.3900
 6964TIP3    H120856   1.150   1.793   3.177 -0.3741  0.1113 -0.3307
 6964TIP3    H220857   1.218   1.694   3.085  0.7002 -0.9602  1.5341
 6965TIP3   OH220858   6.543   1.522   3.938  0.0592  0.1889 -0.6978
 6965TIP3    H120859   6.559   1.516   3.844 -0.0816  0.6785 -0.7575
 6965TIP3    H220860   6.600   1.593   3.968 -0.7614  0.8448 -0.6335
 6966TIP3   OH220861   3.922   2.646   4.953 -0.4490 -0.2158 -0.3661
 6966TIP3    H120862   3.919   2.567   5.007  0.2280  0.6592  1.0135
 6966TIP3    H220863   4.014   2.672   4.955 -0.2102 -0.6831 -2.7889
 6967TIP3   OH220864   3.347   1.705   4.414  0.2579  0.0806 -0.1477
 6967TIP3    H120865   3.308   1.723   4.499 -0.1028  0.2137 -0.3351
 6967TIP3    H220866   3.287   1.747   4.351  0.5239 -0.0047 -0.4635
 6968TIP3   OH220867   6.080   4.124   0.146  0.0384  0.0372  0.4217
 6968TIP3    H120868   6.175   4.120   0.136 -0.2228 -3.4032 -3.2955
 6968TIP3    H220869   6.051   4.187   0.081 -0.2762  0.7254  1.2155
 6969TIP3   OH220870   3.737   3.925   2.889 -0.1814 -0.1580  0.0554
 6969TIP3    H120871   3.712   3.901   2.978  0.2629 -0.1303  0.1904
 6969TIP3    H220872   3.685   4.003   2.870 -0.6264 -0.4365  0.1132
 6970TIP3   OH220873   2.623   2.639   2.418 -0.2837 -0.2873 -0.1499
 6970TIP3    H120874   2.655   2.728   2.434 -1.9924  0.4586 -0.6320
 6970TIP3    H220875   2.702   2.588   2.400  0.7769  1.0251  0.5706
 6971TIP3   OH220876   3.660   1.882   4.517  0.2741 -0.1985  0.0720
 6971TIP3    H120877   3.670   1.911   4.608  2.9330  0.5666 -0.4065
 6971TIP3    H220878   3.617   1.956   4.473 -0.9352 -0.5327  0.6338
 6972TIP3   OH220879   2.788   6.438   1.192  0.1651  0.1478  0.0576
 6972TIP3    H120880   2.840   6.363   1.221 -1.9519 -2.3915 -2.1599
 6972TIP3    H220881   2.713   6.438   1.251  0.4151  0.8887  0.3785
 6973TIP3   OH220882   3.753   6.362   4.837 -0.3229 -0.1826 -0.3431
 6973TIP3    H120883   3.773   6.443   4.884 -1.4558  0.4449 -0.8943
 6973TIP3    H220884   3.702   6.391   4.761  0.3178 -1.2997 -1.2217
 6974TIP3   OH220885   4.353   3.569   0.805 -0.2718 -0.7995  0.7593
 6974TIP3    H120886   4.434   3.575   0.754 -0.2168  0.7299  1.0068
 6974TIP3    H220887   4.344   3.654   0.847 -2.2295 -0.7954  0.4220
 6975TIP3   OH220888   6.468   3.935   3.657 -0.1654  0.1125  0.0238
 6975TIP3    H120889   6.483   4.004   3.592 -0.4872  1.3382  1.2090
 6975TIP3    H220890   6.477   3.978   3.741  0.8805 -1.5877  0.8444
 6976TIP3   OH220891   6.728   5.197   0.575  0.2837 -0.5760  0.2337
 6976TIP3    H120892   6.774   5.212   0.658  0.4062 -0.9049  0.2279
 6976TIP3    H220893   6.638   5.223   0.593  0.5401  0.4576  0.1302
 6977TIP3   OH220894   5.625   3.861   0.336 -0.1741 -0.3869  0.4528
 6977TIP3    H120895   5.689   3.929   0.356 -0.2706  0.7994 -2.7759
 6977TIP3    H220896   5.673   3.779   0.347  1.5865  0.4275 -0.6996
 6978TIP3   OH220897   2.536   1.263   2.654  0.1098 -0.1186  0.0718
 6978TIP3    H120898   2.622   1.302   2.639  0.0389 -0.2325 -0.6805
 6978TIP3    H220899   2.474   1.328   2.620  0.0028 -0.9762 -1.4630
 6979TIP3   OH220900   7.160   3.050   4.041 -0.1311 -0.3704  0.1236
 6979TIP3    H120901   7.146   3.059   4.135  0.8531 -3.7742  0.7532
 6979TIP3    H220902   7.248   3.084   4.026 -1.0030  2.0076 -0.0323
 6980TIP3   OH220903   4.374   5.503   5.528 -0.1917  0.0578 -0.3927
 6980TIP3    H120904   4.290   5.538   5.558 -0.0783 -1.1887  1.5504
 6980TIP3    H220905   4.382   5.418   5.572  2.3402  0.4093 -0.0147
 6981TIP3   OH220906   6.450   2.037   4.987  0.1186 -0.1066  0.2577
 6981TIP3    H120907   6.397   2.061   4.911  0.6913 -0.1970 -0.1698
 6981TIP3    H220908   6.425   2.101   5.054  0.0809  0.3667 -0.2060
 6982TIP3   OH220909   1.735   2.039   0.115 -0.2584 -0.1351 -0.6782
 6982TIP3    H120910   1.673   2.011   0.182 -1.2734 -0.0235 -1.5483
 6982TIP3    H220911   1.759   2.128   0.140  0.1277 -0.4387  0.0629
 6983TIP3   OH220912   4.821   5.678   0.744  0.3907  0.6732  0.4426
 6983TIP3    H120913   4.814   5.772   0.725  0.4318  0.6592  0.3581
 6983TIP3    H220914   4.767   5.636   0.678  0.7367  0.6082  0.1940
 6984TIP3   OH220915   6.087   5.386   5.765  0.2935  0.1646  0.0769
 6984TIP3    H120916   6.108   5.321   5.697 -2.3091  0.3483 -1.0259
 6984TIP3    H220917   6.171   5.427   5.786  1.4500 -1.0984 -1.7899
 6985TIP3   OH220918   3.940   5.073   1.838 -0.3946 -0.4841 -0.1842
 6985TIP3    H120919   4.004   5.046   1.772  1.4231 -1.3265  1.8039
 6985TIP3    H220920   3.896   4.991   1.863  0.1046 -0.4589  0.8042
 6986TIP3   OH220921   3.109   5.747   3.210  0.1104 -0.2830 -0.0535
 6986TIP3    H120922   3.086   5.832   3.248 -2.5602 -1.9433  2.4567
 6986TIP3    H220923   3.160   5.769   3.132  0.7565  3.5492  1.2019
 6987TIP3   OH220924   6.197   5.096   5.130  0.3808  0.1269  0.3239
 6987TIP3    H120925   6.217   5.188   5.145 -0.4846  0.2959  0.4930
 6987TIP3    H220926   6.176   5.061   5.216  0.0994 -0.0780  0.1759
 6988TIP3   OH220927   4.161   3.902   1.677  0.3838  0.2223  0.1989
 6988TIP3    H120928   4.140   3.866   1.591  1.6190 -0.7776  0.2781
 6988TIP3    H220929   4.165   3.997   1.664 -1.3425  0.2378 -0.3900
 6989TIP3   OH220930   3.166   0.087   1.259  0.2644 -0.1095  0.7120
 6989TIP3    H120931   3.199   0.150   1.322 -0.3957 -0.4393  1.4007
 6989TIP3    H220932   3.076   0.069   1.287  0.9097 -2.5476  1.4875
 6990TIP3   OH220933   1.211   5.102   0.421 -0.2285  0.1788  0.0277
 6990TIP3    H120934   1.226   5.049   0.342 -1.7532  0.5811 -0.5652
 6990TIP3    H220935   1.260   5.056   0.490  0.2189 -0.8112 -0.9179
 6991TIP3   OH220936   3.901   1.709   2.578  0.2589 -0.7417  0.2701
 6991TIP3    H120937   3.837   1.733   2.646 -0.3790 -0.8348 -0.2870
 6991TIP3    H220938   3.852   1.715   2.496  0.9691 -0.8351 -0.1652
 6992TIP3   OH220939   5.397   4.026   0.573 -0.1955 -0.1858 -0.0997
 6992TIP3    H120940   5.379   3.952   0.630  0.3655 -0.5200 -0.3516
 6992TIP3    H220941   5.425   4.096   0.632 -0.8269 -0.1291  0.1489
 6993TIP3   OH220942   2.259   6.038   4.850 -0.9210 -0.2425  0.0070
 6993TIP3    H120943   2.288   5.996   4.769  0.5722 -0.0910  0.4193
 6993TIP3    H220944   2.267   5.971   4.917 -0.8119  0.0173  0.2582
 6994TIP3   OH220945   5.097   0.705   0.523  0.0985 -0.2094  0.2743
 6994TIP3    H120946   5.070   0.792   0.491  1.3945 -0.4566 -1.6624
 6994TIP3    H220947   5.181   0.720   0.566  1.3802 -0.7219 -1.8931
 6995TIP3   OH220948   1.137   2.077   0.767  0.1163  0.2253  0.4988
 6995TIP3    H120949   1.194   2.149   0.740  1.2138 -1.0583 -0.7234
 6995TIP3    H220950   1.188   1.998   0.751 -1.3625 -0.8896  1.0498
 6996TIP3   OH220951   4.619   3.631   4.157 -0.1031  0.7148 -0.3670
 6996TIP3    H120952   4.586   3.680   4.232  0.2712 -0.2391  0.4307
 6996TIP3    H220953   4.591   3.683   4.081 -1.3157  1.1933  0.3764
 6997TIP3   OH220954   3.081   0.205   4.707  0.2025 -0.5535  0.7249
 6997TIP3    H120955   3.130   0.282   4.736 -1.2390  0.9717 -0.6706
 6997TIP3    H220956   3.121   0.181   4.623  0.8378 -1.5741  1.2862
 6998TIP3   OH220957   1.503   4.327   4.821  0.1874 -0.0191  0.2098
 6998TIP3    H120958   1.512   4.232   4.833  2.2995 -0.0370 -0.9570
 6998TIP3    H220959   1.410   4.341   4.803 -0.4506 -1.6502  1.9653
 6999TIP3   OH220960   2.479   5.297   4.392 -0.0307  0.1260 -0.7056
 6999TIP3    H120961   2.564   5.304   4.348 -1.3083 -0.5527 -3.5427
 6999TIP3    H220962   2.483   5.214   4.438  0.6888 -0.1124 -1.1756
 7000TIP3   OH220963   0.415   2.240   5.173 -0.1718 -0.0603  0.1709
 7000TIP3    H120964   0.503   2.215   5.201 -0.5016  0.0140  1.3284
 7000TIP3    H220965   0.380   2.290   5.247 -0.6910  1.0825 -0.8108
 7001TIP3   OH220966   3.213   2.470   5.138 -0.6194  0.3577 -0.4958
 7001TIP3    H120967   3.146   2.412   5.101 -1.1479  0.0394  0.9010
 7001TIP3    H220968   3.276   2.412   5.179 -0.4477  0.7206 -0.2352
 7002TIP3   OH220969   6.914   6.477   5.191 -0.2999 -0.1636  0.3213
 7002TIP3    H120970   6.928   6.485   5.096 -0.6653  0.1010  0.2867
 7002TIP3    H220971   6.932   6.564   5.225 -0.0729 -0.2840  0.5085
 7003TIP3   OH220972   4.048   4.341   2.536 -0.6048 -0.4917 -0.0832
 7003TIP3    H120973   4.106   4.267   2.518  0.5971  0.2148  0.7828
 7003TIP3    H220974   3.959   4.306   2.523 -0.0315 -1.8703 -0.4041
 7004TIP3   OH220975   4.927   1.997   2.072  0.0208 -0.0790 -0.3447
 7004TIP3    H120976   4.878   2.074   2.101  0.2872  0.0765 -0.3059
 7004TIP3    H220977   5.011   2.003   2.117 -0.6631 -1.4473  1.2283
 7005TIP3   OH220978   6.837   1.604   2.706  0.6186 -0.3283  0.2267
 7005TIP3    H120979   6.851   1.657   2.627 -0.6838  0.0985  0.2595
 7005TIP3    H220980   6.803   1.665   2.771 -0.6922 -1.1276  0.3404
 7006TIP3   OH220981   3.977   1.305   4.570  0.1103 -0.1265  0.1562
 7006TIP3    H120982   3.993   1.297   4.476  0.0124 -0.5218  0.1679
 7006TIP3    H220983   4.061   1.331   4.608 -0.0977  1.0618 -0.1564
 7007TIP3   OH220984   5.258   0.060   5.682 -0.1006 -0.4218 -0.3284
 7007TIP3    H120985   5.348   0.049   5.651  0.0988 -1.8246  0.6459
 7007TIP3    H220986   5.240  -0.020   5.731 -1.9782 -0.2717 -0.6998
 7008TIP3   OH220987   1.220   3.502   1.264 -0.4056  0.0394  0.2472
 7008TIP3    H120988   1.275   3.557   1.320 -0.4727 -0.0850  0.4387
 7008TIP3    H220989   1.131   3.520   1.295 -0.6101  1.2667 -0.9499
 7009TIP3   OH220990   6.462   1.065   2.259  0.2249 -0.4062 -0.0589
 7009TIP3    H120991   6.467   0.984   2.309 -1.8785  0.4530  1.6539
 7009TIP3    H220992   6.444   1.133   2.324 -0.4006  1.1023 -1.7308
 7010TIP3   OH220993   4.324   6.444   1.735 -0.1419 -0.4598 -0.5457
 7010TIP3    H120994   4.411   6.480   1.755 -0.5189 -0.5794  1.6217
 7010TIP3    H220995   4.332   6.351   1.757 -0.8471 -0.4326 -0.1467
 7011TIP3   OH220996   0.533   1.653   3.768 -0.2256 -0.5041  0.6236
 7011TIP3    H120997   0.498   1.565   3.753  1.7353 -1.1368 -0.7843
 7011TIP3    H220998   0.628   1.641   3.769  0.0838  1.0770  4.3006
 7012TIP3   OH220999   4.695   4.045   1.826  0.5819 -0.1809  0.3357
 7012TIP3    H121000   4.610   4.082   1.848  0.4230 -0.5033  0.2797
 7012TIP3    H221001   4.757   4.091   1.882  0.4771  0.6149 -0.1819
 7013TIP3   OH221002   6.248   3.090   3.816  0.0212  0.1587  0.0595
 7013TIP3    H121003   6.193   3.013   3.829  0.2844 -0.0699 -0.1645
 7013TIP3    H221004   6.325   3.056   3.770  1.0391  0.2075  1.6792
 7014TIP3   OH221005   0.571   3.788   2.844 -0.0512  0.1850 -0.1009
 7014TIP3    H121006   0.483   3.781   2.883 -0.6082 -0.4568 -1.4079
 7014TIP3    H221007   0.614   3.706   2.866 -0.4282 -0.2522 -0.9360
 7015TIP3   OH221008   3.281   4.785   5.885  0.2149  0.0899  0.0179
 7015TIP3    H121009   3.210   4.726   5.859  0.1516 -0.2290  0.8810
 7015TIP3    H221010   3.351   4.768   5.821 -0.4758  0.4185 -0.8488
 7016TIP3   OH221011   1.394   4.616   2.417  0.2673 -0.5657  0.2961
 7016TIP3    H121012   1.434   4.697   2.384  0.4290 -0.9675 -0.5193
 7016TIP3    H221013   1.347   4.643   2.496  0.2169  0.3470 -0.0351
 7017TIP3   OH221014   1.257   6.526   4.012 -0.3890 -0.0946 -0.6545
 7017TIP3    H121015   1.325   6.564   4.068 -0.9305  1.2783 -0.8952
 7017TIP3    H221016   1.268   6.432   4.022 -0.4285  0.0923  1.6984
 7018TIP3   OH221017   3.625   3.284   1.082 -0.3661 -0.3640  0.0273
 7018TIP3    H121018   3.538   3.294   1.044 -0.8858 -0.4037  1.1678
 7018TIP3    H221019   3.664   3.212   1.032 -0.4960  0.4681 -1.3243
 7019TIP3   OH221020   4.230   3.619   2.869  0.4795 -0.0009 -0.0473
 7019TIP3    H121021   4.281   3.540   2.850 -0.9698 -0.8012 -0.7639
 7019TIP3    H221022   4.140   3.588   2.875  0.1092  1.2783  1.8122
 7020TIP3   OH221023   4.431   1.920   3.020  0.2644  0.0050 -0.1111
 7020TIP3    H121024   4.445   1.933   3.114 -0.3911  1.1556 -0.1544
 7020TIP3    H221025   4.501   1.860   2.994  0.3677 -0.4594  1.1337
 7021TIP3   OH221026   4.409   3.051   1.530 -0.3249 -0.0873 -0.0516
 7021TIP3    H121027   4.319   3.038   1.560  0.1134 -1.3543  0.8082
 7021TIP3    H221028   4.422   3.146   1.534 -1.1773 -0.0018  1.1558
 7022TIP3   OH221029   4.361   2.622   5.658  0.0234  0.0968 -0.4547
 7022TIP3    H121030   4.368   2.685   5.586  0.5189  0.7167  0.1276
 7022TIP3    H221031   4.284   2.570   5.636 -0.4450  0.9528 -0.9131
 7023TIP3   OH221032   6.626   0.218   3.907  0.2604  0.3795 -0.1680
 7023TIP3    H121033   6.557   0.198   3.970 -2.4299  1.1130 -2.6599
 7023TIP3    H221034   6.630   0.141   3.850 -0.7864  1.5518 -1.9043
 7024TIP3   OH221035   4.317   2.501   1.512 -0.0388 -0.3600  0.0445
 7024TIP3    H121036   4.250   2.453   1.562 -1.4827  0.2990 -1.1705
 7024TIP3    H221037   4.394   2.499   1.568 -1.1821 -0.8289  1.6951
 7025TIP3   OH221038   5.034   2.972   0.996 -0.1781  0.1833 -0.1907
 7025TIP3    H121039   5.041   2.890   1.044 -0.4415  0.3818  0.1936
 7025TIP3    H221040   4.988   3.031   1.056  0.3796  0.7384 -0.2958
 7026TIP3   OH221041   4.824   3.609   3.509 -0.2184 -0.1726  0.7823
 7026TIP3    H121042   4.874   3.562   3.577 -0.0289 -0.8298  0.1995
 7026TIP3    H221043   4.733   3.601   3.537 -0.2454 -1.4102  0.3948
 7027TIP3   OH221044   5.708   2.317   1.032  0.5621  0.3181  0.1081
 7027TIP3    H121045   5.774   2.370   0.987  0.5343  0.3406  0.0937
 7027TIP3    H221046   5.653   2.283   0.962 -1.5940  3.1244  0.2759
 7028TIP3   OH221047   2.602   5.281   3.564 -0.3092 -0.3509  0.2340
 7028TIP3    H121048   2.644   5.287   3.650 -1.5049  1.2556  0.7467
 7028TIP3    H221049   2.642   5.352   3.514 -1.0351 -0.0247  0.1157
 7029TIP3   OH221050   2.116   4.585   2.430  0.1751  0.6067  0.3573
 7029TIP3    H121051   2.174   4.576   2.505 -0.9924  0.5879  1.3033
 7029TIP3    H221052   2.158   4.536   2.360  1.4306  0.8603  0.9096
 7030TIP3   OH221053   5.551   6.038   4.852  0.8263 -0.0387 -0.2688
 7030TIP3    H121054   5.556   6.124   4.811 -0.3316 -0.1448 -0.6480
 7030TIP3    H221055   5.558   6.056   4.946 -0.8847  0.6303 -0.2392
 7031TIP3   OH221056   4.211   6.188   4.474  0.1666  0.3224 -0.7858
 7031TIP3    H121057   4.134   6.242   4.459 -0.7045 -0.3070  1.2334
 7031TIP3    H221058   4.217   6.133   4.395 -1.2454  0.5887 -1.0963
 7032TIP3   OH221059   5.192   4.663   3.817 -0.5523  0.4012  0.1441
 7032TIP3    H121060   5.288   4.664   3.822 -0.2561  2.6587 -2.9863
 7032TIP3    H221061   5.173   4.596   3.752 -0.9068  1.2863 -0.6868
 7033TIP3   OH221062   3.094   0.424   0.876  0.2940  0.0124 -0.1143
 7033TIP3    H121063   3.060   0.357   0.936  1.4300 -1.3224 -0.8915
 7033TIP3    H221064   3.017   0.455   0.829 -0.3754 -0.1157  0.8666
 7034TIP3   OH221065   5.638   5.086   0.920 -0.1975  1.0057 -0.1432
 7034TIP3    H121066   5.650   5.069   1.013  0.3016 -0.4361 -0.4438
 7034TIP3    H221067   5.557   5.136   0.914 -1.0721 -0.2462  0.9318
 7035TIP3   OH221068   0.356   1.967   0.694  0.4135 -0.3737  0.1786
 7035TIP3    H121069   0.373   1.878   0.726 -1.7124 -1.4049 -1.2974
 7035TIP3    H221070   0.281   1.996   0.746  0.0097 -0.1479 -0.5270
 7036TIP3   OH221071   1.080   4.327   4.947  0.0204  0.3048  0.3564
 7036TIP3    H121072   0.988   4.321   4.920  0.1547 -0.8384  0.1123
 7036TIP3    H221073   1.084   4.273   5.026  0.5146  0.2451  0.2889
 7037TIP3   OH221074   1.908   2.536   1.951  0.2299  0.5764 -0.1606
 7037TIP3    H121075   1.873   2.451   1.974  1.7195 -0.7819 -2.5719
 7037TIP3    H221076   1.834   2.585   1.916  0.1322 -1.3528 -2.8796
 7038TIP3   OH221077   5.063   3.778   4.606  0.8061  0.0847  0.1170
 7038TIP3    H121078   5.068   3.802   4.514  0.3522 -1.3056 -0.3061
 7038TIP3    H221079   5.078   3.683   4.607 -0.4477 -0.1463  1.3194
 7039TIP3   OH221080   0.836   3.238   0.505  0.3549 -0.6549 -0.1003
 7039TIP3    H121081   0.917   3.196   0.476  1.1483  0.5073  0.3506
 7039TIP3    H221082   0.795   3.269   0.425  0.1256 -1.6321 -0.3698
 7040TIP3   OH221083   4.736   1.823   0.478  0.1752  0.0143 -0.5239
 7040TIP3    H121084   4.677   1.809   0.553  0.9531  0.8935  0.2745
 7040TIP3    H221085   4.822   1.798   0.511  0.6178  0.9673 -0.9440
 7041TIP3   OH221086   5.157   1.565   5.387  0.0714  0.0381  0.2970
 7041TIP3    H121087   5.080   1.530   5.431  0.2120  1.5274  1.8232
 7041TIP3    H221088   5.137   1.556   5.294 -0.4289 -2.8014  0.5784
 7042TIP3   OH221089   0.363   4.396   5.300  0.0316  0.2491 -0.0404
 7042TIP3    H121090   0.431   4.369   5.362  0.1324  1.3325  0.3417
 7042TIP3    H221091   0.303   4.450   5.352 -1.2917 -0.8831 -0.3008
 7043TIP3   OH221092   0.540   3.595   0.241  0.2019 -0.5196  0.3031
 7043TIP3    H121093   0.447   3.615   0.229 -0.3055 -2.3989  0.7106
 7043TIP3    H221094   0.577   3.673   0.281 -1.3902 -0.0437  0.9227
 7044TIP3   OH221095   0.532   0.448   0.086 -0.0274 -0.3359  0.3331
 7044TIP3    H121096   0.462   0.488   0.035 -0.4473  0.6804  1.6567
 7044TIP3    H221097   0.610   0.501   0.067 -0.0079 -0.4332  0.1467
 7045TIP3   OH221098   2.219   1.371   1.594 -0.4762  0.3734 -0.3957
 7045TIP3    H121099   2.138   1.319   1.599  0.6628 -1.4569 -0.3277
 7045TIP3    H221100   2.252   1.355   1.506 -0.5709  1.7460 -0.6965
 7046TIP3   OH221101   6.525   3.553   3.093 -0.3557  0.0122  0.1848
 7046TIP3    H121102   6.525   3.643   3.126  1.6375  0.4198 -0.7426
 7046TIP3    H221103   6.572   3.503   3.160 -1.5523 -0.3826  0.7480
 7047TIP3   OH221104   6.930   5.076   0.983 -0.1674  0.1775 -0.1035
 7047TIP3    H121105   6.868   5.033   1.042  0.4608 -0.2469  0.2455
 7047TIP3    H221106   6.996   5.010   0.964 -0.7888  0.0069 -1.9839
 7048TIP3   OH221107   1.092   0.478   3.508  0.2360 -0.1723  0.0819
 7048TIP3    H121108   1.015   0.483   3.451 -0.1774 -1.5728  0.4759
 7048TIP3    H221109   1.164   0.458   3.449  0.0777 -0.0909 -0.1401
 7049TIP3   OH221110   4.270   1.359   2.737 -0.3329 -0.4306  0.3966
 7049TIP3    H121111   4.354   1.400   2.714 -0.2074  1.0241  3.0731
 7049TIP3    H221112   4.207   1.397   2.676  0.7310 -0.6388 -0.8734
 7050TIP3   OH221113   5.079   2.790   3.308 -0.4014 -0.2382  0.3493
 7050TIP3    H121114   5.017   2.849   3.264 -0.9587 -1.2801 -0.2988
 7050TIP3    H221115   5.103   2.836   3.388  1.2359  2.0832 -1.3321
 7051TIP3   OH221116   4.833   4.242   3.930 -0.2341  0.3377 -0.1302
 7051TIP3    H121117   4.817   4.195   3.848 -0.4720  0.3236 -0.0753
 7051TIP3    H221118   4.755   4.226   3.983  1.1695 -2.3320  1.3812
 7052TIP3   OH221119   2.622   0.678   1.072  0.1984  0.5784 -0.1040
 7052TIP3    H121120   2.534   0.643   1.061  0.2358  0.4915 -0.1278
 7052TIP3    H221121   2.680   0.612   1.032  0.1013  1.8449 -2.5127
 7053TIP3   OH221122   4.403   0.262   3.840 -0.1451 -0.5146  0.2697
 7053TIP3    H121123   4.331   0.324   3.851 -0.4285 -0.5701 -1.0820
 7053TIP3    H221124   4.365   0.177   3.857 -0.9564 -0.7527 -2.3001
 7054TIP3   OH221125   6.330   0.186   4.644 -0.1435 -0.1189  0.2661
 7054TIP3    H121126   6.360   0.271   4.610 -0.2736 -0.2168 -0.1012
 7054TIP3    H221127   6.353   0.123   4.575 -2.6368  0.0238 -0.8156
 7055TIP3   OH221128   1.510   4.307   2.872  0.2056 -0.0705  0.1906
 7055TIP3    H121129   1.511   4.395   2.835  1.8784 -0.2383 -0.2370
 7055TIP3    H221130   1.573   4.311   2.944 -0.6262 -0.6031  0.9612
 7056TIP3   OH221131   5.476   0.260   4.379  0.4969  0.2698  0.4540
 7056TIP3    H121132   5.491   0.174   4.338 -1.7916 -0.4074  0.8715
 7056TIP3    H221133   5.495   0.323   4.310 -0.8663 -0.7408 -0.9302
 7057TIP3   OH221134   6.751   0.412   0.495  0.1366  0.0967 -0.1523
 7057TIP3    H121135   6.674   0.466   0.478  0.0619  0.0285 -0.0210
 7057TIP3    H221136   6.766   0.419   0.589  1.4586  1.7351 -0.4256
 7058TIP3   OH221137   4.549   6.149   2.238  0.1662 -0.3023  0.4669
 7058TIP3    H121138   4.588   6.167   2.324  1.6307 -0.5609 -0.1174
 7058TIP3    H221139   4.569   6.226   2.185 -0.9278 -0.0441  0.3922
 7059TIP3   OH221140   4.096   5.982   4.815  0.0758 -0.3609  0.0555
 7059TIP3    H121141   4.085   5.892   4.845  1.6041 -0.4317  0.5019
 7059TIP3    H221142   4.044   5.988   4.735  0.9068 -1.9991 -0.6550
 7060TIP3   OH221143   5.647   0.951   2.829  0.3586  0.3945 -0.0376
 7060TIP3    H121144   5.710   0.894   2.786  1.1329  0.3633  1.0919
 7060TIP3    H221145   5.673   0.951   2.921 -1.0034  0.7696  0.3747
 7061TIP3   OH221146   1.489   2.228   4.126 -0.3990 -0.2046  0.1989
 7061TIP3    H121147   1.578   2.252   4.154  0.0445 -2.8607  1.3631
 7061TIP3    H221148   1.498   2.142   4.086 -2.3937 -0.3379 -0.0848
 7062TIP3   OH221149   7.121   3.719   0.536 -0.3529 -0.1033  0.1179
 7062TIP3    H121150   7.114   3.810   0.565 -0.4330  0.1602 -0.6945
 7062TIP3    H221151   7.138   3.726   0.442  1.7197 -0.8840  0.3809
 7063TIP3   OH221152   6.904   4.620   0.156  0.1156  0.0940  0.0825
 7063TIP3    H121153   6.933   4.530   0.173  0.3312  0.2104  0.3402
 7063TIP3    H221154   6.979   4.674   0.181  1.7424  0.1560 -4.1377
 7064TIP3   OH221155   1.774   0.676   5.099  0.3772 -0.1271 -0.0765
 7064TIP3    H121156   1.691   0.639   5.131  1.2612 -0.7527  1.6265
 7064TIP3    H221157   1.748   0.741   5.035 -1.4417 -0.3778  0.3549
 7065TIP3   OH221158   2.377   4.177   2.558  0.0492 -0.3814 -0.0728
 7065TIP3    H121159   2.457   4.229   2.546  0.4819 -0.7857  0.9241
 7065TIP3    H221160   2.317   4.237   2.602 -0.3482  0.0374 -1.1390
 7066TIP3   OH221161   1.366   3.952   0.343  0.1584 -0.1551  0.0859
 7066TIP3    H121162   1.457   3.943   0.316 -0.3217 -0.2490 -1.6757
 7066TIP3    H221163   1.365   4.027   0.402  1.2311  0.4666 -0.6512
 7067TIP3   OH221164   3.864   1.223   5.821 -0.5119  0.4601 -0.1831
 7067TIP3    H121165   3.945   1.216   5.872 -0.9794 -0.4312  0.4751
 7067TIP3    H221166   3.892   1.248   5.734  0.5762 -0.7691 -0.2218
 7068TIP3   OH221167   0.755   2.367   5.063 -0.7121 -0.9439  0.1048
 7068TIP3    H121168   0.820   2.429   5.032 -0.8312 -0.1776  1.3127
 7068TIP3    H221169   0.684   2.372   4.999 -1.1496  0.9069  0.6715
 7069TIP3   OH221170   3.886   2.598   1.209 -0.0409 -0.8154 -0.2560
 7069TIP3    H121171   3.950   2.610   1.139  0.3206 -0.1963  0.1716
 7069TIP3    H221172   3.917   2.654   1.280 -0.7903 -0.8843  0.1382
 7070TIP3   OH221173   1.371   6.286   4.450 -0.2138  0.1968  0.4655
 7070TIP3    H121174   1.383   6.192   4.441  0.1206  0.2898 -0.0832
 7070TIP3    H221175   1.369   6.301   4.545  0.2787 -0.2901  0.5544
 7071TIP3   OH221176   0.586   1.546   0.810 -0.1978  0.1784 -0.1094
 7071TIP3    H121177   0.496   1.521   0.829 -0.0904  1.5047  2.5248
 7071TIP3    H221178   0.590   1.640   0.831  0.7622  1.2935 -4.3309
 7072TIP3   OH221179   2.257   4.355   3.885  0.1392 -0.3002  0.2194
 7072TIP3    H121180   2.201   4.399   3.948 -0.3362 -1.1103  0.3788
 7072TIP3    H221181   2.336   4.409   3.881 -0.3287  0.4243  0.5780
 7073TIP3   OH221182   6.339   3.898   3.308 -0.3169 -0.3202  0.3742
 7073TIP3    H121183   6.323   3.813   3.348  0.4288 -0.0452  1.2820
 7073TIP3    H221184   6.400   3.879   3.236 -0.2461 -0.5641  0.4981
 7074TIP3   OH221185   3.555   5.117   3.242 -0.3388  0.0308 -0.0580
 7074TIP3    H121186   3.559   5.104   3.337  1.6327  0.9143  0.0305
 7074TIP3    H221187   3.520   5.205   3.232  1.5403  0.8276 -0.0194
 7075TIP3   OH221188   2.433   6.519   4.645  0.0548 -0.0213 -0.1633
 7075TIP3    H121189   2.450   6.579   4.572 -1.0594 -0.4574 -0.8194
 7075TIP3    H221190   2.517   6.511   4.690  1.2644 -1.1043 -2.4349
 7076TIP3   OH221191   3.152   6.783   2.647 -0.6899 -0.0401  0.6536
 7076TIP3    H121192   3.195   6.804   2.729  0.6048  0.5280 -0.1499
 7076TIP3    H221193   3.063   6.756   2.673  0.3634 -2.1229  2.4336
 7077TIP3   OH221194   6.724   2.030   0.055  0.1893 -0.8981  0.3646
 7077TIP3    H121195   6.683   2.113   0.080  0.4542 -0.5907 -0.2032
 7077TIP3    H221196   6.791   2.015   0.122 -0.2646 -0.9600  0.8064
 7078TIP3   OH221197   5.631   4.940   4.218  0.1973 -0.2427 -0.0205
 7078TIP3    H121198   5.542   4.907   4.235  0.0796  0.9982  2.1363
 7078TIP3    H221199   5.685   4.861   4.215 -0.7638 -0.9257  0.1258
 7079TIP3   OH221200   6.619   4.152   1.553 -0.5845  0.3575  0.6416
 7079TIP3    H121201   6.589   4.195   1.473 -2.4216  0.8378  1.5399
 7079TIP3    H221202   6.551   4.088   1.573  0.5579 -0.7690  1.0738
 7080TIP3   OH221203   4.016   4.410   5.818 -0.0975  0.0112  0.0112
 7080TIP3    H121204   4.060   4.453   5.745  0.3864 -0.5028 -0.0125
 7080TIP3    H221205   4.042   4.459   5.896 -0.0073  0.1012 -0.0768
 7081TIP3   OH221206   5.277   2.961   0.081  0.2137 -0.0282 -0.4602
 7081TIP3    H121207   5.244   2.991  -0.004 -2.3980  1.9517  1.1080
 7081TIP3    H221208   5.220   2.887   0.104  1.9566 -1.6453 -1.0446
 7082TIP3   OH221209   4.870   1.523   0.299 -0.1587  0.0183 -0.3146
 7082TIP3    H121210   4.844   1.448   0.353  0.3294 -0.4579 -0.7284
 7082TIP3    H221211   4.900   1.589   0.362  2.9732 -1.5031 -0.0395
 7083TIP3   OH221212   4.096   2.305   5.372 -0.0427 -0.1464  0.4569
 7083TIP3    H121213   4.070   2.218   5.403 -0.5896  0.1641  0.8753
 7083TIP3    H221214   4.134   2.288   5.285 -0.5888 -0.7510  0.3219
 7084TIP3   OH221215   0.091   2.400   2.923  0.4144  0.1558 -0.4515
 7084TIP3    H121216   0.027   2.442   2.981  0.6531  1.8865 -1.3635
 7084TIP3    H221217   0.144   2.473   2.889  1.6502 -1.0372 -1.1862
 7085TIP3   OH221218   4.136   0.688   2.295 -0.4421 -0.3256 -0.0866
 7085TIP3    H121219   4.062   0.630   2.276 -0.4712 -0.6853  1.0279
 7085TIP3    H221220   4.213   0.634   2.281 -0.3648  0.0961 -1.4029
 7086TIP3   OH221221   1.988   3.342   4.703  0.2909  0.1297  0.5736
 7086TIP3    H121222   2.074   3.322   4.664  0.6028  1.7778  0.3360
 7086TIP3    H221223   2.008   3.397   4.778 -0.5908  1.2979 -0.0173
 7087TIP3   OH221224   4.603   3.989   4.586 -0.3865 -1.1293  0.0882
 7087TIP3    H121225   4.695   4.010   4.571 -0.9910  0.7727 -1.4562
 7087TIP3    H221226   4.594   3.986   4.681  1.1456 -0.6407  0.2711
 7088TIP3   OH221227   5.450   3.155   5.409 -0.4032 -0.3238 -0.9145
 7088TIP3    H121228   5.392   3.167   5.484  0.2646 -1.8146 -0.1199
 7088TIP3    H221229   5.536   3.182   5.442  0.0181 -1.6212 -0.9132
 7089TIP3   OH221230   0.081   1.351   0.060 -0.0121 -0.3754  0.0202
 7089TIP3    H121231   0.061   1.330   0.151 -0.1393 -2.8438 -0.5208
 7089TIP3    H221232   0.117   1.271   0.024 -0.0912  0.5039 -2.1594
 7090TIP3   OH221233   3.055   1.825   2.162 -0.1387  0.2148  0.3172
 7090TIP3    H121234   3.080   1.791   2.076 -0.9444  0.1140  0.1179
 7090TIP3    H221235   3.066   1.919   2.154 -0.7847  0.2581 -0.0896
 7091TIP3   OH221236   3.901   0.145   5.545  0.0085 -0.5641 -0.1011
 7091TIP3    H121237   3.913   0.222   5.489 -0.0630  1.6135  2.6462
 7091TIP3    H221238   3.817   0.160   5.587  0.4136 -1.7200  1.1654
 7092TIP3   OH221239   6.840   6.766   4.818  0.6946  0.2041  0.1264
 7092TIP3    H121240   6.891   6.831   4.867  0.4418  0.5964 -0.1185
 7092TIP3    H221241   6.880   6.767   4.731  1.1178 -0.4620  0.3094
 7093TIP3   OH221242   0.138   2.117   2.590  0.0603 -0.3308 -0.0723
 7093TIP3    H121243   0.165   2.143   2.678 -2.1800 -1.1981  0.9310
 7093TIP3    H221244   0.064   2.174   2.569  0.9831  0.3354 -1.7238
 7094TIP3   OH221245   6.930   3.029   1.955  0.1215 -0.8778  0.1985
 7094TIP3    H121246   7.014   3.075   1.949  0.0941 -0.5284  1.9269
 7094TIP3    H221247   6.953   2.937   1.946  1.4278 -1.2564  4.6222
 7095TIP3   OH221248   1.511   1.356   3.928  0.2974  0.2862  0.0777
 7095TIP3    H121249   1.489   1.266   3.902  0.9313  0.1033  0.1707
 7095TIP3    H221250   1.436   1.383   3.982 -0.9033  0.5756 -1.6526
 7096TIP3   OH221251   2.428   3.234   2.357  0.2806 -0.0784  0.3187
 7096TIP3    H121252   2.348   3.201   2.397 -0.0272 -0.9316 -0.9428
 7096TIP3    H221253   2.398   3.300   2.295  0.3533 -1.5470 -1.3597
 7097TIP3   OH221254   2.273   0.557   1.555  0.4630 -0.0873 -0.1987
 7097TIP3    H121255   2.252   0.651   1.550 -1.0452 -0.4550 -2.0579
 7097TIP3    H221256   2.188   0.513   1.545  1.1274 -1.6805  0.7682
 7098TIP3   OH221257   3.360   3.442   1.672  0.0403 -0.0968  0.2611
 7098TIP3    H121258   3.299   3.434   1.598  1.4652 -0.2241 -0.9655
 7098TIP3    H221259   3.376   3.352   1.699 -0.4155 -0.0551  0.6781
 7099TIP3   OH221260   5.781   5.173   2.887 -0.0030  0.2066 -0.2061
 7099TIP3    H121261   5.833   5.208   2.816 -1.0572 -0.9384 -1.6045
 7099TIP3    H221262   5.825   5.092   2.911 -0.1338  0.1495 -0.1577
 7100TIP3   OH221263   3.506   2.995   2.137  0.1447 -0.9175  0.0841
 7100TIP3    H121264   3.591   2.974   2.175  0.1878 -0.9443 -0.0273
 7100TIP3    H221265   3.459   2.912   2.136 -0.3893 -0.6708  1.4015
 7101TIP3   OH221266   1.487   4.952   0.033  0.2704 -0.3212  0.2084
 7101TIP3    H121267   1.446   4.956   0.119 -0.3877  0.7660 -0.1357
 7101TIP3    H221268   1.471   4.863   0.002 -1.7812  0.0430  0.1187
 7102TIP3   OH221269   1.769   2.465   5.469  0.4407 -0.4224 -0.5863
 7102TIP3    H121270   1.834   2.532   5.491 -1.2875  0.8606  0.9723
 7102TIP3    H221271   1.821   2.389   5.443  2.5976  0.3277  1.1802
 7103TIP3   OH221272   3.342   5.073   2.300  0.1095 -0.5498 -0.3790
 7103TIP3    H121273   3.431   5.051   2.326  0.7129 -0.2826 -2.0897
 7103TIP3    H221274   3.327   5.160   2.337 -0.3149 -1.4885  1.8170
 7104TIP3   OH221275   5.135   0.304   0.372  0.3213 -0.0003 -0.2819
 7104TIP3    H121276   5.043   0.327   0.379  0.1107 -0.6038 -0.9551
 7104TIP3    H221277   5.136   0.226   0.316  1.1530 -0.5799  0.5106
 7105TIP3   OH221278   4.511   1.883   1.078 -0.1150  0.2436  0.7333
 7105TIP3    H121279   4.575   1.813   1.066  0.6048  0.7168  1.6832
 7105TIP3    H221280   4.426   1.841   1.064  0.3659 -0.4973 -0.0987
 7106TIP3   OH221281   5.786   3.779   5.209  0.3230 -0.3278  0.4752
 7106TIP3    H121282   5.824   3.855   5.253  0.1316 -0.7238  1.3615
 7106TIP3    H221283   5.726   3.816   5.144  0.6380  0.2790  0.5225
 7107TIP3   OH221284   4.574   2.308   2.774 -0.1340 -0.0542 -0.5985
 7107TIP3    H121285   4.633   2.233   2.787 -0.2348 -0.2409 -1.1892
 7107TIP3    H221286   4.491   2.280   2.814  0.0064 -0.0127 -0.2711
 7108TIP3   OH221287   3.771   6.182   5.398  0.2623  0.3947  0.0474
 7108TIP3    H121288   3.835   6.147   5.460 -0.2397 -0.1941  0.2359
 7108TIP3    H221289   3.738   6.106   5.352 -0.3966  0.6834  0.0347
 7109TIP3   OH221290   3.301   5.119   5.185  0.2640 -0.6493 -0.0136
 7109TIP3    H121291   3.287   5.212   5.172 -0.5957 -0.6113  1.0254
 7109TIP3    H221292   3.394   5.106   5.169  0.5805  0.5563  0.7135
 7110TIP3   OH221293   4.279   5.267   2.241  0.2078  0.5551  0.5355
 7110TIP3    H121294   4.308   5.176   2.238  0.3923  0.5944  0.9857
 7110TIP3    H221295   4.244   5.278   2.330 -0.0179  0.8627  0.4105
 7111TIP3   OH221296   5.413   4.957   1.519  0.4432  1.1271 -0.2066
 7111TIP3    H121297   5.361   4.953   1.600 -2.4341  0.0838 -1.9356
 7111TIP3    H221298   5.380   5.034   1.473  1.4373  1.2180 -0.7922
 7112TIP3   OH221299   1.883   3.742   0.006 -0.4716 -0.1076  0.0244
 7112TIP3    H121300   1.950   3.796   0.050 -0.5805 -0.9098  1.2278
 7112TIP3    H221301   1.851   3.684   0.075  1.5202 -3.6048 -1.7275
 7113TIP3   OH221302   2.321   4.836   4.886  0.0765  0.0943 -0.1663
 7113TIP3    H121303   2.328   4.742   4.899  0.1782 -0.0854 -1.4055
 7113TIP3    H221304   2.242   4.861   4.934  1.5932 -0.1033  2.6496
 7114TIP3   OH221305   6.344   5.344   5.331  0.9479 -0.1954 -0.1802
 7114TIP3    H121306   6.386   5.427   5.350  0.0273 -0.1190  1.8294
 7114TIP3    H221307   6.278   5.365   5.264  2.6688  0.0530 -1.8694
 7115TIP3   OH221308   4.666   6.630   5.359 -0.2753 -0.4405 -0.0167
 7115TIP3    H121309   4.650   6.538   5.378  1.1057 -1.0157 -1.4535
 7115TIP3    H221310   4.732   6.630   5.290 -2.1204  1.5690 -1.9456
 7116TIP3   OH221311   6.935   4.931   3.514 -0.1359  0.7107  0.0098
 7116TIP3    H121312   6.875   5.000   3.544  0.6736  1.0545  0.8660
 7116TIP3    H221313   6.878   4.856   3.496 -0.7927  0.9306  1.1071
 7117TIP3   OH221314   1.813   3.477   0.789 -0.1829  0.4150 -0.3454
 7117TIP3    H121315   1.894   3.484   0.840  0.1285  0.7936 -0.8873
 7117TIP3    H221316   1.745   3.509   0.849  0.3233  1.8826 -0.4973
 7118TIP3   OH221317   4.841   3.008   2.655  0.3905  0.5368 -0.0254
 7118TIP3    H121318   4.819   2.937   2.714  0.5633 -0.3180 -0.9689
 7118TIP3    H221319   4.843   3.086   2.711 -1.6148  0.1213  0.6992
 7119TIP3   OH221320   2.617   0.729   0.622 -0.7831 -0.5936 -0.4280
 7119TIP3    H121321   2.601   0.635   0.632 -1.0220 -0.5262 -0.1660
 7119TIP3    H221322   2.700   0.745   0.668 -1.3050 -0.4829  0.4895
 7120TIP3   OH221323   6.724   6.488   2.994 -0.3905 -0.3065  0.7374
 7120TIP3    H121324   6.658   6.425   2.965  0.7325 -0.9007 -0.6735
 7120TIP3    H221325   6.799   6.434   3.020  0.7078  0.3830 -0.7868
 7121TIP3   OH221326   1.869   5.742   1.537  0.0269  0.2279 -0.1777
 7121TIP3    H121327   1.791   5.759   1.591 -1.6772  1.0365 -2.7013
 7121TIP3    H221328   1.943   5.766   1.593 -1.5239 -0.1535  2.1794
 7122TIP3   OH221329   5.798   0.522   5.353 -0.5317  0.1773 -0.3231
 7122TIP3    H121330   5.828   0.609   5.381  0.2322  1.0038 -3.3349
 7122TIP3    H221331   5.820   0.464   5.426 -2.1494  2.6345  2.2969
 7123TIP3   OH221332   5.794   4.421   4.062 -0.3672  0.1542 -0.8949
 7123TIP3    H121333   5.817   4.384   4.147 -0.9514 -2.2799 -1.6842
 7123TIP3    H221334   5.699   4.420   4.060 -0.3698 -1.3155 -2.1042
 7124TIP3   OH221335   5.249   5.318   3.699  0.2570 -0.1689  0.3100
 7124TIP3    H121336   5.154   5.326   3.696  0.2955  0.0145 -1.2077
 7124TIP3    H221337   5.266   5.246   3.760 -0.8418 -0.2021  0.5949
 7125TIP3   OH221338   5.650   0.384   1.791 -0.0712 -0.0345  0.3200
 7125TIP3    H121339   5.604   0.436   1.725  0.6776  1.0553  0.6313
 7125TIP3    H221340   5.742   0.408   1.780  0.1966 -0.7260  0.9836
 7126TIP3   OH221341   1.677   6.112   1.762 -1.0298  0.3715  0.4609
 7126TIP3    H121342   1.586   6.104   1.793 -1.7087 -0.2495 -1.5334
 7126TIP3    H221343   1.669   6.118   1.667  1.1005 -1.1362  0.1175
 7127TIP3   OH221344   4.104   2.294   4.764 -0.1194 -0.1975 -0.0427
 7127TIP3    H121345   4.052   2.356   4.713  0.1725 -1.2734 -1.7241
 7127TIP3    H221346   4.043   2.224   4.787 -0.1327  0.0490  0.7179
 7128TIP3   OH221347   4.975   5.155   5.848 -0.1246  0.2226  0.6109
 7128TIP3    H121348   4.909   5.173   5.915 -1.7752  1.0311 -1.1288
 7128TIP3    H221349   4.944   5.204   5.771  0.6294 -2.1793 -1.3212
 7129TIP3   OH221350   4.921   3.097   0.481 -0.6841  0.0022 -0.2014
 7129TIP3    H121351   5.011   3.127   0.488 -0.8047  0.4035 -0.3253
 7129TIP3    H221352   4.892   3.130   0.395 -0.7350 -0.6984 -0.4619
 7130TIP3   OH221353   6.984   5.356   1.893  0.3602  0.4460 -0.5069
 7130TIP3    H121354   6.959   5.264   1.884 -1.7443  0.9055  0.0279
 7130TIP3    H221355   7.026   5.361   1.979 -0.8116  0.2130  0.0943
 7131TIP3   OH221356   1.327   4.710   2.678  0.2416  0.5773  0.5926
 7131TIP3    H121357   1.339   4.681   2.768  0.8614 -0.4345  0.2016
 7131TIP3    H221358   1.330   4.806   2.683  0.4587  0.5305  1.6170
 7132TIP3   OH221359   0.468   0.914   0.663 -0.2062  0.4184 -0.1976
 7132TIP3    H121360   0.376   0.894   0.647 -0.4563  0.7583  0.7319
 7132TIP3    H221361   0.502   0.946   0.580 -0.8017 -0.1637 -0.6717
 7133TIP3   OH221362   3.768   0.778   2.439  0.6790 -0.0483 -0.0927
 7133TIP3    H121363   3.767   0.731   2.355  1.2604 -0.2997  0.0415
 7133TIP3    H221364   3.764   0.870   2.414  0.0673 -0.1400 -0.3732
 7134TIP3   OH221365   0.702   6.375   0.854 -0.0390 -0.2820  0.1695
 7134TIP3    H121366   0.633   6.439   0.873 -0.2541 -0.3305 -0.4304
 7134TIP3    H221367   0.667   6.292   0.885  0.0662 -0.1785  0.5658
 7135TIP3   OH221368   6.885   1.626   4.623  0.0772  0.0723  0.0959
 7135TIP3    H121369   6.926   1.645   4.708  1.3626 -2.4563  0.1675
 7135TIP3    H221370   6.821   1.557   4.643 -0.7399  0.5652 -0.7682
 7136TIP3   OH221371   3.702   0.764   3.996  0.3728  0.4975 -0.3243
 7136TIP3    H121372   3.635   0.717   4.046  0.3079  1.4849  0.5423
 7136TIP3    H221373   3.669   0.853   3.988  1.5122  0.9822  0.0263
 7137TIP3   OH221374   5.078   1.812   3.735 -0.0442  0.2219  0.3600
 7137TIP3    H121375   5.054   1.818   3.827 -0.7080  0.3318  0.1830
 7137TIP3    H221376   5.165   1.852   3.730 -0.0511  0.3071  0.9197
 7138TIP3   OH221377   3.203   4.536   0.842  0.3554  0.1189  0.9129
 7138TIP3    H121378   3.131   4.581   0.885 -0.2888 -0.3570  0.3441
 7138TIP3    H221379   3.225   4.464   0.902 -0.2595 -0.2869  0.6627
 7139TIP3   OH221380   4.420   1.739   1.865  0.1118 -0.3768  0.9331
 7139TIP3    H121381   4.392   1.818   1.818  2.1273 -0.3288 -0.3208
 7139TIP3    H221382   4.515   1.751   1.877  0.1338 -1.7536  2.4448
 7140TIP3   OH221383   7.031   0.140   0.664  0.2303  0.2446 -0.0923
 7140TIP3    H121384   7.001   0.091   0.588  1.0655 -0.6209  0.1049
 7140TIP3    H221385   6.976   0.109   0.736  0.9657 -0.6847  0.0964
 7141TIP3   OH221386   5.959   5.278   3.159 -0.4906  0.4436 -0.4677
 7141TIP3    H121387   5.902   5.322   3.095  0.1741 -0.1467 -1.4929
 7141TIP3    H221388   5.900   5.250   3.228 -1.2567  0.9567 -0.8929
 7142TIP3   OH221389   5.999   0.526   2.219  0.2612  0.1295 -0.1018
 7142TIP3    H121390   6.084   0.483   2.228  0.8940  1.5652  1.3124
 7142TIP3    H221391   5.973   0.546   2.309 -1.1838  0.4344 -0.5708
 7143TIP3   OH221392   2.005   3.218   0.226 -0.2373  0.5125 -0.3573
 7143TIP3    H121393   2.004   3.122   0.220  0.8292  0.4934 -0.5510
 7143TIP3    H221394   2.095   3.242   0.203  0.2077  1.3929  1.9394
 7144TIP3   OH221395   5.456   6.220   2.914 -0.3490  0.2059 -0.3475
 7144TIP3    H121396   5.474   6.302   2.960 -0.1875 -0.1639  0.2604
 7144TIP3    H221397   5.363   6.224   2.893 -0.3841  0.4586 -0.1452
 7145TIP3   OH221398   2.832   4.403   5.232  0.3070  0.1481 -0.0809
 7145TIP3    H121399   2.846   4.345   5.306 -0.0221 -0.6014 -0.5852
 7145TIP3    H221400   2.913   4.397   5.181 -0.2680 -1.0674 -0.9125
 7146TIP3   OH221401   1.578   2.151   0.906 -0.4610  0.3668 -0.4760
 7146TIP3    H121402   1.642   2.087   0.878 -0.3182  0.1443  0.3194
 7146TIP3    H221403   1.520   2.103   0.965 -0.6589  0.8424 -0.2732
 7147TIP3   OH221404   4.833   1.023   5.106 -0.5375  0.2528  0.8272
 7147TIP3    H121405   4.901   0.996   5.044 -0.4195 -0.7447  1.3702
 7147TIP3    H221406   4.772   0.949   5.107 -1.5128  1.0229  0.5393
 7148TIP3   OH221407   0.967   1.787   4.114 -0.0816  0.1196  0.0895
 7148TIP3    H121408   0.875   1.794   4.088 -0.4398 -1.1506  0.9683
 7148TIP3    H221409   0.973   1.704   4.161  1.2960  0.7109  1.0032
 7149TIP3   OH221410   6.246   2.635   1.550 -0.3185 -0.5131  1.0497
 7149TIP3    H121411   6.263   2.677   1.634 -0.3107 -2.3221  2.0085
 7149TIP3    H221412   6.284   2.548   1.559 -1.3279 -1.1462 -0.4084
 7150TIP3   OH221413   6.640   3.848   1.595 -0.3021 -0.3206  0.1032
 7150TIP3    H121414   6.725   3.829   1.555 -0.6633 -0.9443 -0.3891
 7150TIP3    H221415   6.618   3.769   1.644 -1.0431 -0.5471 -0.5721
 7151TIP3   OH221416   4.789   4.702   2.739 -0.5985  0.3414  0.2171
 7151TIP3    H121417   4.703   4.682   2.703 -0.1433 -2.0961  0.3406
 7151TIP3    H221418   4.835   4.748   2.669 -1.2051 -0.4512 -0.7201
 7152TIP3   OH221419   2.214   1.564   3.002 -0.1687 -0.7776  0.0638
 7152TIP3    H121420   2.140   1.598   2.952 -0.4551 -1.8234 -0.2441
 7152TIP3    H221421   2.283   1.630   2.991 -0.8609 -0.0718 -0.1170
 7153TIP3   OH221422   1.822   6.653   0.427  0.1275 -0.6163 -0.5772
 7153TIP3    H121423   1.902   6.702   0.444  0.7733 -2.0431  0.7237
 7153TIP3    H221424   1.848   6.562   0.435 -1.8297 -1.1019  0.9756
 7154TIP3   OH221425   0.833   2.559   5.907  0.0149  0.3682  0.0651
 7154TIP3    H121426   0.861   2.521   5.824  0.7316  1.7109 -0.3372
 7154TIP3    H221427   0.739   2.539   5.913  0.4403 -1.8322  0.1259
 7155TIP3   OH221428   4.050   4.056   2.937 -0.2144 -0.0267  0.2517
 7155TIP3    H121429   4.023   3.972   2.975 -1.3187 -1.2560 -2.9510
 7155TIP3    H221430   3.971   4.110   2.942 -1.3033 -1.1737 -2.6340
 7156TIP3   OH221431   5.231   0.618   3.821  0.7047 -0.1859 -0.3165
 7156TIP3    H121432   5.270   0.543   3.776  0.7773  0.9232 -2.2089
 7156TIP3    H221433   5.186   0.580   3.897  2.4831 -1.8808 -0.0441
 7157TIP3   OH221434   1.068   3.427   5.263 -0.4872  0.9022  0.1292
 7157TIP3    H121435   1.075   3.508   5.314  0.4309 -0.4816  2.3804
 7157TIP3    H221436   1.132   3.438   5.192  0.9987  1.4613  1.4786
 7158TIP3   OH221437   6.225   5.207   4.554 -0.5935 -0.2708  0.4332
 7158TIP3    H121438   6.248   5.152   4.628  2.4642  1.1853  0.7377
 7158TIP3    H221439   6.306   5.213   4.503 -0.9028  3.3168  0.1014
 7159TIP3   OH221440   7.138   3.047   2.428  0.0366  0.0549  0.1724
 7159TIP3    H121441   7.231   3.064   2.416 -0.1611  0.6886 -0.5222
 7159TIP3    H221442   7.127   2.957   2.398  0.3832  0.0575  0.0294
 7160TIP3   OH221443   4.152   5.524   5.278  0.4749 -0.6947 -0.0899
 7160TIP3    H121444   4.197   5.591   5.330  1.2006 -1.0437 -0.2518
 7160TIP3    H221445   4.121   5.460   5.342  0.9740 -0.8930 -0.0383
 7161TIP3   OH221446   2.636   4.608   5.336 -0.0075 -0.4520  0.7869
 7161TIP3    H121447   2.580   4.533   5.316 -2.6288  1.1710  1.5838
 7161TIP3    H221448   2.630   4.663   5.258 -0.1217  0.0887  1.1774
 7162TIP3   OH221449   0.094   1.457   5.815 -0.1743  0.5213 -0.0556
 7162TIP3    H121450   0.095   1.374   5.767  1.3873  0.3007  0.3084
 7162TIP3    H221451   0.128   1.521   5.753  3.7974 -0.1126  1.2078
 7163TIP3   OH221452   3.141   3.080   5.207 -0.3308  0.2933 -0.3054
 7163TIP3    H121453   3.144   3.155   5.148 -0.4372  0.8579  0.3944
 7163TIP3    H221454   3.145   3.118   5.295 -3.6760 -0.2628  0.2187
 7164TIP3   OH221455   4.606   2.187   5.820 -0.3928 -0.0191 -0.2948
 7164TIP3    H121456   4.572   2.270   5.788 -0.6037 -0.3493 -0.9560
 7164TIP3    H221457   4.701   2.194   5.811 -0.2102  1.0395  1.8814
 7165TIP3   OH221458   6.882   4.108   5.384 -0.5854  0.4061 -0.8358
 7165TIP3    H121459   6.827   4.150   5.450 -1.4990  0.1180 -1.4014
 7165TIP3    H221460   6.878   4.015   5.405  1.2385  0.5172  0.2655
 7166TIP3   OH221461   6.388   2.885   3.685 -0.1457 -0.2524  0.9599
 7166TIP3    H121462   6.431   2.820   3.740  2.1991  2.4149  2.5931
 7166TIP3    H221463   6.442   2.889   3.606 -0.7036 -0.7509  0.5470
 7167TIP3   OH221464   3.597   2.888   4.861 -0.1149  0.0885  0.2406
 7167TIP3    H121465   3.522   2.938   4.826 -0.7274 -0.3639  0.8812
 7167TIP3    H221466   3.557   2.816   4.908  0.7248  0.1831  1.1192
 7168TIP3   OH221467   3.439   1.318   2.160 -0.4348 -0.0297  0.2012
 7168TIP3    H121468   3.472   1.388   2.217 -2.5178  0.3334  1.0577
 7168TIP3    H221469   3.440   1.240   2.216 -1.6835  0.1537  0.5253
 7169TIP3   OH221470   3.354   0.920   2.553  0.4158 -0.3240 -0.2810
 7169TIP3    H121471   3.396   0.834   2.554  1.3270  0.0669 -1.9780
 7169TIP3    H221472   3.422   0.980   2.521 -0.4552  0.8898  0.0600
 7170TIP3   OH221473   1.002   5.123   4.849  0.3800 -0.1046  0.4342
 7170TIP3    H121474   0.950   5.139   4.769 -0.4644 -1.9735  0.5601
 7170TIP3    H221475   1.086   5.092   4.816  0.4709  0.3239  0.2566
 7171TIP3   OH221476   3.321   4.681   5.089  0.4631  0.2877 -0.5615
 7171TIP3    H121477   3.261   4.752   5.111  1.6846  0.5233  2.4745
 7171TIP3    H221478   3.373   4.716   5.017  1.2981  2.7171  1.1021
 7172TIP3   OH221479   5.245   2.229   4.624 -0.3482  0.2419 -0.0332
 7172TIP3    H121480   5.331   2.220   4.663 -0.1382 -0.7206 -0.6815
 7172TIP3    H221481   5.212   2.139   4.617 -0.7328  0.4527 -1.2285
 7173TIP3   OH221482   5.339   1.720   4.051  0.0149 -0.1136  0.0907
 7173TIP3    H121483   5.325   1.811   4.026  0.6792 -0.8893 -3.7293
 7173TIP3    H221484   5.433   1.705   4.039 -0.1369 -1.3715  0.2950
 7174TIP3   OH221485   5.289   2.955   4.499 -0.2339  0.2415 -0.0659
 7174TIP3    H121486   5.368   3.009   4.504  0.0014 -0.1985  1.6489
 7174TIP3    H221487   5.222   3.005   4.545 -0.5494 -0.0486 -0.2029
 7175TIP3   OH221488   5.308   0.962   4.413 -0.0068  0.3466  0.3284
 7175TIP3    H121489   5.214   0.979   4.406  0.0030  0.6919  0.9000
 7175TIP3    H221490   5.315   0.867   4.414 -0.3847  0.3161  0.6051
 7176TIP3   OH221491   0.081   0.050   5.320  0.1087 -0.6405  0.0168
 7176TIP3    H121492   0.162   0.041   5.369 -0.1579 -0.4036  0.5016
 7176TIP3    H221493   0.060  -0.040   5.293 -0.7502 -1.0822  1.9748
 7177TIP3   OH221494   2.463   4.670   1.831  0.0689  0.2873 -0.2100
 7177TIP3    H121495   2.556   4.650   1.840 -0.0939 -1.2088 -1.3721
 7177TIP3    H221496   2.445   4.736   1.898  1.7419 -0.1462  0.7126
 7178TIP3   OH221497   5.238   3.254   5.552  0.4296 -0.3777 -0.2343
 7178TIP3    H121498   5.171   3.199   5.593 -1.0319 -0.0619 -2.0786
 7178TIP3    H221499   5.262   3.316   5.621 -0.3206 -1.2213  0.8409
 7179TIP3   OH221500   6.474   4.099   2.210  0.0278  0.2065 -0.3699
 7179TIP3    H121501   6.477   4.178   2.264 -2.0039  1.1269 -1.4709
 7179TIP3    H221502   6.452   4.029   2.272 -0.2468  0.8733  0.3103
 7180TIP3   OH221503   4.117   1.835   4.239  0.6535  0.3504  0.1912
 7180TIP3    H121504   4.161   1.884   4.308 -2.0057  0.8348  1.6721
 7180TIP3    H221505   4.025   1.861   4.246  0.1522 -0.0373 -3.1901
 7181TIP3   OH221506   4.489   5.687   1.301  0.8680 -0.9555 -0.4848
 7181TIP3    H121507   4.572   5.694   1.254 -0.2759  2.2740 -2.3543
 7181TIP3    H221508   4.422   5.700   1.234 -1.0723 -1.1221  1.3203
 7182TIP3   OH221509   2.509   1.943   4.455 -0.1775 -0.4278 -0.0065
 7182TIP3    H121510   2.500   1.959   4.361  0.0751  3.3317  0.4877
 7182TIP3    H221511   2.595   1.901   4.464 -0.4864 -1.4576 -1.4345
 7183TIP3   OH221512   4.795   3.008   4.258 -0.3212 -0.4163 -0.1550
 7183TIP3    H121513   4.859   3.047   4.199  0.9030  0.3194  1.5802
 7183TIP3    H221514   4.846   2.978   4.333 -1.4281 -3.8774 -0.6165
 7184TIP3   OH221515   4.870   6.780   3.147  0.1312 -0.1677  0.2979
 7184TIP3    H121516   4.945   6.789   3.088 -0.8908  0.1817 -1.0080
 7184TIP3    H221517   4.812   6.719   3.102 -1.0560  0.7658  0.5163
 7185TIP3   OH221518   5.884   3.478   2.139  1.0792 -0.2689 -0.2572
 7185TIP3    H121519   5.884   3.550   2.076  1.6285  0.6176  0.7207
 7185TIP3    H221520   5.832   3.510   2.212  1.9798 -0.5568  0.5248
 7186TIP3   OH221521   4.776   5.148   2.732  0.0213 -0.3977  0.3199
 7186TIP3    H121522   4.682   5.164   2.742 -0.0389  0.2546 -1.0260
 7186TIP3    H221523   4.810   5.148   2.822 -0.6517  3.3897  0.7343
 7187TIP3   OH221524   6.549   2.278   1.950 -0.5422  0.0810  0.0121
 7187TIP3    H121525   6.615   2.287   2.019 -0.6285 -0.6800  0.1993
 7187TIP3    H221526   6.526   2.186   1.951 -1.8801  0.4009  0.1905
 7188TIP3   OH221527   1.329   0.964   5.526  0.1171  0.4728  0.0694
 7188TIP3    H121528   1.344   0.995   5.437 -1.4666  0.7246 -0.1492
 7188TIP3    H221529   1.327   1.044   5.579  1.0066  0.3273  0.3272
 7189TIP3   OH221530   1.843   2.849   3.808 -0.5031  0.4396 -0.2048
 7189TIP3    H121531   1.934   2.843   3.835 -0.2141  2.4920 -0.5571
 7189TIP3    H221532   1.845   2.898   3.726 -1.8605 -0.3501 -0.7535
 7190TIP3   OH221533   1.954   5.418   2.602 -0.0503  0.1034 -0.5039
 7190TIP3    H121534   1.989   5.498   2.641 -0.6128  0.2877 -0.3603
 7190TIP3    H221535   1.869   5.406   2.645 -0.8416  0.4985 -1.8990
 7191TIP3   OH221536   6.672   1.206   2.613 -0.1608  0.1076 -0.5225
 7191TIP3    H121537   6.762   1.237   2.614 -0.1178  0.0776  1.5055
 7191TIP3    H221538   6.676   1.121   2.657 -1.4107  1.0316  1.5615
 7192TIP3   OH221539   6.880   3.700   1.585 -0.1923 -0.2779  0.0982
 7192TIP3    H121540   6.838   3.660   1.662 -1.2861  0.6041 -0.0109
 7192TIP3    H221541   6.952   3.641   1.564 -1.0527 -1.5703  0.6273
 7193TIP3   OH221542   6.767   1.175   2.148 -0.0954  0.5055 -0.0470
 7193TIP3    H121543   6.675   1.181   2.174  0.9601  1.3484  4.1669
 7193TIP3    H221544   6.796   1.266   2.142  0.8952  0.2264  0.4696
 7194TIP3   OH221545   6.701   5.804   5.583  0.0793 -0.0264  0.0203
 7194TIP3    H121546   6.748   5.755   5.650  0.7837 -0.0495 -0.4786
 7194TIP3    H221547   6.754   5.883   5.569 -0.0302 -0.0443 -0.5415
 7195TIP3   OH221548   5.658   5.647   2.847  0.0531 -0.8423  0.1303
 7195TIP3    H121549   5.705   5.708   2.791 -0.3950  0.8654  1.5218
 7195TIP3    H221550   5.622   5.701   2.917 -2.8765 -2.2664 -0.1292
 7196TIP3   OH221551   2.134   1.144   3.780 -0.0425  0.7442 -0.2643
 7196TIP3    H121552   2.212   1.192   3.752  1.2592 -1.0970  0.0114
 7196TIP3    H221553   2.141   1.139   3.875 -0.0428 -0.1726 -0.3079
 7197TIP3   OH221554   4.790   6.781   5.001  0.1625  0.1573  0.4927
 7197TIP3    H121555   4.854   6.717   5.031 -0.0487 -0.3888 -0.2037
 7197TIP3    H221556   4.825   6.865   5.030  1.9800  0.0367 -1.1537
 7198TIP3   OH221557   1.800   4.722   0.727 -0.1036 -0.9418  0.3989
 7198TIP3    H121558   1.829   4.781   0.658 -1.9670  1.1307  1.2492
 7198TIP3    H221559   1.804   4.635   0.688  1.2840 -0.1200 -1.4375
 7199TIP3   OH221560   6.109   6.062   1.541  0.4693  0.3283 -0.1593
 7199TIP3    H121561   6.129   5.970   1.558 -0.6592  0.2131  0.6513
 7199TIP3    H221562   6.165   6.085   1.466  0.0619 -1.2852 -1.0067
 7200TIP3   OH221563   6.963   1.112   2.878  0.0079 -0.5129 -0.1283
 7200TIP3    H121564   6.943   1.195   2.835 -0.0333 -0.3736  0.1541
 7200TIP3    H221565   6.878   1.069   2.886 -0.5170  0.8145  2.5935
 7201TIP3   OH221566   5.261   5.370   0.877  0.4321 -0.0082 -0.6837
 7201TIP3    H121567   5.329   5.344   0.816 -0.7245 -2.9049 -0.8732
 7201TIP3    H221568   5.268   5.308   0.950 -0.5668  1.0511  0.3745
 7202TIP3   OH221569   0.843   0.057   3.851  0.0804 -0.0338  0.1034
 7202TIP3    H121570   0.829   0.103   3.768  1.8017 -0.6759 -0.5794
 7202TIP3    H221571   0.777  -0.013   3.850  1.1617 -1.1221 -1.5873
 7203TIP3   OH221572   5.114   3.498   4.965 -0.0377  0.2518  0.1608
 7203TIP3    H121573   5.076   3.411   4.975 -0.6156  0.3998 -0.6521
 7203TIP3    H221574   5.206   3.487   4.990  0.0657 -0.7473 -0.5958
 7204TIP3   OH221575   3.350   5.885   4.803  0.1522 -0.3907 -0.3750
 7204TIP3    H121576   3.402   5.806   4.815  0.8277  0.2041  0.8785
 7204TIP3    H221577   3.293   5.866   4.728  1.7646 -1.2741 -1.4211
 7205TIP3   OH221578   5.220   4.489   1.479 -0.2775 -0.1199  0.1852
 7205TIP3    H121579   5.277   4.566   1.477 -1.6959  1.0035  0.8057
 7205TIP3    H221580   5.185   4.487   1.568 -0.3011 -1.4842  0.1636
 7206TIP3   OH221581   6.899   2.684   1.393  0.4774 -0.0474 -0.5258
 7206TIP3    H121582   6.913   2.619   1.462 -0.3329  0.7734  0.4641
 7206TIP3    H221583   6.809   2.670   1.365  0.7884 -0.3385 -1.3925
 7207TIP3   OH221584   6.872   1.139   4.337  0.1286 -0.5381  0.1011
 7207TIP3    H121585   6.783   1.146   4.371  0.0481 -1.6497  0.1538
 7207TIP3    H221586   6.920   1.209   4.381 -1.0148  0.9937 -0.9641
 7208TIP3   OH221587   3.034   4.880   1.319  0.0171  0.5583  0.2006
 7208TIP3    H121588   2.993   4.826   1.386 -0.8483 -1.2434 -1.6565
 7208TIP3    H221589   2.971   4.951   1.304  0.7077  1.5882  1.9742
 7209TIP3   OH221590   0.558   3.811   1.168 -0.1385 -0.1751 -0.2056
 7209TIP3    H121591   0.518   3.859   1.241 -0.9800  0.4171 -1.0275
 7209TIP3    H221592   0.647   3.846   1.162  0.4200 -1.1993  1.3790
 7210TIP3   OH221593   1.654   2.145   1.476  0.3014 -0.4495  0.2956
 7210TIP3    H121594   1.650   2.205   1.550 -1.1219  0.1002 -0.2005
 7210TIP3    H221595   1.579   2.087   1.488  1.0072 -1.4203  0.1541
 7211TIP3   OH221596   1.645   2.630   4.951 -0.4433 -0.3982 -0.0549
 7211TIP3    H121597   1.664   2.552   5.002  0.2617 -0.0183  0.2772
 7211TIP3    H221598   1.632   2.699   5.017 -0.3689 -0.0881 -0.3615
 7212TIP3   OH221599   7.041   5.272   3.281  0.0874  0.3153 -0.3227
 7212TIP3    H121600   6.963   5.264   3.227  0.5107 -0.8411 -0.8009
 7212TIP3    H221601   7.111   5.298   3.221  0.0363  1.6610  0.1549
 7213TIP3   OH221602   6.063   1.477   1.303  0.3696 -0.6159  0.3000
 7213TIP3    H121603   6.131   1.507   1.364 -2.6443  2.1261  2.6395
 7213TIP3    H221604   6.097   1.499   1.217  2.7343 -0.0372  1.2917
 7214TIP3   OH221605   6.242   2.601   4.096 -0.1944 -0.4038 -0.1565
 7214TIP3    H121606   6.208   2.676   4.145 -2.8846 -0.5386 -1.6257
 7214TIP3    H221607   6.168   2.541   4.089  1.0004 -1.7952 -1.6797
 7215TIP3   OH221608   2.444   6.370   0.010  0.4474 -0.2461  0.0819
 7215TIP3    H121609   2.489   6.345   0.091  0.3298  0.8737  0.5103
 7215TIP3    H221610   2.420   6.286  -0.030  0.5318 -0.8279  1.1866
 7216TIP3   OH221611   2.117   5.153   0.045 -0.1360 -0.0480  0.4673
 7216TIP3    H121612   2.151   5.242   0.036  0.2846 -0.2236  0.2383
 7216TIP3    H221613   2.111   5.120  -0.045  1.2564 -0.7993  0.6111
 7217TIP3   OH221614   5.151   1.862   2.692 -0.0041 -0.2664  0.0928
 7217TIP3    H121615   5.230   1.866   2.746 -0.2296  1.0970  0.3535
 7217TIP3    H221616   5.121   1.953   2.686 -1.7588 -0.7931  0.3178
 7218TIP3   OH221617   2.980   3.110   4.746 -0.2132 -0.0070 -0.4616
 7218TIP3    H121618   2.885   3.101   4.740 -0.1570 -1.0216  0.0921
 7218TIP3    H221619   3.008   3.119   4.655 -0.8945  1.0859 -0.5888
 7219TIP3   OH221620   2.954   0.848   1.680  0.0703 -0.0835  0.0686
 7219TIP3    H121621   2.870   0.863   1.638  0.6535 -1.1950 -1.6170
 7219TIP3    H221622   2.988   0.769   1.639  0.8644 -1.0889  2.4578
 7220TIP3   OH221623   0.122   1.885   3.632  0.2039 -0.3271 -0.4244
 7220TIP3    H121624   0.123   1.803   3.679  0.2867  0.0711  0.2760
 7220TIP3    H221625   0.180   1.943   3.681 -0.8619  0.5487 -0.1490
 7221TIP3   OH221626   0.802   2.386   2.048  0.5064 -0.3444 -0.1424
 7221TIP3    H121627   0.845   2.462   2.086 -0.8036  0.5713 -0.4050
 7221TIP3    H221628   0.757   2.421   1.970 -1.3079 -1.0543  0.5222
 7222TIP3   OH221629   1.099   2.260   3.823  0.0766 -0.2496 -0.1723
 7222TIP3    H121630   1.014   2.268   3.866 -0.3364 -1.4233 -0.7226
 7222TIP3    H221631   1.108   2.167   3.805  0.2456  0.1635 -2.5405
 7223TIP3   OH221632   0.769   6.685   3.484  0.2896 -0.0050 -0.2531
 7223TIP3    H121633   0.840   6.634   3.446  0.4604 -0.8486  1.1398
 7223TIP3    H221634   0.800   6.708   3.571 -1.2249 -0.5664  0.4553
 7224TIP3   OH221635   4.103   4.328   1.283 -0.3802  0.1122 -0.8437
 7224TIP3    H121636   4.025   4.338   1.228 -0.3932  0.1658 -0.8155
 7224TIP3    H221637   4.105   4.235   1.306 -1.6155  0.4553  0.8942
 7225TIP3   OH221638   2.208   4.949   1.890  0.3924  0.2894  0.2415
 7225TIP3    H121639   2.291   4.974   1.848  0.1598 -0.7999 -0.9248
 7225TIP3    H221640   2.142   4.999   1.842  0.1948 -0.3585 -0.1640
 7226TIP3   OH221641   6.641   5.626   3.265 -1.0068  0.4239  0.4719
 7226TIP3    H121642   6.565   5.575   3.294  0.1769 -1.7133  0.0364
 7226TIP3    H221643   6.621   5.649   3.174  0.5485 -4.0719 -1.3207
 7227TIP3   OH221644   2.283   5.028   4.686  0.1853 -0.1049 -0.0525
 7227TIP3    H121645   2.312   4.976   4.760 -0.5249 -1.6905 -0.8370
 7227TIP3    H221646   2.206   5.075   4.718  0.6485  0.2483  0.5709
 7228TIP3   OH221647   4.613   6.642   5.791  0.9140  0.4026 -0.1072
 7228TIP3    H121648   4.629   6.686   5.875 -1.6309 -0.3415  0.8548
 7228TIP3    H221649   4.538   6.688   5.754  1.0718 -0.2430 -1.2588
 7229TIP3   OH221650   0.894   4.746   2.448  0.1982  0.0583 -0.0310
 7229TIP3    H121651   0.864   4.742   2.357 -2.9939  1.2781  0.8499
 7229TIP3    H221652   0.892   4.840   2.469  1.6585 -0.1329  1.1315
 7230TIP3   OH221653   0.988   5.144   1.761  0.2196  0.4275 -0.0259
 7230TIP3    H121654   1.053   5.206   1.726 -0.3450  0.9484 -0.1856
 7230TIP3    H221655   0.963   5.091   1.685  1.8569 -1.0843  0.4366
 7231TIP3   OH221656   1.679   5.687   3.299 -0.0109 -0.4022 -0.4675
 7231TIP3    H121657   1.678   5.670   3.205 -1.6423  0.1173 -0.5866
 7231TIP3    H221658   1.611   5.630   3.334  1.5861 -1.7098  0.6565
 7232TIP3   OH221659   0.174   3.091   0.022  0.5002 -0.6077 -0.0964
 7232TIP3    H121660   0.185   3.105   0.117  0.7350  1.1240 -0.3518
 7232TIP3    H221661   0.248   3.138  -0.017  0.5653 -1.5574 -1.1416
 7233TIP3   OH221662   1.203   3.286   1.881 -0.4593 -0.4789  0.0372
 7233TIP3    H121663   1.163   3.219   1.826 -2.2021 -0.2234  0.9194
 7233TIP3    H221664   1.296   3.282   1.859 -0.6974 -2.2671 -0.8956
 7234TIP3   OH221665   6.926   4.923   3.824  0.0171  0.5979  0.1737
 7234TIP3    H121666   6.916   4.936   3.919  1.5244 -0.5114  0.5120
 7234TIP3    H221667   6.853   4.865   3.801  0.3311 -0.1190  0.9055
 7235TIP3   OH221668   1.894   6.027   2.876 -0.0920  0.4724 -0.2449
 7235TIP3    H121669   1.940   6.043   2.793 -0.6856 -1.6913 -1.0589
 7235TIP3    H221670   1.941   5.953   2.915 -3.0161 -2.1180 -1.3086
 7236TIP3   OH221671   3.410   2.249   4.567 -0.0651 -0.0214 -0.8403
 7236TIP3    H121672   3.474   2.187   4.532  1.0637 -0.4866  1.7889
 7236TIP3    H221673   3.325   2.212   4.544  0.5909 -1.0426 -1.7334
 7237TIP3   OH221674   2.186   4.780   5.703 -0.1084 -0.7918  0.6745
 7237TIP3    H121675   2.234   4.698   5.714 -0.5980 -0.9255  1.9272
 7237TIP3    H221676   2.160   4.805   5.792 -1.2499 -0.0581  0.1582
 7238TIP3   OH221677   4.594   2.826   1.110  0.3717 -0.0354  0.0854
 7238TIP3    H121678   4.557   2.902   1.155 -0.8104 -0.8750  0.6004
 7238TIP3    H221679   4.577   2.752   1.169  2.9444 -0.5088  0.3650
 7239TIP3   OH221680   2.664   0.405   4.404 -0.0055 -0.6536  0.2553
 7239TIP3    H121681   2.658   0.433   4.495 -0.0575 -2.5526  0.8770
 7239TIP3    H221682   2.650   0.485   4.353 -1.6088  0.1657  1.8756
 7240TIP3   OH221683   5.268   0.379   1.080 -0.4434 -0.0652 -0.6711
 7240TIP3    H121684   5.324   0.329   1.140 -0.3062  0.1150 -0.6466
 7240TIP3    H221685   5.296   0.351   0.993 -0.0743  0.2706 -0.6688
 7241TIP3   OH221686   6.477   2.500   0.201  0.0535  0.2733  0.3950
 7241TIP3    H121687   6.416   2.489   0.128  0.3202 -1.8794  0.4427
 7241TIP3    H221688   6.535   2.571   0.173 -2.1122  2.0702  0.1564
 7242TIP3   OH221689   4.609   1.040   5.571 -0.5088  0.2061  0.5765
 7242TIP3    H121690   4.664   1.026   5.494  0.0093  1.6285  0.6623
 7242TIP3    H221691   4.519   1.032   5.538 -0.3586  2.6785 -0.6313
 7243TIP3   OH221692   7.161   4.983   3.336 -0.0680  0.2513  0.3946
 7243TIP3    H121693   7.096   5.048   3.365  0.3323 -0.2668  2.6340
 7243TIP3    H221694   7.245   5.025   3.351  0.2287  0.8835 -2.4197
 7244TIP3   OH221695   4.404   5.177   0.676 -0.0731  0.2280 -0.1937
 7244TIP3    H121696   4.449   5.260   0.687  1.0898 -0.5898  1.8328
 7244TIP3    H221697   4.405   5.160   0.582  2.8785  0.7983 -0.3306
 7245TIP3   OH221698  -0.018   4.598   3.097  0.2041 -0.3731  0.2347
 7245TIP3    H121699   0.043   4.673   3.100 -0.2055 -0.0120 -0.2513
 7245TIP3    H221700   0.035   4.525   3.066  0.5271 -0.1981  0.3708
 7246TIP3   OH221701   6.246   1.964   3.378  0.1879  0.3580  0.3671
 7246TIP3    H121702   6.242   2.013   3.296  0.8646 -1.0476 -0.5333
 7246TIP3    H221703   6.201   1.882   3.359  3.6136 -1.6678  0.1298
 7247TIP3   OH221704   6.926   2.979   3.903 -0.1244  0.4014  0.5968
 7247TIP3    H121705   7.010   3.011   3.934  0.1582  0.1393  0.1124
 7247TIP3    H221706   6.908   3.031   3.824  0.4334 -0.7407 -0.3149
 7248TIP3   OH221707   2.396   1.913   0.155 -0.4145 -0.2011 -0.0897
 7248TIP3    H121708   2.419   1.884   0.243 -2.7053 -0.0525  0.6172
 7248TIP3    H221709   2.408   2.008   0.158  0.4085 -0.2910 -0.2539
 7249TIP3   OH221710   6.743   5.844   5.182  0.1538 -0.4285  0.3192
 7249TIP3    H121711   6.764   5.810   5.095 -2.7795  1.3791 -1.2462
 7249TIP3    H221712   6.668   5.791   5.211 -0.7906  0.9061  0.3810
 7250TIP3   OH221713   6.874   3.777   2.830 -0.0106 -0.9280 -0.2966
 7250TIP3    H121714   6.965   3.795   2.854 -0.0154 -2.3872  0.9156
 7250TIP3    H221715   6.823   3.828   2.892 -0.0457 -0.2433 -0.8700
 7251TIP3   OH221716   2.516   0.283   0.111  0.1893 -1.0972 -0.1888
 7251TIP3    H121717   2.425   0.270   0.139 -0.6095  0.3988 -1.8261
 7251TIP3    H221718   2.520   0.241   0.025  0.5680  0.1753 -0.8165
 7252TIP3   OH221719   1.536   4.058   2.172 -0.4013 -0.1144 -0.5720
 7252TIP3    H121720   1.502   4.025   2.255 -1.5350  2.5592  0.1456
 7252TIP3    H221721   1.625   4.085   2.192 -0.5166  0.1012 -0.3519
 7253TIP3   OH221722   2.852   4.625   2.507 -0.5720 -0.1887  0.3477
 7253TIP3    H121723   2.914   4.589   2.570  0.9598  0.3311 -0.7896
 7253TIP3    H221724   2.781   4.662   2.560 -0.2285 -1.3638  1.6588
 7254TIP3   OH221725   0.579   0.459   3.199  0.3439 -0.2113  0.1661
 7254TIP3    H121726   0.639   0.476   3.272  0.1349  0.2356  0.2355
 7254TIP3    H221727   0.602   0.525   3.133  0.4913 -0.5757 -0.1491
 7255TIP3   OH221728   1.559   2.156   2.183 -0.6554  0.5002  0.2671
 7255TIP3    H121729   1.484   2.110   2.145 -0.8524  0.6324  0.4972
 7255TIP3    H221730   1.590   2.097   2.251 -2.0558  1.5107  1.8469
 7256TIP3   OH221731   2.660   1.624   3.097  0.7099  0.4652 -0.3668
 7256TIP3    H121732   2.726   1.612   3.029 -0.0634 -0.4440 -1.0022
 7256TIP3    H221733   2.604   1.547   3.088  0.2860  0.6030  0.9645
 7257TIP3   OH221734   2.314   5.370   4.744 -0.3580  0.3985  0.2971
 7257TIP3    H121735   2.360   5.298   4.701 -1.1538 -0.0305  0.1352
 7257TIP3    H221736   2.355   5.449   4.709  1.4339  0.0464  1.4894
 7258TIP3   OH221737   6.440   3.766   1.354  0.4457 -0.1237 -0.2799
 7258TIP3    H121738   6.468   3.844   1.402  0.2091 -0.8472  1.0983
 7258TIP3    H221739   6.520   3.732   1.314  1.1980 -0.9623  1.8150
 7259TIP3   OH221740   0.786   3.256   2.728 -0.6718 -0.0692 -0.3167
 7259TIP3    H121741   0.764   3.348   2.712 -0.2265  0.3429  1.2424
 7259TIP3    H221742   0.839   3.230   2.653 -0.7200  0.9868 -0.7265
 7260TIP3   OH221743   4.398   0.647   3.097  0.6468  0.7071 -0.6737
 7260TIP3    H121744   4.477   0.690   3.132  0.4665  0.1754  0.4212
 7260TIP3    H221745   4.330   0.714   3.103 -0.6157 -0.5376  4.5430
 7261TIP3   OH221746   1.824   1.947   4.862 -0.1402 -0.4342  0.0911
 7261TIP3    H121747   1.911   1.969   4.828  1.0578 -3.1592  1.0835
 7261TIP3    H221748   1.768   1.943   4.784  2.0983 -4.6667 -1.6424
 7262TIP3   OH221749   4.175   2.366   4.034 -0.5411 -0.5187 -0.2680
 7262TIP3    H121750   4.163   2.453   3.999 -0.9922 -0.5575 -0.2195
 7262TIP3    H221751   4.258   2.336   3.998  0.7503  0.7919  1.4777
 7263TIP3   OH221752   6.600   3.948   4.092 -0.0394  0.0565  0.1243
 7263TIP3    H121753   6.525   4.004   4.077 -0.3338  0.2368  2.0435
 7263TIP3    H221754   6.670   3.985   4.038 -0.8980  0.8008 -0.4884
 7264TIP3   OH221755   2.453   2.581   4.167  0.0801  0.1712  0.0906
 7264TIP3    H121756   2.494   2.622   4.091 -1.6001  0.6174 -0.6226
 7264TIP3    H221757   2.465   2.487   4.154  0.9450  0.2846 -0.0233
 7265TIP3   OH221758   5.464   2.228   5.569  0.4503 -0.0566 -0.8658
 7265TIP3    H121759   5.431   2.264   5.652  0.6761 -0.4178 -0.6145
 7265TIP3    H221760   5.411   2.269   5.502  1.5259  1.7399 -0.6911
 7266TIP3   OH221761   1.078   5.818   2.623 -0.0239  0.9580  0.3397
 7266TIP3    H121762   1.108   5.855   2.706 -1.3616 -0.1524  1.3739
 7266TIP3    H221763   1.142   5.751   2.601  0.2692  1.1722  0.5379
 7267TIP3   OH221764   2.479   4.796   2.064 -0.4584  0.0955 -0.2718
 7267TIP3    H121765   2.445   4.878   2.100 -1.5586 -0.7862  0.7718
 7267TIP3    H221766   2.485   4.737   2.139  4.0630  0.2954 -0.1765
 7268TIP3   OH221767   3.455   3.573   0.692 -0.1786 -0.0970  0.2647
 7268TIP3    H121768   3.465   3.619   0.775 -0.3972  1.3169 -0.4572
 7268TIP3    H221769   3.539   3.582   0.649 -0.9242  1.7880 -0.9062
 7269TIP3   OH221770   5.102   1.646   4.206 -0.5077  0.0067 -0.0290
 7269TIP3    H121771   5.134   1.671   4.293 -1.3978  2.3173 -0.3033
 7269TIP3    H221772   5.181   1.617   4.159 -0.3123 -3.5764  2.1424
 7270TIP3   OH221773   6.344   6.732   4.816  0.2066  0.2246 -0.0007
 7270TIP3    H121774   6.353   6.823   4.786  1.5714 -0.1417 -0.8159
 7270TIP3    H221775   6.263   6.701   4.777  0.1566  0.8471 -0.4006
 7271TIP3   OH221776   4.918   0.553   4.528 -0.4459  0.4377  0.1360
 7271TIP3    H121777   4.950   0.467   4.503 -1.7271 -0.5237  1.6107
 7271TIP3    H221778   4.834   0.562   4.484  0.3037  1.5877 -1.1572
 7272TIP3   OH221779   0.163   4.261   2.523  0.2956  0.2997  0.2057
 7272TIP3    H121780   0.139   4.259   2.430  1.3978  0.8676 -0.1195
 7272TIP3    H221781   0.234   4.197   2.531  0.4172  0.4780  0.5871
 7273TIP3   OH221782   5.386   1.774   4.955 -0.4475 -0.0346 -0.9520
 7273TIP3    H121783   5.336   1.843   4.912  1.2520  1.1723 -1.1004
 7273TIP3    H221784   5.456   1.753   4.893 -0.6793 -1.6266 -0.7236
 7274TIP3   OH221785   5.921   6.587   5.103  0.1508  0.5550  0.1386
 7274TIP3    H121786   5.868   6.660   5.134 -0.5080  0.9481 -1.7420
 7274TIP3    H221787   5.976   6.626   5.034  1.1674 -0.3446  0.4081
 7275TIP3   OH221788   6.603   0.140   5.271  0.1934  0.3285 -0.5791
 7275TIP3    H121789   6.624   0.066   5.329  1.5543 -0.0405 -1.5189
 7275TIP3    H221790   6.658   0.211   5.303 -0.2992  0.6192 -0.3735
 7276TIP3   OH221791   3.853   6.551   4.246 -0.5222  0.0029  0.0596
 7276TIP3    H121792   3.790   6.597   4.302 -1.3617  0.6956 -1.3999
 7276TIP3    H221793   3.937   6.592   4.266 -0.8498  0.4343  0.5994
 7277TIP3   OH221794   2.862   0.499   2.768  0.5773  0.1408  0.0490
 7277TIP3    H121795   2.857   0.559   2.841 -0.8663 -0.3974  0.4197
 7277TIP3    H221796   2.956   0.482   2.757  0.7783 -1.5428  3.2644
 7278TIP3   OH221797   4.337   2.894   5.015 -0.0563  0.1210  0.0160
 7278TIP3    H121798   4.279   2.837   5.066 -0.5055  0.9974  0.4924
 7278TIP3    H221799   4.407   2.918   5.076 -0.2283  0.6243  0.0127
 7279TIP3   OH221800   4.661   5.617   1.117 -0.2163 -0.1651  0.0610
 7279TIP3    H121801   4.592   5.551   1.111  0.5894 -1.0462  0.1633
 7279TIP3    H221802   4.739   5.573   1.082  0.3856  0.6663  0.3230
 7280TIP3   OH221803   4.534   2.577   5.383  0.0133  0.3528 -0.0026
 7280TIP3    H121804   4.506   2.661   5.422 -0.0459 -0.2172  1.2288
 7280TIP3    H221805   4.616   2.557   5.427 -0.3519 -0.6034  0.2599
 7281TIP3   OH221806   5.853   5.457   4.521 -0.1638  0.1169  0.2068
 7281TIP3    H121807   5.884   5.525   4.461  1.0298 -0.8406 -0.3025
 7281TIP3    H221808   5.902   5.379   4.496 -1.8814 -1.0902  0.4222
 7282TIP3   OH221809   1.956   6.601   2.810 -0.2121  0.2742 -0.1678
 7282TIP3    H121810   1.894   6.546   2.761 -0.7758 -0.8066  1.6607
 7282TIP3    H221811   2.034   6.604   2.754  0.2656 -3.3484  0.0480
 7283TIP3   OH221812   4.122   4.710   4.576 -0.0544 -0.0273 -0.4880
 7283TIP3    H121813   4.135   4.805   4.574 -1.1590  0.1578  0.2785
 7283TIP3    H221814   4.031   4.698   4.548 -0.2228 -0.7953  0.3466
 7284TIP3   OH221815   3.889   1.025   4.605 -0.2114  0.0858 -0.2048
 7284TIP3    H121816   3.906   1.100   4.662  1.7719 -1.3523  1.2306
 7284TIP3    H221817   3.946   1.038   4.529  0.2385 -0.0192  0.1116
 7285TIP3   OH221818   5.364   6.294   5.158 -0.3542  0.3361 -0.2229
 7285TIP3    H121819   5.277   6.270   5.126 -0.6982  0.7280  0.4102
 7285TIP3    H221820   5.358   6.288   5.253  0.1201  1.0269 -0.1410
 7286TIP3   OH221821   0.678   1.249   2.894  0.0012  0.4711  0.0487
 7286TIP3    H121822   0.712   1.247   2.805 -0.9701  0.4528 -0.3277
 7286TIP3    H221823   0.755   1.270   2.948  1.0896 -1.8097 -0.5178
 7287TIP3   OH221824   2.891   5.127   1.282  0.1005 -0.1949 -0.4048
 7287TIP3    H121825   2.832   5.184   1.332  0.6154  0.6912 -0.7934
 7287TIP3    H221826   2.839   5.099   1.207  0.3530  1.1089 -1.0952
 7288TIP3   OH221827   2.920   0.838   5.453  0.0990 -0.4454 -0.0650
 7288TIP3    H121828   2.926   0.883   5.369 -1.6164  0.9863  0.5175
 7288TIP3    H221829   2.973   0.891   5.512 -1.2360  0.3509  0.4364
 7289TIP3   OH221830   4.818   0.629   0.973 -0.1297  0.1734 -0.5567
 7289TIP3    H121831   4.770   0.547   0.972 -0.3463  0.1842  2.0643
 7289TIP3    H221832   4.910   0.603   0.968 -0.1633 -0.3259  0.9317
 7290TIP3   OH221833   1.098   1.803   5.271 -0.1695 -0.1790 -0.1080
 7290TIP3    H121834   1.190   1.823   5.291 -0.3855 -0.9053  1.7185
 7290TIP3    H221835   1.050   1.882   5.297 -0.1407  0.0420 -0.6862
 7291TIP3   OH221836   1.642   4.447   5.289 -0.2390 -0.1389 -0.4220
 7291TIP3    H121837   1.638   4.480   5.200  1.0500  1.7331  0.1573
 7291TIP3    H221838   1.557   4.471   5.328  0.3889  1.9899 -0.2361
 7292TIP3   OH221839   5.210   2.375   3.447  0.2046 -0.1451  0.1813
 7292TIP3    H121840   5.127   2.396   3.404  0.4777 -0.5104 -0.5439
 7292TIP3    H221841   5.262   2.333   3.379  0.5691 -0.9526  0.9292
 7293TIP3   OH221842   4.418   0.817   4.537 -0.4676 -0.4698 -0.0285
 7293TIP3    H121843   4.443   0.907   4.556 -1.0482 -0.6048  1.5384
 7293TIP3    H221844   4.328   0.809   4.569  0.4686 -2.3182  2.5911
 7294TIP3   OH221845   5.635   2.522   2.412 -0.0000 -0.4616  0.3041
 7294TIP3    H121846   5.556   2.475   2.440  0.5251 -0.4754  1.8723
 7294TIP3    H221847   5.684   2.535   2.493  1.4168 -0.0903 -0.5901
 7295TIP3   OH221848   6.195   4.475   1.756 -0.4237  0.5196 -0.1908
 7295TIP3    H121849   6.104   4.445   1.755 -0.1146 -0.4520 -0.5897
 7295TIP3    H221850   6.246   4.395   1.768  0.3849  1.0528 -0.0275
 7296TIP3   OH221851   5.459   3.669   3.733  0.4921 -0.3214  0.1817
 7296TIP3    H121852   5.526   3.604   3.711  0.0956  0.6074 -4.9643
 7296TIP3    H221853   5.507   3.751   3.742  0.3991 -0.3335  0.9020
 7297TIP3   OH221854   6.452   5.604   0.354 -0.6136  0.3846 -0.6024
 7297TIP3    H121855   6.514   5.579   0.423 -0.4301  1.4447 -0.3577
 7297TIP3    H221856   6.448   5.528   0.297 -0.1413 -0.2125  0.1329
 7298TIP3   OH221857   0.241   1.303   3.917  0.3552  0.1180 -0.4714
 7298TIP3    H121858   0.198   1.349   3.989  0.7258 -0.1535 -0.0671
 7298TIP3    H221859   0.190   1.223   3.905 -0.1070  0.4780 -0.9695
 7299TIP3   OH221860   2.292   0.232   0.453 -0.3090 -0.2479 -0.1405
 7299TIP3    H121861   2.266   0.232   0.361  2.1443  1.9928 -0.9746
 7299TIP3    H221862   2.344   0.152   0.463 -1.2278 -0.9021 -0.4540
 7300TIP3   OH221863   3.285   3.941   1.752 -0.3102  0.2509  0.0417
 7300TIP3    H121864   3.225   3.897   1.691  0.4728 -0.4297 -0.2577
 7300TIP3    H221865   3.305   4.025   1.710  1.6047 -0.9123 -1.5740
 7301TIP3   OH221866   2.650   2.395   5.121 -0.0548  0.0651  0.1845
 7301TIP3    H121867   2.642   2.482   5.160 -1.8234 -0.2478  0.5774
 7301TIP3    H221868   2.689   2.341   5.189  0.5076  0.4025  0.1376
 7302TIP3   OH221869   6.166   4.846   3.957 -0.4285 -0.5201  0.1944
 7302TIP3    H121870   6.134   4.838   4.046 -1.1773  3.0520  0.3998
 7302TIP3    H221871   6.108   4.910   3.916  2.0973  0.7948 -1.6490
 7303TIP3   OH221872   0.248   0.333   5.299  0.6513 -0.0580 -0.1763
 7303TIP3    H121873   0.307   0.266   5.264  1.7790  0.6127  0.3646
 7303TIP3    H221874   0.188   0.351   5.227  0.3969 -1.5435 -0.3725
 7304TIP3   OH221875   4.109   6.066   4.074  0.2061 -0.3875  0.0775
 7304TIP3    H121876   4.102   6.105   3.987 -4.1504 -1.7220 -0.3967
 7304TIP3    H221877   4.073   6.131   4.133  1.4387 -0.2148  0.6700
 7305TIP3   OH221878   6.863   5.671   5.770  0.2490 -0.4193  0.4263
 7305TIP3    H121879   6.803   5.620   5.824  2.0741 -0.9992  2.0046
 7305TIP3    H221880   6.902   5.606   5.711 -0.8586  0.0154 -0.8405
 7306TIP3   OH221881   5.503   2.632   1.312  0.6136 -0.0991 -0.0496
 7306TIP3    H121882   5.473   2.556   1.361  0.5893 -0.8952 -1.2805
 7306TIP3    H221883   5.426   2.662   1.264  0.8831  0.0970 -0.3603
 7307TIP3   OH221884   4.533   4.417   5.406 -0.3850  0.1404  0.0844
 7307TIP3    H121885   4.464   4.397   5.468 -0.4873 -0.5027 -0.2255
 7307TIP3    H221886   4.487   4.441   5.325 -0.2558  1.1396  0.3005
 7308TIP3   OH221887   4.370   5.250   5.651 -0.4560  0.3781  0.3182
 7308TIP3    H121888   4.447   5.221   5.698 -0.0625  0.3739 -0.3076
 7308TIP3    H221889   4.297   5.201   5.690  0.0271 -0.5550  0.0786
 7309TIP3   OH221890   2.006   2.337   3.798 -0.2218  0.4165 -0.6592
 7309TIP3    H121891   1.994   2.251   3.758  2.9650 -0.0808 -0.7663
 7309TIP3    H221892   1.957   2.333   3.880 -4.6791  0.5288 -2.9700
 7310TIP3   OH221893   3.867   3.175   0.169 -0.1972  0.4716  0.1211
 7310TIP3    H121894   3.834   3.257   0.132 -1.4868  0.5949  1.4181
 7310TIP3    H221895   3.805   3.108   0.140 -1.5781  0.6554  2.3366
 7311TIP3   OH221896   5.875   5.622   1.855  0.2014  0.2093  0.1683
 7311TIP3    H121897   5.859   5.706   1.813 -2.1998 -0.7805 -1.0752
 7311TIP3    H221898   5.844   5.634   1.945 -1.7443  0.2208 -0.4666
 7312TIP3   OH221899   7.179   4.704   1.501 -0.0842  0.3245 -0.2345
 7312TIP3    H121900   7.139   4.688   1.587  2.5621  2.6167  1.5738
 7312TIP3    H221901   7.227   4.623   1.481 -0.0577  0.0726  0.8258
 7313TIP3   OH221902   3.771   2.066   3.060 -0.6585 -0.0187  0.2994
 7313TIP3    H121903   3.817   2.126   3.002 -0.4993 -0.0006  0.4453
 7313TIP3    H221904   3.785   2.101   3.147  2.0329 -1.8877  0.7558
 7314TIP3   OH221905   4.839   4.831   0.322 -0.2891 -0.3267  0.6164
 7314TIP3    H121906   4.922   4.783   0.323  0.3945  0.8224  0.2463
 7314TIP3    H221907   4.852   4.901   0.259 -1.3679  0.1917  0.9483
 7315TIP3   OH221908   6.210   0.694   0.434  0.0669  0.0390  0.5647
 7315TIP3    H121909   6.149   0.683   0.506 -0.8823 -1.3517 -0.4005
 7315TIP3    H221910   6.187   0.778   0.396  0.3058  0.5920  1.6069
 7316TIP3   OH221911   3.484   5.777   1.087 -0.3268  0.1473 -0.2951
 7316TIP3    H121912   3.575   5.797   1.107 -0.3560  0.1470 -0.1586
 7316TIP3    H221913   3.479   5.682   1.088 -0.9749  0.0984  2.7828
 7317TIP3   OH221914   2.970   3.311   0.879 -0.4059 -0.2078 -0.5222
 7317TIP3    H121915   2.903   3.346   0.820 -1.4821 -1.1657  0.0862
 7317TIP3    H221916   2.963   3.366   0.957 -0.5972 -0.3908 -0.4070
 7318TIP3   OH221917   2.423   0.453   0.475  0.1372  0.4167 -0.0185
 7318TIP3    H121918   2.354   0.516   0.456  0.5736  1.1259  0.6413
 7318TIP3    H221919   2.384   0.367   0.459 -0.0444  0.8605 -2.3530
 7319TIP3   OH221920   4.987   5.617   1.895 -0.2826 -0.0338 -0.1801
 7319TIP3    H121921   5.081   5.612   1.880  0.1187  2.1616  1.1922
 7319TIP3    H221922   4.967   5.539   1.946  1.3294  0.7976  1.8332
 7320TIP3   OH221923   5.327   1.827   3.395 -0.0157  0.4961 -0.1587
 7320TIP3    H121924   5.259   1.775   3.437  0.3315 -0.7071 -1.0180
 7320TIP3    H221925   5.363   1.882   3.465 -0.1356 -0.7026  0.8865
 7321TIP3   OH221926   6.013   1.795   4.104  0.9626 -0.1978 -0.4386
 7321TIP3    H121927   5.947   1.839   4.159 -0.4014  0.4492 -2.4839
 7321TIP3    H221928   6.035   1.716   4.153 -0.8142 -0.0727  0.6719
 7322TIP3   OH221929   1.277   4.937   1.792  0.4783 -0.5290 -0.1486
 7322TIP3    H121930   1.290   5.030   1.811 -2.6547 -0.1570  0.8294
 7322TIP3    H221931   1.309   4.892   1.870  0.4050 -0.1045  0.1306
 7323TIP3   OH221932   1.757   1.541   3.868  0.0881 -0.3787 -0.0576
 7323TIP3    H121933   1.766   1.449   3.891  0.4090 -0.7827 -1.6734
 7323TIP3    H221934   1.847   1.571   3.853 -0.1440 -0.7880 -2.9239
 7324TIP3   OH221935   3.143   1.326   3.468 -0.3020  0.2335  0.2318
 7324TIP3    H121936   3.090   1.292   3.540  1.0229 -0.9854  0.6910
 7324TIP3    H221937   3.220   1.269   3.466  0.6775  1.5190 -0.8331
 7325TIP3   OH221938   0.115   2.539   5.573 -0.3391  0.2229  0.1715
 7325TIP3    H121939   0.110   2.468   5.637 -1.4344  0.4395  0.3348
 7325TIP3    H221940   0.025   2.559   5.551 -0.1100  1.9996  0.6050
 7326TIP3   OH221941   5.861   1.278   1.710  0.7727  0.5665  0.1919
 7326TIP3    H121942   5.811   1.354   1.680  0.2380  0.0497 -0.2703
 7326TIP3    H221943   5.847   1.212   1.642  0.7467 -0.1456  0.8700
 7327TIP3   OH221944   0.218   0.331   3.143 -0.0033  0.1772 -0.2766
 7327TIP3    H121945   0.127   0.325   3.116  0.1992  2.2710 -1.7228
 7327TIP3    H221946   0.216   0.374   3.228 -0.3623  1.0118 -0.6961
 7328TIP3   OH221947   6.134   1.477   5.681  0.1798  0.2476  0.4157
 7328TIP3    H121948   6.159   1.470   5.588  1.9126 -0.3418  0.8849
 7328TIP3    H221949   6.135   1.571   5.699  2.1037  0.2732  0.3702
 7329TIP3   OH221950   4.697   1.448   2.653  0.1954 -0.1601  0.1769
 7329TIP3    H121951   4.613   1.489   2.676 -0.2290 -2.1725  2.7590
 7329TIP3    H221952   4.675   1.381   2.589 -0.0970 -0.2918  0.4126
 7330TIP3   OH221953   1.878   2.136   5.098 -0.4557  0.3841 -0.2518
 7330TIP3    H121954   1.835   2.073   5.040 -1.6568 -0.9447  1.9639
 7330TIP3    H221955   1.894   2.212   5.043  1.0831 -1.7986 -3.0863
 7331TIP3   OH221956   5.220   1.645   0.676 -1.0567 -0.0633  0.3590
 7331TIP3    H121957   5.302   1.639   0.627 -1.5736 -1.4303 -0.3907
 7331TIP3    H221958   5.246   1.669   0.765  0.1512 -0.5779  0.1554
 7332TIP3   OH221959   2.375   1.444   2.519 -0.3828  0.0069 -0.1237
 7332TIP3    H121960   2.379   1.486   2.433  0.6521  0.7626  0.2716
 7332TIP3    H221961   2.384   1.516   2.582 -0.6869 -0.5818  0.6110
 7333TIP3   OH221962   5.336   2.716   4.368 -0.1756  0.0158  0.4595
 7333TIP3    H121963   5.371   2.651   4.428  0.0717 -1.3117 -1.0494
 7333TIP3    H221964   5.313   2.790   4.424 -0.5429 -1.3703  2.2633
 7334TIP3   OH221965   4.028   6.780   0.045  0.3932 -0.5749  0.4781
 7334TIP3    H121966   4.031   6.743   0.133  1.5107 -0.8720  0.3271
 7334TIP3    H221967   4.082   6.722  -0.008 -1.4671 -1.2760 -0.7723
 7335TIP3   OH221968   6.084   5.662   4.560 -0.4166  0.3716  0.0090
 7335TIP3    H121969   6.109   5.596   4.624 -1.3767 -0.8664 -0.8344
 7335TIP3    H221970   6.040   5.730   4.610  2.0845  1.2911  1.1422
 7336TIP3   OH221971   0.335   0.016   1.454  0.4183  0.0436  0.3570
 7336TIP3    H121972   0.354  -0.066   1.501 -0.2529 -0.6833 -0.5986
 7336TIP3    H221973   0.294   0.072   1.520  0.2748 -0.6359  0.8629
 7337TIP3   OH221974   5.698   4.660   5.210  0.0009 -0.3509 -0.3642
 7337TIP3    H121975   5.684   4.598   5.282  1.9497 -0.9523 -0.4431
 7337TIP3    H221976   5.659   4.617   5.134 -0.6092 -0.4690  0.0080
 7338TIP3   OH221977   5.064   3.764   2.535  0.2582 -0.2052 -0.1305
 7338TIP3    H121978   5.122   3.840   2.536  0.7467 -0.5696 -0.1335
 7338TIP3    H221979   5.056   3.739   2.627  0.1408 -0.1782 -0.1340
 7339TIP3   OH221980   0.782   4.116   0.873  0.0468  0.2720  0.0870
 7339TIP3    H121981   0.711   4.178   0.891  0.2920  0.3436  0.8155
 7339TIP3    H221982   0.785   4.111   0.777 -1.1312  0.0446  0.0522
 7340TIP3   OH221983   6.189   3.838   1.235  0.0966 -0.3693 -0.3528
 7340TIP3    H121984   6.282   3.820   1.241  0.4683  1.4372  0.0403
 7340TIP3    H221985   6.150   3.792   1.310  1.2718  1.9515  1.8512
 7341TIP3   OH221986   1.323   6.371   2.917 -0.1071  0.6070  0.5303
 7341TIP3    H121987   1.229   6.363   2.935 -0.4319 -0.8760 -1.4251
 7341TIP3    H221988   1.351   6.281   2.897  1.4595  1.1965 -0.0952
 7342TIP3   OH221989   0.982   6.068   4.310  0.4799 -0.3245  0.2506
 7342TIP3    H121990   1.033   6.033   4.238  1.1493 -1.2479  1.1406
 7342TIP3    H221991   1.019   6.155   4.326  1.0732 -0.5625  0.1926
 7343TIP3   OH221992   6.343   6.069   5.017  0.6910  0.2930 -0.4127
 7343TIP3    H121993   6.274   6.086   5.080  0.3056 -0.6978 -0.5547
 7343TIP3    H221994   6.351   6.150   4.968  1.7325  1.4771  1.5770
 7344TIP3   OH221995   3.970   2.158   4.028  0.3561 -0.3156 -0.0205
 7344TIP3    H121996   4.038   2.210   4.072  2.1623 -1.0766 -1.7469
 7344TIP3    H221997   3.970   2.191   3.938 -0.8191 -1.0957 -0.3221
 7345TIP3   OH221998   6.806   5.566   0.728 -0.0000  0.4263  0.2152
 7345TIP3    H121999   6.802   5.484   0.777  0.7031 -0.5673 -1.3316
 7345TIP3    H222000   6.897   5.574   0.701 -0.1142  1.5970  0.1164
 7346TIP3   OH222001   2.072   1.668   4.612 -0.3957 -0.4053  0.7300
 7346TIP3    H122002   2.089   1.601   4.679 -0.6839 -0.6707  0.5394
 7346TIP3    H222003   2.158   1.706   4.593 -0.4843  0.7082  2.3369
 7347TIP3   OH222004   1.940   2.055   1.649  0.7014 -0.4631 -0.0918
 7347TIP3    H122005   1.992   2.101   1.583  0.4279  0.7263  0.5051
 7347TIP3    H222006   1.876   2.119   1.678  0.0911 -1.3356  0.5215
 7348TIP3   OH222007   0.135   2.747   4.997  0.2218  0.2931 -0.1049
 7348TIP3    H122008   0.127   2.779   5.087  2.0683  0.0569  0.1805
 7348TIP3    H222009   0.197   2.806   4.956  0.4294 -0.4130 -0.8276
 7349TIP3   OH222010   4.860   2.988   4.884  0.3097 -0.2438  0.3688
 7349TIP3    H122011   4.804   3.063   4.865  0.1102 -0.4153  0.2750
 7349TIP3    H222012   4.904   2.969   4.802  0.0878 -0.4538  0.2972
 7350TIP3   OH222013   1.098   0.844   0.851  0.3558  0.0598  0.1989
 7350TIP3    H122014   1.030   0.802   0.797 -0.2995 -0.5322  1.4354
 7350TIP3    H222015   1.171   0.782   0.850  0.1534 -0.1833  0.3953
 7351TIP3   OH222016   6.460   1.560   5.612 -0.1197 -0.9371 -0.1631
 7351TIP3    H122017   6.402   1.556   5.687 -2.0341 -0.7525 -1.5470
 7351TIP3    H222018   6.504   1.475   5.611  2.0695  0.0193  2.6636
 7352TIP3   OH222019   7.162   5.324   5.665 -0.0350 -0.3147  0.0607
 7352TIP3    H122020   7.115   5.379   5.602  2.4280  2.4349  0.4335
 7352TIP3    H222021   7.110   5.331   5.745 -0.8265 -0.2278 -0.4389
 7353TIP3   OH222022   4.329   5.108   3.691 -0.0937  0.1960  0.0264
 7353TIP3    H122023   4.365   5.157   3.617 -1.9682  1.2859 -0.2061
 7353TIP3    H222024   4.392   5.124   3.762  2.1983 -1.5639 -1.4683
 7354TIP3   OH222025   1.473   6.136   4.861 -0.8325 -0.4066 -0.2769
 7354TIP3    H122026   1.527   6.184   4.924 -1.3141  1.0834 -0.9386
 7354TIP3    H222027   1.535   6.083   4.811 -0.3401 -0.8907  0.8205
 7355TIP3   OH222028   0.771   1.206   1.763  0.3022  0.3031  0.3165
 7355TIP3    H122029   0.733   1.273   1.707  1.0098  0.2298 -0.2799
 7355TIP3    H222030   0.865   1.224   1.762  0.4748 -0.5225  0.3635
 7356TIP3   OH222031   4.354   3.956   0.652  0.0190 -0.2581  0.7151
 7356TIP3    H122032   4.398   3.873   0.670 -0.3158 -1.5184 -3.2665
 7356TIP3    H222033   4.407   3.996   0.584 -1.6622  1.1464  0.1697
 7357TIP3   OH222034   1.147   2.685   0.586  0.4620  0.1933  0.0220
 7357TIP3    H122035   1.214   2.742   0.548 -1.1984  1.1547 -1.6212
 7357TIP3    H222036   1.072   2.743   0.601 -0.3743 -1.0559  0.8305
 7358TIP3   OH222037   6.972   5.062   1.349 -0.0388  0.1972 -0.6221
 7358TIP3    H122038   7.061   5.033   1.330  0.0198 -0.9757  1.1948
 7358TIP3    H222039   6.915   5.002   1.301  0.1337 -0.1019 -0.4497
 7359TIP3   OH222040   4.440   5.113   4.384 -0.8102 -0.6425 -0.0453
 7359TIP3    H122041   4.403   5.110   4.472  0.1320 -2.0661  0.3403
 7359TIP3    H222042   4.527   5.072   4.393 -0.6396 -0.6888 -1.6037
 7360TIP3   OH222043   4.331   3.037   4.409  0.1358 -0.0324 -0.2647
 7360TIP3    H122044   4.297   2.966   4.463 -0.0956  0.6387  0.4817
 7360TIP3    H222045   4.411   3.001   4.370 -0.0744 -0.7565 -0.0416
 7361TIP3   OH222046   0.633   0.918   0.424 -0.0459 -0.3002  0.0645
 7361TIP3    H122047   0.716   0.965   0.430  0.1737 -0.4015 -1.7524
 7361TIP3    H222048   0.657   0.829   0.396 -0.5899 -1.0700  1.8940
 7362TIP3   OH222049   5.400   6.528   2.702  0.0656 -0.7282 -0.0391
 7362TIP3    H122050   5.356   6.612   2.712  0.7847 -0.4912  1.2148
 7362TIP3    H222051   5.392   6.486   2.787  1.0086 -1.3023 -0.2262
 7363TIP3   OH222052   4.837   1.259   4.587 -0.2804  0.0971 -0.0849
 7363TIP3    H122053   4.775   1.301   4.647  0.0698  0.6187 -0.0895
 7363TIP3    H222054   4.800   1.273   4.500  1.1410  2.7176 -0.3452
 7364TIP3   OH222055   3.463   5.372   4.179  0.5555  0.1116 -0.3208
 7364TIP3    H122056   3.388   5.390   4.236 -0.0397  0.7247 -1.2682
 7364TIP3    H222057   3.529   5.333   4.237 -0.2523  0.1636  0.6551
 7365TIP3   OH222058   1.593   1.130   0.975 -0.2643 -0.3527  0.2715
 7365TIP3    H122059   1.686   1.142   0.994  0.3409 -1.4831 -1.6173
 7365TIP3    H222060   1.587   1.041   0.940 -1.8272  0.1470 -0.8537
 7366TIP3   OH222061   1.075   0.317   0.624  0.1468  0.0505  0.0912
 7366TIP3    H122062   1.140   0.370   0.577 -0.7197  0.6181 -0.4923
 7366TIP3    H222063   1.028   0.380   0.679  0.3560 -0.4225  0.8275
 7367TIP3   OH222064   7.186   4.626   3.962 -0.1816 -0.4390  0.5134
 7367TIP3    H122065   7.255   4.562   3.977 -1.5567 -2.0965  0.0201
 7367TIP3    H222066   7.129   4.586   3.896 -0.1277  2.0485 -1.1969
 7368TIP3   OH222067   5.824   0.120   1.982 -0.0496  0.2262  0.2206
 7368TIP3    H122068   5.910   0.078   1.973  0.2608  0.9386 -0.2092
 7368TIP3    H222069   5.771   0.081   1.913  0.8518  2.0153 -1.5705
 7369TIP3   OH222070   2.024   1.410   4.073  0.6311 -0.6356  0.1224
 7369TIP3    H122071   1.951   1.446   4.124 -0.5821  0.8230 -2.4420
 7369TIP3    H222072   2.085   1.483   4.063  0.2985 -0.5368 -1.4021
 7370TIP3   OH222073   2.724   4.300   4.775 -0.3873  0.0841  0.0998
 7370TIP3    H122074   2.804   4.341   4.740  0.3547 -1.6423 -0.3280
 7370TIP3    H222075   2.754   4.217   4.812 -1.6829  0.3760  1.9082
 7371TIP3   OH222076   3.110   2.251   0.021 -0.2663  0.0250  0.8582
 7371TIP3    H122077   3.091   2.280  -0.068  0.5966 -1.6842  0.0736
 7371TIP3    H222078   3.028   2.215   0.052  0.2291 -2.6120 -0.6109
 7372TIP3   OH222079   0.096   6.726   1.656 -0.7034 -0.1483  0.3697
 7372TIP3    H122080   0.131   6.687   1.737 -0.4286  0.9600  0.8081
 7372TIP3    H222081   0.080   6.652   1.598  0.5216 -0.8426  0.8927
 7373TIP3   OH222082   2.750   3.979   0.777  0.4346  0.1078 -0.5008
 7373TIP3    H122083   2.744   3.977   0.681  0.2033  0.4682 -0.4933
 7373TIP3    H222084   2.681   3.919   0.806  1.1334 -0.7605 -0.5783
 7374TIP3   OH222085   4.168   0.571   4.584 -0.4993 -0.0721  0.2309
 7374TIP3    H122086   4.101   0.628   4.621  0.7256  0.5806  1.5509
 7374TIP3    H222087   4.224   0.547   4.658  0.9096 -0.3227 -0.8582
 7375TIP3   OH222088   5.222   6.102   2.477 -0.7991  0.0593 -0.4298
 7375TIP3    H122089   5.246   6.194   2.464  0.6378 -0.0134  1.3322
 7375TIP3    H222090   5.136   6.104   2.518 -0.3107  0.6855  0.5907
 7376TIP3   OH222091   5.784   1.915   1.336  0.0103  0.4188 -0.5137
 7376TIP3    H122092   5.727   1.843   1.309  1.0805 -0.5379 -0.2844
 7376TIP3    H222093   5.759   1.988   1.279 -2.7514  0.6466  0.8680
 7377TIP3   OH222094   7.200   4.459   2.163 -0.2949 -0.1362 -0.6427
 7377TIP3    H122095   7.208   4.533   2.223  1.0651 -0.1129 -0.8382
 7377TIP3    H222096   7.108   4.460   2.136 -0.3503  1.3382 -0.4619
 7378TIP3   OH222097   3.483   0.628   0.288 -0.4292 -0.0491  0.0344
 7378TIP3    H122098   3.497   0.714   0.328  1.2856  0.1527 -0.8618
 7378TIP3    H222099   3.447   0.648   0.201  2.3951  0.0236 -1.2362
 7379TIP3   OH222100   3.741   2.456   2.656  0.5522  0.3348 -0.3414
 7379TIP3    H122101   3.732   2.389   2.724 -0.1102 -1.6928 -2.3044
 7379TIP3    H222102   3.768   2.535   2.704 -1.5006 -0.4943  2.4705
 7380TIP3   OH222103   2.424   5.311   0.944  0.6294  0.4668  0.0507
 7380TIP3    H122104   2.376   5.245   0.894  2.5040 -0.0719 -1.1502
 7380TIP3    H222105   2.411   5.286   1.035 -2.3111  1.0584 -0.1143
 7381TIP3   OH222106   6.448   2.070   0.621 -0.5359 -1.2067 -0.5108
 7381TIP3    H122107   6.379   2.136   0.610 -0.3218 -0.9349 -0.2401
 7381TIP3    H222108   6.496   2.071   0.539  0.2354 -0.1342 -0.0664
 7382TIP3   OH222109   7.113   2.750   4.007 -0.3777 -0.8382  0.6445
 7382TIP3    H122110   7.170   2.826   4.017  1.8197 -2.0660 -1.3625
 7382TIP3    H222111   7.148   2.685   4.068 -0.9044 -0.9253  0.8546
 7383TIP3   OH222112   0.386   5.519   1.424  0.3156  0.3541  0.3154
 7383TIP3    H122113   0.340   5.468   1.491 -1.3402  2.0287  0.5426
 7383TIP3    H222114   0.472   5.537   1.462  0.6171 -1.4402  0.5915
 7384TIP3   OH222115   2.886   0.502   0.728  0.2608 -0.3313 -0.6496
 7384TIP3    H122116   2.942   0.551   0.668  2.0782 -0.9597  0.4566
 7384TIP3    H222117   2.842   0.569   0.781 -0.3479  0.1816 -1.7788
 7385TIP3   OH222118   0.517   5.098   0.371  0.5780  0.3325  0.2856
 7385TIP3    H122119   0.443   5.146   0.333 -0.8078 -1.2712  0.8472
 7385TIP3    H222120   0.542   5.150   0.447 -0.7006  0.3860  0.7064
 7386TIP3   OH222121   1.218   4.802   4.531  0.1949  0.5533 -0.0152
 7386TIP3    H122122   1.182   4.728   4.580  0.2468  1.0585  0.8042
 7386TIP3    H222123   1.292   4.765   4.482 -0.8769 -0.3236 -1.0664
 7387TIP3   OH222124   1.074   5.320   2.380 -0.7002 -0.0539 -0.2147
 7387TIP3    H122125   1.059   5.225   2.386  0.0433 -0.1015  1.2142
 7387TIP3    H222126   1.064   5.352   2.470  1.5119  0.8283 -0.2174
 7388TIP3   OH222127   3.979   2.166   0.172 -0.1810 -0.6357  0.8706
 7388TIP3    H122128   3.961   2.119   0.091 -1.5162 -1.5036  1.6205
 7388TIP3    H222129   3.897   2.210   0.193  0.5356  0.6340  1.0922
 7389TIP3   OH222130   3.457   1.690   4.937  0.0074 -0.4283  0.5641
 7389TIP3    H122131   3.512   1.630   4.988  2.2760  0.8477 -0.2533
 7389TIP3    H222132   3.480   1.673   4.846  0.4245  1.3847  0.2932
 7390TIP3   OH222133   6.234   2.460   2.407  0.1519 -0.0441  0.1196
 7390TIP3    H122134   6.287   2.445   2.328  1.4825  3.2032  0.2326
 7390TIP3    H222135   6.171   2.526   2.380 -2.8496 -2.5369  0.5150
 7391TIP3   OH222136   0.902   0.954   2.426  0.4128  0.4847  0.2998
 7391TIP3    H122137   0.828   1.012   2.442 -0.1549  0.3608 -1.6428
 7391TIP3    H222138   0.979   1.010   2.442 -0.0862  2.4248 -3.1179
 7392TIP3   OH222139   6.901   1.648   0.773  0.0819  0.2656  0.1685
 7392TIP3    H122140   6.859   1.563   0.789  1.4422 -0.7355 -1.2429
 7392TIP3    H222141   6.977   1.648   0.832  1.5008 -0.6594 -1.5537
 7393TIP3   OH222142   5.114   0.648   2.959  0.7080  0.4151  0.0950
 7393TIP3    H122143   5.064   0.597   2.895  1.9599  0.2212 -0.7456
 7393TIP3    H222144   5.126   0.734   2.918  1.4979  0.2964  0.0719
 7394TIP3   OH222145   2.773   0.036   3.828  0.1465  0.3216 -0.2082
 7394TIP3    H122146   2.764   0.020   3.922 -0.8887  0.4177 -0.2803
 7394TIP3    H222147   2.776   0.132   3.821 -2.7016  0.4478 -0.4797
 7395TIP3   OH222148   2.284   6.190   1.299  0.5750  0.3645 -0.1264
 7395TIP3    H122149   2.220   6.137   1.252  1.3268  0.3674 -1.1976
 7395TIP3    H222150   2.275   6.163   1.391  0.7012 -1.3970 -0.5919
 7396TIP3   OH222151   6.566   5.328   1.953  0.4881 -0.0258 -0.4870
 7396TIP3    H122152   6.611   5.244   1.967 -1.7539 -1.6713 -2.3435
 7396TIP3    H222153   6.561   5.337   1.858 -0.1547  1.7477 -0.3158
 7397TIP3   OH222154   4.626   5.482   5.427 -0.2898  0.1225 -0.4269
 7397TIP3    H122155   4.666   5.437   5.502 -0.8342  0.2313 -0.0647
 7397TIP3    H222156   4.551   5.528   5.464  1.3955  3.0659 -0.3793
 7398TIP3   OH222157   6.332   5.075   1.931 -0.4753 -0.5106  0.1374
 7398TIP3    H122158   6.346   5.141   1.999  2.1174 -0.5278 -0.2667
 7398TIP3    H222159   6.296   5.124   1.857 -1.6619 -0.1820  0.9017
 7399TIP3   OH222160   4.084   1.491   2.565 -0.0522  0.0731  0.6025
 7399TIP3    H122161   4.022   1.564   2.566  0.7419  0.8070 -0.7268
 7399TIP3    H222162   4.097   1.473   2.472  0.2458 -1.3690  0.9066
 7400TIP3   OH222163   4.962   3.806   3.331 -0.1562 -0.1770  0.1034
 7400TIP3    H122164   5.008   3.729   3.300  0.9455  0.0152  1.2184
 7400TIP3    H222165   4.905   3.774   3.402  3.0505  0.4703  3.2420
 7401TIP3   OH222166   6.444   3.420   4.064  0.0457 -0.0363  0.3216
 7401TIP3    H122167   6.396   3.411   4.147  1.4993  0.9196  1.3101
 7401TIP3    H222168   6.491   3.502   4.072 -0.3739  0.4807 -1.8222
 7402TIP3   OH222169   5.923   3.275   4.229  0.0572  0.0340 -0.1663
 7402TIP3    H122170   6.007   3.256   4.187  0.7218  2.0294  0.1542
 7402TIP3    H222171   5.926   3.228   4.313  1.3005  0.8674  0.2792
 7403TIP3   OH222172   1.535   1.861   0.612 -0.2332 -0.4974 -0.3059
 7403TIP3    H122173   1.551   1.939   0.558  0.5134 -1.3525 -1.3696
 7403TIP3    H222174   1.473   1.809   0.562 -0.3587 -0.8166  0.1712
 7404TIP3   OH222175   4.586   0.981   1.208 -0.0970 -0.2547  0.1192
 7404TIP3    H122176   4.564   0.969   1.115 -2.0828 -2.2768  0.7502
 7404TIP3    H222177   4.556   1.069   1.228  0.5238  0.2840 -1.1841
 7405TIP3   OH222178   1.341   4.145   2.636 -0.0414  0.2229 -0.1523
 7405TIP3    H122179   1.425   4.190   2.630 -0.6421  1.1134 -3.6733
 7405TIP3    H222180   1.286   4.204   2.688  0.0779  2.2094 -2.1541
 7406TIP3   OH222181   4.494   3.626   2.726  0.0671  0.6028  0.0167
 7406TIP3    H122182   4.464   3.701   2.776  0.6324  1.0973 -0.3645
 7406TIP3    H222183   4.590   3.631   2.730  0.1330  0.8973 -1.4409
 7407TIP3   OH222184   3.679   4.443   2.703 -0.0053 -0.5694 -0.7292
 7407TIP3    H122185   3.762   4.473   2.740 -0.7326  0.5510  0.0395
 7407TIP3    H222186   3.629   4.413   2.779 -0.5398 -0.6644 -1.1143
 7408TIP3   OH222187   4.470   4.001   2.052  0.4174  0.4997 -0.0676
 7408TIP3    H122188   4.423   4.033   1.975  0.2101  0.1642 -0.0853
 7408TIP3    H222189   4.533   4.069   2.072  0.4161  0.6260 -0.4893
 7409TIP3   OH222190   6.121   1.444   1.744 -0.1980  0.1792  0.0261
 7409TIP3    H122191   6.046   1.386   1.729 -0.5402  0.9500 -1.4674
 7409TIP3    H222192   6.133   1.490   1.660  3.4545 -1.6406 -0.6755
 7410TIP3   OH222193   1.900   2.748   2.974  0.5772  0.4419  0.7114
 7410TIP3    H122194   1.807   2.729   2.963  0.7292  0.1342 -0.0782
 7410TIP3    H222195   1.903   2.836   3.013 -0.0030  1.5480 -1.5856
 7411TIP3   OH222196   5.311   2.815   3.162  0.4337  0.0990  0.2818
 7411TIP3    H122197   5.221   2.794   3.186 -0.2361  0.1235 -1.9264
 7411TIP3    H222198   5.349   2.732   3.135 -0.3906  0.6313 -2.9419
 7412TIP3   OH222199   2.678   3.996   4.234 -0.5753  0.4056 -0.1572
 7412TIP3    H122200   2.589   3.961   4.225 -2.0973  3.4273  1.5776
 7412TIP3    H222201   2.666   4.089   4.249  3.0303  1.1818 -1.1324
 7413TIP3   OH222202   4.714   5.078   1.343 -0.0392  0.0520 -0.4558
 7413TIP3    H122203   4.664   5.038   1.414 -1.8400  0.3994 -1.4899
 7413TIP3    H222204   4.805   5.057   1.365 -0.4085  0.9466  2.4369
 7414TIP3   OH222205   5.486   4.827   2.975  0.6036  0.3755  0.7016
 7414TIP3    H122206   5.423   4.787   2.916  0.1419  2.1985 -0.1077
 7414TIP3    H222207   5.526   4.753   3.021 -0.3761 -0.9663 -0.5127
 7415TIP3   OH222208   0.429   0.167   5.187 -0.0016 -0.1921  0.7421
 7415TIP3    H122209   0.422   0.099   5.120  1.4324 -0.3185  0.6795
 7415TIP3    H222210   0.501   0.138   5.243  2.6442  2.5649 -0.9360
 7416TIP3   OH222211   3.631   6.085   1.181  0.0224  0.1955  0.1620
 7416TIP3    H122212   3.618   6.154   1.247 -0.7213  0.2278 -0.0126
 7416TIP3    H222213   3.638   6.131   1.098  2.0005  0.2374  0.2998
 7417TIP3   OH222214   5.965   5.354   3.913 -0.2945 -0.2301  0.2413
 7417TIP3    H122215   6.034   5.419   3.932 -1.3318  0.7938  0.6209
 7417TIP3    H222216   5.908   5.357   3.990 -1.5910  0.0409 -0.6936
 7418TIP3   OH222217   1.979   0.495   2.961 -0.0482  0.2061  0.2162
 7418TIP3    H122218   1.885   0.502   2.942  0.1009  1.6944 -0.1102
 7418TIP3    H222219   2.022   0.521   2.879  0.6225  1.8486  1.0503
 7419TIP3   OH222220   0.673   4.429   0.237 -0.0720 -0.3671 -0.3491
 7419TIP3    H122221   0.738   4.484   0.194 -0.1808 -1.3416 -1.8020
 7419TIP3    H222222   0.712   4.407   0.322  2.0881 -1.9783 -1.6737
 7420TIP3   OH222223   6.001   1.281   5.810  0.0971  0.5379 -0.2711
 7420TIP3    H122224   6.052   1.348   5.763  0.5480 -0.1987 -0.8703
 7420TIP3    H222225   5.912   1.293   5.779  0.0740  1.2098  0.0384
 7421TIP3   OH222226   1.765   4.884   1.695 -0.3073 -0.1954  0.3869
 7421TIP3    H122227   1.717   4.890   1.613 -0.2387 -0.7065  0.3065
 7421TIP3    H222228   1.718   4.817   1.745  0.5570 -1.0063  0.1410
 7422TIP3   OH222229   4.844   1.643   2.440 -0.4747 -0.2991 -0.6342
 7422TIP3    H122230   4.939   1.646   2.450 -0.5912  0.1834  0.4023
 7422TIP3    H222231   4.816   1.575   2.501 -0.8539  0.0273 -0.4439
 7423TIP3   OH222232   5.599   5.836   3.229 -0.0348 -0.0554 -0.1909
 7423TIP3    H122233   5.543   5.761   3.250  0.1160  0.1372  0.9314
 7423TIP3    H222234   5.570   5.864   3.142 -1.8226  0.1487  0.4379
 7424TIP3   OH222235   6.967   3.613   2.571  0.0170  0.4735 -0.6365
 7424TIP3    H122236   7.014   3.627   2.653  0.2258  0.9532 -0.8381
 7424TIP3    H222237   6.878   3.589   2.598 -0.0157  1.0022 -0.2788
 7425TIP3   OH222238   3.456   3.883   3.500  0.0862 -0.0842 -0.0244
 7425TIP3    H122239   3.430   3.794   3.478 -0.3403  0.3676 -1.4718
 7425TIP3    H222240   3.373   3.928   3.519  0.2729  0.0856  0.3986
 7426TIP3   OH222241   2.995   4.093   2.241  0.1668 -0.6776  0.1497
 7426TIP3    H122242   2.981   4.139   2.324  2.2320  2.4433 -1.0675
 7426TIP3    H222243   3.085   4.060   2.247  0.3729 -0.3125 -0.8970
 7427TIP3   OH222244   5.273   2.966   3.810  0.0966  0.3908  0.4285
 7427TIP3    H122245   5.321   2.937   3.733  0.2147 -0.9437  0.9727
 7427TIP3    H222246   5.300   3.057   3.822  1.8768 -0.0734  0.2425
 7428TIP3   OH222247   6.893   2.394   3.779 -0.2523 -0.2604 -0.0958
 7428TIP3    H122248   6.851   2.411   3.862 -0.1397 -1.6986  0.2817
 7428TIP3    H222249   6.829   2.419   3.713 -0.4878  0.5116  0.4180
 7429TIP3   OH222250   6.695   1.391   3.076 -0.4639  0.0153  0.2597
 7429TIP3    H122251   6.754   1.466   3.073  0.1461 -0.4762 -2.3921
 7429TIP3    H222252   6.644   1.397   2.996 -2.1912 -1.0532  1.2164
 7430TIP3   OH222253   3.444   0.349   2.077  0.0903  0.3007  0.0765
 7430TIP3    H122254   3.517   0.400   2.112 -1.1575  2.0188  0.2736
 7430TIP3    H222255   3.380   0.347   2.148  0.6277 -2.8392  0.6448
 7431TIP3   OH222256   4.674   0.269   2.135  0.0684 -0.5950  0.2568
 7431TIP3    H122257   4.754   0.318   2.151 -0.1457 -0.6871  1.7973
 7431TIP3    H222258   4.639   0.304   2.053  1.8566 -0.8213 -0.6515
 7432TIP3   OH222259   5.133   3.433   2.261 -0.3309 -0.1104  0.6134
 7432TIP3    H122260   5.120   3.407   2.170  0.9533  0.9611  0.0998
 7432TIP3    H222261   5.063   3.497   2.277  1.2906  2.1164 -0.6687
 7433TIP3   OH222262   6.797   0.331   4.251 -0.3782 -0.0520  0.2670
 7433TIP3    H122263   6.888   0.359   4.259  0.4783 -2.3667 -0.4555
 7433TIP3    H222264   6.746   0.412   4.249  1.7121  1.3147  0.0172
 7434TIP3   OH222265   3.295   5.319   2.419  0.0029 -0.0606  0.3588
 7434TIP3    H122266   3.252   5.391   2.372 -0.7256 -0.9726 -0.4256
 7434TIP3    H222267   3.291   5.345   2.511  0.6389  1.3436  0.0142
 7435TIP3   OH222268   4.274   2.268   0.767 -0.2487  0.0353  0.4613
 7435TIP3    H122269   4.347   2.233   0.817 -0.7361 -0.8298  0.5878
 7435TIP3    H222270   4.196   2.235   0.812 -0.7018 -0.0025 -0.3303
 7436TIP3   OH222271   0.654   4.501   5.507  0.3193  0.6941 -0.3963
 7436TIP3    H122272   0.645   4.412   5.473 -1.0712  0.9354 -0.7377
 7436TIP3    H222273   0.667   4.555   5.429  3.3309  0.5992 -0.0549
 7437TIP3   OH222274   2.951   3.225   2.047 -0.1697  0.0946 -0.3465
 7437TIP3    H122275   2.887   3.227   1.977 -0.3275  0.4538 -0.1939
 7437TIP3    H222276   2.956   3.315   2.078 -2.1462 -0.4676  1.9356
 7438TIP3   OH222277   0.694   2.072   3.672  0.0631 -0.2128 -0.0728
 7438TIP3    H122278   0.729   2.146   3.623 -0.6082  1.4456  1.8527
 7438TIP3    H222279   0.600   2.075   3.656 -0.0615 -0.1600  0.6542
 7439TIP3   OH222280   5.823   2.675   3.012  0.0963  0.7488 -0.1477
 7439TIP3    H122281   5.853   2.676   3.103 -0.4070 -0.0934  0.0366
 7439TIP3    H222282   5.858   2.756   2.975  3.5892 -0.6201 -0.2878
 7440TIP3   OH222283   5.993   2.199   0.328 -0.0632  0.3879  0.1056
 7440TIP3    H122284   5.955   2.288   0.332  0.2083  0.4948  0.3124
 7440TIP3    H222285   5.932   2.151   0.272 -0.4640  0.5832  0.3590
 7441TIP3   OH222286   3.709   3.761   0.008  0.0984 -0.6937 -0.2572
 7441TIP3    H122287   3.656   3.836  -0.019  2.3674  1.0993 -0.1151
 7441TIP3    H222288   3.736   3.781   0.098  2.3320 -0.6228 -0.8668
 7442TIP3   OH222289   6.599   2.396   2.416 -0.0878  0.2014  0.3620
 7442TIP3    H122290   6.539   2.406   2.490 -0.6515  0.6894 -0.1497
 7442TIP3    H222291   6.677   2.356   2.454  0.9792  3.4341  1.9079
 7443TIP3   OH222292   6.750   0.117   2.989 -0.0186  0.5632 -0.0069
 7443TIP3    H122293   6.685   0.169   3.036  0.7123  3.1486 -1.6654
 7443TIP3    H222294   6.834   0.143   3.027  0.2617 -0.9831  0.5089
 7444TIP3   OH222295   4.682   2.717   1.906  0.2930 -0.3563  0.2161
 7444TIP3    H122296   4.657   2.629   1.934 -0.9658  0.0093  0.2939
 7444TIP3    H222297   4.600   2.765   1.900  1.0104  0.9917  0.7502
 7445TIP3   OH222298   5.339   3.257   1.341 -0.0700 -0.2111 -0.1633
 7445TIP3    H122299   5.288   3.262   1.260  1.5732 -0.1211 -1.2332
 7445TIP3    H222300   5.336   3.347   1.376 -1.0410 -0.3187  0.0836
 7446TIP3   OH222301   6.126   2.799   1.373 -0.1531  0.0452 -0.2673
 7446TIP3    H122302   6.199   2.741   1.392 -2.0504 -2.2427  0.4857
 7446TIP3    H222303   6.064   2.785   1.444 -0.7466  3.0893 -0.0210
 7447TIP3   OH222304   0.091   1.623   0.114  0.3312  0.6547  0.0683
 7447TIP3    H122305   0.007   1.669   0.114 -0.3399 -0.4249  2.0916
 7447TIP3    H222306   0.073   1.539   0.072  0.0999  0.0299  1.3524
 7448TIP3   OH222307   6.007   4.096   5.615 -0.2735  0.0632 -0.5749
 7448TIP3    H122308   6.035   4.167   5.556 -0.4624  1.7501  1.2673
 7448TIP3    H222309   6.083   4.037   5.617  1.2974  1.9832  0.4378
 7449TIP3   OH222310   3.838   3.383   1.484 -0.0879  0.4822  0.1324
 7449TIP3    H122311   3.758   3.346   1.522  0.5496 -1.8163 -0.5965
 7449TIP3    H222312   3.885   3.420   1.558 -1.0449  0.3456  0.8276
 7450TIP3   OH222313   5.151   1.353   3.370 -0.0193  0.2245 -0.4616
 7450TIP3    H122314   5.240   1.386   3.383 -0.1455 -0.2100  2.0191
 7450TIP3    H222315   5.162   1.273   3.319  0.9595  0.3930 -0.5430
 7451TIP3   OH222316   1.467   4.404   3.736 -0.2106  0.0712  0.4216
 7451TIP3    H122317   1.554   4.420   3.773  0.5835 -0.4353 -1.1035
 7451TIP3    H222318   1.470   4.447   3.650 -1.3970 -0.1429  0.2563
 7452TIP3   OH222319   5.708   1.265   3.493  0.3981 -0.3899 -0.5757
 7452TIP3    H122320   5.774   1.326   3.460 -0.3343  0.7685  0.0090
 7452TIP3    H222321   5.756   1.209   3.554  0.7068  1.0425  0.5570
 7453TIP3   OH222322   6.823   6.448   4.905 -0.7735  0.0244  0.1785
 7453TIP3    H122323   6.740   6.496   4.904 -1.3171 -0.8823 -0.6699
 7453TIP3    H222324   6.869   6.480   4.827 -0.5358  0.1605  0.3729
 7454TIP3   OH222325   0.109   1.301   5.588 -0.5163  0.3568 -0.2365
 7454TIP3    H122326   0.108   1.261   5.501  0.4195  0.3022 -0.2405
 7454TIP3    H222327   0.061   1.382   5.578  0.8808  1.1073 -1.2130
 7455TIP3   OH222328   0.312   2.482   3.388 -0.0915 -0.5105  0.6830
 7455TIP3    H122329   0.292   2.425   3.314  0.8738 -0.4462  0.3493
 7455TIP3    H222330   0.287   2.569   3.358  3.0523  0.0151 -0.8170
 7456TIP3   OH222331   1.817   2.955   2.226 -0.3174 -0.4506 -0.6521
 7456TIP3    H122332   1.889   2.897   2.204 -1.7670 -2.2277 -0.9432
 7456TIP3    H222333   1.739   2.910   2.194 -1.4101  2.4981 -2.5691
 7457TIP3   OH222334   2.623   5.850   3.590 -0.1610  0.1889  0.1492
 7457TIP3    H122335   2.571   5.771   3.575  2.0426 -1.1623 -1.0443
 7457TIP3    H222336   2.662   5.869   3.505  2.9933 -0.2464  1.3551
 7458TIP3   OH222337   1.466   6.521   2.674  0.2272  0.2235  0.1976
 7458TIP3    H122338   1.493   6.589   2.736 -1.0131 -0.0137  1.0285
 7458TIP3    H222339   1.375   6.505   2.694 -0.1286 -0.1107 -1.4914
 7459TIP3   OH222340   5.827   6.723  -0.010 -0.4507 -0.0395  0.2438
 7459TIP3    H122341   5.770   6.777   0.046 -0.7761 -0.3567  0.2206
 7459TIP3    H222342   5.778   6.642  -0.023  1.1433 -1.5123  2.5304
 7460TIP3   OH222343   2.882   3.464   4.015  0.0461  0.1204  1.0685
 7460TIP3    H122344   2.851   3.534   3.957 -0.7795  0.8669  2.3414
 7460TIP3    H222345   2.929   3.404   3.958  0.1559  1.3491 -0.1935
 7461TIP3   OH222346   6.773  -0.026   5.781  0.1452 -0.1661  0.5380
 7461TIP3    H122347   6.758   0.026   5.861  0.4423  0.6087  0.1075
 7461TIP3    H222348   6.703   0.002   5.722 -1.1527 -2.0158  1.0974
 7462TIP3   OH222349   1.014   2.170   1.134  0.0115 -0.3292 -0.3259
 7462TIP3    H122350   1.000   2.149   1.042  1.9548 -3.5358 -0.0791
 7462TIP3    H222351   1.094   2.222   1.135 -0.4989  0.4663 -0.4862
 7463TIP3   OH222352   1.459   4.865   3.447  0.3538  0.0779  0.0048
 7463TIP3    H122353   1.410   4.947   3.447 -0.0470 -0.1396 -1.5757
 7463TIP3    H222354   1.531   4.880   3.508 -0.6217  1.0282  0.9908
 7464TIP3   OH222355   1.600   0.955   4.474  0.3035  0.4857 -0.2560
 7464TIP3    H122356   1.643   1.026   4.427 -0.2502  1.6220  0.9205
 7464TIP3    H222357   1.519   0.993   4.508  0.3952 -0.4544  1.1101
 7465TIP3   OH222358   3.577   0.228   1.264  0.2114  0.1607  0.3101
 7465TIP3    H122359   3.642   0.186   1.207 -0.6860 -2.6634  1.1954
 7465TIP3    H222360   3.609   0.211   1.353 -0.9065  0.1175  0.7206
 7466TIP3   OH222361   2.951   4.212   0.778 -0.2801 -0.0921  0.4927
 7466TIP3    H122362   2.865   4.224   0.817 -0.4040  1.7370 -0.2719
 7466TIP3    H222363   2.973   4.121   0.798 -2.1045 -0.4200  1.2364
 7467TIP3   OH222364   2.057   6.211   0.079  0.4162 -0.2259 -0.3604
 7467TIP3    H122365   1.973   6.167   0.089  0.2958  0.1476  0.3961
 7467TIP3    H222366   2.113   6.170   0.145  0.4595  0.3588 -0.0227
 7468TIP3   OH222367   3.611   0.584   0.982  0.6546 -0.1169 -0.3593
 7468TIP3    H122368   3.620   0.619   0.894  0.6530  0.4978 -0.1173
 7468TIP3    H222369   3.596   0.490   0.969 -1.1803  0.2391 -1.1004
 7469TIP3   OH222370   1.199   5.526   3.020  0.4374 -0.5749  0.4844
 7469TIP3    H122371   1.223   5.599   2.963  2.1391 -1.5415 -0.1121
 7469TIP3    H222372   1.167   5.567   3.100 -1.7062  0.8262 -0.9638
 7470TIP3   OH222373   3.458   1.584   2.316 -0.4800  0.4244 -0.4464
 7470TIP3    H122374   3.440   1.646   2.245 -1.4209  0.1013 -0.5000
 7470TIP3    H222375   3.554   1.583   2.323 -0.4527  1.9263 -0.3856
 7471TIP3   OH222376   5.833   6.765   3.329  0.8312  0.1744  0.5756
 7471TIP3    H122377   5.793   6.798   3.248 -0.5105 -0.6574  0.8727
 7471TIP3    H222378   5.926   6.757   3.307  0.3743 -0.9479 -1.2370
 7472TIP3   OH222379   1.899   4.847   5.705 -0.2467 -0.3838 -0.2281
 7472TIP3    H122380   1.838   4.798   5.649  0.8842 -0.2194 -1.6542
 7472TIP3    H222381   1.983   4.840   5.660 -0.0636  3.0867 -0.6945
 7473TIP3   OH222382   1.121   4.131   0.295 -0.1227 -0.1514  0.8852
 7473TIP3    H122383   1.116   4.080   0.376  0.8062  0.7489  1.5340
 7473TIP3    H222384   1.209   4.169   0.296 -0.1234 -0.0682 -0.5206
 7474TIP3   OH222385   4.413   3.800   2.213  0.4904  0.7218  0.4230
 7474TIP3    H122386   4.446   3.839   2.293  1.0680  0.4377  0.3255
 7474TIP3    H222387   4.409   3.872   2.150  1.1188  0.7176  0.3765
 7475TIP3   OH222388   1.420   2.081   3.611 -0.3028  0.0780  0.3264
 7475TIP3    H122389   1.407   2.151   3.675 -0.3129 -0.7193  1.2130
 7475TIP3    H222390   1.508   2.049   3.628  1.2703  2.3321 -2.5653
 7476TIP3   OH222391   3.291   6.434   2.057  0.0797 -0.3228 -0.1988
 7476TIP3    H122392   3.275   6.404   2.147 -2.4646  2.2730  0.3595
 7476TIP3    H222393   3.240   6.374   2.003  0.6933 -1.1956  0.1538
 7477TIP3   OH222394   6.785   0.812   5.563  0.1685 -0.6563 -0.3796
 7477TIP3    H122395   6.807   0.903   5.584 -2.6182 -0.3610  1.9713
 7477TIP3    H222396   6.714   0.819   5.500 -1.5888 -0.9980  1.4413
 7478TIP3   OH222397   6.909   2.501   1.576 -0.0291  0.2147 -0.3195
 7478TIP3    H122398   6.997   2.482   1.607 -0.8877  1.5219  3.4590
 7478TIP3    H222399   6.875   2.417   1.545  2.0872 -0.5486 -0.6884
 7479TIP3   OH222400   6.998   2.415   0.217  0.0187  0.9016 -0.6003
 7479TIP3    H122401   6.989   2.319   0.219 -0.3942  0.9249 -1.0719
 7479TIP3    H222402   7.006   2.440   0.310 -0.0018  0.4196 -0.4658
 7480TIP3   OH222403   4.766   3.399   4.005 -0.2350  1.1033  0.7797
 7480TIP3    H122404   4.832   3.348   4.053 -0.6292 -0.3704 -0.1595
 7480TIP3    H222405   4.758   3.481   4.054  0.6654  0.3968  2.1781
 7481TIP3   OH222406   3.980   0.986   2.975  0.1954 -0.2832 -0.8003
 7481TIP3    H122407   4.065   0.949   2.951 -0.3286 -1.1935 -1.3152
 7481TIP3    H222408   3.985   1.077   2.946  0.8009 -0.4729 -1.3404
 7482TIP3   OH222409   6.916   5.547   2.992 -0.4818 -0.0581  0.1485
 7482TIP3    H122410   6.860   5.474   3.019  0.3104 -1.1937 -1.1328
 7482TIP3    H222411   6.867   5.625   3.016 -0.7607 -0.9619  2.8387
 7483TIP3   OH222412   0.084   2.513   1.985  0.2739  0.3834  0.3483
 7483TIP3    H122413   0.087   2.601   1.948  2.1264  0.4581  0.5689
 7483TIP3    H222414   0.064   2.526   2.078 -0.2269  0.5063  0.2241
 7484TIP3   OH222415   1.185   3.523   4.097  0.0084  0.2707 -0.4525
 7484TIP3    H122416   1.097   3.486   4.101  0.1788 -0.1574 -0.6695
 7484TIP3    H222417   1.216   3.502   4.009 -1.1015  3.6828 -1.8352
 7485TIP3   OH222418   2.030   5.553   2.914 -0.5071  0.3257 -0.1397
 7485TIP3    H122419   2.037   5.619   2.983  0.9485 -0.8845  0.9389
 7485TIP3    H222420   2.079   5.590   2.841  0.1270  0.5432  0.3793
 7486TIP3   OH222421   4.690   0.262   1.022 -0.5417  0.6515  0.0115
 7486TIP3    H122422   4.691   0.270   1.117 -1.2632 -0.8937  0.1838
 7486TIP3    H222423   4.782   0.247   0.998 -0.5592 -0.7390  0.6815
 7487TIP3   OH222424   3.014   1.258   3.967 -0.1559  0.0330  0.2637
 7487TIP3    H122425   2.931   1.239   4.010 -0.0022  0.0680  0.5821
 7487TIP3    H222426   2.989   1.305   3.887 -0.3536  2.3940  1.6268
 7488TIP3   OH222427   6.893   4.183   4.524  0.1229  0.2798  0.4546
 7488TIP3    H122428   6.963   4.247   4.534  0.4780  0.0713 -0.5967
 7488TIP3    H222429   6.926   4.104   4.567  0.9537 -0.1132 -0.8535
 7489TIP3   OH222430   4.615   3.684   1.552  0.2110  0.0543 -0.2220
 7489TIP3    H122431   4.665   3.645   1.624 -0.1846  0.0848  0.0714
 7489TIP3    H222432   4.653   3.646   1.473  1.1348  0.5513 -0.0454
 7490TIP3   OH222433   6.464   0.670   1.986  0.0535  0.6288 -0.5283
 7490TIP3    H122434   6.447   0.623   1.904  0.9198  0.4930 -0.6428
 7490TIP3    H222435   6.452   0.762   1.964 -1.8892  0.4734 -0.2433
 7491TIP3   OH222436   6.838   6.243   2.012 -0.5368  0.0538  0.5947
 7491TIP3    H122437   6.758   6.275   2.052  1.0383  0.9950  3.2421
 7491TIP3    H222438   6.904   6.249   2.081  1.9237 -0.3555 -1.5486
 7492TIP3   OH222439   0.482   1.752   2.448 -0.7726 -0.0676 -0.3329
 7492TIP3    H122440   0.407   1.807   2.424 -2.9721 -1.1961  3.1097
 7492TIP3    H222441   0.443   1.668   2.472  1.5571 -0.6984  1.6534
 7493TIP3   OH222442   1.545   4.017   1.612 -0.1983 -0.1476  0.9081
 7493TIP3    H122443   1.531   4.085   1.679  0.5757  1.8538 -0.8331
 7493TIP3    H222444   1.632   3.983   1.630 -0.5272 -0.6127  1.6986
 7494TIP3   OH222445   2.893   6.138   1.221  0.4009 -0.2359 -0.1668
 7494TIP3    H122446   2.986   6.134   1.198  0.6836  0.0555  0.8673
 7494TIP3    H222447   2.849   6.163   1.139  1.3249  0.4722 -0.4652
 7495TIP3   OH222448   5.810   5.304   3.420 -0.4325  0.2403 -0.1899
 7495TIP3    H122449   5.761   5.377   3.383  0.2867  1.0323  0.3768
 7495TIP3    H222450   5.858   5.342   3.494 -0.8419 -1.0197  0.7686
 7496TIP3   OH222451   6.091   6.021   3.661  0.2628 -0.0409  0.0215
 7496TIP3    H122452   6.101   5.991   3.570  1.0976  0.3439 -0.0286
 7496TIP3    H222453   6.004   6.060   3.664  0.2500  0.0035 -0.6337
 7497TIP3   OH222454   4.106   5.252   3.312 -0.0153  0.3280  0.2180
 7497TIP3    H122455   4.114   5.237   3.407 -1.2693  1.2853  0.4880
 7497TIP3    H222456   4.081   5.344   3.304 -0.8961  0.0022 -1.0025
 7498TIP3   OH222457   6.738   5.707   0.122 -0.4396  0.3717  0.8942
 7498TIP3    H122458   6.692   5.709   0.206  0.3970 -1.2863  1.4256
 7498TIP3    H222459   6.780   5.621   0.119 -1.1725  0.0061 -1.6334
 7499TIP3   OH222460   7.037   6.383   1.233  0.2770  0.0746  0.6230
 7499TIP3    H122461   7.073   6.348   1.314 -0.2570  0.4272  1.0186
 7499TIP3    H222462   7.113   6.403   1.179  0.6246 -0.5188  0.8836
 7500TIP3   OH222463   2.324   6.632   0.874  0.8538  0.0838 -0.1488
 7500TIP3    H122464   2.228   6.637   0.881  0.9187  0.9878  0.3492
 7500TIP3    H222465   2.341   6.551   0.826 -0.1194 -0.7240  0.8104
 7501TIP3   OH222466   3.433   2.240   5.089 -0.2803 -0.3777  0.2425
 7501TIP3    H122467   3.483   2.317   5.060 -0.3360  1.1152  3.6957
 7501TIP3    H222468   3.414   2.193   5.008  1.6179  2.0861 -1.8215
 7502TIP3   OH222469   6.724   1.320   5.412 -0.3222 -0.1615 -0.5336
 7502TIP3    H122470   6.715   1.412   5.387 -0.5750 -0.2715 -0.8552
 7502TIP3    H222471   6.662   1.308   5.484  0.1763  0.0770 -0.0587
 7503TIP3   OH222472   1.259   0.215   4.919 -0.1132 -0.1556 -0.0710
 7503TIP3    H122473   1.270   0.310   4.917 -0.5841 -0.1079 -1.3793
 7503TIP3    H222474   1.267   0.192   5.011  0.4160  1.1012  0.2226
 7504TIP3   OH222475   0.165   2.800   0.980  0.1045  0.5869  0.1914
 7504TIP3    H122476   0.232   2.789   1.048 -0.8991 -1.7211  0.9032
 7504TIP3    H222477   0.161   2.894   0.965  3.2430  0.8520  0.3698
 7505TIP3   OH222478   5.854   4.723   5.616 -0.3169 -0.3290 -0.4508
 7505TIP3    H122479   5.848   4.802   5.563  2.2053 -0.4827 -1.1131
 7505TIP3    H222480   5.873   4.653   5.553 -1.0270 -1.2064  0.2850
 7506TIP3   OH222481   4.738   2.520   3.459  0.1765 -0.2343 -0.1545
 7506TIP3    H122482   4.822   2.487   3.428  0.8277 -0.3459  1.6323
 7506TIP3    H222483   4.701   2.566   3.384  1.8655 -0.1231 -0.9561
 7507TIP3   OH222484   4.421   4.900   5.622  0.0188 -0.2786  0.2541
 7507TIP3    H122485   4.333   4.928   5.648 -0.5585 -1.1397 -0.6921
 7507TIP3    H222486   4.470   4.897   5.704 -0.3418  1.8434  0.5978
 7508TIP3   OH222487   2.926   1.533   5.786 -0.3030  0.3069 -0.3170
 7508TIP3    H122488   2.993   1.481   5.741  0.0572  0.2801  0.2345
 7508TIP3    H222489   2.877   1.468   5.837  0.3156  0.5263  0.5807
 7509TIP3   OH222490   2.824   0.793   0.800 -0.1423 -0.2572  0.3090
 7509TIP3    H122491   2.890   0.780   0.868  0.2429 -0.9833 -0.1780
 7509TIP3    H222492   2.799   0.885   0.807  1.9596  0.4427 -0.3928
 7510TIP3   OH222493   4.226   0.424   5.473  0.2005  0.0103 -0.1469
 7510TIP3    H122494   4.251   0.402   5.563  0.2613  0.5669 -0.0201
 7510TIP3    H222495   4.267   0.357   5.419 -1.1747 -1.2949  0.3613
 7511TIP3   OH222496   1.438   0.470   2.683 -0.3218 -0.7366  0.6209
 7511TIP3    H122497   1.521   0.453   2.639 -0.0798  0.5888  0.5459
 7511TIP3    H222498   1.406   0.383   2.707 -0.0461 -1.4589 -1.3997
 7512TIP3   OH222499   6.482   4.589   4.691 -0.5744 -0.8781 -0.0254
 7512TIP3    H122500   6.420   4.646   4.738  1.2477  0.8490  0.3936
 7512TIP3    H222501   6.426   4.529   4.642 -2.5768 -0.4942  1.6393
 7513TIP3   OH222502   4.926   5.807   0.289  0.6136  0.5562  0.1723
 7513TIP3    H122503   4.950   5.830   0.199 -0.3523 -0.5983 -0.4161
 7513TIP3    H222504   4.890   5.888   0.325 -0.2923  0.6982 -0.9659
 7514TIP3   OH222505   4.673   5.305   4.129  0.3516 -0.5551  0.1335
 7514TIP3    H122506   4.746   5.365   4.143 -0.1822 -0.1179  1.2108
 7514TIP3    H222507   4.711   5.218   4.142  1.0452 -0.4425 -1.0379
 7515TIP3   OH222508   3.114   1.009   3.864 -0.1554  0.0926 -0.1516
 7515TIP3    H122509   3.082   0.933   3.913 -1.2954 -0.3493 -1.4920
 7515TIP3    H222510   3.044   1.074   3.871  0.6752  0.9271  0.7145
 7516TIP3   OH222511   1.747   3.130   1.645  0.1480 -0.2896  0.2707
 7516TIP3    H122512   1.676   3.107   1.586  0.4876 -0.1317 -0.1994
 7516TIP3    H222513   1.767   3.049   1.692  0.1787 -0.5251 -0.1463
 7517TIP3   OH222514   5.098   6.419   5.302 -0.0300 -0.1205 -0.1777
 7517TIP3    H122515   5.037   6.347   5.286  0.5330 -0.6978  0.2020
 7517TIP3    H222516   5.170   6.378   5.351  0.1390  0.7735  0.3285
 7518TIP3   OH222517   1.868   5.980   0.097 -0.5124  0.0254  0.7873
 7518TIP3    H122518   1.898   5.890   0.107  0.2712  0.0769 -0.7767
 7518TIP3    H222519   1.811   5.978   0.020  0.1053  0.9783  0.2854
 7519TIP3   OH222520   1.618   4.367   0.122 -0.1623  0.4335 -0.4943
 7519TIP3    H122521   1.647   4.338   0.036  1.9972  0.6156  0.1311
 7519TIP3    H222522   1.696   4.366   0.177 -0.7279  3.6115  0.6094
 7520TIP3   OH222523   6.370   1.571   4.264  1.0579 -0.2036 -0.0823
 7520TIP3    H122524   6.368   1.649   4.321 -0.6077 -1.6328  1.9690
 7520TIP3    H222525   6.280   1.562   4.233  1.5528 -0.5394 -1.5102
 7521TIP3   OH222526   6.569   4.141   5.574  0.3203  0.2826 -0.5838
 7521TIP3    H122527   6.644   4.120   5.629 -0.0809  0.7009  0.1335
 7521TIP3    H222528   6.535   4.223   5.610 -0.8675 -0.2343 -0.5031
 7522TIP3   OH222529   1.879   0.865   0.435  0.0392 -0.1822  0.1293
 7522TIP3    H122530   1.879   0.791   0.495 -0.9802 -1.0551 -0.9075
 7522TIP3    H222531   1.807   0.847   0.374 -0.5131  1.8570  0.1020
 7523TIP3   OH222532   6.291   3.370   3.806 -0.0353 -0.1384  0.5673
 7523TIP3    H122533   6.336   3.417   3.876 -0.3182  0.9692  0.0301
 7523TIP3    H222534   6.272   3.284   3.843  1.5218 -0.2422  1.1853
 7524TIP3   OH222535   4.115   1.063   4.808 -0.0984  0.5294 -0.3156
 7524TIP3    H122536   4.099   1.008   4.731 -0.3446 -0.3436  0.3466
 7524TIP3    H222537   4.210   1.060   4.820  0.0829  1.6610 -1.2905
 7525TIP3   OH222538   4.464   0.717   2.420  0.0039  0.2502  0.0196
 7525TIP3    H122539   4.423   0.637   2.452 -0.0260 -0.1342 -0.9494
 7525TIP3    H222540   4.486   0.767   2.499  0.9368 -1.1688  0.6916
 7526TIP3   OH222541   4.367   3.410   1.118  0.4977  0.1775  0.2236
 7526TIP3    H122542   4.313   3.489   1.125  2.4350  1.4619  1.5368
 7526TIP3    H222543   4.349   3.361   1.198  0.4135  0.0263  0.1121
 7527TIP3   OH222544   0.309   3.892   2.606  1.0805  0.4060 -0.4259
 7527TIP3    H122545   0.219   3.861   2.594  1.3499 -0.9221  0.7038
 7527TIP3    H222546   0.363   3.817   2.581  1.8415  0.7678  0.0987
 7528TIP3   OH222547   6.339   6.724   3.367  0.8417  0.0288 -0.4318
 7528TIP3    H122548   6.320   6.775   3.446 -1.6997 -1.2069 -0.1707
 7528TIP3    H222549   6.426   6.687   3.384  0.8389  0.7013  1.2897
 7529TIP3   OH222550   6.868   2.284   1.229  0.0065 -0.1615  0.6299
 7529TIP3    H122551   6.863   2.380   1.231 -1.4028 -0.1612  3.8138
 7529TIP3    H222552   6.936   2.265   1.165  0.4790  2.9698  0.0227
 7530TIP3   OH222553   0.850   2.170   1.881 -0.3306 -0.0251 -0.0455
 7530TIP3    H122554   0.852   2.233   1.953 -0.1499 -1.7106  1.5082
 7530TIP3    H222555   0.893   2.215   1.809 -0.3912  1.6895  0.9225
 7531TIP3   OH222556   1.594   1.368   1.149  0.1552  0.2570 -0.2448
 7531TIP3    H122557   1.559   1.330   1.229 -2.6343  2.0386 -0.4887
 7531TIP3    H222558   1.562   1.312   1.079 -0.8726  0.9685 -0.3580
 7532TIP3   OH222559   1.173   5.615   3.805 -0.6995  0.0586  0.0859
 7532TIP3    H122560   1.222   5.606   3.724 -0.7441  0.4231  0.0191
 7532TIP3    H222561   1.185   5.531   3.850  0.4644  0.3517  0.3489
 7533TIP3   OH222562   0.067   3.658   2.681  0.0538 -0.4174 -0.2057
 7533TIP3    H122563   0.059   3.730   2.744  0.3617 -0.6803  0.1429
 7533TIP3    H222564   0.030   3.692   2.600  0.2255  0.1456 -0.0507
 7534TIP3   OH222565   5.817   3.422   5.573 -0.3102 -0.0114 -0.0711
 7534TIP3    H122566   5.734   3.376   5.589 -0.0298  0.1190  1.9935
 7534TIP3    H222567   5.874   3.355   5.536 -0.5549 -0.7971  0.9345
 7535TIP3   OH222568   5.148   1.669   1.006  0.2300 -0.2087 -0.2625
 7535TIP3    H122569   5.161   1.604   1.076  1.7925 -0.4607 -0.7622
 7535TIP3    H222570   5.177   1.752   1.044  1.0216 -0.3351 -0.5799
 7536TIP3   OH222571   7.217   0.786   3.669  0.0275  0.5484 -0.4103
 7536TIP3    H122572   7.255   0.751   3.750 -0.1592  0.8126 -0.2057
 7536TIP3    H222573   7.133   0.741   3.661  0.6439 -0.5053 -1.1985
 7537TIP3   OH222574   0.705   1.103   3.442  0.2360  0.3276  0.1295
 7537TIP3    H122575   0.616   1.133   3.423 -0.0171  0.4244  1.3989
 7537TIP3    H222576   0.727   1.143   3.526  0.8094 -1.0609  0.6826
 7538TIP3   OH222577   6.884   1.743   3.394  0.6493 -0.4889  0.5670
 7538TIP3    H122578   6.860   1.652   3.413 -0.8920 -0.1906  0.1369
 7538TIP3    H222579   6.892   1.784   3.480 -0.7903 -0.5234  0.7463
 7539TIP3   OH222580   2.769   5.804   4.133 -0.1666  0.8288  0.2029
 7539TIP3    H122581   2.753   5.881   4.186 -2.0265  1.0382 -0.6163
 7539TIP3    H222582   2.839   5.830   4.073 -0.0452  1.4964  0.6262
 7540TIP3   OH222583   2.678   2.139   3.138  0.3640  0.0494  0.2748
 7540TIP3    H122584   2.762   2.113   3.101  0.8192 -0.0794  1.3613
 7540TIP3    H222585   2.668   2.231   3.113  1.5409  0.5004  1.3982
 7541TIP3   OH222586   5.975   3.890   4.651 -0.3670  0.1624 -0.4131
 7541TIP3    H122587   5.884   3.892   4.623 -0.2604  0.1593 -0.7720
 7541TIP3    H222588   6.014   3.968   4.611  0.0897 -0.5197 -1.3580
 7542TIP3   OH222589   6.512   3.291   4.822 -0.0705  0.3627 -0.2608
 7542TIP3    H122590   6.557   3.208   4.807 -1.1556 -0.1584 -0.6775
 7542TIP3    H222591   6.552   3.325   4.903  0.1090 -0.7559  0.1438
 7543TIP3   OH222592   1.681   2.024   3.200 -0.2847 -0.1021 -0.1408
 7543TIP3    H122593   1.659   2.115   3.222  0.4278  0.1858 -0.6073
 7543TIP3    H222594   1.771   2.028   3.169 -0.7643 -0.7124 -1.7297
 7544TIP3   OH222595   1.258   6.270   4.089 -0.2681  0.2015  0.5709
 7544TIP3    H122596   1.282   6.239   4.177 -0.1738  0.3160  0.5854
 7544TIP3    H222597   1.189   6.211   4.061  0.4933 -0.5639  0.2521
 7545TIP3   OH222598   3.736   6.184   4.571 -0.1240 -0.1315  0.0111
 7545TIP3    H122599   3.686   6.262   4.546 -0.0850 -0.1872 -0.2440
 7545TIP3    H222600   3.690   6.149   4.647 -0.9410 -0.6394 -0.7016
 7546TIP3   OH222601   6.129   3.395   2.808 -0.4035 -0.4060  0.4627
 7546TIP3    H122602   6.064   3.439   2.753  0.1882 -0.0767  0.0092
 7546TIP3    H222603   6.158   3.462   2.869  0.4917 -0.1621 -0.2210
 7547TIP3   OH222604   4.152   2.922   5.825  0.4899 -0.3882  0.6662
 7547TIP3    H122605   4.098   2.854   5.785  0.4220 -0.8261  1.4805
 7547TIP3    H222606   4.089   2.982   5.864  0.5648 -0.1737  0.4591
 7548TIP3   OH222607   5.121   0.796   3.341  0.5099  0.4602 -0.6095
 7548TIP3    H122608   5.170   0.814   3.421  3.0240 -1.0232 -1.6824
 7548TIP3    H222609   5.183   0.749   3.285 -2.0490 -1.1275 -2.3177
 7549TIP3   OH222610   5.084   2.912   2.193 -0.3846 -0.1045 -0.2450
 7549TIP3    H122611   5.063   2.868   2.275 -0.8554 -1.6074 -1.1255
 7549TIP3    H222612   5.018   2.881   2.131  0.3517  0.4622 -1.3582
 7550TIP3   OH222613   7.036   0.072   4.734 -0.1445 -0.0881 -0.5202
 7550TIP3    H122614   7.040   0.070   4.829  1.1848 -0.9759 -0.5694
 7550TIP3    H222615   6.986   0.151   4.714 -0.9221 -0.1880  0.9054
 7551TIP3   OH222616   5.855   6.029   1.258  0.2536 -0.0752  0.4510
 7551TIP3    H122617   5.880   6.108   1.305  0.4839 -0.5926  1.2196
 7551TIP3    H222618   5.895   5.958   1.308  1.4334 -0.5887 -1.1409
 7552TIP3   OH222619   3.067   3.731   4.457  0.2734  0.2858  0.3999
 7552TIP3    H122620   3.009   3.721   4.382 -0.5995 -1.8879  1.2741
 7552TIP3    H222621   3.135   3.666   4.445  1.4171  1.4413  0.4100
 7553TIP3   OH222622   0.832   6.683   3.095  0.2918 -0.1580  0.4120
 7553TIP3    H122623   0.764   6.748   3.111  1.1042  0.7060  0.4610
 7553TIP3    H222624   0.853   6.694   3.002  0.1210 -0.6674  0.3110
 7554TIP3   OH222625   5.748   6.327   4.350 -0.1609  0.5367 -0.2356
 7554TIP3    H122626   5.773   6.268   4.422 -2.5589  0.5692  0.6884
 7554TIP3    H222627   5.738   6.412   4.391 -1.7014  0.5263 -0.5460
 7555TIP3   OH222628   2.182   0.605   5.198  0.1370 -0.1822 -0.1022
 7555TIP3    H122629   2.119   0.675   5.185 -0.3750 -0.7369 -0.7227
 7555TIP3    H222630   2.211   0.614   5.288  2.0299  2.3936 -0.8706
 7556TIP3   OH222631   3.506   3.700   5.264  0.0879  0.0118 -0.1826
 7556TIP3    H122632   3.464   3.690   5.349 -0.3016 -0.7242 -0.4539
 7556TIP3    H222633   3.435   3.693   5.200  0.6089 -1.3782 -0.6485
 7557TIP3   OH222634   1.704   2.378   5.742 -0.0126  1.4568 -0.2985
 7557TIP3    H122635   1.761   2.307   5.770 -0.1751  1.5562  0.3031
 7557TIP3    H222636   1.737   2.403   5.656 -1.8521 -1.3949 -1.9607
 7558TIP3   OH222637   4.410   4.232   2.902 -0.3414 -0.0358 -0.1238
 7558TIP3    H122638   4.394   4.289   2.977  2.6335  0.7705  0.0435
 7558TIP3    H222639   4.383   4.145   2.932 -1.4497  0.6686  0.9892
 7559TIP3   OH222640   4.745   5.366   2.946 -0.0631  0.3101 -0.0776
 7559TIP3    H122641   4.785   5.293   2.993  0.1312  0.4541 -0.0169
 7559TIP3    H222642   4.816   5.430   2.937 -0.5245  0.9684  0.8520
 7560TIP3   OH222643   1.153   6.041   4.654  0.1528  0.1655  0.0291
 7560TIP3    H122644   1.216   6.106   4.685  1.2763 -0.9143  0.0894
 7560TIP3    H222645   1.178   6.024   4.563  0.4282 -0.8056  0.2758
 7561TIP3   OH222646   3.891   5.126   3.769 -0.7941 -0.0502 -0.1394
 7561TIP3    H122647   3.840   5.045   3.768 -0.2698 -0.3889 -0.0707
 7561TIP3    H222648   3.854   5.177   3.841 -2.1685  0.4667 -1.1632
 7562TIP3   OH222649   3.732   0.719   2.169  0.1874  0.3837 -0.6196
 7562TIP3    H122650   3.818   0.759   2.153  0.3261 -0.0938 -1.1285
 7562TIP3    H222651   3.718   0.663   2.093 -1.0066  1.1644 -0.9972
 7563TIP3   OH222652   4.539   6.285   4.388 -0.3298  0.5678  0.3780
 7563TIP3    H122653   4.490   6.204   4.407  1.6835 -0.4630  1.5215
 7563TIP3    H222654   4.502   6.349   4.449 -1.2901  0.2723  0.1358
 7564TIP3   OH222655   2.236   2.001   0.606 -0.6859  0.2220  0.1350
 7564TIP3    H122656   2.251   2.085   0.562 -0.9562  1.3794  2.1002
 7564TIP3    H222657   2.294   1.940   0.562  0.7954  1.8519 -0.2851
 7565TIP3   OH222658   2.965   1.411   1.749 -0.4553 -0.3100 -0.3738
 7565TIP3    H122659   3.008   1.336   1.790 -0.6730 -0.1187  0.2149
 7565TIP3    H222660   3.028   1.442   1.684  1.5778  1.6633  2.3067
 7566TIP3   OH222661   3.639   0.203   5.646 -0.3113 -0.1787 -0.4027
 7566TIP3    H122662   3.575   0.256   5.694 -0.3951 -0.0451 -0.6629
 7566TIP3    H222663   3.593   0.174   5.568 -0.3294 -0.7991 -0.1714
 7567TIP3   OH222664   3.657   6.607   0.147 -0.5957 -0.3064  0.3225
 7567TIP3    H122665   3.646   6.692   0.105  1.5739 -0.4041 -0.5763
 7567TIP3    H222666   3.568   6.577   0.165 -1.4261  1.9026  0.1861
 7568TIP3   OH222667   0.781   3.591   5.596  0.2476 -0.3659  0.5202
 7568TIP3    H122668   0.692   3.592   5.559  0.8495 -0.2249 -0.9635
 7568TIP3    H222669   0.792   3.502   5.630 -0.0072 -0.7816 -0.4516
 7569TIP3   OH222670   4.604   5.860   5.483 -0.0224  0.3136  0.4933
 7569TIP3    H122671   4.598   5.798   5.409  2.5634  0.2312  0.2521
 7569TIP3    H222672   4.600   5.804   5.560  1.9051 -0.2315  0.2799
 7570TIP3   OH222673   6.973   2.003   1.543  0.1314  0.0946  0.3060
 7570TIP3    H122674   7.024   2.077   1.575 -1.1507  0.3101  1.9895
 7570TIP3    H222675   6.976   2.011   1.447  3.5840 -0.2094  0.2596
 7571TIP3   OH222676   6.260   2.269   0.879  0.3915  0.5093 -0.7997
 7571TIP3    H122677   6.355   2.273   0.894  0.2933  0.3429 -0.1046
 7571TIP3    H222678   6.246   2.323   0.801  1.1646 -0.1988 -1.4406
 7572TIP3   OH222679   3.924   0.020   5.175 -0.2200 -0.8467 -0.6614
 7572TIP3    H122680   3.958   0.043   5.261  1.2932 -0.8582 -1.2271
 7572TIP3    H222681   3.892   0.102   5.139 -1.0605 -0.8785 -0.0243
 7573TIP3   OH222682   0.550   3.949   4.990 -0.2655  0.9676  0.4524
 7573TIP3    H122683   0.489   4.008   5.033 -1.0302  0.0466  0.6708
 7573TIP3    H222684   0.555   3.873   5.048 -1.1720 -0.2155 -0.9488
 7574TIP3   OH222685   5.824   0.836   3.639  0.9192 -0.1259  0.1704
 7574TIP3    H122686   5.765   0.781   3.690  0.5183  0.7133  0.6360
 7574TIP3    H222687   5.890   0.776   3.605  0.6256 -0.8493  0.8544
 7575TIP3   OH222688   3.657   0.719   3.685  0.4290 -0.5555  0.0371
 7575TIP3    H122689   3.693   0.771   3.757  0.5859  2.4080 -2.0080
 7575TIP3    H222690   3.725   0.653   3.668  2.5340  1.5275 -0.2371
 7576TIP3   OH222691   5.981   6.305   4.908  0.4578  0.1160  0.5012
 7576TIP3    H122692   6.073   6.306   4.936  0.2752  1.8206  1.1079
 7576TIP3    H222693   5.932   6.294   4.989  0.0974 -0.8924  0.1658
 7577TIP3   OH222694   7.137   0.053   1.193 -0.0654 -0.1940 -0.0336
 7577TIP3    H122695   7.157   0.103   1.114  1.0447 -0.1351  0.2666
 7577TIP3    H222696   7.208  -0.009   1.201 -1.2077 -1.5695 -0.1653
 7578TIP3   OH222697   6.022   0.519   2.823 -0.4019  0.1066  0.5656
 7578TIP3    H122698   5.994   0.598   2.777 -0.7005  0.3964  1.2390
 7578TIP3    H222699   5.977   0.448   2.778  0.5473  0.2196 -0.6115
 7579TIP3   OH222700   1.371   0.398   2.384  0.5684  0.4313 -0.2478
 7579TIP3    H122701   1.463   0.374   2.401 -0.2391 -2.1218  1.1333
 7579TIP3    H222702   1.356   0.474   2.440  1.8692  0.9770 -0.5970
 7580TIP3   OH222703   2.582   0.952   5.360 -0.1566  0.4319 -0.0602
 7580TIP3    H122704   2.508   1.004   5.392  0.2252  0.0792  1.5077
 7580TIP3    H222705   2.608   0.899   5.436  0.9739 -0.2915 -0.9225
 7581TIP3   OH222706   3.316   1.126   1.883  0.4403  0.3870  0.0091
 7581TIP3    H122707   3.335   1.220   1.883 -0.9534  0.6985  0.7581
 7581TIP3    H222708   3.222   1.121   1.903  0.3679 -1.1479 -0.6205
 7582TIP3   OH222709   6.125   0.200   5.195 -0.4191 -0.1387 -0.7906
 7582TIP3    H122710   6.128   0.177   5.287 -0.1107 -1.3023 -1.0708
 7582TIP3    H222711   6.212   0.176   5.161 -0.2308  1.0536 -1.2161
 7583TIP3   OH222712   6.986   4.321   0.026  0.1150 -0.4526  0.3468
 7583TIP3    H122713   7.053   4.375   0.069 -0.4262  0.1351  0.4560
 7583TIP3    H222714   7.035   4.270  -0.039  0.6512  0.0708  0.3304
 7584TIP3   OH222715   6.181   5.798   1.522 -0.3134 -0.3427 -0.1763
 7584TIP3    H122716   6.202   5.705   1.529  1.7610  0.0747 -0.1799
 7584TIP3    H222717   6.143   5.807   1.434  0.4457 -1.0373 -0.5952
 7585TIP3   OH222718   3.010   2.176   5.550  0.3021  0.3425 -0.0961
 7585TIP3    H122719   2.989   2.086   5.576  0.0548  0.3698 -0.1965
 7585TIP3    H222720   2.928   2.223   5.561  0.1599  0.3338 -1.0133
 7586TIP3   OH222721   0.987   2.504   0.452  0.2363  0.2341 -0.1179
 7586TIP3    H122722   0.991   2.533   0.360  1.6041 -1.8159 -0.7821
 7586TIP3    H222723   1.037   2.570   0.500  0.0766  0.9788 -0.9333
 7587TIP3   OH222724   5.059   2.809   2.461 -0.0918 -0.2213 -0.2888
 7587TIP3    H122725   5.072   2.902   2.481  0.0845 -0.2397 -0.3169
 7587TIP3    H222726   5.007   2.776   2.534 -1.4981  0.2504 -1.0495
 7588TIP3   OH222727   5.948   2.034   4.444 -0.0909  0.3400 -0.2519
 7588TIP3    H122728   6.028   2.081   4.466 -0.7125  2.3014 -1.8574
 7588TIP3    H222729   5.879   2.081   4.490 -0.8071  1.5714 -2.4421
 7589TIP3   OH222730   5.923   2.753   1.189 -0.0266 -0.9971  0.7555
 7589TIP3    H122731   5.864   2.703   1.245 -0.1125 -2.6929 -0.7516
 7589TIP3    H222732   5.995   2.779   1.246 -2.1161  1.0690  2.6309
 7590TIP3   OH222733   6.692   0.749   1.039  0.8681 -0.1559  0.2595
 7590TIP3    H122734   6.764   0.699   1.077  0.6052  0.2066  1.2958
 7590TIP3    H222735   6.735   0.825   0.998  1.2278 -0.9896 -0.9408
 7591TIP3   OH222736   5.017   5.679   2.280  0.2226  0.1813 -0.3620
 7591TIP3    H122737   4.961   5.730   2.221 -0.4355  0.5383  0.5491
 7591TIP3    H222738   5.044   5.742   2.347 -0.0325 -0.4936  0.3910
 7592TIP3   OH222739   3.448   0.798   1.564  0.0287 -0.3474  0.0092
 7592TIP3    H122740   3.522   0.851   1.534  2.7492 -2.0049  3.0483
 7592TIP3    H222741   3.387   0.861   1.602 -0.0994  1.0537 -2.3456
 7593TIP3   OH222742   2.886   5.324   0.697 -0.1486 -0.3847 -0.2722
 7593TIP3    H122743   2.955   5.323   0.630  0.0834  0.3932 -0.0550
 7593TIP3    H222744   2.805   5.338   0.648 -0.2566 -1.9803 -0.6000
 7594TIP3   OH222745   0.419   0.344   1.775 -0.4631 -0.6896  0.0380
 7594TIP3    H122746   0.513   0.351   1.757 -1.1051 -0.8770 -4.5651
 7594TIP3    H222747   0.383   0.429   1.750 -1.5659 -0.3411  2.4835
 7595TIP3   OH222748   0.270   2.579   1.407  0.4882 -0.3379 -0.2151
 7595TIP3    H122749   0.224   2.495   1.411  1.7088 -1.0005  0.3650
 7595TIP3    H222750   0.268   2.603   1.314  0.3747 -1.1454 -0.4283
 7596TIP3   OH222751   5.972   3.466   1.152  0.2825  0.5407  0.2584
 7596TIP3    H122752   5.956   3.419   1.234 -1.6435 -0.5606 -0.6854
 7596TIP3    H222753   6.051   3.427   1.116  1.6130  1.5735  1.9253
 7597TIP3   OH222754   3.164   4.414   2.922  0.3361 -0.5359 -0.1802
 7597TIP3    H122755   3.239   4.458   2.960 -2.1450  2.1094  2.1258
 7597TIP3    H222756   3.122   4.370   2.997 -0.4501 -1.9506 -1.4008
 7598TIP3   OH222757   4.710   4.794   0.869  0.3853  0.2553  0.3669
 7598TIP3    H122758   4.775   4.741   0.914 -0.8162 -0.4233  1.3821
 7598TIP3    H222759   4.670   4.846   0.939 -0.9380 -0.1931 -0.0305
 7599TIP3   OH222760   2.863   2.566   1.032 -0.2634  0.4610 -0.0791
 7599TIP3    H122761   2.942   2.615   1.054 -1.2009  1.9696  0.0546
 7599TIP3    H222762   2.797   2.633   1.013 -1.1943 -0.7668 -1.3822
 7600TIP3   OH222763   1.954   0.666   0.670  0.1732  0.3740 -0.0175
 7600TIP3    H122764   1.909   0.586   0.699  2.5800 -0.9448  0.2997
 7600TIP3    H222765   1.998   0.699   0.748 -2.0621  3.0421  0.2628
 7601TIP3   OH222766   3.537   5.048   1.646 -0.1940 -0.0824 -0.4353
 7601TIP3    H122767   3.562   5.058   1.738  0.1074 -1.6651 -0.3169
 7601TIP3    H222768   3.521   4.955   1.635 -2.9526  0.3941 -1.3385
 7602TIP3   OH222769   0.086   5.241   4.532  0.7035 -0.8882  0.7219
 7602TIP3    H122770   0.002   5.254   4.489  1.6015  1.5908 -0.4919
 7602TIP3    H222771   0.120   5.160   4.494  0.4717  0.0485 -1.6734
 7603TIP3   OH222772   2.082   5.848   0.687 -0.1030 -0.6763 -0.3561
 7603TIP3    H122773   2.014   5.797   0.730 -0.4034 -1.3996 -1.6583
 7603TIP3    H222774   2.054   5.855   0.596  1.4780 -0.8525 -0.8862
 7604TIP3   OH222775   4.936   5.647   3.420  0.1858  0.0276 -0.4198
 7604TIP3    H122776   4.958   5.733   3.456 -0.0225 -0.6679  1.4865
 7604TIP3    H222777   5.011   5.592   3.442 -0.3624 -0.6501 -0.2249
 7605TIP3   OH222778   6.391   5.391   4.912 -0.2793  0.2577  0.8186
 7605TIP3    H122779   6.440   5.320   4.870 -1.4482  0.1124 -0.3618
 7605TIP3    H222780   6.455   5.461   4.921  0.1515  0.1157 -0.8203
 7606TIP3   OH222781   4.178   1.611   3.114  0.1071  0.1851 -0.3497
 7606TIP3    H122782   4.125   1.682   3.149  1.5776  1.1795 -0.0473
 7606TIP3    H222783   4.136   1.588   3.030 -1.8878 -0.4097  0.7351
 7607TIP3   OH222784   5.707   3.016   3.412  0.6049  0.1625  0.1378
 7607TIP3    H122785   5.799   3.002   3.388  0.8666  2.7813 -0.6302
 7607TIP3    H222786   5.669   2.928   3.411  2.5792 -0.7591 -1.7626
 7608TIP3   OH222787   0.894   5.526   1.451 -0.2846 -0.3123 -0.1282
 7608TIP3    H122788   0.917   5.600   1.507 -1.9789  0.3063 -0.1874
 7608TIP3    H222789   0.901   5.449   1.508  0.0638  0.0580  0.3398
 7609TIP3   OH222790   3.466   0.984   1.067 -0.0648 -0.0757 -0.1744
 7609TIP3    H122791   3.525   1.056   1.091 -0.9569  0.0745  1.7354
 7609TIP3    H222792   3.498   0.909   1.117 -0.4222 -0.4576 -0.5150
 7610TIP3   OH222793   4.428   6.504   4.629  0.3914  0.4821  0.1027
 7610TIP3    H122794   4.366   6.556   4.680  0.9280  0.6733  0.5769
 7610TIP3    H222795   4.475   6.567   4.576  0.3496  0.3670 -0.0711
 7611TIP3   OH222796   4.114   4.051   1.279  0.0642  0.1145  0.7719
 7611TIP3    H122797   4.134   3.981   1.342 -0.4221  0.4334  1.2880
 7611TIP3    H222798   4.078   4.005   1.203 -1.5477 -0.1217  1.6329
 7612TIP3   OH222799   2.680   0.606   2.294  0.0490  0.2317  0.4308
 7612TIP3    H122800   2.629   0.668   2.346  0.7640  0.4549  0.8766
 7612TIP3    H222801   2.750   0.577   2.352  1.7297  1.5747 -0.8375
 7613TIP3   OH222802   6.603   5.131   0.322  0.1021  0.0274 -0.4400
 7613TIP3    H122803   6.646   5.150   0.406 -0.9363  3.5675 -0.5635
 7613TIP3    H222804   6.676   5.121   0.260  0.8517 -1.7738  0.6388
 7614TIP3   OH222805   4.466   1.241   2.935 -0.2331  0.5395  0.2441
 7614TIP3    H122806   4.465   1.278   2.846 -1.1531 -0.3340 -0.1299
 7614TIP3    H222807   4.409   1.299   2.986 -1.4675 -0.1594 -0.2798
 7615TIP3   OH222808   2.310   1.771   4.592 -0.0434 -0.0273 -0.2189
 7615TIP3    H122809   2.368   1.788   4.666  2.2994 -0.2637 -1.8818
 7615TIP3    H222810   2.331   1.840   4.529 -2.4465  0.5562 -0.4840
 7616TIP3   OH222811   2.014   0.610   0.383  0.3300 -0.0268 -0.3581
 7616TIP3    H122812   2.000   0.596   0.476 -0.7329  1.8458 -0.1925
 7616TIP3    H222813   2.108   0.631   0.376  0.5919 -0.9771  0.1568
 7617TIP3   OH222814   3.481   2.845   1.542  0.2117 -0.1640  0.4950
 7617TIP3    H122815   3.505   2.757   1.512  1.6563  0.4804 -0.3489
 7617TIP3    H222816   3.386   2.849   1.529  0.3375 -1.0592 -0.9597
 7618TIP3   OH222817   2.472   6.422   3.887  0.2749 -0.7520  0.9284
 7618TIP3    H122818   2.553   6.424   3.938  0.6516 -3.1640  0.5531
 7618TIP3    H222819   2.476   6.339   3.839 -1.7915 -0.2875 -0.1628
 7619TIP3   OH222820   4.382   1.832   0.452  0.6085 -0.0217  0.4683
 7619TIP3    H122821   4.443   1.871   0.390  0.9866 -2.0136 -0.4761
 7619TIP3    H222822   4.426   1.753   0.484 -1.0375 -0.9566  0.5449
 7620TIP3   OH222823   5.850   5.412   4.158 -0.1012  0.3945 -0.1205
 7620TIP3    H122824   5.767   5.445   4.125  0.1575 -0.5576 -1.7991
 7620TIP3    H222825   5.885   5.485   4.210 -0.4482  2.0669 -2.1019
 7621TIP3   OH222826   1.985   6.162   5.288  0.1157  0.5909 -0.4823
 7621TIP3    H122827   2.067   6.116   5.269  1.5951  1.6047  2.8161
 7621TIP3    H222828   1.933   6.099   5.338 -0.2356  0.6632 -0.7500
 7622TIP3   OH222829   3.228   4.853   0.616  0.2405 -0.1123  0.4032
 7622TIP3    H122830   3.213   4.909   0.540  0.6036  0.0232  0.4275
 7622TIP3    H222831   3.308   4.804   0.595  0.2350 -0.2151  0.6143
 7623TIP3   OH222832   6.976   0.672   5.750 -0.4829 -0.0475 -0.6581
 7623TIP3    H122833   6.972   0.766   5.766  0.2791 -0.3742  2.0031
 7623TIP3    H222834   6.904   0.654   5.690 -0.7488  2.1849 -1.0867
 7624TIP3   OH222835   5.253   3.561   1.676 -0.2637  0.1972 -0.5109
 7624TIP3    H122836   5.270   3.468   1.690 -0.1847  0.4687  1.4162
 7624TIP3    H222837   5.170   3.564   1.628 -0.8349 -0.8486  0.3824
 7625TIP3   OH222838   0.098   1.543   2.563  0.2901  0.5928  0.0783
 7625TIP3    H122839   0.083   1.471   2.501  0.5396  0.8691 -0.3085
 7625TIP3    H222840   0.029   1.606   2.545  1.9811  2.0096 -1.9199
 7626TIP3   OH222841   6.912   2.808   0.326  0.5374  0.3486  0.3797
 7626TIP3    H122842   6.915   2.804   0.421 -0.3438 -0.1120  0.3947
 7626TIP3    H222843   6.835   2.757   0.302 -0.1750  1.7532 -0.4857
 7627TIP3   OH222844   5.138   1.644   2.858  0.1878  0.1703 -0.2505
 7627TIP3    H122845   5.128   1.710   2.790 -0.4702 -1.0837 -1.4020
 7627TIP3    H222846   5.219   1.598   2.836 -1.1980 -1.7887 -1.6430
 7628TIP3   OH222847   4.552   3.417   4.918  0.0303  0.3633 -0.2700
 7628TIP3    H122848   4.487   3.349   4.902  0.8892 -0.1344 -1.8626
 7628TIP3    H222849   4.592   3.392   5.002 -0.0861 -0.7623 -0.5326
 7629TIP3   OH222850   2.053   3.648   3.005  0.2635  0.4805  0.1498
 7629TIP3    H122851   2.025   3.736   3.034  2.1422  1.2780 -0.2863
 7629TIP3    H222852   2.138   3.663   2.964 -0.2993 -1.2752 -1.8144
 7630TIP3   OH222853   6.148   2.814   3.553 -0.1610  0.6433 -0.0368
 7630TIP3    H122854   6.235   2.819   3.593 -0.0872  1.0238 -0.2389
 7630TIP3    H222855   6.112   2.731   3.584 -0.1151  0.9406  0.8400
 7631TIP3   OH222856   4.390   4.251   5.656 -0.2352 -1.0590 -0.6440
 7631TIP3    H122857   4.316   4.303   5.626  0.4063  0.3788  0.1373
 7631TIP3    H222858   4.362   4.216   5.741  0.8211  1.6025  0.9040
 7632TIP3   OH222859   4.866   2.196   3.208  0.6852  0.4511  0.0368
 7632TIP3    H122860   4.814   2.241   3.273  2.5015  0.1621  1.7869
 7632TIP3    H222861   4.839   2.104   3.214  0.2409  0.5587 -0.2598
 7633TIP3   OH222862   6.560   2.145   4.181 -0.0826  0.9169  0.5965
 7633TIP3    H122863   6.611   2.210   4.229 -0.6587  1.3302  0.6695
 7633TIP3    H222864   6.480   2.135   4.233  0.6861 -1.1038  1.4945
 7634TIP3   OH222865   2.814   3.621   0.064 -0.1497  0.3008  0.5412
 7634TIP3    H122866   2.879   3.655   0.002 -0.2406  0.9721  0.8034
 7634TIP3    H222867   2.740   3.595   0.009 -0.7930  2.1701  0.4410
 7635TIP3   OH222868   6.216  -0.014   2.209  0.1096  0.5113 -0.1704
 7635TIP3    H122869   6.179  -0.045   2.291  1.4163 -1.4919 -0.2570
 7635TIP3    H222870   6.270   0.061   2.233  0.3451  0.0484  0.7966
 7636TIP3   OH222871   1.464   1.703   0.320  0.0203  0.3855  0.0773
 7636TIP3    H122872   1.546   1.653   0.315 -0.4669 -0.3217 -1.6141
 7636TIP3    H222873   1.407   1.649   0.375  0.2899  0.2725  0.2488
 7637TIP3   OH222874   6.247   3.759   2.028  0.7594 -0.5023  0.3929
 7637TIP3    H122875   6.336   3.756   1.993  0.8696 -0.0574  0.6268
 7637TIP3    H222876   6.235   3.850   2.055 -0.6557  0.0875 -1.9282
 7638TIP3   OH222877   6.152   1.737   5.670 -0.5583  0.2424  0.1227
 7638TIP3    H122878   6.211   1.747   5.595 -0.2307  0.0727  0.3556
 7638TIP3    H222879   6.202   1.770   5.745 -0.3629 -0.8616  0.4956
 7639TIP3   OH222880   5.760   2.734   0.293  0.2109 -0.2692  0.6081
 7639TIP3    H122881   5.734   2.815   0.337  0.0559  0.4969 -0.8056
 7639TIP3    H222882   5.845   2.712   0.331  0.9510  1.3919  0.0293
 7640TIP3   OH222883   5.279   4.208   2.475 -0.3324 -0.4366  0.2129
 7640TIP3    H122884   5.249   4.208   2.384 -1.8516 -1.7990  0.6605
 7640TIP3    H222885   5.371   4.184   2.471  0.2003  1.6002 -1.0843
 7641TIP3   OH222886   3.020   4.805   0.352  0.4750  0.6174 -0.4754
 7641TIP3    H122887   3.045   4.882   0.403 -0.1837  1.1857 -0.9893
 7641TIP3    H222888   3.099   4.750   0.351  0.6421  0.8153  0.7257
 7642TIP3   OH222889   6.583   2.116   2.545 -1.1099 -0.7442 -0.2166
 7642TIP3    H122890   6.519   2.113   2.473 -0.5866 -0.6634 -0.6939
 7642TIP3    H222891   6.637   2.038   2.532  1.1228  0.9447 -1.9517
 7643TIP3   OH222892   7.211   1.511   4.105 -0.5121  0.3223  0.4992
 7643TIP3    H122893   7.131   1.490   4.153  0.1978 -1.5411  0.9532
 7643TIP3    H222894   7.231   1.601   4.129 -0.6365 -0.2694  3.0915
 7644TIP3   OH222895   1.287   3.659   1.510 -0.3784 -0.0043  0.2100
 7644TIP3    H122896   1.325   3.746   1.497 -0.1473  0.0971  1.4062
 7644TIP3    H222897   1.362   3.604   1.534 -0.3826 -0.7546 -1.3844
 7645TIP3   OH222898   6.954   0.756   1.500 -0.2234  0.1927  0.0837
 7645TIP3    H122899   6.982   0.667   1.520  0.6555  0.4078 -0.1514
 7645TIP3    H222900   6.964   0.803   1.583  0.3735  0.3293 -0.0609
 7646TIP3   OH222901   2.539   3.369   0.955 -0.4501  0.5677  0.1337
 7646TIP3    H122902   2.465   3.427   0.937 -0.9572 -0.1597 -0.1714
 7646TIP3    H222903   2.505   3.281   0.938  1.0911  0.3294 -2.0986
 7647TIP3   OH222904   4.188   4.253   3.615 -0.1861 -0.5419 -0.7466
 7647TIP3    H122905   4.279   4.270   3.588  0.3493 -0.7033  0.8077
 7647TIP3    H222906   4.181   4.157   3.615 -0.1858 -0.5438 -0.3822
 7648TIP3   OH222907   4.772   1.807   1.245 -0.0739  0.0410 -0.2951
 7648TIP3    H122908   4.818   1.885   1.277  0.0885  0.3446 -1.2413
 7648TIP3    H222909   4.777   1.813   1.150 -1.6763 -0.1639 -0.4257
 7649TIP3   OH222910   1.831   5.021   1.129  0.0233 -0.2122 -0.1914
 7649TIP3    H122911   1.778   5.096   1.157 -0.2435  0.0455 -1.3344
 7649TIP3    H222912   1.767   4.953   1.108  0.2631 -0.7799  0.8147
 7650TIP3   OH222913   5.234   6.702   5.093  0.2867 -0.3011  0.6323
 7650TIP3    H122914   5.210   6.660   5.010  0.0890  0.1345  0.4656
 7650TIP3    H222915   5.318   6.662   5.117 -0.1234 -1.1405  0.7235
 7651TIP3   OH222916   6.098   3.822   0.968  0.3395  0.0012 -0.0445
 7651TIP3    H122917   6.007   3.794   0.983 -0.1231  1.5332  0.1567
 7651TIP3    H222918   6.142   3.806   1.051 -0.5309  2.0939  0.8781
 7652TIP3   OH222919   1.507   3.351   4.912 -0.3456 -0.0059 -0.3179
 7652TIP3    H122920   1.531   3.294   4.985  0.4976  0.8749  0.1201
 7652TIP3    H222921   1.590   3.369   4.868 -0.2309  2.4938  0.7672
 7653TIP3   OH222922   4.755   4.786   3.027 -0.3764  0.5219  0.6079
 7653TIP3    H122923   4.780   4.780   2.935  0.3611 -0.0105  0.8328
 7653TIP3    H222924   4.779   4.700   3.063 -1.4572  0.4170  1.1053
 7654TIP3   OH222925   5.074   1.568   5.124  0.4373  0.1678 -0.1990
 7654TIP3    H122926   5.143   1.565   5.058 -0.1643 -0.2435 -0.8173
 7654TIP3    H222927   5.063   1.661   5.144  1.5046  0.2065  0.2721
 7655TIP3   OH222928   2.822   2.399   3.648 -0.1840  0.0713 -0.6846
 7655TIP3    H122929   2.870   2.331   3.602  0.4093  0.3401 -0.4721
 7655TIP3    H222930   2.842   2.479   3.601  1.0977  0.4845  0.5076
 7656TIP3   OH222931   5.018   5.888   0.970 -0.0051  0.0399 -0.2116
 7656TIP3    H122932   5.098   5.842   0.993 -0.6105 -1.4926 -1.0880
 7656TIP3    H222933   5.031   5.918   0.880  0.6815  2.3519  0.5675
 7657TIP3   OH222934   7.109   5.358   2.124  0.0177  0.2728 -0.6929
 7657TIP3    H122935   7.132   5.266   2.138 -2.1586 -0.4380 -1.3231
 7657TIP3    H222936   7.038   5.375   2.186  2.0055  2.3634  1.2418
 7658TIP3   OH222937   0.713   4.339   2.984 -0.2126  0.2420  0.2466
 7658TIP3    H122938   0.777   4.369   2.919  0.1836 -2.1248 -0.6000
 7658TIP3    H222939   0.630   4.337   2.936 -0.3866  0.7876  0.5330
 7659TIP3   OH222940   6.845   1.624   3.111  0.2915  0.1608  0.0135
 7659TIP3    H122941   6.830   1.593   3.201  2.4319 -0.2588  0.2846
 7659TIP3    H222942   6.770   1.679   3.092 -0.5220 -0.2294  1.8496
 7660TIP3   OH222943   3.769   0.527   4.751 -0.2928  0.0589 -0.2180
 7660TIP3    H122944   3.710   0.464   4.709 -0.1114  0.3479 -0.9129
 7660TIP3    H222945   3.843   0.474   4.782 -0.2037 -0.0898 -0.6850
 7661TIP3   OH222946   5.891   5.644   3.373  0.5676 -0.2468  0.5749
 7661TIP3    H122947   5.845   5.666   3.454  0.0489 -0.0253  0.2251
 7661TIP3    H222948   5.828   5.592   3.322  0.7752 -0.1146  0.1767
 7662TIP3   OH222949   1.616   5.114   1.348  0.0784 -0.2454 -0.5223
 7662TIP3    H122950   1.588   5.193   1.302  0.6670 -0.7824 -1.8904
 7662TIP3    H222951   1.688   5.143   1.404 -0.4232  0.3729 -0.1900
 7663TIP3   OH222952   5.614   6.006   5.340 -0.0340 -0.2265 -0.3653
 7663TIP3    H122953   5.710   6.013   5.344  0.1048 -0.3863 -2.5536
 7663TIP3    H222954   5.591   6.035   5.252 -2.0071 -0.3024  0.0833
 7664TIP3   OH222955   1.734   5.313   0.155  0.5098  0.7371 -0.7714
 7664TIP3    H122956   1.751   5.229   0.112  2.1084  2.1889 -3.2270
 7664TIP3    H222957   1.648   5.303   0.196  0.3727 -1.8530 -1.5380
 7665TIP3   OH222958   1.519   2.261   0.665  0.4426 -0.0929 -0.2799
 7665TIP3    H122959   1.530   2.260   0.760  0.2759 -0.7654 -0.2690
 7665TIP3    H222960   1.437   2.308   0.651  0.8034  0.6064 -0.1325
 7666TIP3   OH222961   1.442   5.800   2.053  0.1468  0.1638  0.0779
 7666TIP3    H122962   1.382   5.808   1.979  0.2864  2.2680  0.1246
 7666TIP3    H222963   1.388   5.763   2.123  0.0557 -1.9889 -1.0691
 7667TIP3   OH222964   5.012   1.912   2.378  0.2011 -0.8015  0.7203
 7667TIP3    H122965   5.075   1.927   2.308  0.4645  0.9697  1.2865
 7667TIP3    H222966   5.046   1.836   2.425  2.9853  1.0887  2.0563
 7668TIP3   OH222967   5.048   4.014   5.143 -0.1537  0.2296 -0.5321
 7668TIP3    H122968   5.087   4.040   5.060  0.4015 -0.3647 -0.4625
 7668TIP3    H222969   5.080   3.925   5.159  0.2680  0.5594  0.6251
 7669TIP3   OH222970   0.228   3.254   1.831 -0.5619 -0.3001  0.0078
 7669TIP3    H122971   0.305   3.229   1.881 -1.8431 -1.2563  1.6097
 7669TIP3    H222972   0.238   3.348   1.815  0.6901 -0.3183  0.6017
 7670TIP3   OH222973   6.473   0.819   2.378  0.4271  0.3380 -0.5129
 7670TIP3    H122974   6.452   0.739   2.330 -0.9757  0.7186 -0.5905
 7670TIP3    H222975   6.565   0.811   2.400  0.6563 -0.6559 -1.7387
 7671TIP3   OH222976   4.474   6.054   0.490 -0.2168  0.9177  0.2694
 7671TIP3    H122977   4.395   6.012   0.456 -0.7930  2.7764 -0.9104
 7671TIP3    H222978   4.515   5.989   0.546 -1.0171 -1.1621 -1.4483
 7672TIP3   OH222979   4.751   2.774   4.627 -0.6035  0.0162  0.4615
 7672TIP3    H122980   4.699   2.776   4.546  0.2144  0.2075 -0.0684
 7672TIP3    H222981   4.692   2.810   4.693 -0.9408  0.8403 -0.2596
 7673TIP3   OH222982   1.096   4.834   1.187  0.1611  0.3180  0.2103
 7673TIP3    H122983   1.071   4.918   1.225 -0.8271  0.3118 -0.4022
 7673TIP3    H222984   1.167   4.856   1.126 -2.0032  1.2020 -2.1630
 7674TIP3   OH222985   0.701   6.286   2.432 -0.1329 -0.1330  0.3801
 7674TIP3    H122986   0.721   6.209   2.380  0.2293  1.1280 -1.4417
 7674TIP3    H222987   0.611   6.273   2.461 -0.6231 -0.5190 -1.2479
 7675TIP3   OH222988   6.348   1.571   2.708 -0.5541  0.1925 -0.1803
 7675TIP3    H122989   6.281   1.563   2.776 -0.2807  0.6067  0.1429
 7675TIP3    H222990   6.305   1.542   2.628 -1.4121  1.3627 -0.1597
 7676TIP3   OH222991   2.277   5.827   2.932  0.1725  0.0330 -0.0559
 7676TIP3    H122992   2.197   5.810   2.981  0.8517 -0.1244  1.0436
 7676TIP3    H222993   2.324   5.892   2.985  0.8797 -0.0677 -0.5422
 7677TIP3   OH222994   4.775   3.254   1.642  0.7954  0.1022 -0.9682
 7677TIP3    H122995   4.689   3.279   1.609  0.5796  0.9643  0.1758
 7677TIP3    H222996   4.776   3.158   1.635 -1.7335 -0.3521  2.2238
 7678TIP3   OH222997   3.621   0.443   4.274 -0.0696  0.1028 -0.1475
 7678TIP3    H122998   3.656   0.387   4.344  0.7567 -0.4907 -1.0041
 7678TIP3    H222999   3.680   0.519   4.273 -0.2719  0.2649 -0.0035
 7679TIP3   OH223000   5.536   5.845   4.553  0.0196  0.3279 -0.0110
 7679TIP3    H123001   5.543   5.939   4.537 -2.3882  0.7042  0.8089
 7679TIP3    H223002   5.576   5.833   4.639  0.1054  0.6367 -0.0074
 7680TIP3   OH223003   0.910   3.373   1.850 -0.2593  0.5063  0.3289
 7680TIP3    H123004   0.982   3.352   1.908 -0.0738  2.9083  1.0438
 7680TIP3    H223005   0.950   3.421   1.778 -0.7107 -1.0979 -1.0654
 7681TIP3   OH223006   2.194   2.605   3.946 -0.0183 -0.2588 -0.2462
 7681TIP3    H123007   2.240   2.594   4.029  0.7695 -0.8777 -0.7518
 7681TIP3    H223008   2.215   2.526   3.897 -2.3947 -1.0378 -0.1392
 7682TIP3   OH223009   5.884   1.099   2.715 -0.2463  0.0251 -0.9396
 7682TIP3    H123010   5.919   1.011   2.701 -0.7377 -0.0185 -1.9960
 7682TIP3    H223011   5.790   1.086   2.726  0.0041  0.0916  2.3353
 7683TIP3   OH223012   5.213   0.494   0.180  0.2611 -0.4272  0.0287
 7683TIP3    H123013   5.141   0.488   0.118 -0.1266 -0.3633  0.4649
 7683TIP3    H223014   5.190   0.432   0.250 -0.7439  1.5473  1.5436
 7684TIP3   OH223015   1.130   6.220   5.392 -0.2083  0.4961 -0.6804
 7684TIP3    H123016   1.177   6.267   5.461  1.1584  0.2736 -1.4263
 7684TIP3    H223017   1.176   6.137   5.384 -2.4903 -1.0044  0.5164
 7685TIP3   OH223018   6.089   4.769   3.302 -0.3408 -0.5921  0.5339
 7685TIP3    H123019   6.110   4.781   3.209 -2.0154 -1.7827 -0.0501
 7685TIP3    H223020   6.088   4.858   3.338 -1.4732  0.0731 -1.0302
 7686TIP3   OH223021   2.344   1.875   3.891 -0.1142 -0.2306  0.1093
 7686TIP3    H123022   2.334   1.786   3.857  0.9890 -0.4036  0.2090
 7686TIP3    H223023   2.422   1.871   3.946  0.0491  0.8438 -0.0259
 7687TIP3   OH223024   1.405   2.869   4.833 -0.0957  0.4749  0.1071
 7687TIP3    H123025   1.348   2.793   4.822 -1.9625  1.4397  2.3255
 7687TIP3    H223026   1.400   2.890   4.926  2.4988  1.7297  0.0597
 7688TIP3   OH223027   0.423   3.104   1.172 -0.0945 -0.0622 -0.6972
 7688TIP3    H123028   0.365   3.174   1.201 -2.8329 -1.7761 -1.6186
 7688TIP3    H223029   0.438   3.122   1.079  0.4753  0.1081 -0.5758
 7689TIP3   OH223030   4.249   3.103   4.688 -0.2074  0.3311  0.1426
 7689TIP3    H123031   4.205   3.138   4.611 -0.4259 -0.2830 -0.0146
 7689TIP3    H223032   4.283   3.018   4.660  1.5537  1.0006  0.0896
 7690TIP3   OH223033   4.620   1.715   4.641 -0.1126  0.0148  0.4809
 7690TIP3    H123034   4.601   1.629   4.602  3.0147 -0.4911 -0.2029
 7690TIP3    H223035   4.606   1.702   4.735  0.6444 -1.3998  0.4390
 7691TIP3   OH223036   1.985   5.218   3.255 -0.1956  0.4279 -0.4829
 7691TIP3    H123037   1.946   5.286   3.309  0.6989  1.1817 -0.7706
 7691TIP3    H223038   1.910   5.171   3.219 -0.8358 -0.2550  1.5647
 7692TIP3   OH223039   4.573   4.339   2.673  0.7454  0.2222  0.0717
 7692TIP3    H123040   4.536   4.308   2.756  2.6795 -1.4493  0.3912
 7692TIP3    H223041   4.658   4.294   2.667  1.5506  1.8772 -1.8397
 7693TIP3   OH223042   1.917   5.824   1.236 -0.0462  0.3961 -0.2211
 7693TIP3    H123043   1.947   5.745   1.191 -0.9015  0.4314 -0.8727
 7693TIP3    H223044   1.914   5.799   1.328 -0.8115 -0.5104 -0.4750
 7694TIP3   OH223045   1.206   2.999   4.137 -0.0553 -0.0705 -0.3896
 7694TIP3    H123046   1.253   3.067   4.184  0.1509  0.2727 -1.0826
 7694TIP3    H223047   1.113   3.017   4.153  0.0311 -0.7482  0.9804
 7695TIP3   OH223048   3.927   6.711   5.266  0.0879  0.3230  0.2095
 7695TIP3    H123049   3.939   6.625   5.307 -0.3289 -0.0520 -0.4430
 7695TIP3    H223050   4.015   6.747   5.261  0.4203 -0.5565 -0.5501
 7696TIP3   OH223051   6.435   5.014   4.235 -0.6954  0.4771  0.3309
 7696TIP3    H123052   6.497   4.992   4.167  0.6107  1.2227  1.2282
 7696TIP3    H223053   6.418   4.931   4.280 -0.0483  0.3193  0.2993
 7697TIP3   OH223054   3.341   0.398   0.764  0.8483  0.0110  0.1865
 7697TIP3    H123055   3.391   0.380   0.843 -1.3630 -0.6231  1.5189
 7697TIP3    H223056   3.250   0.386   0.789  0.0067  0.5528 -2.2724
 7698TIP3   OH223057   7.140   0.816   5.211 -0.0347 -0.1098  0.1644
 7698TIP3    H123058   7.222   0.775   5.180 -0.0850  0.1087 -0.2640
 7698TIP3    H223059   7.093   0.745   5.255 -0.1465 -0.5358 -0.6255
 7699TIP3   OH223060   5.403   2.187   3.608 -0.0670  0.2371  0.0782
 7699TIP3    H123061   5.381   2.259   3.549 -0.7147 -0.1489 -0.1674
 7699TIP3    H223062   5.353   2.205   3.688 -1.7373 -0.8975 -0.6562
 7700TIP3   OH223063   2.740   0.959   2.338  0.6101 -0.1872 -0.5083
 7700TIP3    H123064   2.756   0.926   2.426 -0.3657 -1.2975 -0.7144
 7700TIP3    H223065   2.821   0.943   2.291  0.9301 -0.1646  0.0300
 7701TIP3   OH223066   3.574   6.019   3.750  0.2820 -0.0732 -0.5707
 7701TIP3    H123067   3.655   5.983   3.786 -0.3283  0.1171  1.0838
 7701TIP3    H223068   3.580   6.113   3.769  0.0459  0.0705 -1.1962
 7702TIP3   OH223069   2.505   3.728   4.396  0.3061  0.3075  0.4635
 7702TIP3    H123070   2.571   3.766   4.454  0.6240  1.4140 -0.5798
 7702TIP3    H223071   2.550   3.716   4.312 -0.2737 -0.8293  0.2955
 7703TIP3   OH223072   4.373   4.585   5.849  0.1812 -0.0715 -0.1118
 7703TIP3    H123073   4.346   4.552   5.764  0.5421  0.9550 -0.6355
 7703TIP3    H223074   4.469   4.577   5.848  0.2204  0.3774  0.0118
 7704TIP3   OH223075   0.730   6.177   1.308  0.5508  0.5766 -0.1938
 7704TIP3    H123076   0.761   6.240   1.242  2.7481 -0.1649  0.0242
 7704TIP3    H223077   0.798   6.178   1.375  0.4265 -1.6495  0.0412
 7705TIP3   OH223078   0.691   4.780   3.548  0.3722 -0.6112 -0.3255
 7705TIP3    H123079   0.736   4.746   3.625  0.3409 -0.4012 -0.2153
 7705TIP3    H223080   0.758   4.784   3.480  0.6162  0.0879 -0.0483
 7706TIP3   OH223081   1.731   4.854   2.054  0.2830 -0.2768  0.0302
 7706TIP3    H123082   1.826   4.850   2.057  0.2898 -1.0184 -0.6702
 7706TIP3    H223083   1.711   4.942   2.022  0.6118  1.0608  3.1495
 7707TIP3   OH223084   5.542   2.113   3.061 -1.0367 -0.4563 -0.1289
 7707TIP3    H123085   5.606   2.042   3.059 -0.4375  0.0546  0.3131
 7707TIP3    H223086   5.457   2.069   3.066 -0.6274 -1.1577  1.2487
 7708TIP3   OH223087   0.317   3.809   3.858 -0.2344 -0.2027 -0.0625
 7708TIP3    H123088   0.399   3.852   3.880  0.3126 -1.1197 -0.2268
 7708TIP3    H223089   0.329   3.718   3.887 -2.1854  0.1994  2.3364
 7709TIP3   OH223090   2.121   1.774   1.269 -0.7501 -0.5055  0.0270
 7709TIP3    H123091   2.109   1.776   1.364  0.1022 -0.3708  0.1470
 7709TIP3    H223092   2.187   1.841   1.252 -2.1599  0.7099 -0.8864
 7710TIP3   OH223093   5.283   3.157   5.081  0.3720 -0.6295 -0.1172
 7710TIP3    H123094   5.374   3.140   5.104  0.8341  1.3261 -0.3364
 7710TIP3    H223095   5.256   3.228   5.139 -0.3469  0.2432 -1.4563
 7711TIP3   OH223096   1.753   6.555   5.513  0.5534  0.1713  0.7934
 7711TIP3    H123097   1.739   6.646   5.537  1.7742  0.4898  0.3985
 7711TIP3    H223098   1.847   6.541   5.528  0.5085 -0.8175  0.2205
 7712TIP3   OH223099   6.654   1.370   4.234 -0.0900 -0.1868  0.0198
 7712TIP3    H123100   6.596   1.445   4.249 -0.1684 -0.0195 -1.0405
 7712TIP3    H223101   6.652   1.322   4.317 -0.7776  0.4773  0.4077
 7713TIP3   OH223102   6.538   3.032   0.444  0.5639  0.5859 -0.4158
 7713TIP3    H123103   6.478   3.062   0.513  1.1205 -0.3820  0.5086
 7713TIP3    H223104   6.574   3.113   0.408  0.7763  1.0925  0.8964
 7714TIP3   OH223105   4.718   0.413   0.745  0.1354  0.8464  0.3818
 7714TIP3    H123106   4.633   0.429   0.785  0.4921  0.2300  1.4352
 7714TIP3    H223107   4.756   0.500   0.732  0.0283  1.0612  1.4533
 7715TIP3   OH223108   6.684   5.239   5.459 -0.2842 -0.1631  0.2982
 7715TIP3    H123109   6.715   5.183   5.530  1.3174 -1.4788 -1.3409
 7715TIP3    H223110   6.661   5.179   5.388 -1.4504  1.1236 -0.4725
 7716TIP3   OH223111   5.545   1.027   5.803 -0.4425  0.4544  0.9007
 7716TIP3    H123112   5.457   0.993   5.785 -0.8644  0.5072  2.6372
 7716TIP3    H223113   5.587   0.959   5.855  1.3253 -0.4552 -1.5632
 7717TIP3   OH223114   1.793   1.155   1.790  0.0170 -0.3429  0.0460
 7717TIP3    H123115   1.702   1.126   1.788 -0.2773  0.1419  2.6373
 7717TIP3    H223116   1.815   1.157   1.883  2.0745  1.4045 -0.4041
 7718TIP3   OH223117   0.606   1.816   0.550 -0.5507  0.2844 -0.0897
 7718TIP3    H123118   0.524   1.836   0.506 -0.0608  1.5362 -0.4558
 7718TIP3    H223119   0.610   1.720   0.549 -2.7108  0.1191  1.2800
 7719TIP3   OH223120   0.267   3.218   5.688  0.5376 -0.5449  0.1338
 7719TIP3    H123121   0.300   3.143   5.736  0.9371  0.1959  1.0658
 7719TIP3    H223122   0.181   3.235   5.727  0.1996 -0.8544 -0.4633
 7720TIP3   OH223123   3.544   5.654   1.829 -0.6446  0.3491 -0.2058
 7720TIP3    H123124   3.464   5.701   1.853  0.1088  1.1621  0.8324
 7720TIP3    H223125   3.592   5.716   1.773  0.3818  0.9050  1.2179
 7721TIP3   OH223126   0.309   0.120   3.008 -0.1954  0.1167  0.0283
 7721TIP3    H123127   0.336   0.147   2.921  3.0448  1.1131  1.1855
 7721TIP3    H223128   0.283   0.201   3.052  1.1243  0.1400  0.8390
 7722TIP3   OH223129   3.232   6.261   0.414 -0.3340  0.3823 -0.2306
 7722TIP3    H123130   3.261   6.238   0.326 -1.6821  0.6537 -0.7526
 7722TIP3    H223131   3.299   6.322   0.446  1.5556 -1.6677 -0.0491
 7723TIP3   OH223132   6.211   3.753   2.943  0.1238  0.1406 -0.0713
 7723TIP3    H123133   6.220   3.668   2.987  0.7106 -0.0941 -0.6196
 7723TIP3    H223134   6.121   3.780   2.961 -0.4461 -1.1401 -0.8284
 7724TIP3   OH223135   3.091   0.234   3.651 -0.5926 -0.0245 -0.2918
 7724TIP3    H123136   3.056   0.147   3.630 -0.6884  0.1347 -0.7941
 7724TIP3    H223137   3.092   0.281   3.568 -0.1165  0.3101 -0.1025
 7725TIP3   OH223138   5.260   3.991   1.167  0.0882  0.2762  0.1147
 7725TIP3    H123139   5.323   4.059   1.192  0.5016  0.6550 -1.8088
 7725TIP3    H223140   5.306   3.909   1.186  0.3207  0.5399  0.7149
 7726TIP3   OH223141   6.983   1.516   5.546 -0.4446 -0.5949 -0.5038
 7726TIP3    H123142   7.075   1.540   5.546 -0.1585 -1.5707 -1.7313
 7726TIP3    H223143   6.945   1.568   5.475 -0.7509 -0.4601 -0.2394
 7727TIP3   OH223144   4.989   2.382   5.339 -0.4010 -0.2013 -0.4504
 7727TIP3    H123145   4.982   2.476   5.354 -1.9488 -0.0775 -1.6625
 7727TIP3    H223146   5.066   2.372   5.283  0.4037  0.2156  0.5650
 7728TIP3   OH223147   1.646   3.421   5.552  0.4621 -0.0188 -0.1392
 7728TIP3    H123148   1.690   3.347   5.511  2.0681 -0.6146  2.4256
 7728TIP3    H223149   1.557   3.390   5.569  0.2040 -0.2457 -1.6994
 7729TIP3   OH223150   6.529   2.104   0.363 -0.0056 -0.1911  0.6156
 7729TIP3    H123151   6.597   2.164   0.332  2.0533 -2.2296  0.8714
 7729TIP3    H223152   6.458   2.114   0.300  0.9428  1.2954 -0.2825
 7730TIP3   OH223153   2.202   6.199   4.052  0.2125  0.0392  0.3005
 7730TIP3    H123154   2.195   6.162   3.964 -1.1039  0.0018  0.3996
 7730TIP3    H223155   2.134   6.154   4.102 -0.4733  1.5632  0.7908
 7731TIP3   OH223156   6.418   4.251   3.659  0.1795  0.1774  0.2958
 7731TIP3    H123157   6.335   4.280   3.622  1.5428  1.5412 -1.9672
 7731TIP3    H223158   6.404   4.250   3.753 -2.7178 -0.7977 -0.0490
 7732TIP3   OH223159   3.381   1.154   1.367 -0.0765  0.0308 -0.2465
 7732TIP3    H123160   3.311   1.220   1.362 -1.0189 -0.8425  0.7346
 7732TIP3    H223161   3.339   1.073   1.338  0.9879 -0.2122 -1.1516
 7733TIP3   OH223162   5.431   5.616   3.351 -0.0891 -0.1952 -0.1525
 7733TIP3    H123163   5.374   5.603   3.275  1.4533 -3.5508 -0.9250
 7733TIP3    H223164   5.378   5.587   3.425 -0.3711 -0.6068 -0.5043
 7734TIP3   OH223165   2.592   6.467   0.491 -0.4216  0.0309 -0.1131
 7734TIP3    H123166   2.663   6.402   0.490 -1.0271 -0.6389 -1.0616
 7734TIP3    H223167   2.637   6.551   0.502  0.7349 -0.1612 -2.6857
 7735TIP3   OH223168   2.855   4.995   1.750  0.0443 -0.2757 -0.4209
 7735TIP3    H123169   2.947   4.992   1.777  0.8349  1.5393 -2.6047
 7735TIP3    H223170   2.806   4.991   1.832  2.0891 -0.2332  0.8773
 7736TIP3   OH223171   3.399   4.198   0.526  0.0254 -0.2068  0.3551
 7736TIP3    H123172   3.430   4.288   0.531 -1.1727  0.2062  0.5672
 7736TIP3    H223173   3.308   4.202   0.554 -0.6893 -1.1402 -1.6572
 7737TIP3   OH223174   6.393   0.400   0.636  0.2409  0.0346 -0.2908
 7737TIP3    H123175   6.355   0.433   0.717 -2.5887 -1.5028 -0.8676
 7737TIP3    H223176   6.440   0.321   0.662  2.3218  1.3639  0.2615
 7738TIP3   OH223177   2.523   0.499   4.864 -0.4537 -0.4223 -0.1330
 7738TIP3    H123178   2.593   0.562   4.883 -1.0136  0.1895 -0.0468
 7738TIP3    H223179   2.463   0.507   4.938  0.8914 -3.1919  1.4071
 7739TIP3   OH223180   4.612   0.777   4.934 -0.2864 -0.6403  0.6557
 7739TIP3    H123181   4.655   0.787   4.849  0.6258 -1.4956  0.9938
 7739TIP3    H223182   4.573   0.689   4.931  0.2214 -0.8992  1.3080
 7740TIP3   OH223183   3.893   5.406   5.625 -0.4092 -0.2488  0.0312
 7740TIP3    H123184   3.871   5.498   5.642  0.7374  0.2284 -0.9572
 7740TIP3    H223185   3.972   5.391   5.676 -1.4084 -1.1597  1.3912
 7741TIP3   OH223186   5.735   4.570   0.923  0.1214 -0.1936  0.0001
 7741TIP3    H123187   5.790   4.647   0.935  1.1959 -0.8083 -0.7655
 7741TIP3    H223188   5.653   4.604   0.886  0.1363  0.6842  0.7279
 7742TIP3   OH223189   1.968   0.350   5.484 -0.0142  0.0427 -0.0888
 7742TIP3    H123190   1.974   0.445   5.482 -3.2952  0.3413 -2.4353
 7742TIP3    H223191   1.883   0.331   5.523  0.8957 -2.0510  1.1198
 7743TIP3   OH223192   3.332   3.638   2.915  0.2796  0.6517  0.1405
 7743TIP3    H123193   3.301   3.704   2.853 -0.6393 -0.5750 -0.7821
 7743TIP3    H223194   3.261   3.628   2.977 -0.6284 -1.0655 -1.0775
 7744TIP3   OH223195   4.073   2.067   5.840 -0.2550  0.0719  0.8255
 7744TIP3    H123196   3.978   2.074   5.849 -0.6716 -1.1574 -1.5843
 7744TIP3    H223197   4.090   1.973   5.844  0.7139  0.2095  0.2792
 7745TIP3   OH223198   3.220   3.263   0.764  0.5619 -0.4156  0.2939
 7745TIP3    H123199   3.137   3.295   0.799  0.7591  1.3055 -0.6824
 7745TIP3    H223200   3.228   3.174   0.798 -3.0388 -1.7686 -1.8476
 7746TIP3   OH223201   3.677   1.330   0.199  0.0373  0.1846  0.2236
 7746TIP3    H123202   3.716   1.410   0.162 -1.1345  1.5757  1.8657
 7746TIP3    H223203   3.638   1.287   0.123  3.3250 -0.5279 -1.2568
 7747TIP3   OH223204   4.235   4.711   2.142  0.0166 -0.6800 -0.1192
 7747TIP3    H123205   4.217   4.633   2.194 -0.1051 -0.2294  0.5304
 7747TIP3    H223206   4.267   4.677   2.058 -1.3286 -1.4412 -0.3471
 7748TIP3   OH223207   2.742   0.279   0.657  0.7678  0.1482  0.2493
 7748TIP3    H123208   2.793   0.359   0.668  0.2971  0.6649 -1.1063
 7748TIP3    H223209   2.657   0.299   0.696  0.1645  0.8475 -1.3592
 7749TIP3   OH223210   1.850   3.239   5.813 -0.2211  0.3292 -0.3136
 7749TIP3    H123211   1.916   3.303   5.841 -0.9376  1.8398 -1.8420
 7749TIP3    H223212   1.864   3.229   5.719  0.3367 -2.4093 -0.0141
 7750TIP3   OH223213   4.848   3.815   5.060 -0.4248  0.4065  0.0596
 7750TIP3    H123214   4.790   3.869   5.113  0.6251  2.2153 -0.5430
 7750TIP3    H223215   4.908   3.776   5.123 -0.4771  0.8732  0.4028
 7751TIP3   OH223216   0.114   2.086   0.808 -0.0323  0.4081  0.2481
 7751TIP3    H123217   0.066   2.025   0.864  0.5401  0.8908  1.2769
 7751TIP3    H223218   0.049   2.113   0.743 -0.4449 -0.8644  0.1056
 7752TIP3   OH223219   2.164   4.378   3.201  1.0085  0.3048  0.0533
 7752TIP3    H123220   2.217   4.455   3.221 -0.2616  1.3449 -0.3990
 7752TIP3    H223221   2.074   4.407   3.216  0.4584 -0.9058 -0.7565
 7753TIP3   OH223222   3.802   6.305   3.662 -0.8746 -0.0168  0.2566
 7753TIP3    H123223   3.820   6.380   3.605 -2.1703  0.6006  0.6289
 7753TIP3    H223224   3.792   6.343   3.749  0.0563 -0.8286  0.7364
 7754TIP3   OH223225   0.912   0.912   5.756 -0.4215 -0.2495  0.0245
 7754TIP3    H123226   0.987   0.879   5.708 -0.0222  1.2043 -0.4211
 7754TIP3    H223227   0.837   0.891   5.702 -0.0549  0.6235 -0.8686
 7755TIP3   OH223228   0.535   1.640   1.814 -0.1491 -0.3315  0.0631
 7755TIP3    H123229   0.519   1.604   1.727 -1.9063 -2.3877  1.1413
 7755TIP3    H223230   0.455   1.688   1.835  0.6768  1.0530  0.1813
 7756TIP3   OH223231   2.827   2.409   4.195  0.0715  0.3634  0.1661
 7756TIP3    H123232   2.922   2.398   4.198  0.1344  0.9672  1.6694
 7756TIP3    H223233   2.813   2.502   4.215 -0.8378  0.2573  0.0808
 7757TIP3   OH223234   4.405   4.797   2.423 -0.1682 -0.2875  0.4766
 7757TIP3    H123235   4.428   4.772   2.334  0.3493  0.6340  0.3367
 7757TIP3    H223236   4.424   4.891   2.427 -3.3533  0.4505  0.5387
 7758TIP3   OH223237   1.893   4.481   3.244 -0.3799  0.3197 -0.2311
 7758TIP3    H123238   1.955   4.483   3.317  0.2999 -1.1975 -0.7220
 7758TIP3    H223239   1.808   4.493   3.285  0.0821  0.5625  0.6856
 7759TIP3   OH223240   4.263   0.420   1.929 -0.0662 -0.3780  0.0017
 7759TIP3    H123241   4.219   0.465   1.857 -2.5159 -2.1423  0.2730
 7759TIP3    H223242   4.192   0.393   1.987  1.3302 -3.6319  0.3737
 7760TIP3   OH223243   6.804   6.276   0.094  0.5942 -0.3257 -0.3458
 7760TIP3    H123244   6.728   6.286   0.037  1.1098  0.1713 -0.9517
 7760TIP3    H223245   6.783   6.200   0.148 -0.6950  0.2966  0.0714
 7761TIP3   OH223246   0.727   3.415   1.377  0.0690  0.0509 -0.3521
 7761TIP3    H123247   0.705   3.372   1.460 -1.5030  0.8308 -0.3351
 7761TIP3    H223248   0.720   3.345   1.312  0.7311 -0.4315  0.0746
 7762TIP3   OH223249   1.835   1.830   5.374  0.1729  0.2858 -0.3708
 7762TIP3    H123250   1.833   1.737   5.353 -1.9753 -0.0257  0.8614
 7762TIP3    H223251   1.925   1.857   5.356  0.6667 -1.8386 -1.4481
 7763TIP3   OH223252   0.438   0.182   2.499 -0.5669  0.0567  0.0238
 7763TIP3    H123253   0.510   0.186   2.562  0.1788  0.3204 -0.8233
 7763TIP3    H223254   0.461   0.109   2.441 -1.3749 -0.3502  0.2107
 7764TIP3   OH223255   4.668   6.362   0.389 -0.1032  0.1323  0.5453
 7764TIP3    H123256   4.632   6.417   0.458 -2.9580 -2.0585  1.0159
 7764TIP3    H223257   4.738   6.312   0.432  1.2387  1.9106  0.5672
 7765TIP3   OH223258   5.474   2.657   0.499 -0.0110 -0.0839 -0.4568
 7765TIP3    H123259   5.488   2.686   0.589 -0.0079 -2.0686  0.2129
 7765TIP3    H223260   5.381   2.673   0.483 -0.0953 -0.0752  0.0313
 7766TIP3   OH223261   3.758   3.143   4.308 -0.2547  1.2061 -0.3838
 7766TIP3    H123262   3.824   3.189   4.257  4.3306 -1.6339  2.2524
 7766TIP3    H223263   3.783   3.051   4.304 -4.8815 -0.3569  0.0120
 7767TIP3   OH223264   4.414   0.287   1.408 -0.4981  0.5339  0.5694
 7767TIP3    H123265   4.387   0.206   1.451  0.3571  0.5943  1.2602
 7767TIP3    H223266   4.499   0.267   1.370 -0.8971  0.7171 -0.4557
 7768TIP3   OH223267   3.894   1.235   2.329  0.4365  0.3212  0.3262
 7768TIP3    H123268   3.926   1.179   2.400  1.2037 -1.1840 -1.1287
 7768TIP3    H223269   3.963   1.299   2.316  1.7587 -1.2909 -1.0392
 7769TIP3   OH223270   2.742   6.533   5.176  0.1370 -0.7373 -0.0592
 7769TIP3    H123271   2.794   6.513   5.098  0.0283 -1.5304  0.0650
 7769TIP3    H223272   2.679   6.461   5.182 -0.2703 -0.3499  0.4041
 7770TIP3   OH223273   1.287   2.940   5.465 -0.2017 -0.6558  0.2134
 7770TIP3    H123274   1.294   2.845   5.451  0.2764 -0.7929  1.2967
 7770TIP3    H223275   1.213   2.967   5.410 -1.5815 -1.9791  1.3337
 7771TIP3   OH223276   1.761   4.006   2.408  0.1805 -0.3207  0.3132
 7771TIP3    H123277   1.710   3.938   2.452 -1.8379  0.8559 -0.0730
 7771TIP3    H223278   1.734   4.087   2.452  0.2018  0.5527 -1.2395
 7772TIP3   OH223279   4.487   0.656   3.827 -0.2492 -0.2072  0.0912
 7772TIP3    H123280   4.433   0.694   3.897  1.4261  2.2955  0.1496
 7772TIP3    H223281   4.535   0.731   3.791  2.2568 -2.1157 -0.7850
 7773TIP3   OH223282   3.058   5.181   4.481  0.0935 -0.5033 -1.4387
 7773TIP3    H123283   2.983   5.151   4.533  1.4693 -0.7608  0.4953
 7773TIP3    H223284   3.093   5.101   4.442  2.3636 -1.3483  1.8509
 7774TIP3   OH223285   6.414   3.193   3.100 -0.0028 -0.4169  0.1981
 7774TIP3    H123286   6.356   3.201   3.025 -0.2046  1.1790  0.4808
 7774TIP3    H223287   6.424   3.099   3.114 -1.5079 -0.7187 -0.6217
 7775TIP3   OH223288   0.058   6.538   2.308 -0.6189  0.1681 -0.0228
 7775TIP3    H123289   0.135   6.549   2.251 -0.4071  0.8552  0.3879
 7775TIP3    H223290   0.063   6.446   2.336  1.0542  0.6128  1.3702
 7776TIP3   OH223291   1.122   4.280   4.122  0.3779  0.7665  0.0019
 7776TIP3    H123292   1.174   4.203   4.148 -1.6901 -1.1357 -1.1401
 7776TIP3    H223293   1.163   4.310   4.041  1.5110  1.2522  0.7205
 7777TIP3   OH223294   1.905   2.323   1.347  0.6178 -0.0504 -0.0961
 7777TIP3    H123295   1.972   2.312   1.415 -0.0333  1.9086  0.9142
 7777TIP3    H223296   1.852   2.396   1.377  0.7288  1.3829 -3.0760
 7778TIP3   OH223297   2.009   0.023   5.730  0.4885  0.0034 -0.0301
 7778TIP3    H123298   2.052   0.028   5.816  0.6746  0.4565 -0.1506
 7778TIP3    H223299   2.072   0.061   5.669  1.1775 -2.0099 -0.6800
 7779TIP3   OH223300   0.443   2.283   3.797  0.2947  0.4268  0.5731
 7779TIP3    H123301   0.489   2.355   3.752  2.0155 -0.8496  0.1997
 7779TIP3    H223302   0.415   2.225   3.726 -3.8702  2.1167  0.5619
 7780TIP3   OH223303   2.338   5.699   1.164  0.2987 -0.0844  0.9679
 7780TIP3    H123304   2.385   5.662   1.239  0.7315  0.5786  1.0350
 7780TIP3    H223305   2.389   5.671   1.088 -0.4151 -1.1691  0.8752
 7781TIP3   OH223306   4.554   3.874  -0.012  0.4834  0.7070  0.4249
 7781TIP3    H123307   4.579   3.834   0.071 -0.5468  0.4805  0.6440
 7781TIP3    H223308   4.630   3.925  -0.039  0.3830  1.8457  2.1739
 7782TIP3   OH223309   4.782   1.198   1.945  0.0013  0.1299  0.2396
 7782TIP3    H123310   4.866   1.173   1.984 -0.3689 -2.4628 -0.4547
 7782TIP3    H223311   4.804   1.225   1.856  0.1514 -0.1335  0.1964
 7783TIP3   OH223312   3.719   0.023   4.952 -0.5636 -0.2226 -0.1443
 7783TIP3    H123313   3.733  -0.070   4.969  0.9414  0.1321  0.8289
 7783TIP3    H223314   3.690   0.058   5.036  1.2431  0.5638  0.2074
 7784TIP3   OH223315   4.824   3.310   2.393 -0.1937  0.2848  0.6833
 7784TIP3    H123316   4.809   3.228   2.345 -1.9101  1.0224 -0.1352
 7784TIP3    H223317   4.743   3.324   2.441 -0.6527  2.3610 -0.5755
 7785TIP3   OH223318   5.681   1.974   0.366  0.2019  0.0742  0.0273
 7785TIP3    H123319   5.763   1.941   0.401  0.3387 -1.3895 -1.5553
 7785TIP3    H223320   5.706   2.022   0.287 -0.4476 -0.4947 -0.5444
 7786TIP3   OH223321   3.245   6.194   5.110  0.3313  0.0089  0.0418
 7786TIP3    H123322   3.311   6.128   5.089  1.1805  0.7812  0.2199
 7786TIP3    H223323   3.258   6.212   5.203  1.2729  1.6501 -0.3620
 7787TIP3   OH223324   1.444   6.655   4.165 -0.2215  0.0004 -0.0270
 7787TIP3    H123325   1.400   6.702   4.236 -0.5488 -1.2049  0.5880
 7787TIP3    H223326   1.510   6.717   4.134 -0.7051  0.9095  0.6826
 7788TIP3   OH223327   4.824   3.207   2.856  0.5339 -0.0181  0.1137
 7788TIP3    H123328   4.774   3.268   2.802 -1.7437 -0.1769  1.8399
 7788TIP3    H223329   4.860   3.261   2.926 -0.4882 -0.4148  0.9828
 7789TIP3   OH223330   5.579   3.421   3.958 -0.1176 -0.5077  0.0930
 7789TIP3    H123331   5.633   3.500   3.954 -0.4906 -0.0012  2.8204
 7789TIP3    H223332   5.627   3.356   3.907  0.8583  1.0998 -1.1276
 7790TIP3   OH223333   0.808   4.934   3.959  0.3443  0.3745  0.1289
 7790TIP3    H123334   0.766   4.968   3.880  0.8388 -1.2278 -0.8885
 7790TIP3    H223335   0.741   4.940   4.027 -1.5348 -1.7690 -1.3489
 7791TIP3   OH223336   6.768   1.720   4.173 -0.5373 -0.0125  0.0597
 7791TIP3    H123337   6.762   1.741   4.080  0.7021  0.3364  0.0408
 7791TIP3    H223338   6.682   1.744   4.209 -1.9954 -2.5126 -1.3991
 7792TIP3   OH223339   6.229   5.498   1.444  0.0787  0.5845  0.0316
 7792TIP3    H123340   6.139   5.486   1.415  1.0577  0.3308 -3.3597
 7792TIP3    H223341   6.259   5.410   1.468 -0.2452  0.5017  0.1337
 7793TIP3   OH223342   5.954   2.628   0.642  0.1081  0.1220 -0.0140
 7793TIP3    H123343   5.898   2.694   0.681 -1.6737 -0.4673 -1.4241
 7793TIP3    H223344   5.983   2.666   0.559  0.1671 -0.3305 -0.2078
 7794TIP3   OH223345   1.787   4.324   4.799  0.2756 -0.5515  0.3088
 7794TIP3    H123346   1.692   4.321   4.788  0.5516 -1.7402 -2.7771
 7794TIP3    H223347   1.814   4.233   4.795  1.6203 -0.1578  0.0776
 7795TIP3   OH223348   2.052   3.987   4.149 -0.3398  0.1640 -0.4410
 7795TIP3    H123349   2.103   3.992   4.068 -2.5508  0.8226 -1.9076
 7795TIP3    H223350   2.027   4.078   4.167 -0.1475 -0.0174  0.8349
 7796TIP3   OH223351   3.620   1.989   2.845 -0.2243  0.3957 -0.2401
 7796TIP3    H123352   3.657   2.036   2.921  0.8666 -0.4513 -0.2189
 7796TIP3    H223353   3.546   1.940   2.881  0.4987 -0.2743  0.3637
 7797TIP3   OH223354   4.157   4.618   0.996 -0.0744  0.0414  0.1622
 7797TIP3    H123355   4.182   4.692   0.940 -0.8233 -1.3536 -2.1653
 7797TIP3    H223356   4.207   4.631   1.076  0.9963  2.2280 -0.7657
 7798TIP3   OH223357   2.252   0.482   4.501  0.4728 -0.1563  0.0685
 7798TIP3    H123358   2.169   0.528   4.487  0.7937  0.3861 -0.1158
 7798TIP3    H223359   2.233   0.391   4.482 -0.1083 -0.0497  0.1327
 7799TIP3   OH223360   5.163   5.124   3.018  0.9169  0.3975  0.4331
 7799TIP3    H123361   5.206   5.135   2.933  1.0039 -0.8252  0.3038
 7799TIP3    H223362   5.227   5.078   3.072  0.1222 -0.6442  0.5229
 7800TIP3   OH223363   6.662   5.119   3.062 -0.2611 -0.2768  0.0250
 7800TIP3    H123364   6.677   5.062   2.987 -0.2593 -0.4830  0.1836
 7800TIP3    H223365   6.680   5.065   3.138 -2.0998 -0.6504  0.2429
 7801TIP3   OH223366   4.067   0.278   3.998  0.0669 -0.0563  0.0323
 7801TIP3    H123367   4.129   0.219   3.956  0.4634  0.3899 -0.0130
 7801TIP3    H223368   4.037   0.336   3.928 -0.8550 -0.6488 -0.0768
 7802TIP3   OH223369   4.927   6.108   2.297 -0.3142 -0.4171 -0.1390
 7802TIP3    H123370   4.967   6.188   2.262 -0.8902  0.2826  0.7684
 7802TIP3    H223371   4.934   6.045   2.225  2.1129 -0.2460 -0.1451
 7803TIP3   OH223372   3.662   4.990   1.165 -0.0945 -0.0723 -0.5342
 7803TIP3    H123373   3.679   5.050   1.092  1.4197 -0.2671 -0.3783
 7803TIP3    H223374   3.567   4.989   1.174 -0.2648  0.5246 -2.0236
 7804TIP3   OH223375   3.409   2.700   5.561  0.5838  0.2434 -0.1776
 7804TIP3    H123376   3.410   2.630   5.626  0.3888 -0.0236 -0.4616
 7804TIP3    H223377   3.454   2.663   5.485 -0.4458  0.0585 -0.7102
 7805TIP3   OH223378   5.283   0.177   4.579  0.4511  0.1948  0.4547
 7805TIP3    H123379   5.366   0.162   4.624  0.0258 -0.0145  1.1758
 7805TIP3    H223380   5.308   0.188   4.487  1.3905  1.2789  0.8105
 7806TIP3   OH223381   4.229   1.113   1.192 -0.1894 -0.2378 -0.0108
 7806TIP3    H123382   4.310   1.163   1.191 -0.0785 -0.3957 -1.4948
 7806TIP3    H223383   4.226   1.071   1.106 -0.5641 -2.3182  0.9657
 7807TIP3   OH223384   2.993   2.660   4.184  0.1267 -0.1059 -0.6747
 7807TIP3    H123385   2.920   2.715   4.211 -0.5366 -2.1779  2.1654
 7807TIP3    H223386   3.070   2.703   4.222 -0.1358 -0.0142 -0.2344
 7808TIP3   OH223387   5.969   4.730   5.213  0.2491  0.7719  0.2349
 7808TIP3    H123388   6.006   4.716   5.126 -0.1838 -1.8255  0.3823
 7808TIP3    H223389   5.884   4.686   5.211  0.6849 -0.3203  2.2363
 7809TIP3   OH223390   6.822   0.376   2.728  0.0417 -0.3604  0.6253
 7809TIP3    H123391   6.744   0.427   2.707  0.2020 -0.6730 -0.7626
 7809TIP3    H223392   6.824   0.306   2.663  0.4232 -1.5224  1.8413
 7810TIP3   OH223393   4.323   4.272   5.195  0.3065 -0.3088  0.4759
 7810TIP3    H123394   4.344   4.217   5.120 -2.6797  0.6487 -1.1971
 7810TIP3    H223395   4.362   4.357   5.175 -1.4012  0.2603 -0.5910
 7811TIP3   OH223396   4.879   0.572   5.062 -0.2295 -0.9590  0.6824
 7811TIP3    H123397   4.930   0.577   4.981  0.3530  0.5152  1.1028
 7811TIP3    H223398   4.926   0.509   5.116 -0.9608 -2.4215 -0.3255
 7812TIP3   OH223399   2.578   2.487   2.122  0.5638  0.1574 -0.0453
 7812TIP3    H123400   2.555   2.534   2.202 -0.8963 -0.2131 -0.2293
 7812TIP3    H223401   2.588   2.556   2.057  2.2215  0.5036  0.5196
 7813TIP3   OH223402   7.178   2.953   1.296  0.1168  0.7507  0.3360
 7813TIP3    H123403   7.126   2.943   1.217  1.2149 -1.0706 -0.2137
 7813TIP3    H223404   7.211   3.043   1.293 -0.5359  0.9638 -0.8136
 7814TIP3   OH223405   0.859   4.195   4.368 -0.2848  0.1184 -0.3689
 7814TIP3    H123406   0.891   4.284   4.384 -2.5018  1.0335 -0.7415
 7814TIP3    H223407   0.881   4.147   4.448  1.6637  0.7242 -0.4795
 7815TIP3   OH223408   0.900   5.601   0.329  0.0283 -0.4277 -0.9133
 7815TIP3    H123409   0.878   5.561   0.413 -0.0813  1.3048 -0.0831
 7815TIP3    H223410   0.986   5.565   0.307  0.5531 -0.0559  0.4848
 7816TIP3   OH223411   2.631   4.743   1.107  0.3180  0.1857 -0.1599
 7816TIP3    H123412   2.672   4.823   1.076  0.5236  1.5173  3.1098
 7816TIP3    H223413   2.537   4.762   1.101  0.3109 -0.0861 -1.0782
 7817TIP3   OH223414   5.233   6.280   4.037 -0.7046 -0.4808 -0.3475
 7817TIP3    H123415   5.202   6.300   4.126  1.5533  0.4984  0.3047
 7817TIP3    H223416   5.260   6.188   4.041 -0.0028 -0.2558  0.1805
 7818TIP3   OH223417   1.220   4.320   5.490  0.1753  0.6552 -0.6915
 7818TIP3    H123418   1.249   4.241   5.537  1.7934  1.2345 -0.6469
 7818TIP3    H223419   1.128   4.330   5.514 -0.4444 -1.8799 -1.6359
 7819TIP3   OH223420   1.247   5.457   2.654  0.2714  0.0816 -0.5330
 7819TIP3    H123421   1.274   5.542   2.620 -0.3754  0.3248 -0.4523
 7819TIP3    H223422   1.155   5.450   2.630 -0.2684  0.3442  1.3181
 7820TIP3   OH223423   5.429   2.955   5.809 -0.3193  0.3228  0.0022
 7820TIP3    H123424   5.354   2.970   5.751  0.6048  0.6652 -1.1573
 7820TIP3    H223425   5.490   2.904   5.755  0.3828  0.2704  0.8339
 7821TIP3   OH223426   3.527   0.526   4.926 -0.2421 -0.4898 -0.0593
 7821TIP3    H123427   3.478   0.605   4.900 -1.4617 -1.1798  0.0823
 7821TIP3    H223428   3.612   0.536   4.883 -0.6023  0.6029 -0.5667
 7822TIP3   OH223429   1.522   3.226   0.863  0.2975  0.0209  0.1200
 7822TIP3    H123430   1.540   3.141   0.902  0.6543  0.3959  0.8012
 7822TIP3    H223431   1.427   3.226   0.848  0.3455 -0.6166 -0.1997
 7823TIP3   OH223432   2.783   3.476   0.725  0.6328 -0.3229 -0.9901
 7823TIP3    H123433   2.741   3.487   0.810  2.0754 -1.2951 -0.1170
 7823TIP3    H223434   2.727   3.525   0.665  0.1246  1.2471  0.6608
 7824TIP3   OH223435   4.591   3.912   2.397 -0.4132  0.3946  0.4884
 7824TIP3    H123436   4.671   3.953   2.366  0.3076  0.5842  2.4698
 7824TIP3    H223437   4.555   3.973   2.461 -3.2307  1.2337 -1.6677
 7825TIP3   OH223438   1.266   0.245   2.712  0.2224 -0.3358 -0.1385
 7825TIP3    H123439   1.327   0.186   2.670  1.1836  0.9579 -0.6372
 7825TIP3    H223440   1.249   0.207   2.798 -0.8614 -2.4107 -1.1987
 7826TIP3   OH223441   6.911   0.070   5.435  0.5376 -0.1278 -0.1763
 7826TIP3    H123442   6.827   0.024   5.439  0.4357  0.0861  0.2527
 7826TIP3    H223443   6.977   0.000   5.429  0.3625 -0.3137  0.0601
 7827TIP3   OH223444   7.168   4.648   3.379 -0.4212 -0.2084  0.2198
 7827TIP3    H123445   7.122   4.731   3.393 -4.2487 -2.3719  2.1158
 7827TIP3    H223446   7.149   4.624   3.289  0.8186  0.9401 -0.3814
 7828TIP3   OH223447   2.357   6.716   5.005  0.0312  0.2067  0.3593
 7828TIP3    H123448   2.343   6.771   4.927 -2.4677 -0.7839  0.0248
 7828TIP3    H223449   2.303   6.639   4.990  1.3840 -1.1412  2.0285
 7829TIP3   OH223450   3.028   0.492   1.582  0.1894  0.4766  0.1849
 7829TIP3    H123451   2.946   0.491   1.632  1.0041  2.1317  1.6652
 7829TIP3    H223452   3.056   0.583   1.583  2.9737 -0.2805  1.3106
 7830TIP3   OH223453   1.084   4.651   3.560 -0.7789  0.0342  0.5251
 7830TIP3    H123454   1.117   4.730   3.602  0.9371 -0.5482  0.3442
 7830TIP3    H223455   1.030   4.683   3.488 -0.8333  1.0357  1.0021
 7831TIP3   OH223456   5.127   3.035   3.466  0.4179 -0.2348  0.1438
 7831TIP3    H123457   5.050   3.091   3.471 -0.5895 -1.6145  0.5983
 7831TIP3    H223458   5.189   3.074   3.528  0.1297  0.9157 -0.2684
 7832TIP3   OH223459   1.859   6.595   3.603 -0.0191 -0.0723 -0.2987
 7832TIP3    H123460   1.897   6.548   3.529  2.6944  0.9810  0.3219
 7832TIP3    H223461   1.891   6.548   3.680  1.5594  1.8527  0.2908
 7833TIP3   OH223462   3.763   2.276   3.287  0.0394  0.2995 -0.1856
 7833TIP3    H123463   3.819   2.227   3.347 -0.8506  2.1016  2.2861
 7833TIP3    H223464   3.814   2.352   3.262  0.3912 -0.4254 -1.7664
 7834TIP3   OH223465   4.691   2.306   2.471 -0.0961 -0.1870 -0.5548
 7834TIP3    H123466   4.737   2.247   2.411 -0.1682 -0.3936 -0.4037
 7834TIP3    H223467   4.673   2.254   2.549  1.0959  0.4168  0.1623
 7835TIP3   OH223468   4.776   4.440   2.421 -0.1633 -0.1386  0.0238
 7835TIP3    H123469   4.714   4.512   2.433  1.9703  1.6650  0.7841
 7835TIP3    H223470   4.720   4.363   2.406 -2.5405  1.5543 -0.4356
 7836TIP3   OH223471   2.716   4.341   1.733 -0.0295  0.0075  0.4153
 7836TIP3    H123472   2.810   4.330   1.722 -0.0364  0.4232 -0.0675
 7836TIP3    H223473   2.705   4.359   1.827  0.3769  0.0306  0.4611
 7837TIP3   OH223474   1.825   5.775   5.315  0.6672 -0.3447 -0.3422
 7837TIP3    H123475   1.732   5.755   5.320  0.7289 -0.6094 -0.2546
 7837TIP3    H223476   1.863   5.704   5.264  0.6182  0.4579 -1.5476
 7838TIP3   OH223477   3.655   2.305   5.275 -0.8519  0.2802  0.2741
 7838TIP3    H123478   3.596   2.314   5.200  0.8585  0.4132 -1.1290
 7838TIP3    H223479   3.648   2.388   5.322 -1.0290  0.6918 -0.4625
 7839TIP3   OH223480   3.911   2.842   5.579  0.0235 -0.0795 -0.0545
 7839TIP3    H123481   3.883   2.832   5.488  1.6792 -0.3423 -0.5585
 7839TIP3    H223482   3.862   2.918   5.610  1.6824  2.0015 -2.1544
 7840TIP3   OH223483   0.009   3.316   3.721  0.7899 -0.0731  0.3267
 7840TIP3    H123484   0.018   3.221   3.712  2.0039 -0.0240  0.7797
 7840TIP3    H223485   0.060   3.338   3.799  2.1091  1.1675 -0.8200
 7841TIP3   OH223486   6.916   0.088   4.285 -0.5894  0.6967 -0.7563
 7841TIP3    H123487   6.851   0.154   4.260 -0.0397  1.0360 -1.3342
 7841TIP3    H223488   6.965   0.071   4.204 -0.3896 -0.0413 -0.4853
 7842TIP3   OH223489   3.125   1.523   3.677 -0.5727  0.3873  0.2847
 7842TIP3    H123490   3.213   1.499   3.705 -0.2092  0.5485 -0.7020
 7842TIP3    H223491   3.122   1.501   3.584 -1.0724  1.7509 -0.0519
 7843TIP3   OH223492   5.379   5.652   3.646 -0.0880  0.3510 -0.5677
 7843TIP3    H123493   5.436   5.610   3.711  0.1603  2.1945  0.4864
 7843TIP3    H223494   5.440   5.694   3.585 -0.3335 -0.3915 -1.3430
 7844TIP3   OH223495   4.636   6.705   3.030  0.5472  0.5700  0.0667
 7844TIP3    H123496   4.654   6.746   2.946  1.8998 -0.6380 -0.2708
 7844TIP3    H223497   4.595   6.621   3.008 -0.4924  0.8929  0.6777
 7845TIP3   OH223498   2.750   5.651   2.845 -0.1444  0.2376 -0.2941
 7845TIP3    H123499   2.655   5.639   2.850  0.1679 -2.3123  2.3459
 7845TIP3    H223500   2.783   5.615   2.928  3.1996  0.1212 -1.5295
 7846TIP3   OH223501   0.539   5.334   2.867  0.3812  0.1393  0.0371
 7846TIP3    H123502   0.565   5.408   2.813  2.0325 -0.3985  0.0382
 7846TIP3    H223503   0.599   5.337   2.942 -3.1832  2.2148  3.2264
 7847TIP3   OH223504   6.641   2.616   4.716  0.1895 -0.2717  0.1050
 7847TIP3    H123505   6.670   2.545   4.659 -1.3819 -1.4183  0.6764
 7847TIP3    H223506   6.718   2.673   4.724  0.5666 -0.2010 -2.8882
 7848TIP3   OH223507   5.165   0.823   5.562  0.6770 -0.1793  0.3186
 7848TIP3    H123508   5.148   0.916   5.546 -0.6753 -0.0776  2.0036
 7848TIP3    H223509   5.229   0.822   5.633 -1.8937 -0.3894  2.8230
 7849TIP3   OH223510   5.326   5.585   1.560 -0.5285 -0.4824  0.0247
 7849TIP3    H123511   5.277   5.561   1.481 -0.1852 -1.5796  0.1262
 7849TIP3    H223512   5.262   5.631   1.615 -0.6733  0.6070 -1.0224
 7850TIP3   OH223513   6.677   0.941   3.208 -0.0462 -0.0631 -0.3456
 7850TIP3    H123514   6.740   1.013   3.200  0.3706 -0.4604 -0.7122
 7850TIP3    H223515   6.612   0.972   3.271 -0.7677  1.2914 -1.6971
 7851TIP3   OH223516   1.066   4.963   0.873 -0.0103  0.1120  0.1567
 7851TIP3    H123517   1.087   4.883   0.825 -0.4363 -0.5970  1.1167
 7851TIP3    H223518   0.977   4.950   0.904  0.6361  0.0328  2.1147
 7852TIP3   OH223519   1.444   0.703   5.212  0.0149 -0.4681 -0.0374
 7852TIP3    H123520   1.389   0.718   5.135 -1.6406 -2.4081  0.6953
 7852TIP3    H223521   1.412   0.622   5.250  3.1024 -1.4745  0.7399
 7853TIP3   OH223522   4.602   1.843   0.245  0.1278  0.0929  0.0826
 7853TIP3    H123523   4.656   1.816   0.319  3.1407 -0.4990 -2.1157
 7853TIP3    H223524   4.566   1.761   0.211  0.6816  0.0513 -0.4305
 7854TIP3   OH223525   1.313   3.580   0.810  0.5962  0.0311  0.1805
 7854TIP3    H123526   1.295   3.664   0.852 -1.3950 -1.7814  3.4289
 7854TIP3    H223527   1.407   3.581   0.794  0.4099  3.4761 -1.6050
 7855TIP3   OH223528   0.018   6.471   0.448  0.7285 -0.4827  0.2307
 7855TIP3    H123529   0.003   6.377   0.439  0.0350 -0.4522  0.9099
 7855TIP3    H223530   0.054   6.481   0.536  2.2884 -0.2623 -0.4008
 7856TIP3   OH223531   3.477   3.725   1.209  0.2229 -0.2723 -0.0332
 7856TIP3    H123532   3.530   3.679   1.274  3.3398  2.7591 -0.1400
 7856TIP3    H223533   3.505   3.690   1.125  0.3251 -0.3263  0.0232
 7857TIP3   OH223534   1.373   3.134   3.299 -0.0027 -0.1021 -0.0513
 7857TIP3    H123535   1.462   3.160   3.322  0.7412 -1.4034 -1.2828
 7857TIP3    H223536   1.365   3.153   3.206 -0.9941 -0.0949  0.0176
 7858TIP3   OH223537   2.045   1.121   1.347 -0.0835 -0.5477 -0.1450
 7858TIP3    H123538   1.978   1.091   1.285  1.5879  1.5010 -3.1973
 7858TIP3    H223539   1.997   1.175   1.410 -1.6534 -1.2976 -0.6450
 7859TIP3   OH223540   4.496   6.534   4.190  0.0407 -0.4986 -0.0262
 7859TIP3    H123541   4.451   6.614   4.163  1.1349  0.8831  2.0127
 7859TIP3    H223542   4.427   6.467   4.193 -1.0282  0.5149 -1.0495
 7860TIP3   OH223543   3.472   2.351   5.503  0.0595 -0.5680  0.3278
 7860TIP3    H123544   3.391   2.372   5.548 -0.3746 -0.0930 -0.6480
 7860TIP3    H223545   3.445   2.295   5.430 -0.0035  2.6111 -2.3424
 7861TIP3   OH223546   3.517   4.797   4.517  0.2044  0.2016 -0.1995
 7861TIP3    H123547   3.585   4.863   4.530 -0.8732  1.5839 -1.2457
 7861TIP3    H223548   3.537   4.728   4.580  0.9788  1.8326  1.4013
 7862TIP3   OH223549   1.574  -0.015   5.255  0.1111 -0.1305 -0.3659
 7862TIP3    H123550   1.582   0.014   5.346 -1.1519  1.9520 -0.8408
 7862TIP3    H223551   1.642   0.033   5.209  0.5723 -0.9765 -0.5805
 7863TIP3   OH223552   2.600   0.902   2.836 -0.1688  0.3759 -0.3202
 7863TIP3    H123553   2.541   0.913   2.762 -1.4594 -0.2740  0.5794
 7863TIP3    H223554   2.578   0.973   2.896  0.2005  0.3287 -0.1219
 7864TIP3   OH223555   4.251   5.814   0.532 -0.6949 -0.3697 -0.2056
 7864TIP3    H123556   4.248   5.864   0.451  0.4715 -0.1693 -0.1371
 7864TIP3    H223557   4.335   5.768   0.530 -0.5271 -0.1640  1.0058
 7865TIP3   OH223558   3.789   1.669   2.087  0.3996  0.1296  0.2373
 7865TIP3    H123559   3.853   1.713   2.030 -1.1499  0.5071 -1.2774
 7865TIP3    H223560   3.784   1.580   2.053 -1.4342  0.6908 -1.0575
 7866TIP3   OH223561   1.418   5.200   1.535  0.3056  0.1708  0.0799
 7866TIP3    H123562   1.484   5.177   1.470 -0.4896 -0.8913 -0.3876
 7866TIP3    H223563   1.335   5.188   1.490 -0.2580  3.3038  0.0279
 7867TIP3   OH223564   4.954   6.373   2.886  0.1059 -0.1961 -0.3620
 7867TIP3    H123565   4.895   6.381   2.811 -0.0144  0.3827 -0.2103
 7867TIP3    H223566   5.004   6.454   2.887  1.7773 -1.1556 -1.1904
 7868TIP3   OH223567   3.308   3.253   4.782 -0.0348  0.2058  0.1122
 7868TIP3    H123568   3.305   3.246   4.687  0.7831  0.5543  0.0478
 7868TIP3    H223569   3.220   3.278   4.808 -0.2370  0.1951 -0.5624
 7869TIP3   OH223570   5.945   0.131   0.011 -0.0880 -0.0097 -0.1178
 7869TIP3    H123571   5.902   0.165   0.090  1.2943  0.8445  0.3099
 7869TIP3    H223572   6.038   0.131   0.033  0.3649  0.5577 -1.8650
 7870TIP3   OH223573   3.501   2.657   3.800  0.0324 -0.3087  0.7492
 7870TIP3    H123574   3.582   2.707   3.797  1.1719 -1.9992  1.8407
 7870TIP3    H223575   3.439   2.709   3.748  0.8878  2.6000  2.3990
 7871TIP3   OH223576   3.133   1.916   3.574 -0.3540 -0.5349  0.2194
 7871TIP3    H123577   3.136   1.902   3.668 -0.6791 -1.2116  0.1324
 7871TIP3    H223578   3.170   2.004   3.562 -1.1244 -0.0706  1.0584
 7872TIP3   OH223579   1.423   0.586   3.675 -0.2922  0.5049  0.1838
 7872TIP3    H123580   1.387   0.647   3.609 -1.3555  0.2746  0.5276
 7872TIP3    H223581   1.513   0.616   3.688 -0.5400  1.5051 -0.2541
 7873TIP3   OH223582   2.389   0.617   5.853  0.1770  0.6814 -0.5969
 7873TIP3    H123583   2.400   0.708   5.879  0.5637  0.0811  1.5615
 7873TIP3    H223584   2.464   0.571   5.891 -0.7140 -0.7456 -0.4649
 7874TIP3   OH223585   3.691   3.440   2.710  0.2497 -0.4285  0.3557
 7874TIP3    H123586   3.750   3.464   2.639 -1.2394  0.2826 -0.6884
 7874TIP3    H223587   3.675   3.523   2.757  0.0613 -0.6075  0.6132
 7875TIP3   OH223588   0.785   2.751   1.434 -0.0886  0.1470  0.0024
 7875TIP3    H123589   0.697   2.722   1.460 -1.0223  1.1858 -1.7924
 7875TIP3    H223590   0.840   2.674   1.449 -1.2979 -0.5662  1.0825
 7876TIP3   OH223591   3.312   0.658   5.637 -0.1476  0.4340  0.2308
 7876TIP3    H123592   3.304   0.721   5.709 -0.1951 -0.1811  0.7751
 7876TIP3    H223593   3.378   0.696   5.579 -1.5329  1.9237 -0.4535
 7877TIP3   OH223594   4.694   2.691   0.903 -0.0471  0.0952  0.2148
 7877TIP3    H123595   4.730   2.770   0.863 -1.9988  0.6342 -0.5791
 7877TIP3    H223596   4.649   2.721   0.981 -0.8995 -0.2072 -0.1535
 7878TIP3   OH223597   0.109   4.348   1.951 -0.0066  0.5467 -0.1362
 7878TIP3    H123598   0.193   4.324   1.990  0.4142  1.5674 -0.3677
 7878TIP3    H223599   0.059   4.387   2.023 -0.9279 -1.4711  0.3908
 7879TIP3   OH223600   6.223   2.040   2.643 -0.0014 -0.1829 -0.1174
 7879TIP3    H123601   6.215   2.006   2.732 -1.1981  3.1126  1.1703
 7879TIP3    H223602   6.133   2.043   2.610 -0.2144  2.8874  0.4352
 7880TIP3   OH223603   5.078   3.109   1.662  0.6541 -0.1849  0.2444
 7880TIP3    H123604   5.013   3.099   1.731  0.1554  0.7366 -0.0635
 7880TIP3    H223605   5.134   3.032   1.669 -0.5334 -1.0622  0.4509
 7881TIP3   OH223606   6.627   6.458   4.155  0.1221 -0.2412  0.0840
 7881TIP3    H123607   6.603   6.385   4.213  1.9220 -1.4557 -0.5947
 7881TIP3    H223608   6.625   6.420   4.067  0.1351  0.8262 -0.3967
 7882TIP3   OH223609   0.776   3.859   2.593  0.3153 -0.3231  0.0197
 7882TIP3    H123610   0.785   3.847   2.498  1.6370  1.4338 -0.1427
 7882TIP3    H223611   0.852   3.813   2.630  0.0073 -0.6926  0.1913
 7883TIP3   OH223612   1.174   2.202   1.550 -0.1221  0.0702  0.0294
 7883TIP3    H123613   1.103   2.139   1.564 -0.0812 -0.1159 -0.5838
 7883TIP3    H223614   1.232   2.160   1.488  1.3009 -0.3780  1.5880
 7884TIP3   OH223615   5.477   6.245   1.300 -0.0635 -0.4175 -0.0798
 7884TIP3    H123616   5.539   6.275   1.232 -1.7145 -1.8483 -2.3661
 7884TIP3    H223617   5.530   6.241   1.379  2.0640  1.1177 -1.2885
 7885TIP3   OH223618   4.701   5.017   4.233  0.8814  0.2339  0.4188
 7885TIP3    H123619   4.768   4.963   4.191  0.7816  0.1636  0.3502
 7885TIP3    H223620   4.689   4.978   4.319 -0.1353 -0.6602 -0.1008
 7886TIP3   OH223621   7.073   3.520   1.518  0.4809  0.2790  0.6454
 7886TIP3    H123622   7.050   3.486   1.431  2.4521  1.1296 -0.2612
 7886TIP3    H223623   7.131   3.454   1.555  0.4899  0.4136  0.8732
 7887TIP3   OH223624   2.664   5.822   1.789  0.0043 -0.0234  0.2435
 7887TIP3    H123625   2.629   5.746   1.742 -1.7689  0.1206  1.2342
 7887TIP3    H223626   2.587   5.876   1.808  0.7404  0.3473  2.5189
 7888TIP3   OH223627   5.373   2.222   5.084  0.2810 -0.6142  0.1163
 7888TIP3    H123628   5.425   2.255   5.010 -0.3726  0.4250  0.0981
 7888TIP3    H223629   5.406   2.133   5.098  0.6856 -0.7028 -1.1823
 7889TIP3   OH223630   2.299   5.127   0.784  0.0571  0.1360  0.2209
 7889TIP3    H123631   2.234   5.094   0.846  1.2119  0.0345  1.4251
 7889TIP3    H223632   2.372   5.066   0.792  1.3841  1.7385  0.9376
 7890TIP3   OH223633   3.412   5.176   1.177 -0.5227 -0.4304 -0.5859
 7890TIP3    H123634   3.330   5.215   1.207  0.0103  1.0610 -0.9418
 7890TIP3    H223635   3.477   5.204   1.242 -0.4892 -2.7475  0.4612
 7891TIP3   OH223636   5.089   3.555   3.025 -0.3517 -0.0653 -0.5501
 7891TIP3    H123637   5.160   3.492   3.016 -0.4059 -0.6614  2.1606
 7891TIP3    H223638   5.109   3.602   3.107 -1.8881  1.3374 -0.9213
 7892TIP3   OH223639   4.934   4.417   4.115  0.3604  0.3811 -0.2437
 7892TIP3    H123640   4.855   4.411   4.168  1.1341 -0.4462  0.8582
 7892TIP3    H223641   4.920   4.354   4.044  1.0407 -1.7166  1.3688
 7893TIP3   OH223642   0.797   4.109   5.780 -0.3073  0.6547  0.5264
 7893TIP3    H123643   0.747   4.091   5.859 -0.2959  2.3704  0.9828
 7893TIP3    H223644   0.737   4.089   5.708 -0.2699 -1.0464  0.9382
 7894TIP3   OH223645   5.836   1.517   0.531 -0.1610  0.0676 -0.0846
 7894TIP3    H123646   5.849   1.570   0.453  0.8680 -0.2332 -0.1404
 7894TIP3    H223647   5.899   1.445   0.522 -1.2236 -0.9288  0.1915
 7895TIP3   OH223648   4.236   1.752   0.990 -0.4209 -0.0647 -0.0219
 7895TIP3    H123649   4.209   1.672   0.944 -2.2558  0.9437 -0.8393
 7895TIP3    H223650   4.232   1.820   0.923 -0.8615  1.0449  1.0917
 7896TIP3   OH223651   5.634   1.228   4.621  0.2385 -0.2362 -0.0255
 7896TIP3    H123652   5.549   1.204   4.658  1.2915 -3.1053  0.8010
 7896TIP3    H223653   5.698   1.184   4.677  2.1985  0.4457 -1.6179
 7897TIP3   OH223654   1.076   5.203   4.165 -0.3119 -0.1514 -0.1215
 7897TIP3    H123655   1.022   5.280   4.149  0.7227  0.3227 -1.5474
 7897TIP3    H223656   1.063   5.148   4.088  1.5710  0.2096 -0.7445
 7898TIP3   OH223657   1.739   1.355   4.784 -0.0923  0.1653  0.1396
 7898TIP3    H123658   1.692   1.437   4.771  2.1057  1.2919 -1.3560
 7898TIP3    H223659   1.831   1.380   4.785  0.6199 -2.1706  0.8294
 7899TIP3   OH223660   5.126   3.863   3.086  0.2019  0.0339 -0.5117
 7899TIP3    H123661   5.048   3.868   3.141 -0.8400 -0.4175 -1.9035
 7899TIP3    H223662   5.108   3.922   3.013  0.8834 -0.5660 -1.1825
 7900TIP3   OH223663   0.950   2.615   5.192  0.5422  0.3308  0.2131
 7900TIP3    H123664   0.941   2.673   5.117  1.1425  0.4759  0.2505
 7900TIP3    H223665   0.863   2.612   5.231  0.3162  0.5469 -0.2729
 7901TIP3   OH223666   2.738   3.139   0.369  0.2934  0.1302  0.2517
 7901TIP3    H123667   2.650   3.169   0.349  0.2962  0.2996  0.4844
 7901TIP3    H223668   2.750   3.061   0.315  0.4443  0.7822 -0.6945
 7902TIP3   OH223669   0.772   5.505   2.277 -0.4230  0.0150 -0.0705
 7902TIP3    H123670   0.779   5.508   2.372 -2.6735 -0.7003  0.1715
 7902TIP3    H223671   0.788   5.596   2.249 -0.3509  0.3518  1.0326
 7903TIP3   OH223672   4.319   0.951   2.313 -0.2532  0.6467  0.1045
 7903TIP3    H123673   4.323   1.036   2.358  1.5270  0.7605 -0.1762
 7903TIP3    H223674   4.343   0.887   2.381 -0.0885  0.5455 -0.0471
 7904TIP3   OH223675   5.140   2.132   5.474  0.6947 -0.2188 -0.3053
 7904TIP3    H123676   5.167   2.223   5.461 -1.0941  0.2573 -0.9172
 7904TIP3    H223677   5.198   2.082   5.417  2.2939  0.3986  0.6912
 7905TIP3   OH223678   6.398   1.621   3.055  0.6930  0.1750  0.0445
 7905TIP3    H123679   6.343   1.551   3.022  0.9147  0.1622 -0.3008
 7905TIP3    H223680   6.354   1.650   3.135 -0.0372  0.4486 -0.4466
 7906TIP3   OH223681   2.393   4.673   2.979 -0.1447  0.1494  0.0294
 7906TIP3    H123682   2.481   4.639   2.992 -0.1436  0.3310  0.5106
 7906TIP3    H223683   2.403   4.768   2.974 -0.3211  0.1754  0.1551
 7907TIP3   OH223684   5.467   1.966   5.132 -0.1667  0.5454 -0.8381
 7907TIP3    H123685   5.462   1.898   5.065 -1.1309  1.6540 -1.9314
 7907TIP3    H223686   5.554   1.956   5.170 -0.0854 -0.9245 -1.3564
 7908TIP3   OH223687   1.270   1.363   1.752  0.1861  0.6911  0.3576
 7908TIP3    H123688   1.281   1.456   1.776  1.0120  0.2753  1.6986
 7908TIP3    H223689   1.303   1.357   1.663  0.2861  1.6574  0.3141
 7909TIP3   OH223690   5.836   6.637   1.475  0.2326 -0.0874  0.1224
 7909TIP3    H123691   5.765   6.632   1.539  0.6089  0.5480  0.6071
 7909TIP3    H223692   5.794   6.617   1.391 -0.1475 -1.5231  0.6270
 7910TIP3   OH223693   5.839   5.776   2.086  0.1320  0.1777 -0.2120
 7910TIP3    H123694   5.767   5.829   2.050 -0.2961 -0.6741 -0.6368
 7910TIP3    H223695   5.809   5.754   2.174  0.0098  0.0801 -0.2772
 7911TIP3   OH223696   4.287   5.927   2.353 -0.0424 -0.4370 -0.5517
 7911TIP3    H123697   4.298   5.899   2.444  1.8333  0.3247 -0.4966
 7911TIP3    H223698   4.310   6.020   2.354 -0.4357 -0.3086 -1.7500
 7912TIP3   OH223699   0.369   1.544   2.582  0.5538  0.4026 -0.0718
 7912TIP3    H123700   0.381   1.451   2.599 -0.0501  0.4729  0.7691
 7912TIP3    H223701   0.274   1.555   2.575  0.6610  0.7728 -1.2920
 7913TIP3   OH223702   1.798   6.347   1.855 -0.5004 -0.1030  0.0580
 7913TIP3    H123703   1.752   6.263   1.850 -0.0505 -0.3396 -0.2529
 7913TIP3    H223704   1.811   6.362   1.949 -0.7597 -0.2812  0.1231
 7914TIP3   OH223705   2.689   6.740   0.768  0.2163 -0.0314  0.3048
 7914TIP3    H123706   2.706   6.647   0.775  0.0990 -0.0608  0.1979
 7914TIP3    H223707   2.732   6.767   0.687 -0.0788 -0.0678  0.1362
 7915TIP3   OH223708   4.401   3.298   4.400  0.3094 -0.4306 -0.3902
 7915TIP3    H123709   4.359   3.213   4.416  0.7018 -0.5355  0.0986
 7915TIP3    H223710   4.486   3.277   4.362  0.1876 -0.2386 -0.7702
 7916TIP3   OH223711   3.605   3.392   4.642  0.3886 -0.2053 -0.0021
 7916TIP3    H123712   3.580   3.390   4.734  1.1057 -0.0879  0.2005
 7916TIP3    H223713   3.635   3.303   4.623 -1.4080 -0.7195 -0.6076
 7917TIP3   OH223714   1.829   0.242   0.157 -0.3491 -0.7946  0.3710
 7917TIP3    H123715   1.883   0.284   0.090 -1.1240 -0.6799 -0.1936
 7917TIP3    H223716   1.803   0.158   0.119 -0.7320 -0.7619  0.5544
 7918TIP3   OH223717   6.116   1.665   4.929 -0.2858 -0.4288  0.1102
 7918TIP3    H123718   6.149   1.662   5.019 -0.9078 -2.0663  0.3144
 7918TIP3    H223719   6.188   1.703   4.879 -0.0010  0.6915  1.3113
 7919TIP3   OH223720   3.740   0.376   2.150  0.1456  0.2695  0.3747
 7919TIP3    H123721   3.695   0.417   2.224 -0.8208 -1.1702  0.6363
 7919TIP3    H223722   3.788   0.302   2.189  0.9955  0.4955 -0.2173
 7920TIP3   OH223723   6.495   4.869   1.571 -0.2934 -0.2869 -0.1296
 7920TIP3    H123724   6.438   4.826   1.635  1.4391 -0.4564  1.3871
 7920TIP3    H223725   6.538   4.939   1.621 -1.5601  1.9964 -2.0453
 7921TIP3   OH223726   6.619   1.048  -0.012  0.1768 -0.0458  0.6017
 7921TIP3    H123727   6.709   1.068  -0.037 -0.0695  0.4948  0.1359
 7921TIP3    H223728   6.628   0.982   0.058  0.8894 -1.2352 -0.5698
 7922TIP3   OH223729   0.404   3.549   3.943 -0.4711 -0.0978 -0.2654
 7922TIP3    H123730   0.419   3.544   4.038  0.6032  0.2386 -0.4058
 7922TIP3    H223731   0.487   3.525   3.904 -0.2004  1.9371 -1.0895
 7923TIP3   OH223732   3.234   6.258   0.898 -0.2499 -0.2167  0.2277
 7923TIP3    H123733   3.249   6.183   0.840  1.3865 -0.6814  1.1860
 7923TIP3    H223734   3.261   6.334   0.846 -1.6001 -0.2830 -0.6276
 7924TIP3   OH223735   0.225   3.326   5.407  0.1335  0.2858  0.0863
 7924TIP3    H123736   0.239   3.291   5.494 -1.2637  0.0267  0.2358
 7924TIP3    H223737   0.229   3.250   5.349 -0.5268  0.2168  0.1250
 7925TIP3   OH223738   6.997   3.403   1.259  0.0157  0.1218  0.3068
 7925TIP3    H123739   7.021   3.383   1.169  1.1610 -2.6068  1.1120
 7925TIP3    H223740   6.901   3.408   1.259  0.0048  0.0365 -1.0231
 7926TIP3   OH223741   0.091   0.428   3.630 -0.3403  0.0112 -0.9339
 7926TIP3    H123742   0.133   0.359   3.680  1.2727 -0.0439 -2.2950
 7926TIP3    H223743   0.016   0.454   3.683 -0.0094 -1.6111  0.3857
 7927TIP3   OH223744   7.177   0.543   1.925 -0.8828  0.1879  0.1629
 7927TIP3    H123745   7.233   0.617   1.902  0.2124 -0.5051  0.5396
 7927TIP3    H223746   7.099   0.583   1.963 -0.5727  1.1683 -0.1952
 7928TIP3   OH223747   0.435   5.537   2.513  0.0454 -1.0449 -0.1984
 7928TIP3    H123748   0.429   5.490   2.429  0.4355  0.3638 -1.0514
 7928TIP3    H223749   0.526   5.524   2.541  0.1277 -0.8903 -0.3883
 7929TIP3   OH223750   3.078   2.353   1.406 -0.0888 -0.9300  0.0876
 7929TIP3    H123751   3.074   2.445   1.381  0.5488 -0.2976  2.0819
 7929TIP3    H223752   2.987   2.323   1.402 -0.2784 -0.2799 -0.7529
 7930TIP3   OH223753   6.274   0.566   2.907  0.2728 -0.3460 -0.1045
 7930TIP3    H123754   6.261   0.660   2.892  2.5870 -0.1569 -1.3847
 7930TIP3    H223755   6.187   0.528   2.898 -1.0700  1.8429  2.2481
 7931TIP3   OH223756   4.223   3.486   3.842  1.0376 -0.0920 -0.3532
 7931TIP3    H123757   4.262   3.573   3.839  2.0916 -0.3722  2.1499
 7931TIP3    H223758   4.277   3.438   3.905  0.1475 -2.3937 -1.2181
 7932TIP3   OH223759   1.813   1.559   5.259  0.3616 -0.4957  0.3420
 7932TIP3    H123760   1.817   1.466   5.280  0.6818 -0.5433  0.0735
 7932TIP3    H223761   1.890   1.575   5.204 -0.2494 -0.2902 -0.4726
 7933TIP3   OH223762   2.042   0.245   1.273  0.0028 -0.5248 -0.0589
 7933TIP3    H123763   1.950   0.251   1.298 -0.4646  0.6721 -1.8445
 7933TIP3    H223764   2.050   0.160   1.230 -0.2964 -0.5916  0.0139
 7934TIP3   OH223765   0.610   6.641   4.625  0.4568 -0.0535  0.0509
 7934TIP3    H123766   0.703   6.643   4.601  0.5123 -1.2371  0.1116
 7934TIP3    H223767   0.567   6.689   4.554  1.1092  0.5075  0.0189
 7935TIP3   OH223768   4.539   0.176   0.152  0.2114  0.5785 -0.5095
 7935TIP3    H123769   4.494   0.156   0.069 -2.1281 -0.5732  0.9421
 7935TIP3    H223770   4.610   0.112   0.155  0.3677  0.6649 -1.6443
 7936TIP3   OH223771   0.482   0.760   4.691 -0.7440  0.1749  0.0690
 7936TIP3    H123772   0.457   0.698   4.622 -0.7180 -0.8497  0.9554
 7936TIP3    H223773   0.557   0.719   4.734 -0.7004  0.8501  0.6564
 7937TIP3   OH223774   4.817   3.377   5.588 -0.0821  0.3198  0.2678
 7937TIP3    H123775   4.725   3.356   5.602 -0.2944  0.1454 -1.1990
 7937TIP3    H223776   4.852   3.395   5.676 -1.6134  0.8458  0.8012
 7938TIP3   OH223777   6.023   0.331   3.014 -0.3477 -0.2145  0.2894
 7938TIP3    H123778   5.995   0.272   2.943 -0.2392  0.4558 -0.3177
 7938TIP3    H223779   6.024   0.418   2.974 -2.0327  0.4605  1.5770
 7939TIP3   OH223780   5.106   0.199   3.924  0.1161 -0.1282  0.5204
 7939TIP3    H123781   5.137   0.258   3.856  0.5745  1.0311  1.6911
 7939TIP3    H223782   5.028   0.158   3.888  1.3946 -1.0065 -1.4381
 7940TIP3   OH223783   6.882   4.854   4.742 -0.1101 -0.2375  0.1627
 7940TIP3    H123784   6.793   4.873   4.773 -1.6485 -2.2372 -2.6197
 7940TIP3    H223785   6.907   4.774   4.787 -0.2132 -0.3459  0.0253
 7941TIP3   OH223786   5.242   5.747   0.980  0.3022  0.2263 -0.4406
 7941TIP3    H123787   5.276   5.693   0.908  1.7051  0.8905 -0.3133
 7941TIP3    H223788   5.302   5.729   1.053  0.7529  1.8547 -0.3701
 7942TIP3   OH223789   2.199   0.336   1.053  0.0614 -0.2929  0.0693
 7942TIP3    H123790   2.146   0.353   0.975 -0.3614  0.7162  0.5517
 7942TIP3    H223791   2.135   0.317   1.122  0.4032 -0.7024  0.2754
 7943TIP3   OH223792   6.148   1.612   0.442 -0.0282  0.3257  0.1124
 7943TIP3    H123793   6.175   1.704   0.437  0.8314  0.0550 -0.5242
 7943TIP3    H223794   6.165   1.587   0.532 -2.1982  1.3324  0.8735
 7944TIP3   OH223795   2.122   4.707   4.265  1.1036 -0.1205  0.1184
 7944TIP3    H123796   2.213   4.693   4.236  1.3596  0.2121  0.7475
 7944TIP3    H223797   2.095   4.787   4.220  0.6344 -0.9518 -1.1621
 7945TIP3   OH223798   0.944   0.366   1.001 -0.6738 -0.5339  0.4462
 7945TIP3    H123799   1.007   0.341   1.069  0.2554  0.6573  0.0467
 7945TIP3    H223800   0.862   0.379   1.048 -0.1413 -0.1357  1.2882
 7946TIP3   OH223801   0.080   6.824   2.252  0.5514  0.2758 -0.2698
 7946TIP3    H123802   0.011   6.760   2.269  0.0287  1.6360  4.1357
 7946TIP3    H223803   0.162   6.775   2.263  0.3541 -0.6771 -2.4829
 7947TIP3   OH223804   0.443   0.545   0.430 -0.5531  0.3480  0.3256
 7947TIP3    H123805   0.430   0.603   0.505  0.6978  3.1535 -1.4710
 7947TIP3    H223806   0.513   0.486   0.457  0.8937  2.2448  0.9336
 7948TIP3   OH223807   1.139   0.971   3.063 -0.0400 -0.7401  0.5036
 7948TIP3    H123808   1.050   0.936   3.063 -0.0003 -0.9546 -1.3685
 7948TIP3    H223809   1.187   0.916   3.001  1.1610 -0.0699  0.8041
 7949TIP3   OH223810   2.550   3.418   1.387  0.5115  0.2793 -0.0651
 7949TIP3    H123811   2.482   3.438   1.322  1.3465  0.4610 -0.9078
 7949TIP3    H223812   2.545   3.489   1.450 -1.7117 -0.9527  1.3028
 7950TIP3   OH223813   5.724   4.884   0.234 -0.3550  0.3551  0.6512
 7950TIP3    H123814   5.779   4.828   0.179  0.6452  1.6934  0.2519
 7950TIP3    H223815   5.739   4.854   0.323  0.1227 -0.0471  0.4377
 7951TIP3   OH223816   1.104   0.463   2.412 -1.0532 -0.1280 -0.7592
 7951TIP3    H123817   1.171   0.415   2.363  0.8732  1.7909 -0.1704
 7951TIP3    H223818   1.092   0.545   2.363  0.2539  1.4341  1.3611
 7952TIP3   OH223819   4.204   5.064   1.962 -0.0808  0.2344  0.3952
 7952TIP3    H123820   4.198   5.027   2.050 -0.5527 -0.8508 -0.0799
 7952TIP3    H223821   4.114   5.092   1.942 -0.0111  0.3086  0.1844
 7953TIP3   OH223822   4.410   6.414   2.634 -0.4542 -0.5588  0.0990
 7953TIP3    H123823   4.465   6.340   2.657 -0.0491 -0.4545 -0.5223
 7953TIP3    H223824   4.366   6.387   2.553  0.3121  0.1913 -0.5762
 7954TIP3   OH223825   1.960   4.265   2.408 -0.2940  0.0487 -0.1411
 7954TIP3    H123826   1.972   4.185   2.459  1.0690 -0.1608 -0.7444
 7954TIP3    H223827   1.867   4.266   2.386 -0.8889  0.0432  2.1365
 7955TIP3   OH223828   3.655   5.218   0.057 -0.0887 -0.7289 -0.2202
 7955TIP3    H123829   3.590   5.273   0.013 -0.3167 -0.1599  0.8047
 7955TIP3    H223830   3.622   5.129   0.046 -0.8565 -0.4755 -0.0193
 7956TIP3   OH223831   5.471   5.469   2.523 -0.4923 -0.6027  0.4877
 7956TIP3    H123832   5.565   5.454   2.526 -0.0199  1.7794  0.0726
 7956TIP3    H223833   5.433   5.383   2.505  1.7488 -1.3216 -1.2776
 7957TIP3   OH223834   3.964   6.732   1.789  0.0528  0.5440 -0.3826
 7957TIP3    H123835   3.907   6.791   1.837  0.1937  0.2689  0.1286
 7957TIP3    H223836   3.905   6.661   1.761  0.0127  0.5986 -0.4382
 7958TIP3   OH223837   1.320   2.886   3.873 -0.2435 -0.0735 -0.2489
 7958TIP3    H123838   1.273   2.954   3.824 -0.7472 -1.0270 -1.1135
 7958TIP3    H223839   1.315   2.916   3.964  0.4606  1.5711 -0.7191
 7959TIP3   OH223840   0.597   5.672   4.635  0.4021 -0.2847 -0.3183
 7959TIP3    H123841   0.659   5.624   4.690 -0.0678  0.0605  0.5363
 7959TIP3    H223842   0.560   5.738   4.693  0.6334  0.7591 -1.3300
 7960TIP3   OH223843   0.566   6.524   2.492  0.3708  0.3530  0.2492
 7960TIP3    H123844   0.606   6.445   2.456  0.2652  0.3676  0.1036
 7960TIP3    H223845   0.609   6.596   2.447  1.3919  0.4238  1.2956
 7961TIP3   OH223846   5.607   5.649   0.149  0.3437  0.3701  0.3641
 7961TIP3    H123847   5.615   5.687   0.236 -1.0123 -1.4454  1.3593
 7961TIP3    H223848   5.686   5.597   0.137  0.6188  0.7732  0.4260
 7962TIP3   OH223849   3.088   6.267   2.490  0.4551  0.0110  0.2955
 7962TIP3    H123850   3.101   6.304   2.403 -0.9945 -3.0372 -1.3625
 7962TIP3    H223851   3.019   6.202   2.479 -0.1156 -0.2014  3.8502
 7963TIP3   OH223852   2.791   1.775   5.843  0.5186 -0.5175 -0.1208
 7963TIP3    H123853   2.829   1.854   5.881  1.1150 -0.3977 -0.9308
 7963TIP3    H223854   2.865   1.717   5.828  0.2046 -0.8572 -0.3885
 7964TIP3   OH223855   3.550   3.285   4.097 -0.4129 -0.2234  0.0488
 7964TIP3    H123856   3.469   3.238   4.080  0.4741 -1.3875 -1.1580
 7964TIP3    H223857   3.594   3.235   4.166 -0.7622  0.4953  0.8175
 7965TIP3   OH223858   3.947   5.337   0.069  0.4763  0.4653  0.5921
 7965TIP3    H123859   3.969   5.320   0.160  2.0805  0.5015  0.2475
 7965TIP3    H223860   3.859   5.375   0.072 -0.7981 -2.2711  1.8540
 7966TIP3   OH223861   5.129   1.846   5.070 -0.2366  0.1211 -0.0292
 7966TIP3    H123862   5.173   1.913   5.017 -0.1398 -0.1997 -0.3569
 7966TIP3    H223863   5.036   1.860   5.055 -0.1961 -0.4424 -0.8817
 7967TIP3   OH223864   2.689   4.628   2.792 -0.8603  0.1499  0.1069
 7967TIP3    H123865   2.614   4.600   2.739  1.0017 -1.7398 -1.7245
 7967TIP3    H223866   2.733   4.547   2.817 -0.2420  1.1303  2.4858
 7968TIP3   OH223867   0.275   4.875   4.157 -0.3233 -0.0824  0.0017
 7968TIP3    H123868   0.348   4.918   4.111  0.1466  1.3395  1.9426
 7968TIP3    H223869   0.282   4.783   4.131  2.1661  0.0125  0.0848
 7969TIP3   OH223870   2.454   2.975   3.525 -0.1318 -0.0154 -0.6754
 7969TIP3    H123871   2.359   2.971   3.520 -0.1137  0.2791 -1.3099
 7969TIP3    H223872   2.484   2.892   3.487 -0.1366 -0.1938 -0.2952
 7970TIP3   OH223873   3.422   4.543   3.257 -0.0332  0.4519 -0.3869
 7970TIP3    H123874   3.491   4.582   3.311 -1.7060  0.8672  1.5437
 7970TIP3    H223875   3.361   4.615   3.240 -0.2551 -0.0190 -1.6636
 7971TIP3   OH223876   2.552   6.161   3.782 -0.1387 -0.0677 -0.2589
 7971TIP3    H123877   2.646   6.166   3.802 -0.3015  1.1496  0.3458
 7971TIP3    H223878   2.522   6.084   3.830  0.6746 -0.9018 -1.0469
 7972TIP3   OH223879   0.348   2.539   3.086 -0.4734  0.2360 -0.0633
 7972TIP3    H123880   0.360   2.550   2.991  3.1674 -1.7692  0.0067
 7972TIP3    H223881   0.422   2.585   3.125  0.4780 -2.3948  1.4920
 7973TIP3   OH223882   6.144   4.784   4.524 -0.0349  0.6172  0.6142
 7973TIP3    H123883   6.120   4.696   4.496 -0.2307 -0.0470  2.6652
 7973TIP3    H223884   6.065   4.837   4.507  0.3854  0.6711 -1.4706
 7974TIP3   OH223885   7.176   0.938   0.186 -0.6157  0.4602 -0.0480
 7974TIP3    H123886   7.104   0.975   0.237 -0.6114  0.7719 -0.2655
 7974TIP3    H223887   7.140   0.925   0.098 -1.2348 -1.9437  0.4953
 7975TIP3   OH223888   6.903   1.033   3.883  0.0833  0.5376  0.3325
 7975TIP3    H123889   6.898   0.973   3.957  0.4571  3.2352  2.7463
 7975TIP3    H223890   6.877   1.118   3.919  2.5694  2.5044 -2.0524
 7976TIP3   OH223891   6.132   4.794   1.565 -0.0595  0.3380 -0.0526
 7976TIP3    H123892   6.208   4.778   1.620 -0.2842 -0.9886 -0.0866
 7976TIP3    H223893   6.074   4.848   1.620 -1.2207 -2.6616  1.9691
 7977TIP3   OH223894   3.229   0.755   5.223  0.0781  0.3426  0.3492
 7977TIP3    H123895   3.252   0.662   5.215 -0.4790  0.2215  0.0249
 7977TIP3    H223896   3.291   0.790   5.286 -0.4713 -0.5330  1.4065
 7978TIP3   OH223897   1.345   3.917   5.327  0.0722  0.3291 -0.5231
 7978TIP3    H123898   1.370   3.861   5.401 -1.7065  0.2785  0.0812
 7978TIP3    H223899   1.394   3.998   5.342  1.0921 -0.3029 -0.2819
 7979TIP3   OH223900   4.450   1.416   0.368  0.3976  0.1285 -0.3567
 7979TIP3    H123901   4.405   1.341   0.329  1.2479 -1.7905  2.0704
 7979TIP3    H223902   4.389   1.450   0.434  0.1585  1.4133 -1.2005
 7980TIP3   OH223903   2.382   2.577   3.304 -0.4007  0.3502  0.1653
 7980TIP3    H123904   2.430   2.616   3.377 -0.0691  0.0104  0.1292
 7980TIP3    H223905   2.379   2.484   3.323  1.1580 -0.0067 -1.0538
 7981TIP3   OH223906   0.725   6.816   5.456 -0.4014 -0.1919 -0.3234
 7981TIP3    H123907   0.765   6.798   5.371  0.5798  0.8063 -0.1102
 7981TIP3    H223908   0.737   6.735   5.506  1.1666 -0.0160 -0.3645
 7982TIP3   OH223909   2.533   1.744   3.335  0.3137 -0.1761 -0.2425
 7982TIP3    H123910   2.607   1.800   3.357 -0.1202  0.1414  0.4268
 7982TIP3    H223911   2.557   1.705   3.250  0.5837  1.0798 -0.7694
 7983TIP3   OH223912   0.200   1.543   3.281 -0.0457  0.2053  0.4345
 7983TIP3    H123913   0.131   1.499   3.231 -2.8964 -0.2952  4.2799
 7983TIP3    H223914   0.181   1.636   3.270 -0.0858  0.1325 -0.1222
 7984TIP3   OH223915   0.297   3.738   1.971 -0.3682 -0.1155 -0.1630
 7984TIP3    H123916   0.210   3.739   1.932 -2.1852 -2.2281  3.2648
 7984TIP3    H223917   0.313   3.828   1.999 -2.4626 -0.0095  0.8938
 7985TIP3   OH223918   3.867   4.754   4.429 -0.3035 -0.1382  0.0412
 7985TIP3    H123919   3.814   4.722   4.357  1.9362 -3.2820 -0.4084
 7985TIP3    H223920   3.949   4.783   4.388  0.2834 -0.1654  1.1392
 7986TIP3   OH223921   4.706   3.583   5.163 -0.4693 -0.0373  1.1660
 7986TIP3    H123922   4.756   3.639   5.105 -1.8458  0.4419  0.4065
 7986TIP3    H223923   4.728   3.494   5.136 -1.7010  0.1731 -0.6801
 7987TIP3   OH223924   0.462   3.721   0.564  0.2834 -0.2494  0.4687
 7987TIP3    H123925   0.492   3.749   0.477  0.9918 -0.3229  0.6808
 7987TIP3    H223926   0.394   3.656   0.546 -0.8146  0.9949 -0.0318
 7988TIP3   OH223927   0.284   6.383   1.553 -0.7240  0.2603 -0.3607
 7988TIP3    H123928   0.204   6.374   1.502 -2.0662  1.9661  1.3112
 7988TIP3    H223929   0.266   6.337   1.635 -0.5205  1.7383  0.5478
 7989TIP3   OH223930   3.087   4.396   3.966  0.2560 -0.4770 -0.1597
 7989TIP3    H123931   3.125   4.463   3.909 -0.4593  0.5128  0.4684
 7989TIP3    H223932   3.000   4.431   3.988  0.6299 -0.6485  1.7818
 7990TIP3   OH223933   3.267   4.798   0.071 -0.0956  0.4462 -0.2555
 7990TIP3    H123934   3.339   4.782   0.011 -0.0243  2.2095 -0.6684
 7990TIP3    H223935   3.189   4.771   0.023  0.2027 -1.2318  0.1045
 7991TIP3   OH223936   0.821   4.177   4.869 -0.2747 -0.1295 -0.0591
 7991TIP3    H123937   0.808   4.092   4.829  1.4114 -1.3363  1.7692
 7991TIP3    H223938   0.763   4.178   4.945 -1.5675  1.1024 -1.0089
 7992TIP3   OH223939   7.146   2.511   4.553  0.6024 -0.5818  0.2230
 7992TIP3    H123940   7.064   2.557   4.535  0.5674 -0.5393  0.4795
 7992TIP3    H223941   7.120   2.435   4.606  0.9030  0.3942  1.8443
 7993TIP3   OH223942   6.498   1.413   3.254 -0.6046  0.2816 -0.4984
 7993TIP3    H123943   6.478   1.491   3.202 -0.4690  0.5285 -0.1820
 7993TIP3    H223944   6.585   1.387   3.224 -0.5183  0.4346 -0.3817
 7994TIP3   OH223945   5.126   5.565   4.968  0.3970  0.0834  0.4878
 7994TIP3    H123946   5.067   5.602   5.034 -0.2195  0.1098 -0.0604
 7994TIP3    H223947   5.195   5.522   5.018 -0.9867 -1.3955  1.1984
 7995TIP3   OH223948   5.875   1.240   5.510  0.0604 -0.3358  0.1425
 7995TIP3    H123949   5.818   1.230   5.586 -0.7859 -0.0166 -0.4472
 7995TIP3    H223950   5.948   1.180   5.528  1.1521  1.4661  2.3504
 7996TIP3   OH223951   4.720   5.864   4.648 -0.1277  0.0839  0.4305
 7996TIP3    H123952   4.706   5.770   4.660  1.1699 -0.0099  1.3906
 7996TIP3    H223953   4.811   5.872   4.620 -0.2135  1.0661  0.3858
 7997TIP3   OH223954   4.506   2.306   3.556 -0.1801  0.3944 -0.2932
 7997TIP3    H123955   4.501   2.398   3.583  0.1199  0.5605 -0.7808
 7997TIP3    H223956   4.418   2.271   3.572  0.4283 -0.0364  2.6469
 7998TIP3   OH223957   5.707   6.684   1.186 -0.4478 -0.1290 -0.3008
 7998TIP3    H123958   5.639   6.752   1.181  0.6726  1.0029 -0.4417
 7998TIP3    H223959   5.781   6.720   1.137  0.5045 -1.0621  0.4118
 7999TIP3   OH223960   4.378   0.656   1.861  0.2557  1.0596  0.5507
 7999TIP3    H123961   4.469   0.650   1.892 -0.1363  0.6057  1.6682
 7999TIP3    H223962   4.332   0.588   1.910 -1.0271  2.3670  1.2168
 8000TIP3   OH223963   1.445   6.472   2.166  0.7105 -0.0072 -0.4244
 8000TIP3    H123964   1.449   6.383   2.132  1.1088 -0.2015  0.1403
 8000TIP3    H223965   1.378   6.514   2.112 -1.6836 -1.4788  1.2098
 8001TIP3   OH223966   1.953   6.413   5.853 -0.0270 -0.8727  0.2246
 8001TIP3    H123967   1.885   6.365   5.806 -1.7250  1.0547  0.5793
 8001TIP3    H223968   1.912   6.497   5.875  2.6669  0.6057 -0.0393
 8002TIP3   OH223969   5.570   5.207   3.057 -0.3295  0.5004  0.0151
 8002TIP3    H123970   5.633   5.169   2.996 -0.1224  1.6114 -0.4857
 8002TIP3    H223971   5.511   5.259   3.003 -1.3786 -0.0948  0.5411
 8003TIP3   OH223972   0.121   2.106   5.714  0.2676 -0.1129  0.0542
 8003TIP3    H123973   0.129   2.107   5.619 -0.9053 -0.2371 -0.0628
 8003TIP3    H223974   0.108   2.198   5.738 -3.3931 -0.3829 -0.3438
 8004TIP3   OH223975   0.881   1.613   0.323  0.2035 -0.3017 -0.8274
 8004TIP3    H123976   0.796   1.646   0.291 -0.4006 -1.9847 -1.0620
 8004TIP3    H223977   0.878   1.626   0.418  0.0710  0.4975 -0.9392
 8005TIP3   OH223978   0.662   3.988   3.520 -0.4517 -0.2123 -0.3553
 8005TIP3    H123979   0.614   3.929   3.579  0.9811 -0.8169  0.2419
 8005TIP3    H223980   0.669   4.070   3.568  0.7357 -0.7112  0.3763
 8006TIP3   OH223981   0.844   1.548   3.851 -0.2885  0.7367 -0.4327
 8006TIP3    H123982   0.804   1.628   3.887 -1.1510 -0.4248  1.3357
 8006TIP3    H223983   0.875   1.574   3.764 -1.3918  2.7475 -0.2965
 8007TIP3   OH223984   0.734   6.108   2.106 -0.3656  0.0605 -0.0158
 8007TIP3    H123985   0.661   6.069   2.155 -1.4063  1.5407 -0.3167
 8007TIP3    H223986   0.746   6.050   2.031 -0.5471 -0.7521  0.5656
 8008TIP3   OH223987   6.835   0.048   0.836 -0.5789 -0.4843  0.2584
 8008TIP3    H123988   6.798   0.020   0.753 -1.3442  0.4158  0.2797
 8008TIP3    H223989   6.760   0.066   0.892 -0.1197  0.4570  0.6127
 8009TIP3   OH223990   1.313   5.909   1.791  0.2493  0.2533 -0.3164
 8009TIP3    H123991   1.337   6.001   1.801  1.4930 -0.0940  0.0451
 8009TIP3    H223992   1.373   5.875   1.724 -0.4042 -0.2330 -0.6792
 8010TIP3   OH223993   4.631   0.867   3.707 -0.7026  0.3864  0.0310
 8010TIP3    H123994   4.645   0.904   3.619  0.7052  1.3706  0.6248
 8010TIP3    H223995   4.711   0.819   3.726 -0.0852  1.9127  1.5645
 8011TIP3   OH223996   2.994   2.892   5.840  0.4738 -0.1610  0.0867
 8011TIP3    H123997   3.035   2.971   5.875 -0.1162  0.7213 -1.1366
 8011TIP3    H223998   3.042   2.875   5.758 -1.5208  0.8943 -1.3821
 8012TIP3   OH223999   5.361   3.963   1.630 -0.4660 -0.3391  0.0448
 8012TIP3    H124000   5.329   3.895   1.570  2.4915 -0.8612 -1.1080
 8012TIP3    H224001   5.374   4.040   1.575  0.0234 -0.0933  0.4859
 8013TIP3   OH224002   3.323   2.774   3.612 -0.0843 -0.0311 -0.1628
 8013TIP3    H124003   3.296   2.866   3.620  1.6942  0.5421 -0.1943
 8013TIP3    H224004   3.284   2.744   3.530 -0.4944  0.7705 -0.2740
 8014TIP3   OH224005   1.481   3.724   2.134  0.1104 -0.2763 -0.0789
 8014TIP3    H124006   1.547   3.662   2.163 -1.2720 -0.8101  2.1337
 8014TIP3    H224007   1.438   3.681   2.060  1.7937 -0.1429 -1.2036
 8015TIP3   OH224008   0.253   1.539   2.043  0.1277 -0.6192  0.1993
 8015TIP3    H124009   0.298   1.611   2.000 -0.4781 -0.0875  0.4437
 8015TIP3    H224010   0.224   1.575   2.127 -1.1071 -0.8236 -0.1236
 8016TIP3   OH224011   1.715   6.365   5.323 -0.3354 -0.6869  0.7400
 8016TIP3    H124012   1.806   6.338   5.334  0.0049  0.4645  0.7964
 8016TIP3    H224013   1.699   6.427   5.395 -1.0015 -0.4740  0.4161
 8017TIP3   OH224014   0.798   6.592   2.167 -0.2117 -0.0480  0.6577
 8017TIP3    H124015   0.726   6.654   2.156  0.0278  0.3669  1.3553
 8017TIP3    H224016   0.851   6.630   2.237  2.3051  1.2135 -1.7239
 8018TIP3   OH224017   5.390   1.463   0.546  0.1642 -0.3860 -0.4220
 8018TIP3    H124018   5.426   1.492   0.462 -0.4304  0.0990 -0.5264
 8018TIP3    H224019   5.466   1.448   0.601  0.5373  0.2555 -0.7423
 8019TIP3   OH224020   3.416   1.711   0.142 -0.3175 -0.3812  0.4404
 8019TIP3    H124021   3.363   1.781   0.104 -1.0009 -1.6976 -1.1544
 8019TIP3    H224022   3.444   1.659   0.067  3.0322  0.0609  1.2398
 8020TIP3   OH224023   0.679   6.267   4.703 -0.1298  0.3369 -0.3051
 8020TIP3    H124024   0.647   6.310   4.782  1.2417  0.4731  0.1899
 8020TIP3    H224025   0.662   6.331   4.633 -1.2557  0.2550 -0.1299
 8021TIP3   OH224026   1.520   6.236   3.794  0.3357 -0.7217  0.1772
 8021TIP3    H124027   1.594   6.260   3.739 -0.3508 -0.5281 -0.6871
 8021TIP3    H224028   1.553   6.165   3.849  0.9725 -1.0861 -0.6488
 8022TIP3   OH224029   5.699   4.312   0.685 -0.1235  0.2048  0.3620
 8022TIP3    H124030   5.767   4.364   0.641 -0.8542  1.4362  0.6210
 8022TIP3    H224031   5.735   4.224   0.689  1.1850  0.6867 -0.0898
 8023TIP3   OH224032   6.216   3.337   1.115  0.0886  0.1224 -0.5512
 8023TIP3    H124033   6.141   3.277   1.119 -1.1707  1.6906  0.8207
 8023TIP3    H224034   6.291   3.281   1.135 -0.9644 -1.1106  0.1899
 8024TIP3   OH224035   1.419   1.959   1.407  0.1210 -0.3353 -0.1413
 8024TIP3    H124036   1.467   1.894   1.356  0.3274 -0.2129 -0.1062
 8024TIP3    H224037   1.350   1.989   1.350  1.0431  0.6428 -0.7779
 8025TIP3   OH224038   0.960   0.128   0.494 -0.0570  0.8078 -0.0385
 8025TIP3    H124039   0.997   0.190   0.557 -2.0170  3.4314 -1.2584
 8025TIP3    H224040   0.866   0.146   0.495 -0.5879 -1.5037 -1.2155
 8026TIP3   OH224041   6.331   3.360   4.299 -0.0024 -0.3938  0.2182
 8026TIP3    H124042   6.409   3.319   4.336  0.8958  0.5749 -0.5183
 8026TIP3    H224043   6.296   3.415   4.369 -0.5330 -1.4644  0.8224
 8027TIP3   OH224044   2.265   6.282   3.682 -0.3096  0.1178 -0.0001
 8027TIP3    H124045   2.299   6.200   3.718 -1.6771 -0.5095 -0.0504
 8027TIP3    H224046   2.171   6.279   3.700 -0.2964  2.0238  0.6187
 8028TIP3   OH224047   1.905   2.931   5.026  0.2520 -0.0208  0.9368
 8028TIP3    H124048   1.934   2.902   4.940  1.8530 -0.2676  1.5294
 8028TIP3    H224049   1.825   2.881   5.042  0.6217 -0.9059  0.1211
 8029TIP3   OH224050   2.689   5.621   3.803 -0.6153 -0.4007 -0.2564
 8029TIP3    H124051   2.604   5.665   3.813 -0.0546  0.6386  0.0922
 8029TIP3    H224052   2.752   5.681   3.843  0.4162 -0.7289 -1.3412
 8030TIP3   OH224053   3.146   5.866   2.194  0.1257  0.3779  0.0888
 8030TIP3    H124054   3.215   5.808   2.162 -1.0525 -2.5483  2.2770
 8030TIP3    H224055   3.192   5.936   2.240  1.6295 -0.3400 -0.2730
 8031TIP3   OH224056   4.269   4.501   4.658  0.3239  0.6646 -0.6938
 8031TIP3    H124057   4.228   4.578   4.617  1.2567  1.0897 -0.8434
 8031TIP3    H224058   4.238   4.503   4.749 -1.7229 -0.2579 -1.3088
 8032TIP3   OH224059   0.888   1.324   3.053  0.0864 -0.2306 -0.3347
 8032TIP3    H124060   0.860   1.413   3.075 -5.3463 -1.7629  0.4791
 8032TIP3    H224061   0.893   1.279   3.137 -0.8415 -1.4599 -0.9047
 8033TIP3   OH224062   3.718  -0.010   4.363 -0.4606  0.6338  0.2448
 8033TIP3    H124063   3.783   0.058   4.380  2.0619 -1.3382 -0.8235
 8033TIP3    H224064   3.699  -0.048   4.448  0.1960  0.8920  0.5106
 8034TIP3   OH224065   4.231   0.077   4.632 -0.3074 -0.1276  0.1032
 8034TIP3    H124066   4.315   0.055   4.591 -1.3437 -1.3860 -1.4679
 8034TIP3    H224067   4.238   0.041   4.721 -0.0946 -2.5966 -0.8260
 8035TIP3   OH224068   2.870   1.934   2.428  0.0865 -0.2002 -0.1307
 8035TIP3    H124069   2.929   1.860   2.438  1.3363  0.7642 -0.1095
 8035TIP3    H224070   2.804   1.921   2.496  0.8096 -0.8131  0.4816
 8036TIP3   OH224071   0.888   5.083   3.396 -0.1261 -0.3469 -0.1685
 8036TIP3    H124072   0.793   5.087   3.409  0.0920  0.7875  1.3329
 8036TIP3    H224073   0.906   4.990   3.383 -1.3258 -0.7212  0.6145
 8037TIP3   OH224074   0.449   4.828   1.271  0.1053  0.1878 -0.1871
 8037TIP3    H124075   0.491   4.818   1.357 -0.9762  1.9438  0.5979
 8037TIP3    H224076   0.388   4.754   1.266  0.3163 -0.0428  0.4726
 8038TIP3   OH224077   5.259   6.053   4.557  0.1572  0.7620  0.0155
 8038TIP3    H124078   5.204   6.131   4.549 -0.3097  0.5572  1.0197
 8038TIP3    H224079   5.345   6.087   4.584  0.0092  0.9438  0.2594
 8039TIP3   OH224080   2.052   1.959   4.699 -0.0373  0.5886  0.3767
 8039TIP3    H124081   2.075   1.880   4.650  1.7021  0.9360  0.5761
 8039TIP3    H224082   2.011   2.016   4.634 -0.2604 -0.0357 -0.0357
 8040TIP3   OH224083   5.160   4.219   2.196 -0.2619 -0.2060 -0.5052
 8040TIP3    H124084   5.173   4.132   2.160  0.3311 -1.4949  2.5431
 8040TIP3    H224085   5.226   4.273   2.153 -0.2705 -1.3474 -2.0237
 8041TIP3   OH224086   1.256   1.806   2.580 -0.2396 -0.1713 -0.2936
 8041TIP3    H124087   1.346   1.775   2.585  0.1259  1.0972  1.7243
 8041TIP3    H224088   1.213   1.769   2.657 -0.5626  1.7848  0.5237
 8042TIP3   OH224089   1.552   5.384   0.905 -0.5477  0.1181  0.1382
 8042TIP3    H124090   1.567   5.362   0.813  1.1495 -0.2933  0.4775
 8042TIP3    H224091   1.500   5.464   0.902  0.1334  0.5467 -1.2019
 8043TIP3   OH224092   0.924   0.616   0.584  0.0477 -0.4567  0.3202
 8043TIP3    H124093   0.949   0.584   0.670  0.2751  1.4569  1.0178
 8043TIP3    H224094   0.895   0.706   0.599 -1.0896 -0.4718 -1.4327
 8044TIP3   OH224095   2.506   2.387   4.567  0.8665  0.1561  0.6989
 8044TIP3    H124096   2.448   2.359   4.496  1.5024  0.8979 -0.1306
 8044TIP3    H224097   2.456   2.369   4.646 -0.6056  1.0007  0.0051
 8045TIP3   OH224098   4.008   5.547   2.052 -0.0044  0.0682  0.0076
 8045TIP3    H124099   3.913   5.543   2.042 -0.0734  2.0033 -0.5828
 8045TIP3    H224100   4.028   5.641   2.053  1.9062 -0.2956  0.0884
 8046TIP3   OH224101   7.058   2.581   5.506 -0.2289  0.2939  0.2143
 8046TIP3    H124102   7.024   2.492   5.513 -0.2699  0.3648  0.9665
 8046TIP3    H224103   6.986   2.637   5.533 -0.5073  0.6154 -1.1620
 8047TIP3   OH224104   6.269   0.695   1.046  0.1148 -0.1056 -0.3510
 8047TIP3    H124105   6.205   0.677   1.114  0.4214 -1.5764 -0.4274
 8047TIP3    H224106   6.343   0.735   1.093 -0.1658  0.0348 -0.0193
 8048TIP3   OH224107   4.751   3.305   5.088  0.3476 -0.1886 -0.4458
 8048TIP3    H124108   4.757   3.290   4.994  0.5596  0.2387 -0.4995
 8048TIP3    H224109   4.826   3.258   5.125 -0.9373 -2.2249 -0.2608
 8049TIP3   OH224110   0.649   4.394   3.448  0.7182  1.0938  0.3580
 8049TIP3    H124111   0.646   4.434   3.535 -0.1771  0.3882  0.6635
 8049TIP3    H224112   0.561   4.359   3.435  1.2827 -0.1604 -0.1874
 8050TIP3   OH224113   3.818   3.617   0.515  0.4638 -0.4351 -0.2314
 8050TIP3    H124114   3.893   3.595   0.460  1.5123  1.7679  0.2213
 8050TIP3    H224115   3.758   3.543   0.503  0.3807  0.0847 -4.7007
 8051TIP3   OH224116   1.059   2.364   5.836  0.5013 -0.5693 -0.2438
 8051TIP3    H124117   1.112   2.326   5.767  0.4632  0.1203 -0.6587
 8051TIP3    H224118   1.034   2.289   5.891 -1.9563 -1.6714 -2.5960
 8052TIP3   OH224119   1.002   6.147   2.804  0.3466  0.0801  0.0268
 8052TIP3    H124120   0.966   6.074   2.853  0.8567 -0.4607 -0.3874
 8052TIP3    H224121   1.028   6.210   2.870  0.2505 -0.2746  0.4050
 8053TIP3   OH224122   5.231   2.794   0.438  0.0093 -0.4257  0.3886
 8053TIP3    H124123   5.174   2.770   0.365 -1.0356  1.5281  0.4950
 8053TIP3    H224124   5.240   2.889   0.431  2.1526 -0.5115  1.2095
 8054TIP3   OH224125   6.968   0.831   4.438 -0.2868 -0.0179 -0.3934
 8054TIP3    H124126   6.992   0.909   4.387 -1.0473  0.1607 -0.4834
 8054TIP3    H224127   7.031   0.831   4.510  0.0514  0.3874 -0.6759
 8055TIP3   OH224128   5.660   1.032   2.208 -0.0183  0.4320  0.4851
 8055TIP3    H124129   5.713   0.952   2.203 -0.3144  0.2840 -0.3051
 8055TIP3    H224130   5.603   1.018   2.284 -1.2559 -0.8368 -0.6460
 8056TIP3   OH224131   4.467   1.491   4.497 -0.3070  0.2327 -0.2792
 8056TIP3    H124132   4.380   1.474   4.532  0.1378 -1.2013  0.1881
 8056TIP3    H224133   4.451   1.530   4.411 -1.4055  2.3694  0.8092
 8057TIP3   OH224134   5.874   1.476   2.414 -0.3163  0.3766  0.3408
 8057TIP3    H124135   5.906   1.523   2.337 -0.1288  0.1097  0.2553
 8057TIP3    H224136   5.892   1.384   2.395  0.7151  0.4003  1.1784
 8058TIP3   OH224137   3.659   4.581   3.414 -0.1658 -0.2013  0.7333
 8058TIP3    H124138   3.584   4.602   3.470 -0.4514 -0.0205  0.2886
 8058TIP3    H224139   3.715   4.659   3.420 -0.0420 -0.3108  1.0156
 8059TIP3   OH224140   3.141   0.835   4.311  0.4155  0.2920  0.2645
 8059TIP3    H124141   3.145   0.772   4.383  1.0711 -1.0239 -0.8666
 8059TIP3    H224142   3.091   0.909   4.345  0.9952 -0.1519  2.1633
 8060TIP3   OH224143   2.935   0.540   3.998  0.4850 -0.5822  0.4242
 8060TIP3    H124144   2.990   0.471   3.963 -1.4524 -2.7390  1.3645
 8060TIP3    H224145   2.914   0.511   4.087  1.1914  2.2298  1.6281
 8061TIP3   OH224146   0.104   2.766   3.110 -0.0375 -0.4419  0.1431
 8061TIP3    H124147   0.132   2.855   3.088 -0.3835 -0.3092  0.2434
 8061TIP3    H224148   0.141   2.712   3.040  1.1669 -0.3803  0.7074
 8062TIP3   OH224149   4.451   0.975   0.948  0.1010  0.3319 -0.1124
 8062TIP3    H124150   4.403   0.911   1.001 -0.6881  0.8968 -0.1330
 8062TIP3    H224151   4.509   0.922   0.894 -1.4433 -0.4754 -1.0502
 8063TIP3   OH224152   2.321   5.343   0.312 -0.0966 -0.1280 -0.0831
 8063TIP3    H124153   2.312   5.250   0.335 -1.8554 -0.2742 -1.1965
 8063TIP3    H224154   2.399   5.347   0.257 -0.0291 -0.9529 -0.0586
 8064TIP3   OH224155   0.535   1.097   0.915  0.6705  0.4234  0.5335
 8064TIP3    H124156   0.558   1.056   0.831  2.5348  0.1746  1.1250
 8064TIP3    H224157   0.439   1.093   0.917  0.6093 -0.2860 -1.2216
 8065TIP3   OH224158   1.310   1.126   1.570  0.3216  0.1556 -0.0438
 8065TIP3    H124159   1.332   1.036   1.594  1.7046  0.1348 -1.2483
 8065TIP3    H224160   1.218   1.122   1.544 -0.6653 -0.1978  3.0989
 8066TIP3   OH224161   6.726   3.037   3.130  0.5686 -0.0575 -0.4805
 8066TIP3    H124162   6.783   3.028   3.207  0.0677 -0.4437 -0.1423
 8066TIP3    H224163   6.637   3.034   3.166  0.3335  1.2660 -0.9220
 8067TIP3   OH224164   5.965   5.103   0.386 -0.0378 -0.1111  0.1241
 8067TIP3    H124165   5.931   5.014   0.402  0.8693 -0.3026  1.0947
 8067TIP3    H224166   5.898   5.144   0.332 -0.4015 -1.4479 -0.5018
 8068TIP3   OH224167   4.872   1.151   1.017 -0.3797  0.4937  0.4697
 8068TIP3    H124168   4.901   1.192   0.935  0.1194  0.7973  0.7921
 8068TIP3    H224169   4.894   1.058   1.007 -2.4167  0.0621 -0.6742
 8069TIP3   OH224170   5.571   5.299   0.351 -0.3045 -0.3365  0.1446
 8069TIP3    H124171   5.649   5.274   0.301 -0.4671 -0.9750  0.1976
 8069TIP3    H224172   5.497   5.274   0.295 -0.4798 -0.2297  0.3249
 8070TIP3   OH224173   5.093   6.209   1.826  0.1557 -0.2124 -0.5776
 8070TIP3    H124174   5.069   6.119   1.849  2.1551 -0.3205  1.4471
 8070TIP3    H224175   5.156   6.199   1.755 -0.7119 -0.2986 -1.3507
 8071TIP3   OH224176   0.898   5.541   3.789 -0.0333 -0.2685  0.2427
 8071TIP3    H124177   0.987   5.571   3.806  0.4549 -0.5566 -1.6207
 8071TIP3    H224178   0.867   5.598   3.718 -2.0150  1.0130  2.0041
 8072TIP3   OH224179   5.025   5.916   3.464 -0.1045  0.3591 -0.4025
 8072TIP3    H124180   5.040   5.944   3.374 -0.1275 -0.8133 -0.7788
 8072TIP3    H224181   5.105   5.941   3.510  0.9164 -1.1463 -1.2720
 8073TIP3   OH224182   3.616   6.134   0.290 -0.2636  0.0532  0.3985
 8073TIP3    H124183   3.651   6.129   0.201  0.1999  0.1692  0.5741
 8073TIP3    H224184   3.688   6.169   0.342 -0.7161  0.5086  0.7214
 8074TIP3   OH224185   2.522   3.161   5.846  0.6238 -0.4508 -0.7202
 8074TIP3    H124186   2.477   3.128   5.923  1.2780 -0.1605 -0.2040
 8074TIP3    H224187   2.614   3.136   5.859  1.1211  1.4087 -0.3712
 8075TIP3   OH224188   1.736   4.718   5.523 -0.4471 -0.0482  0.3416
 8075TIP3    H124189   1.791   4.694   5.448  0.7863  1.5328  0.7085
 8075TIP3    H224190   1.697   4.635   5.550  0.3394 -0.9186 -1.0472
 8076TIP3   OH224191   6.528   0.875   0.457  0.3720 -0.2736  0.1797
 8076TIP3    H124192   6.567   0.962   0.457  0.2503 -0.2182  0.3125
 8076TIP3    H224193   6.486   0.866   0.372  0.8438 -0.4091 -0.0394
 8077TIP3   OH224194   5.139   4.902   5.272 -0.0963 -0.2210  0.2474
 8077TIP3    H124195   5.155   4.874   5.362  0.0630 -2.6536 -0.4657
 8077TIP3    H224196   5.093   4.828   5.232  1.1678  0.1749 -2.0714
 8078TIP3   OH224197   2.726   3.196   1.496 -0.0362 -0.4738  0.0871
 8078TIP3    H124198   2.659   3.264   1.496  1.8290  1.4903  0.1616
 8078TIP3    H224199   2.684   3.120   1.457 -1.9263  1.0451 -1.0003
 8079TIP3   OH224200   3.119   6.412   4.659 -0.3166  0.3851  0.7748
 8079TIP3    H124201   3.108   6.352   4.585 -0.6683 -0.1285  1.2303
 8079TIP3    H224202   3.138   6.497   4.619 -0.1650  0.0439  0.1074
 8080TIP3   OH224203   4.897   4.042   4.491  0.2646  0.0790  0.1485
 8080TIP3    H124204   4.954   4.004   4.558 -1.3409  0.9642  2.1350
 8080TIP3    H224205   4.914   4.136   4.495 -2.2743  0.5635  1.8698
 8081TIP3   OH224206   5.809   5.246   2.273 -0.2497 -0.0980  0.0771
 8081TIP3    H124207   5.886   5.210   2.317  0.3050  1.2182  0.2503
 8081TIP3    H224208   5.844   5.290   2.195 -0.9036 -0.0338 -0.1882
 8082TIP3   OH224209   3.693   3.133   4.567 -0.2689 -0.4168 -0.2004
 8082TIP3    H124210   3.726   3.055   4.611  3.3083  1.0965  0.2070
 8082TIP3    H224211   3.723   3.125   4.477 -1.3873 -0.2722 -0.5970
 8083TIP3   OH224212   3.652   3.470   5.232 -0.5089  0.1426 -0.1495
 8083TIP3    H124213   3.607   3.553   5.247 -0.4815  0.2907 -0.8817
 8083TIP3    H224214   3.641   3.453   5.139  0.1283 -0.3060 -0.1476
 8084TIP3   OH224215   6.437   2.844   1.470 -0.4541 -0.5349  0.1838
 8084TIP3    H124216   6.437   2.852   1.374  0.2812  1.4398  0.3137
 8084TIP3    H224217   6.430   2.934   1.501  0.4462 -1.0606  2.0002
 8085TIP3   OH224218   5.908   3.023   2.368  0.0842 -0.0919 -0.0074
 8085TIP3    H124219   5.996   2.990   2.350  0.2764  0.5489 -0.2583
 8085TIP3    H224220   5.886   2.986   2.453  0.4292 -0.5939 -0.1315
 8086TIP3   OH224221   2.491   0.722   2.504 -0.1986  0.0972  0.0534
 8086TIP3    H124222   2.452   0.692   2.586 -0.3962 -2.3688 -0.8631
 8086TIP3    H224223   2.574   0.761   2.530 -1.1443  1.2011  1.5868
 8087TIP3   OH224224   6.576   5.578   4.919  0.1252 -0.4968 -0.5691
 8087TIP3    H124225   6.650   5.527   4.951 -0.5993 -1.5403 -0.4886
 8087TIP3    H224226   6.594   5.668   4.947  0.3731 -1.0695  1.2305
 8088TIP3   OH224227   1.894   1.117   2.924  0.0251 -0.4614 -0.0733
 8088TIP3    H124228   1.989   1.128   2.924 -0.0519  1.9386 -3.6766
 8088TIP3    H224229   1.860   1.195   2.969 -0.2113 -0.1937 -0.6955
 8089TIP3   OH224230   0.260   0.958   5.278  0.0204 -0.1858  0.0431
 8089TIP3    H124231   0.243   0.864   5.276  1.3431 -0.5089  1.8061
 8089TIP3    H224232   0.290   0.979   5.189  1.1098 -1.7167  0.0192
 8090TIP3   OH224233   6.535   6.051   0.727  0.4514 -0.4357 -0.0556
 8090TIP3    H124234   6.501   6.139   0.708 -0.4127 -0.7472 -0.0025
 8090TIP3    H224235   6.630   6.063   0.735  0.2290  0.7190  1.1911
 8091TIP3   OH224236   5.981   5.754   3.691 -0.1170 -0.4148 -0.2346
 8091TIP3    H124237   6.028   5.837   3.681 -2.0066  0.6048 -1.2136
 8091TIP3    H224238   5.924   5.768   3.766  0.7650 -1.4789  0.6617
 8092TIP3   OH224239   1.289   4.702   4.880 -0.2635 -0.2432 -0.0302
 8092TIP3    H124240   1.355   4.771   4.878 -0.0030 -0.5050 -0.6793
 8092TIP3    H224241   1.243   4.710   4.796 -1.2490  0.1132  0.5214
 8093TIP3   OH224242   5.825   0.552   4.473 -0.0456 -0.0632  0.3358
 8093TIP3    H124243   5.829   0.459   4.453  0.4968  0.0733 -0.2054
 8093TIP3    H224244   5.765   0.557   4.548 -0.4181 -0.7932  0.1006
 8094TIP3   OH224245   5.491   5.045   2.785  0.5107  0.5903 -0.1013
 8094TIP3    H124246   5.513   4.986   2.856  0.0159  0.2901 -0.1969
 8094TIP3    H224247   5.558   5.028   2.718 -1.0742 -1.7595 -1.2347
 8095TIP3   OH224248   1.327   1.357   4.131 -0.3409  0.5114 -0.0842
 8095TIP3    H124249   1.334   1.429   4.193 -0.4628 -0.7242  1.4297
 8095TIP3    H224250   1.246   1.313   4.154  0.3241 -0.8152 -0.1700
 8096TIP3   OH224251   6.042   2.909   5.708 -0.0162  0.0755  0.6494
 8096TIP3    H124252   6.067   2.817   5.718 -0.5213 -0.0562  0.6994
 8096TIP3    H224253   6.045   2.944   5.797 -0.5611 -0.0824  0.7304
 8097TIP3   OH224254   6.955   6.092   5.319 -0.2281  0.1111  0.4799
 8097TIP3    H124255   6.861   6.082   5.337  0.1471 -1.2877  1.8387
 8097TIP3    H224256   6.997   6.024   5.371  1.5069  0.2356 -0.6808
 8098TIP3   OH224257   5.352   3.158   3.557 -0.1636  0.0613  0.1065
 8098TIP3    H124258   5.427   3.098   3.554  0.2960  0.6503 -0.4599
 8098TIP3    H224259   5.367   3.213   3.633  1.2439  1.7434 -1.2846
 8099TIP3   OH224260   2.610   1.290   5.333  0.8009  0.1200 -0.3140
 8099TIP3    H124261   2.524   1.274   5.293 -0.7429 -2.3936  3.4286
 8099TIP3    H224262   2.668   1.228   5.290 -0.4488 -1.5215  0.2623
 8100TIP3   OH224263   4.515   2.929   4.225 -0.1865  0.3545  0.1692
 8100TIP3    H124264   4.605   2.950   4.199  0.0958  0.8821  1.4826
 8100TIP3    H224265   4.460   2.973   4.161  0.4719  1.8579  0.6033
 8101TIP3   OH224266   0.646   2.751   2.559 -0.1942  0.0320  0.8310
 8101TIP3    H124267   0.731   2.796   2.559 -0.4408  0.5238 -0.1564
 8101TIP3    H224268   0.582   2.821   2.573 -0.5062 -0.1766  0.4697
 8102TIP3   OH224269   1.579   5.644   5.610 -0.1785  0.4799 -0.6978
 8102TIP3    H124270   1.565   5.622   5.518  1.1612  1.7140 -1.2416
 8102TIP3    H224271   1.667   5.611   5.630  0.5632  2.3371 -0.6282
 8103TIP3   OH224272   6.823   6.099   3.868 -0.4220  0.6761  0.2778
 8103TIP3    H124273   6.834   6.032   3.800  0.9934  0.5905  0.5599
 8103TIP3    H224274   6.743   6.074   3.914 -0.3285 -0.3901 -0.1191
 8104TIP3   OH224275   1.250   4.357   3.894 -0.3359 -0.3786  0.4996
 8104TIP3    H124276   1.184   4.355   3.825 -0.8948 -0.8864  1.0363
 8104TIP3    H224277   1.333   4.373   3.849 -0.9262  1.1324 -0.1148
 8105TIP3   OH224278   3.310   4.180   1.596 -0.4837  0.5418  0.3185
 8105TIP3    H124279   3.244   4.205   1.530 -0.8103  1.2090  0.8865
 8105TIP3    H224280   3.392   4.213   1.561  0.5744 -4.3582 -2.8191
 8106TIP3   OH224281   6.631   0.608   2.668 -0.1060 -0.4054 -0.4757
 8106TIP3    H124282   6.706   0.643   2.620 -0.5337  0.5036 -0.4962
 8106TIP3    H224283   6.633   0.653   2.752  0.5347 -1.8548  0.3263
 8107TIP3   OH224284   6.701   3.382   5.022  0.7469  0.2085  0.2480
 8107TIP3    H124285   6.727   3.472   5.000  2.5308  0.0982  1.6184
 8107TIP3    H224286   6.761   3.327   4.973  0.8963 -0.1692  0.8450
 8108TIP3   OH224287   2.128   1.370   4.499  0.2661 -0.2086 -0.2626
 8108TIP3    H124288   2.192   1.406   4.561  0.4144 -1.1560  0.1525
 8108TIP3    H224289   2.125   1.276   4.519 -2.4839  0.0193  0.9175
 8109TIP3   OH224290   5.393   1.821   2.835 -0.4087  0.0501 -0.3987
 8109TIP3    H124291   5.406   1.799   2.927 -0.1137  0.0866 -0.4331
 8109TIP3    H224292   5.453   1.763   2.788 -1.3217 -0.7277 -0.6408
 8110TIP3   OH224293   4.030   0.241   1.802 -0.4370 -0.4636  1.0584
 8110TIP3    H124294   3.963   0.277   1.860 -0.8813  0.5354 -0.0198
 8110TIP3    H224295   4.065   0.318   1.756  1.4127 -0.9717  1.5290
 8111TIP3   OH224296   1.344   2.825   0.433 -0.1839  0.1474 -0.3679
 8111TIP3    H124297   1.351   2.912   0.394  1.8332 -0.7002 -2.1076
 8111TIP3    H224298   1.322   2.767   0.360 -1.0323 -0.9037  0.6702
 8112TIP3   OH224299   1.783   5.251   4.368  0.2831 -0.6605 -0.1402
 8112TIP3    H124300   1.821   5.174   4.412  0.2651 -1.2195 -1.0675
 8112TIP3    H224301   1.713   5.279   4.427  0.1333 -1.5083  0.1104
 8113TIP3   OH224302   6.064   6.363   4.331 -0.3359  0.2654  0.2302
 8113TIP3    H124303   6.040   6.321   4.414 -1.6476 -0.6843 -0.6063
 8113TIP3    H224304   6.122   6.300   4.289 -0.5400  0.2688 -0.0549
 8114TIP3   OH224305   4.119   5.664   2.595 -0.3510 -0.3362 -0.6303
 8114TIP3    H124306   4.043   5.706   2.555 -1.3351 -0.0103  1.4113
 8114TIP3    H224307   4.094   5.572   2.606 -0.3322 -0.3011 -0.2626
 8115TIP3   OH224308   6.554   4.014   2.687 -0.0776  0.2331 -0.0455
 8115TIP3    H124309   6.548   3.948   2.756  0.1743  0.0702 -0.1813
 8115TIP3    H224310   6.463   4.032   2.663 -0.3691  2.1131  2.0589
 8116TIP3   OH224311   0.431   3.227   4.000 -0.1897  0.0587  0.4640
 8116TIP3    H124312   0.449   3.206   3.908 -0.7851 -0.6252  0.4948
 8116TIP3    H224313   0.443   3.144   4.046 -2.0088 -0.1456  0.6706
 8117TIP3   OH224314   1.740   3.094   0.403 -0.2822 -0.1642 -0.1828
 8117TIP3    H124315   1.794   3.125   0.330  0.2495 -2.0769 -0.6694
 8117TIP3    H224316   1.667   3.049   0.361 -0.7464 -0.0248  0.4694
 8118TIP3   OH224317   3.731   4.238   2.546  0.1524 -0.1693  0.2571
 8118TIP3    H124318   3.719   4.324   2.586  2.3733 -0.0585  0.8130
 8118TIP3    H224319   3.648   4.193   2.560 -1.3619  2.1254 -0.7588
 8119TIP3   OH224320   5.552   3.376   0.018 -0.1488  0.6318  0.4856
 8119TIP3    H124321   5.532   3.286   0.046  0.3523  0.2532 -0.3309
 8119TIP3    H224322   5.592   3.416   0.094 -1.0548  0.3975  1.1011
 8120TIP3   OH224323   2.145   6.036   1.606 -0.4755  0.0870 -0.0478
 8120TIP3    H124324   2.101   5.974   1.663 -0.7288  0.6997  0.4293
 8120TIP3    H224325   2.107   6.121   1.628 -0.2610  0.3919 -0.8144
 8121TIP3   OH224326   2.324   5.142   4.182  0.5304 -0.0671 -0.2031
 8121TIP3    H124327   2.380   5.216   4.203  1.0442 -0.6957  0.6914
 8121TIP3    H224328   2.385   5.069   4.170 -0.1308 -0.9756  1.6832
 8122TIP3   OH224329   3.185   5.693   2.593 -0.4653  0.1076  0.2208
 8122TIP3    H124330   3.237   5.726   2.666 -1.6885  1.0717  0.6783
 8122TIP3    H224331   3.112   5.754   2.585 -0.5227 -0.1499 -1.6254
 8123TIP3   OH224332   1.439   4.394   1.364  0.4358 -0.3254 -0.1987
 8123TIP3    H124333   1.427   4.329   1.295  0.5801 -0.2094 -0.3329
 8123TIP3    H224334   1.350   4.423   1.386  0.1401 -2.2350  1.4803
 8124TIP3   OH224335   0.576   0.106   4.446 -0.3858  0.1648 -0.2518
 8124TIP3    H124336   0.481   0.110   4.459 -0.5031 -1.0352 -0.5951
 8124TIP3    H224337   0.589   0.027   4.395  0.8362  0.1706  0.0310
 8125TIP3   OH224338   2.876   1.077   0.888 -0.6650  0.8814 -0.4347
 8125TIP3    H124339   2.901   1.166   0.860  1.2037  0.2619 -0.9086
 8125TIP3    H224340   2.924   1.064   0.970 -1.9535  0.7527  0.3215
 8126TIP3   OH224341   3.490   5.984   5.357 -0.3868 -0.8359 -0.3447
 8126TIP3    H124342   3.439   6.065   5.346 -0.1147 -0.7208 -0.7730
 8126TIP3    H224343   3.566   5.995   5.300 -0.5015 -1.5223 -0.6451
 8127TIP3   OH224344   3.721   5.381   0.824  0.6340  0.1072  0.3280
 8127TIP3    H124345   3.695   5.469   0.799  0.5849 -0.3132 -1.2030
 8127TIP3    H224346   3.653   5.352   0.884 -0.7605  0.1937 -1.1409
 8128TIP3   OH224347   1.087   0.291   0.308  0.3867 -0.7231 -0.2997
 8128TIP3    H124348   1.177   0.274   0.337  0.6273 -0.3890 -0.8507
 8128TIP3    H224349   1.035   0.224   0.353  0.6209  0.2860  1.5974
 8129TIP3   OH224350   0.157   6.702   1.196  0.1794 -0.1898  0.2071
 8129TIP3    H124351   0.224   6.735   1.255  1.0103 -0.4941 -0.5461
 8129TIP3    H224352   0.164   6.757   1.118  1.2427 -1.7641 -0.8611
 8130TIP3   OH224353   4.004   1.865   2.101 -0.0953 -0.2744  0.2151
 8130TIP3    H124354   4.066   1.795   2.078  0.7942  0.1219  1.2852
 8130TIP3    H224355   3.963   1.889   2.018  0.2184 -1.4693 -0.3056
 8131TIP3   OH224356   1.386  -0.002   2.296  0.1105  0.5932  0.0161
 8131TIP3    H124357   1.300   0.007   2.337  0.2793 -0.1409  0.5520
 8131TIP3    H224358   1.368  -0.001   2.202 -0.7134 -1.2642  0.0964
 8132TIP3   OH224359   4.221   3.092   2.533  0.0767  0.2597  0.6854
 8132TIP3    H124360   4.189   3.123   2.618  1.8474 -0.2497  1.5758
 8132TIP3    H224361   4.162   3.020   2.511 -0.8195  0.8321  1.1453
 8133TIP3   OH224362   5.030   4.158   2.614  0.2898 -0.4795 -0.5223
 8133TIP3    H124363   4.989   4.243   2.634  0.9985 -0.5049  1.1846
 8133TIP3    H224364   5.102   4.180   2.555  1.1129  0.2949  0.7045
 8134TIP3   OH224365   0.858   0.920   2.169  0.2715 -0.1952  0.1668
 8134TIP3    H124366   0.885   0.906   2.260  0.9997 -0.6575 -0.1096
 8134TIP3    H224367   0.809   1.002   2.171  0.5041 -0.0633  0.9300
 8135TIP3   OH224368   5.547   4.179   4.583 -0.2157 -0.9009  0.3120
 8135TIP3    H124369   5.484   4.250   4.592  1.7077  1.6174 -3.3704
 8135TIP3    H224370   5.503   4.115   4.527 -0.1566  0.0536 -0.8635
 8136TIP3   OH224371   0.470   6.198   1.180  0.2465  0.0819  0.1698
 8136TIP3    H124372   0.406   6.162   1.241  0.8546 -2.4525 -0.5570
 8136TIP3    H224373   0.555   6.176   1.218  0.6368  0.0903 -0.6768
 8137TIP3   OH224374   6.391   3.662   2.330  0.4314  0.2160  0.6496
 8137TIP3    H124375   6.413   3.671   2.238  2.5868  1.7109  1.2338
 8137TIP3    H224376   6.300   3.632   2.330  0.0579  1.0980 -1.9427
 8138TIP3   OH224377   4.766   0.786   5.219  0.1574 -0.7178 -0.3744
 8138TIP3    H124378   4.692   0.747   5.264 -0.9714  0.6525 -0.9607
 8138TIP3    H224379   4.795   0.718   5.158 -0.9615 -1.0949 -0.5134
 8139TIP3   OH224380   4.591   5.668   5.690 -0.3940  0.5150 -0.2999
 8139TIP3    H124381   4.521   5.636   5.747  1.7053 -1.2481  1.4840
 8139TIP3    H224382   4.672   5.635   5.731  1.3483  0.3543 -3.5567
 8140TIP3   OH224383   6.730   0.541   1.762 -0.3984  0.4979  0.1847
 8140TIP3    H124384   6.638   0.566   1.765 -0.1466  1.3487  1.3065
 8140TIP3    H224385   6.763   0.560   1.849  1.1746  1.4826 -0.5839
 8141TIP3   OH224386   0.770   4.530   1.054 -0.2428  0.1798 -0.6120
 8141TIP3    H124387   0.845   4.585   1.035 -0.1838  0.4779  0.3919
 8141TIP3    H224388   0.804   4.464   1.115 -0.7057  0.1126 -0.4185
 8142TIP3   OH224389   5.492   3.835   4.700  0.1044  0.7969 -0.5968
 8142TIP3    H124390   5.442   3.770   4.651  1.5658  0.1181 -1.2549
 8142TIP3    H224391   5.425   3.890   4.742 -1.1665 -0.3893 -0.9835
 8143TIP3   OH224392   1.247   1.289   3.779 -0.0284 -0.2125  0.4900
 8143TIP3    H124393   1.288   1.368   3.744 -1.1037  0.6727  1.1316
 8143TIP3    H224394   1.319   1.236   3.812  0.7235  0.4216 -0.1070
 8144TIP3   OH224395   1.605   1.666   4.470  0.2595 -0.1682  0.0185
 8144TIP3    H124396   1.678   1.613   4.501  1.3031  1.5218  0.6467
 8144TIP3    H224397   1.608   1.745   4.524 -1.7420  0.1826 -0.2960
 8145TIP3   OH224398   1.702   1.589   5.844 -0.2097  0.1268  0.1884
 8145TIP3    H124399   1.615   1.626   5.826 -0.2615  0.8827  1.8058
 8145TIP3    H224400   1.749   1.597   5.761 -1.0175  1.6474 -0.1712
 8146TIP3   OH224401   1.672   3.943  -0.013  0.0157 -0.6173  0.2659
 8146TIP3    H124402   1.651   3.918   0.077 -1.6534  1.7766  0.6499
 8146TIP3    H224403   1.760   3.979  -0.008  0.2809 -1.3029  0.7386
 8147TIP3   OH224404   0.174   5.129   0.014 -0.3240  0.0775 -0.0935
 8147TIP3    H124405   0.198   5.119   0.106 -0.1967 -1.6194 -0.2863
 8147TIP3    H224406   0.228   5.066  -0.032 -1.7734 -0.4805 -1.1062
 8148TIP3   OH224407   1.391   1.271   2.836  0.3922 -0.1862  0.0809
 8148TIP3    H124408   1.327   1.272   2.907  0.6402  0.9177  0.3088
 8148TIP3    H224409   1.471   1.304   2.876  0.7398 -0.2773 -0.5341
 8149TIP3   OH224410   1.822   5.927   2.510 -0.5066 -0.0979 -0.5908
 8149TIP3    H124411   1.860   5.847   2.546 -2.2269 -0.0432  1.5992
 8149TIP3    H224412   1.880   5.997   2.541  0.6094 -0.3938 -1.9273
 8150TIP3   OH224413   5.032   4.473   3.144  0.1629  0.1147 -0.3097
 8150TIP3    H124414   4.955   4.521   3.176  0.1130 -0.6268  0.7463
 8150TIP3    H224415   5.032   4.392   3.196  2.8004  0.9889  1.2064
 8151TIP3   OH224416   5.913   6.031   5.311 -0.1777  0.2277 -0.6782
 8151TIP3    H124417   5.956   6.117   5.305  1.1915 -0.4349 -0.7961
 8151TIP3    H224418   5.929   6.002   5.400  0.8095 -0.6045 -1.1066
 8152TIP3   OH224419   2.357   6.036   0.973  0.0280 -0.4437  0.3084
 8152TIP3    H124420   2.297   6.023   1.047 -0.7088  1.5197  0.1054
 8152TIP3    H224421   2.440   6.061   1.014  0.0625 -0.8720  0.5085
 8153TIP3   OH224422   1.162   5.691   5.819 -0.8093 -0.5344  0.2470
 8153TIP3    H124423   1.139   5.779   5.851  0.9665  0.2675 -0.5404
 8153TIP3    H224424   1.215   5.707   5.741 -0.6836 -2.3345 -0.0774
 8154TIP3   OH224425   3.546   1.526   2.620 -0.3627 -0.0717  0.2993
 8154TIP3    H124426   3.571   1.615   2.645  1.2255 -0.5110  0.3564
 8154TIP3    H224427   3.612   1.499   2.556 -1.4974 -0.7929 -0.6039
 8155TIP3   OH224428   2.877   5.088   3.839 -0.2295  0.3618 -0.4730
 8155TIP3    H124429   2.828   5.017   3.799  1.2890 -0.2049 -1.3969
 8155TIP3    H224430   2.827   5.167   3.819 -1.7976 -0.3863  0.3514
 8156TIP3   OH224431   6.739   4.929   0.701  0.7687 -0.0450 -0.3164
 8156TIP3    H124432   6.688   4.869   0.646  1.4966 -0.7312 -0.2680
 8156TIP3    H224433   6.694   5.013   0.693 -0.6726 -0.7305  0.1395
 8157TIP3   OH224434   4.450   5.540   3.064  0.5417 -0.4732  0.2654
 8157TIP3    H124435   4.397   5.464   3.087  2.0391 -1.2739  1.2286
 8157TIP3    H224436   4.449   5.595   3.142  0.9264 -0.3769  0.2071
 8158TIP3   OH224437   0.453   2.490   3.624 -0.0498  0.6517 -0.1900
 8158TIP3    H124438   0.433   2.491   3.530  0.1105  1.3293 -0.2256
 8158TIP3    H224439   0.527   2.550   3.633 -2.2508  3.4735  0.8001
 8159TIP3   OH224440   2.875   3.978   0.461 -0.6917 -0.1905 -0.4150
 8159TIP3    H124441   2.783   3.993   0.482 -0.0838  0.2593  2.3582
 8159TIP3    H224442   2.906   4.061   0.425 -0.7778  0.5982  1.2336
 8160TIP3   OH224443   4.748   5.194  -0.015  0.0274 -0.1538  0.3530
 8160TIP3    H124444   4.664   5.225   0.018  0.2951  0.7648  0.2112
 8160TIP3    H224445   4.813   5.237   0.041  0.4108 -0.5755  0.2357
 8161TIP3   OH224446   3.963   5.918   0.474  0.3269 -0.1626  0.3311
 8161TIP3    H124447   3.938   5.881   0.389  1.4478  0.5186 -0.3242
 8161TIP3    H224448   4.001   5.844   0.522 -1.0458 -0.7390  0.5726
 8162TIP3   OH224449   2.079   2.865   1.503  0.3630 -0.0532  0.6634
 8162TIP3    H124450   2.059   2.781   1.462  1.1115 -0.0043  0.1878
 8162TIP3    H224451   2.043   2.930   1.442  2.1588  0.0459 -0.3494
 8163TIP3   OH224452   5.405   2.215   1.066 -0.7728 -0.1127  0.1529
 8163TIP3    H124453   5.445   2.230   0.980  1.2034  1.0638  1.2064
 8163TIP3    H224454   5.456   2.270   1.126 -2.3599 -0.5811  2.0304
 8164TIP3   OH224455   2.864   6.701   1.604 -0.1365 -0.0337  0.4560
 8164TIP3    H124456   2.884   6.615   1.643 -0.4770 -0.9041 -1.2093
 8164TIP3    H224457   2.949   6.744   1.596  0.5856 -1.7368 -2.0655
 8165TIP3   OH224458   3.325   4.105   3.238 -0.0509 -0.3953  0.3029
 8165TIP3    H124459   3.302   4.050   3.163  0.7151 -1.2132  0.6436
 8165TIP3    H224460   3.401   4.154   3.209 -0.7988  0.5882 -0.0365
 8166TIP3   OH224461   1.750   5.812   0.503 -0.3870 -0.0164  0.3684
 8166TIP3    H124462   1.841   5.821   0.474 -0.9602  3.0895 -0.8956
 8166TIP3    H224463   1.713   5.744   0.446  0.6099  0.2487 -0.6321
 8167TIP3   OH224464   3.789   1.769   0.258 -0.4918 -0.7650  0.9118
 8167TIP3    H124465   3.774   1.861   0.235  1.1150 -0.6405  0.2295
 8167TIP3    H224466   3.867   1.745   0.208 -0.4887 -2.3062  1.6238
 8168TIP3   OH224467   0.440   6.587   1.522  0.6627 -0.1336  0.3321
 8168TIP3    H124468   0.493   6.564   1.447  0.5133 -1.8187  0.7104
 8168TIP3    H224469   0.389   6.509   1.541 -1.1385  1.0578  0.6727
 8169TIP3   OH224470   6.807   5.735   0.413 -0.1786  0.6105 -0.1572
 8169TIP3    H124471   6.810   5.639   0.411 -1.5739  0.5490 -1.0775
 8169TIP3    H224472   6.887   5.762   0.368  1.0230 -0.0707  1.4918
 8170TIP3   OH224473   2.218   6.170   5.131 -0.2792  0.1655 -0.0223
 8170TIP3    H124474   2.297   6.118   5.146 -0.4121 -0.5906 -1.6605
 8170TIP3    H224475   2.240   6.226   5.057 -0.4974  1.7426  1.0595
 8171TIP3   OH224476   0.456   2.639   3.919 -0.0232 -0.1739  0.6390
 8171TIP3    H124477   0.491   2.573   3.859 -0.0695  1.3221 -1.1146
 8171TIP3    H224478   0.503   2.623   4.001  2.0252 -0.6463 -0.5475
 8172TIP3   OH224479   3.423   1.815   5.572  0.2215  0.3291 -0.0366
 8172TIP3    H124480   3.446   1.744   5.632 -0.2345  0.2400  0.0435
 8172TIP3    H224481   3.329   1.829   5.587 -0.1201 -0.3409 -1.3993
 8173TIP3   OH224482   4.799   3.103   5.729 -0.1297  0.4197  0.1699
 8173TIP3    H124483   4.775   3.035   5.793 -1.3335  0.6748  0.0123
 8173TIP3    H224484   4.809   3.182   5.781 -2.2179  0.8820 -0.0372
 8174TIP3   OH224485   0.425   2.043   1.990 -0.5210 -0.6095 -0.2746
 8174TIP3    H124486   0.457   2.133   1.999 -1.0247 -0.5126  0.7365
 8174TIP3    H224487   0.484   1.992   2.046  0.5807 -1.1365 -1.8603
 8175TIP3   OH224488   3.370   3.774   5.798  0.1283  0.2207 -0.2993
 8175TIP3    H124489   3.303   3.811   5.741  0.7705 -0.9630 -1.8825
 8175TIP3    H224490   3.413   3.850   5.837 -3.3026  1.0730  2.3195
 8176TIP3   OH224491   2.841   3.817   3.786  0.5001  0.0406 -0.4674
 8176TIP3    H124492   2.835   3.728   3.752 -0.9769 -0.0774  0.0305
 8176TIP3    H224493   2.771   3.864   3.741 -0.8013  0.1438  1.5198
 8177TIP3   OH224494   6.507   2.585   2.243  0.1101 -0.2082  0.2860
 8177TIP3    H124495   6.522   2.508   2.298 -0.6324 -0.1380  0.5952
 8177TIP3    H224496   6.595   2.620   2.227  0.4440 -1.0385  0.2551
 8178TIP3   OH224497   1.838   2.239   0.898  0.6406 -0.2126  0.3867
 8178TIP3    H124498   1.882   2.190   0.967  0.9709 -1.9241 -0.9706
 8178TIP3    H224499   1.747   2.211   0.902  0.9856 -1.6934 -0.9254
 8179TIP3   OH224500   3.533   2.981   5.177  0.3863  0.0647  0.1637
 8179TIP3    H124501   3.473   2.997   5.105  1.0901  0.3867 -0.3653
 8179TIP3    H224502   3.526   2.886   5.193 -0.6775  0.1842  0.5065
 8180TIP3   OH224503   2.694   1.229   0.289 -0.2426 -0.3832  0.1999
 8180TIP3    H124504   2.721   1.211   0.199  3.7969 -0.4886  1.2279
 8180TIP3    H224505   2.668   1.144   0.324  1.4793 -1.0151  0.0295
 8181TIP3   OH224506   3.911   4.425   4.745 -0.0397  0.6149  0.0816
 8181TIP3    H124507   3.899   4.375   4.664 -0.1582 -0.8158  0.9525
 8181TIP3    H224508   3.837   4.486   4.746  0.1539  0.9020 -1.0400
 8182TIP3   OH224509   3.045   1.399   5.532 -0.3554 -0.2012  0.3559
 8182TIP3    H124510   3.116   1.464   5.534 -0.3856 -0.1825  1.6910
 8182TIP3    H224511   3.090   1.315   5.531 -0.2910 -0.1913  1.2875
 8183TIP3   OH224512   4.655   1.670   0.939  0.0082 -0.2246  0.7975
 8183TIP3    H124513   4.738   1.624   0.952  0.0518 -0.5520 -0.5560
 8183TIP3    H224514   4.588   1.603   0.950 -0.0280 -0.1823  0.8376
 8184TIP3   OH224515   4.711   5.137   4.642  0.1763 -0.3338  0.2466
 8184TIP3    H124516   4.805   5.154   4.639  0.2876 -0.8165  0.7721
 8184TIP3    H224517   4.670   5.223   4.647  0.6014 -0.1307  0.2298
 8185TIP3   OH224518   1.058   0.311   4.724  0.6770 -0.4339 -0.0279
 8185TIP3    H124519   0.965   0.331   4.710  0.6861  0.7699  1.3897
 8185TIP3    H224520   1.058   0.218   4.750 -0.1824 -0.3217  0.4064
 8186TIP3   OH224521   6.601   0.777   4.216  0.2255 -0.4613 -0.6463
 8186TIP3    H124522   6.635   0.861   4.247 -0.9045 -0.0698 -0.4278
 8186TIP3    H224523   6.642   0.765   4.130 -0.9345  1.1882 -1.4728
 8187TIP3   OH224524   1.303   4.918   5.677  0.2305 -0.1750 -0.0262
 8187TIP3    H124525   1.373   4.946   5.735  1.0279 -3.6187  0.9398
 8187TIP3    H224526   1.313   4.822   5.672 -3.4151 -0.6580 -1.1726
 8188TIP3   OH224527   3.360   2.580   2.642 -0.1206 -0.6630 -0.0531
 8188TIP3    H124528   3.372   2.624   2.558  0.2622 -1.0823 -0.2218
 8188TIP3    H224529   3.283   2.622   2.681  0.1247  0.0178 -0.2996
 8189TIP3   OH224530   3.666   1.631   1.492  0.0674  0.2754 -0.0307
 8189TIP3    H124531   3.598   1.568   1.469 -0.1717 -0.2229  1.9209
 8189TIP3    H224532   3.732   1.581   1.540  0.2602  1.3396  0.8760
 8190TIP3   OH224533   4.291   3.659   2.495  0.1287  0.3578 -0.0349
 8190TIP3    H124534   4.222   3.714   2.532 -0.4395  0.7849 -1.6267
 8190TIP3    H224535   4.356   3.650   2.564 -1.6603 -0.3098  1.6351
 8191TIP3   OH224536   0.164   6.346   0.721  0.3697  0.0357  0.9354
 8191TIP3    H124537   0.088   6.345   0.779 -0.9335 -2.1088 -0.6575
 8191TIP3    H224538   0.209   6.264   0.739 -0.0208 -0.6353 -0.9530
 8192TIP3   OH224539   3.414   3.568   4.552  0.2654  0.0754 -0.1658
 8192TIP3    H124540   3.439   3.660   4.541 -2.0641  0.6018 -1.7460
 8192TIP3    H224541   3.493   3.526   4.586  1.3955  2.6406  0.6710
 8193TIP3   OH224542   5.123   0.886   1.856 -0.5720  0.1519  0.6832
 8193TIP3    H124543   5.212   0.853   1.867 -1.2247 -2.4021 -0.7022
 8193TIP3    H224544   5.121   0.920   1.766 -0.8120  0.9124  0.9685
 8194TIP3   OH224545   1.985   4.695   4.779  0.3553 -0.2724 -0.1541
 8194TIP3    H124546   2.047   4.750   4.733 -0.3664  1.0321  0.3742
 8194TIP3    H224547   1.934   4.756   4.833  0.9623 -1.6769  2.1381
 8195TIP3   OH224548   1.032   2.855   2.289 -0.3008 -0.7958  0.6727
 8195TIP3    H124549   1.024   2.829   2.197  0.7586 -1.4558  0.7535
 8195TIP3    H224550   0.996   2.781   2.338 -1.1666 -0.3094  0.7997
 8196TIP3   OH224551   5.641   1.734   5.369  0.5457  0.1421 -0.3246
 8196TIP3    H124552   5.639   1.640   5.350  0.8598 -0.1481  1.0193
 8196TIP3    H224553   5.553   1.753   5.403  0.7626  0.1511  0.2339
 8197TIP3   OH224554   2.428   3.970   4.948 -0.3046 -0.4373  0.2789
 8197TIP3    H124555   2.406   3.881   4.919  0.7005 -0.2406 -1.1880
 8197TIP3    H224556   2.511   3.989   4.905 -0.4297  1.1697  0.6932
 8198TIP3   OH224557   3.672   3.494   4.301 -0.1034 -0.5324  0.5327
 8198TIP3    H124558   3.693   3.581   4.333  0.0126  0.6761 -2.4824
 8198TIP3    H224559   3.583   3.477   4.333 -0.0294  0.5459  1.3691
 8199TIP3   OH224560   5.993   1.725   1.032  0.7506  0.2372  0.0179
 8199TIP3    H124561   5.928   1.656   1.018  0.1209  0.4710  1.6158
 8199TIP3    H224562   6.073   1.690   0.992 -0.4893  0.3212 -2.8104
 8200TIP3   OH224563   1.695   5.333   5.136 -0.5084 -0.6096 -0.4908
 8200TIP3    H124564   1.775   5.285   5.118 -0.1995  0.1720 -1.2571
 8200TIP3    H224565   1.637   5.269   5.177  0.9324 -0.8977  1.2289
 8201TIP3   OH224566   2.332   6.446   5.216 -0.2946 -0.0757  0.2290
 8201TIP3    H124567   2.359   6.532   5.186  0.5202 -0.4123 -0.0177
 8201TIP3    H224568   2.242   6.436   5.183 -0.0381  0.2767 -0.5955
 8202TIP3   OH224569   2.538   4.835   3.916 -0.4922  0.8131  0.3202
 8202TIP3    H124570   2.478   4.903   3.886  1.6789  2.6733 -0.0508
 8202TIP3    H224571   2.601   4.826   3.845  0.0701 -0.6252  0.9647
 8203TIP3   OH224572   4.114   6.295   1.212 -0.2569 -1.1290 -0.0257
 8203TIP3    H124573   4.101   6.219   1.269 -0.0283  0.4089  2.2247
 8203TIP3    H224574   4.160   6.358   1.267  3.3348 -0.7963 -3.0220
 8204TIP3   OH224575   1.942   6.212   2.323 -0.5114  0.1133  0.1154
 8204TIP3    H124576   1.909   6.165   2.246 -0.3157  0.6584 -0.3045
 8204TIP3    H224577   2.035   6.224   2.305 -0.0190 -1.5364  1.3528
 8205TIP3   OH224578   0.472   2.091   3.994  0.3357 -0.2612  0.5474
 8205TIP3    H124579   0.565   2.090   4.018  1.4301  0.6262 -3.0776
 8205TIP3    H224580   0.459   2.177   3.954 -1.6483 -0.9347 -0.3695
 8206TIP3   OH224581   6.666   0.767   2.878 -0.3327 -0.0362  0.3737
 8206TIP3    H124582   6.724   0.737   2.948  0.2866  0.9803  0.3068
 8206TIP3    H224583   6.579   0.769   2.918 -0.0290  0.2588  1.0357
 8207TIP3   OH224584   4.550   3.367   3.695  0.1728 -0.1033 -0.0937
 8207TIP3    H124585   4.559   3.462   3.688  0.4590 -0.2079 -1.3353
 8207TIP3    H224586   4.534   3.338   3.605 -2.6345 -0.9700  0.5841
 8208TIP3   OH224587   2.261   2.817   1.935 -0.0212  0.0670  0.2088
 8208TIP3    H124588   2.218   2.748   1.885  1.9638 -0.6721 -0.5935
 8208TIP3    H224589   2.260   2.786   2.026 -1.8920  0.4920  0.3743
 8209TIP3   OH224590   3.526   0.883   0.388 -0.5242 -0.1736 -0.0569
 8209TIP3    H124591   3.431   0.889   0.395 -0.6367 -1.9104  0.3824
 8209TIP3    H224592   3.557   0.969   0.417 -1.8851 -0.3242  2.1545
 8210TIP3   OH224593   6.884   1.597   0.453 -0.8996 -0.2163  0.0505
 8210TIP3    H124594   6.811   1.616   0.394 -0.3959 -0.4755 -0.6818
 8210TIP3    H224595   6.864   1.645   0.533 -1.1260  0.9540 -0.6790
 8211TIP3   OH224596   5.032   4.426   5.610  0.1393 -0.2534  0.0060
 8211TIP3    H124597   4.992   4.438   5.696  0.4052 -1.7422  0.3520
 8211TIP3    H224598   5.122   4.457   5.620 -0.3787  1.4600 -0.3055
 8212TIP3   OH224599   4.363   1.186   0.254 -0.2151 -0.5348  0.1327
 8212TIP3    H124600   4.277   1.147   0.237  0.1579 -0.7427 -1.4807
 8212TIP3    H224601   4.411   1.118   0.301  0.2432 -1.9049 -2.1579
 8213TIP3   OH224602   4.291   4.727   4.041 -0.1642  0.4051  0.6615
 8213TIP3    H124603   4.333   4.742   4.126  0.1201  1.8439  0.3071
 8213TIP3    H224604   4.217   4.787   4.040  0.1376  0.7808 -0.3001
 8214TIP3   OH224605   2.531   4.975   4.156  0.2384  0.1427  0.3575
 8214TIP3    H124606   2.562   4.921   4.084 -0.2505  0.3398 -0.0022
 8214TIP3    H224607   2.556   4.926   4.235 -0.9478 -1.0394  0.0303
 8215TIP3   OH224608   6.560   0.039   5.594  0.1293 -0.5807 -1.2464
 8215TIP3    H124609   6.507   0.116   5.578 -0.4996 -0.9030 -0.7519
 8215TIP3    H224610   6.500  -0.035   5.582 -0.5823 -0.8928  2.7168
 8216TIP3   OH224611   4.342   6.517   0.782  0.3236 -0.5164  0.1792
 8216TIP3    H124612   4.290   6.596   0.800 -2.1831 -1.9340 -0.3492
 8216TIP3    H224613   4.357   6.519   0.687 -0.4811 -1.0465  0.0270
 8217TIP3   OH224614   2.722   4.102   2.509 -0.8452 -0.2546 -0.8211
 8217TIP3    H124615   2.816   4.085   2.513 -0.7963 -0.2420 -1.6334
 8217TIP3    H224616   2.698   4.079   2.419 -1.3412  1.1597 -1.0688
 8218TIP3   OH224617   5.215   4.124   4.291 -0.8241  0.0903  0.1095
 8218TIP3    H124618   5.224   4.215   4.264 -3.1442  0.2648 -0.2783
 8218TIP3    H224619   5.231   4.125   4.385  3.0232  0.1767 -0.3600
 8219TIP3   OH224620   0.143   4.039   4.389 -0.1467 -0.2792 -0.1768
 8219TIP3    H124621   0.200   4.051   4.313 -0.3703 -1.2622 -0.5166
 8219TIP3    H224622   0.115   4.128   4.413 -0.9697 -0.0191 -1.9366
 8220TIP3   OH224623   0.035   1.839   1.831  1.0338 -0.1197  0.5383
 8220TIP3    H124624   0.043   1.934   1.817  0.1588  0.3160  2.5562
 8220TIP3    H224625  -0.040   1.814   1.777  0.0188  0.7616  1.4710
 8221TIP3   OH224626   6.676   3.467   3.668 -0.1540  0.1301 -0.4721
 8221TIP3    H124627   6.724   3.486   3.588 -1.3034  0.4241 -1.1229
 8221TIP3    H224628   6.686   3.545   3.722 -0.2663  0.3608 -0.7865
 8222TIP3   OH224629   0.954   2.368   0.924  0.8179  0.4301 -0.1222
 8222TIP3    H124630   1.032   2.423   0.918  1.3725 -0.0427  1.9572
 8222TIP3    H224631   0.883   2.428   0.945  1.2684  0.4867  1.3134
 8223TIP3   OH224632   4.317   0.800   4.890 -0.3911  0.4978 -0.3959
 8223TIP3    H124633   4.367   0.734   4.938  1.2096  1.5370 -0.5696
 8223TIP3    H224634   4.225   0.773   4.901  0.1442 -1.1177  0.4474
 8224TIP3   OH224635   6.899   3.794   3.604  0.7818  0.3179  0.6314
 8224TIP3    H124636   6.819   3.847   3.603  0.3372 -0.2935 -1.2501
 8224TIP3    H224637   6.967   3.852   3.569  1.1237  0.7192  1.8876
 8225TIP3   OH224638   5.054   2.564   2.169  0.1679  0.1539 -0.5058
 8225TIP3    H124639   5.120   2.572   2.237  0.3643 -0.4812 -0.6142
 8225TIP3    H224640   4.976   2.533   2.215  0.0926  0.4194 -0.4556
 8226TIP3   OH224641   3.012   6.338   5.766 -0.0693  0.2296 -0.1802
 8226TIP3    H124642   2.959   6.367   5.691  0.9426  0.7110 -0.7261
 8226TIP3    H224643   2.971   6.256   5.793 -0.4090 -0.0019 -1.3254
 8227TIP3   OH224644   3.285   1.825   0.940  0.7528 -0.0353 -0.0534
 8227TIP3    H124645   3.252   1.843   0.852 -0.0556 -1.7875 -0.1623
 8227TIP3    H224646   3.247   1.893   0.995  0.2649  0.3604 -0.8719
 8228TIP3   OH224647   0.692   2.517   5.330  0.5932  0.7243 -0.1897
 8228TIP3    H124648   0.721   2.572   5.403 -0.2603 -0.2929  0.9727
 8228TIP3    H224649   0.601   2.543   5.316 -0.3140 -1.3111  1.3734
 8229TIP3   OH224650   6.625   3.835   4.341 -0.2315  0.1668  0.8275
 8229TIP3    H124651   6.609   3.889   4.263  0.2927  1.0149  1.3004
 8229TIP3    H224652   6.537   3.807   4.369 -0.4354 -0.0806 -0.0040
 8230TIP3   OH224653   1.329   2.180   3.367 -0.1280 -0.5601 -0.0796
 8230TIP3    H124654   1.330   2.128   3.448  0.6611  1.6069  1.4185
 8230TIP3    H224655   1.293   2.265   3.394  1.6015  0.7530 -1.6180
 8231TIP3   OH224656   3.053   5.261   1.947  0.7187  0.1714 -0.8635
 8231TIP3    H124657   3.054   5.166   1.933 -0.3610  0.1624 -0.9466
 8231TIP3    H224658   2.983   5.275   2.011  0.6578  0.9503 -1.0947
 8232TIP3   OH224659   1.864   1.139   0.461 -0.0421  0.0383 -0.1474
 8232TIP3    H124660   1.851   1.046   0.443 -0.5393 -0.2023  1.3419
 8232TIP3    H224661   1.910   1.171   0.384 -1.7143 -0.9736 -1.6766
 8233TIP3   OH224662   7.101   6.321   3.120 -0.9415  0.2700  0.2348
 8233TIP3    H124663   7.165   6.262   3.158 -1.1133 -0.1103 -0.0593
 8233TIP3    H224664   7.090   6.390   3.185  0.2146  0.6707  0.0306
 8234TIP3   OH224665   3.011   3.241   5.832  0.1818 -0.9046  0.0863
 8234TIP3    H124666   2.998   3.308   5.899  2.6636  0.3201 -0.5536
 8234TIP3    H224667   3.072   3.179   5.872 -0.4855 -1.6871 -0.0779
 8235TIP3   OH224668   1.089   6.214   1.710  0.1086 -0.3071  0.0815
 8235TIP3    H124669   1.053   6.292   1.753 -1.5933 -0.6319 -0.6731
 8235TIP3    H224670   1.101   6.150   1.780 -2.2159 -0.6801  0.1932
 8236TIP3   OH224671   6.190   1.349   2.220  0.5361  0.1061  1.1119
 8236TIP3    H124672   6.184   1.273   2.162  0.1077  0.8763  0.1133
 8236TIP3    H224673   6.115   1.341   2.278  1.7617 -1.4515  2.5829
 8237TIP3   OH224674   2.834   5.550   3.086 -0.1942 -0.3617 -0.2550
 8237TIP3    H124675   2.789   5.628   3.118 -0.4435 -0.5371 -0.1853
 8237TIP3    H224676   2.924   5.560   3.117  0.2565  0.8408 -1.8271
 8238TIP3   OH224677   1.347   3.625   1.916  0.0757  0.5668  0.2047
 8238TIP3    H124678   1.294   3.655   1.841  0.8091 -0.7462 -0.8983
 8238TIP3    H224679   1.409   3.563   1.877  0.4151 -0.2220  1.9374
 8239TIP3   OH224680   1.340   0.070   5.461  0.0242 -0.2889 -0.0400
 8239TIP3    H124681   1.297   0.150   5.491 -0.1997 -0.1933 -0.5918
 8239TIP3    H224682   1.285  -0.001   5.492 -0.2451 -0.1888 -0.2830
 8240TIP3   OH224683   2.536   3.362   1.757 -0.3855  0.1380  0.8484
 8240TIP3    H124684   2.540   3.442   1.705 -0.7617 -0.9155 -0.8644
 8240TIP3    H224685   2.528   3.393   1.847  1.1679  2.0261  0.4132
 8241TIP3   OH224686   3.675   3.912   5.229  0.0590  0.6558 -0.2204
 8241TIP3    H124687   3.670   3.964   5.149 -1.2605  1.4200  0.3265
 8241TIP3    H224688   3.614   3.840   5.215  0.1726  0.5306 -0.0799
 8242TIP3   OH224689   4.526   4.113   5.417 -0.5891 -0.3887  0.0768
 8242TIP3    H124690   4.613   4.147   5.396  0.5205 -1.2954  2.7609
 8242TIP3    H224691   4.483   4.185   5.463 -0.2294 -0.7912  1.0732
 8243TIP3   OH224692   6.602   0.469   3.081 -0.0708  0.3517 -0.3349
 8243TIP3    H124693   6.527   0.497   3.134  0.5986 -0.3294  1.0144
 8243TIP3    H224694   6.565   0.406   3.019 -0.7233  0.5188 -0.1228
 8244TIP3   OH224695   2.526   0.364   3.764  0.0379 -0.1815  0.0513
 8244TIP3    H124696   2.617   0.344   3.787 -0.3359 -0.8005  1.0754
 8244TIP3    H224697   2.484   0.278   3.756 -0.2015  0.0530 -1.6244
 8245TIP3   OH224698   6.202   1.743   0.106  0.3870 -0.3035  0.3006
 8245TIP3    H124699   6.229   1.814   0.048  1.4610 -0.2925  0.7969
 8245TIP3    H224700   6.264   1.745   0.179 -0.2415 -1.0441  0.8882
 8246TIP3   OH224701   1.611   2.861   3.688  0.3173  0.1731  0.5055
 8246TIP3    H124702   1.678   2.836   3.751 -0.5101  1.2148  1.8449
 8246TIP3    H224703   1.564   2.779   3.670 -1.4400  0.3071  3.7122
 8247TIP3   OH224704   3.050   1.279   0.172 -0.1339 -0.0845  0.1822
 8247TIP3    H124705   3.100   1.341   0.119  0.2104  0.0089  0.6138
 8247TIP3    H224706   3.020   1.331   0.247  0.2847 -0.4750  0.6247
 8248TIP3   OH224707   0.115   4.346   3.992  0.2576  0.5144  0.1874
 8248TIP3    H124708   0.186   4.286   3.969  0.5380  1.2728 -1.0202
 8248TIP3    H224709   0.037   4.291   3.999  0.4833  0.0121 -1.0609
 8249TIP3   OH224710   0.824   0.191   1.922  0.1614 -0.3783  0.5276
 8249TIP3    H124711   0.897   0.184   1.862 -0.4501  1.6686 -0.5482
 8249TIP3    H224712   0.762   0.124   1.893 -0.1766  0.6504 -1.2671
 8250TIP3   OH224713   5.991   3.479   2.572  0.4287 -0.1245 -0.1558
 8250TIP3    H124714   6.050   3.456   2.500 -0.6246  1.5574 -1.6441
 8250TIP3    H224715   5.903   3.468   2.536 -0.1292  0.4802  0.9547
 8251TIP3   OH224716   3.915   5.850   2.447 -0.0836 -0.5145 -0.1581
 8251TIP3    H124717   3.905   5.828   2.540  2.7108 -0.6700  0.2074
 8251TIP3    H224718   3.949   5.939   2.447 -0.7349 -0.2500 -1.1011
 8252TIP3   OH224719   3.598   0.794   2.652  0.6943 -0.1127  0.0514
 8252TIP3    H124720   3.640   0.867   2.696 -1.1078  0.9966  0.0246
 8252TIP3    H224721   3.662   0.763   2.589  1.8356  0.8276  0.7163
 8253TIP3   OH224722   2.629   1.612   3.942 -0.2013 -0.2136 -0.1532
 8253TIP3    H124723   2.586   1.528   3.961 -0.8106 -0.2106 -1.3633
 8253TIP3    H224724   2.573   1.677   3.983 -0.9719 -0.2689 -1.0599
 8254TIP3   OH224725   0.624   2.192   5.520 -0.1810 -0.6155  0.0212
 8254TIP3    H124726   0.647   2.196   5.427  2.1493 -0.9882  0.5061
 8254TIP3    H224727   0.604   2.282   5.544 -0.6832 -0.5030 -0.8224
 8255TIP3   OH224728   1.331   1.804   4.704 -0.3026  0.6533  0.1190
 8255TIP3    H124729   1.280   1.876   4.741 -2.2204  0.4185 -1.9124
 8255TIP3    H224730   1.414   1.843   4.680 -0.5256  1.6819  0.9453
 8256TIP3   OH224731   2.204   1.362   2.758 -0.6917 -0.4558 -0.1091
 8256TIP3    H124732   2.136   1.396   2.701 -0.0622 -0.4712 -0.8801
 8256TIP3    H224733   2.215   1.429   2.826 -0.1921  0.4102 -1.0210
 8257TIP3   OH224734   4.683   2.040   0.052 -0.4748 -0.1612 -0.2773
 8257TIP3    H124735   4.691   2.135   0.054 -4.4069  0.3256  1.5521
 8257TIP3    H224736   4.639   2.018   0.134  2.2512 -3.9355  0.4605
 8258TIP3   OH224737   4.750   6.110   3.770  0.0023 -0.0396  0.4165
 8258TIP3    H124738   4.792   6.140   3.850 -0.3779 -1.1158  1.0322
 8258TIP3    H224739   4.658   6.097   3.793  0.1474 -1.6892  0.2098
 8259TIP3   OH224740   0.667   2.857   4.191 -0.1152 -0.7468 -0.1326
 8259TIP3    H124741   0.615   2.803   4.251  1.6099  0.6788  2.9068
 8259TIP3    H224742   0.757   2.850   4.224  0.6395  1.5988 -1.4121
 8260TIP3   OH224743   6.722   5.780   2.500  0.1394  0.0068 -0.0374
 8260TIP3    H124744   6.660   5.752   2.568  0.2824 -1.8697 -0.6395
 8260TIP3    H224745   6.677   5.852   2.455 -0.7857 -0.0440  0.7753
 8261TIP3   OH224746   3.981   3.860   3.970  0.0584 -0.4467 -0.5672
 8261TIP3    H124747   3.984   3.955   3.982 -1.1520 -0.4463 -0.1248
 8261TIP3    H224748   3.946   3.847   3.882 -1.7874 -0.4523  0.1168
 8262TIP3   OH224749   2.349   1.482   4.604 -0.3690 -0.1731 -0.6832
 8262TIP3    H124750   2.439   1.456   4.625  0.0278 -0.9111 -2.9778
 8262TIP3    H224751   2.342   1.572   4.635  0.8342 -0.4082  0.3831
 8263TIP3   OH224752   4.606   0.985   3.449 -0.3195  0.3436 -0.1903
 8263TIP3    H124753   4.640   1.006   3.362  0.8061  0.2406  0.1984
 8263TIP3    H224754   4.514   1.010   3.446 -0.0681  1.2323 -1.1082
 8264TIP3   OH224755   0.530   5.555   3.214 -0.0156  0.0375  0.0029
 8264TIP3    H124756   0.481   5.611   3.273  0.0032 -0.4343  0.4695
 8264TIP3    H224757   0.529   5.602   3.130  0.8111  1.1947  0.6066
 8265TIP3   OH224758   2.227   4.850   0.009 -0.0682  0.3276 -0.6259
 8265TIP3    H124759   2.310   4.881  -0.028 -0.1035  2.0854  0.5830
 8265TIP3    H224760   2.221   4.896   0.093 -2.5179  0.6490 -0.9146
 8266TIP3   OH224761   2.859   2.997   3.911 -0.1940  0.1119 -0.4630
 8266TIP3    H124762   2.818   2.911   3.920  1.0498 -0.4654 -0.0699
 8266TIP3    H224763   2.855   3.015   3.817 -0.6002 -0.3050 -0.5317
 8267TIP3   OH224764   0.424   0.780   1.287  0.3470  0.6638  0.0461
 8267TIP3    H124765   0.434   0.872   1.261  0.4323  1.0687  1.4250
 8267TIP3    H224766   0.364   0.782   1.362  0.2260 -0.4230 -0.0011
 8268TIP3   OH224767   4.043   0.440   2.057  0.1428  0.0101  0.3549
 8268TIP3    H124768   4.049   0.403   2.145  0.5809 -2.1544 -0.5080
 8268TIP3    H224769   3.952   0.427   2.032 -0.4003  2.1610  1.0670
 8269TIP3   OH224770   6.277   2.951   2.034 -0.2432 -0.1409 -0.0985
 8269TIP3    H124771   6.242   3.040   2.031 -0.4077 -0.2096 -0.2574
 8269TIP3    H224772   6.319   2.939   1.949  1.3108  0.3954  0.5533
 8270TIP3   OH224773   4.606   5.772   4.271 -0.0566 -0.1850  0.0756
 8270TIP3    H124774   4.673   5.724   4.320 -0.5642 -0.2180  0.7576
 8270TIP3    H224775   4.651   5.848   4.236  0.5107 -0.6077 -0.1200
 8271TIP3   OH224776   5.126   1.497   2.084  0.0137  0.5625  0.0588
 8271TIP3    H124777   5.036   1.498   2.116 -0.1834  1.6635 -0.4921
 8271TIP3    H224778   5.143   1.587   2.057  0.7866  0.0600 -1.2226
 8272TIP3   OH224779   4.322   5.101   3.324 -0.0393 -0.2403 -0.6757
 8272TIP3    H124780   4.229   5.119   3.317  0.0279  0.0211 -0.9072
 8272TIP3    H224781   4.355   5.165   3.387 -0.4682 -1.9626  1.4385
 8273TIP3   OH224782   5.866   0.691   1.503 -0.0864 -0.1892  0.2037
 8273TIP3    H124783   5.876   0.627   1.574 -1.5363  1.8962  2.4891
 8273TIP3    H224784   5.874   0.776   1.547 -0.9371  1.2267 -2.1835
 8274TIP3   OH224785   2.417   6.740   0.377  0.2675 -0.3942 -0.2936
 8274TIP3    H124786   2.424   6.790   0.458 -1.7309 -0.2254 -0.1667
 8274TIP3    H224787   2.397   6.651   0.405 -0.9998 -0.2199 -0.5717
 8275TIP3   OH224788   2.649   3.806   2.068 -0.0065 -0.2228 -0.7491
 8275TIP3    H124789   2.626   3.736   2.128 -1.8502  0.0545 -1.0818
 8275TIP3    H224790   2.569   3.823   2.018  0.9013  0.9030 -1.9111
 8276TIP3   OH224791   3.225   6.086   5.700 -0.1869 -0.4721  0.6595
 8276TIP3    H124792   3.183   6.044   5.624 -0.1014  0.1390  0.2688
 8276TIP3    H224793   3.152   6.121   5.750 -0.2174 -0.5019  0.6368
 8277TIP3   OH224794   5.045   4.718   3.464  0.4250 -0.0319 -0.0874
 8277TIP3    H124795   5.096   4.743   3.387  0.6352  1.4472  0.5083
 8277TIP3    H224796   5.078   4.631   3.486  1.1371 -0.0182 -1.0077
 8278TIP3   OH224797   1.301   1.974   0.460  0.0743 -0.1432 -0.8056
 8278TIP3    H124798   1.248   2.053   0.466  0.2442  0.0636 -1.9448
 8278TIP3    H224799   1.253   1.917   0.401  0.4739 -0.4720 -0.8184
 8279TIP3   OH224800   4.644   2.271   0.207 -0.2354 -0.6892 -0.1891
 8279TIP3    H124801   4.713   2.318   0.160  0.5239  1.3680  2.6652
 8279TIP3    H224802   4.690   2.228   0.280 -1.8047  0.1191  1.3459
 8280TIP3   OH224803   6.026   3.540   4.327  0.4162 -0.2015  0.1507
 8280TIP3    H124804   5.937   3.549   4.360  0.1727  0.4966 -0.6630
 8280TIP3    H224805   6.034   3.448   4.302 -0.3969 -0.0686 -0.6360
 8281TIP3   OH224806   5.764   0.966   3.400 -0.2297  0.5610  0.0209
 8281TIP3    H124807   5.684   0.926   3.366 -1.1609  1.3242  1.2021
 8281TIP3    H224808   5.778   0.921   3.484  0.6482  0.3546 -0.2353
 8282TIP3   OH224809   7.002   3.769   1.896  0.6315  0.2987 -0.7832
 8282TIP3    H124810   6.922   3.785   1.847  2.1117 -1.2056 -4.0290
 8282TIP3    H224811   6.973   3.732   1.979 -2.0581  3.1121 -0.2855
 8283TIP3   OH224812   3.273   0.931   3.632 -0.1434  0.2569 -0.3637
 8283TIP3    H124813   3.300   0.842   3.653  0.6036  0.5042 -0.2461
 8283TIP3    H224814   3.182   0.936   3.661 -0.2326 -0.5049 -0.4938
 8284TIP3   OH224815   6.430   0.754   1.506  0.2437  0.3948 -0.3626
 8284TIP3    H124816   6.499   0.803   1.462 -0.3081  1.1669 -0.4012
 8284TIP3    H224817   6.356   0.757   1.444 -0.0589  0.2167 -0.0159
 8285TIP3   OH224818   1.716   6.362   0.133  0.0697  0.3017  0.1349
 8285TIP3    H124819   1.752   6.330   0.216  0.6167  0.1627 -0.1511
 8285TIP3    H224820   1.655   6.431   0.158 -2.1229 -1.7450  0.8841
 8286TIP3   OH224821   7.164   0.323   3.064  0.3934  0.1293  0.0870
 8286TIP3    H124822   7.098   0.256   3.085  1.3158 -0.4975  1.0668
 8286TIP3    H224823   7.129   0.366   2.986 -1.7413  0.5911  1.2272
 8287TIP3   OH224824   2.803   2.641   1.450 -0.2307 -0.0968  0.1885
 8287TIP3    H124825   2.721   2.633   1.401  0.3511 -0.3367 -0.7817
 8287TIP3    H224826   2.801   2.729   1.485 -0.3872  0.3140 -0.8138
 8288TIP3   OH224827   2.697   0.558   5.620  0.2052  0.1656  0.0379
 8288TIP3    H124828   2.738   0.540   5.705  2.0433  1.1096 -0.5804
 8288TIP3    H224829   2.768   0.545   5.557 -0.7953  0.7019 -1.2356
 8289TIP3   OH224830   7.149   4.042   1.818  0.6740 -0.0176  0.1211
 8289TIP3    H124831   7.055   4.025   1.825  0.2161  1.9691 -0.6829
 8289TIP3    H224832   7.186   3.959   1.788 -1.0058 -0.4463 -0.8744
 8290TIP3   OH224833   3.113   2.369   4.237 -0.9324  0.3043 -0.1222
 8290TIP3    H124834   3.102   2.397   4.328  0.2374 -1.4660  0.6067
 8290TIP3    H224835   3.175   2.433   4.200 -2.0490  1.5260  0.0365
 8291TIP3   OH224836   4.515   5.828   1.000  0.0403 -0.4028  0.1901
 8291TIP3    H124837   4.425   5.814   1.029  0.5190 -1.4334  1.2240
 8291TIP3    H224838   4.564   5.754   1.035  1.5138  0.7129  0.5832
 8292TIP3   OH224839   0.612   1.195   0.603 -0.5325  0.0452 -0.4649
 8292TIP3    H124840   0.590   1.227   0.515  1.4128 -1.0968 -1.4275
 8292TIP3    H224841   0.684   1.252   0.632 -1.4044  0.6564  0.5901
 8293TIP3   OH224842   5.123   5.789   1.610 -0.1800 -0.1995  0.1704
 8293TIP3    H124843   5.175   5.863   1.579 -0.7664 -0.2373 -0.9873
 8293TIP3    H224844   5.034   5.810   1.581 -0.5533 -0.8011  0.8663
 8294TIP3   OH224845   5.700   1.735   3.327  0.7612  0.1724 -0.1036
 8294TIP3    H124846   5.628   1.675   3.348  2.3735 -1.3372  1.5099
 8294TIP3    H224847   5.678   1.770   3.241 -1.8709 -0.2187  0.3334
 8295TIP3   OH224848   2.207   1.555   2.064  0.0985  0.7421 -0.1075
 8295TIP3    H124849   2.212   1.477   2.009 -1.4501 -0.1377  0.9248
 8295TIP3    H224850   2.160   1.619   2.010  1.0920  0.9003 -0.8341
 8296TIP3   OH224851   0.829   6.447   2.794 -0.3492  0.2241 -0.0878
 8296TIP3    H124852   0.770   6.476   2.864  0.5972 -0.1209  0.8833
 8296TIP3    H224853   0.902   6.407   2.840  0.9271  1.1475 -1.2388
 8297TIP3   OH224854   4.243   4.981   2.713 -0.0628 -0.6848  0.4731
 8297TIP3    H124855   4.306   4.977   2.785  0.1896 -1.4082  0.2174
 8297TIP3    H224856   4.173   5.037   2.747  1.4565  1.5513  0.1554
 8298TIP3   OH224857   6.174   0.061   5.439 -0.1383 -0.1269  0.5523
 8298TIP3    H124858   6.218   0.002   5.378 -0.9892 -1.5188  1.2296
 8298TIP3    H224859   6.238   0.129   5.458  1.5383 -1.7891  1.0978
 8299TIP3   OH224860   4.050   0.037   4.134 -0.0157 -0.2210  0.1568
 8299TIP3    H124861   4.024   0.123   4.100 -0.6607 -0.8076 -0.8692
 8299TIP3    H224862   4.123   0.057   4.193  0.0179  1.0088 -0.2561
 8300TIP3   OH224863   3.496   6.756   2.736  0.2971 -0.0068  0.1469
 8300TIP3    H124864   3.495   6.740   2.831  1.6441  0.5122  0.2648
 8300TIP3    H224865   3.589   6.759   2.713 -0.0145  0.2936 -1.1242
 8301TIP3   OH224866   0.406   3.942   5.326  0.4165  0.3772 -0.1244
 8301TIP3    H124867   0.488   3.893   5.325  0.5394  0.5873 -0.4664
 8301TIP3    H224868   0.423   4.020   5.273  0.2923  0.9197  0.6217
 8302TIP3   OH224869   1.383   5.722   2.924  0.3404 -0.3497 -0.1444
 8302TIP3    H124870   1.458   5.675   2.961 -0.3131 -2.4733 -1.3529
 8302TIP3    H224871   1.421   5.772   2.851  0.9923  0.8093  0.9536
 8303TIP3   OH224872   5.524   5.365   3.651 -0.4725  0.7486 -0.0774
 8303TIP3    H124873   5.437   5.328   3.667 -0.2890 -0.5230 -1.7502
 8303TIP3    H224874   5.532   5.369   3.556  0.7850  2.1671  0.0390
 8304TIP3   OH224875   0.391   6.440   2.144  0.0339 -0.2848  0.3874
 8304TIP3    H124876   0.486   6.442   2.139  0.1679  1.2996  2.2213
 8304TIP3    H224877   0.368   6.349   2.127  1.9524 -0.8986  0.8236
 8305TIP3   OH224878   3.395   4.556   1.566 -0.9153  0.3475 -0.2780
 8305TIP3    H124879   3.412   4.498   1.492  0.8881  0.9662 -0.3961
 8305TIP3    H224880   3.399   4.499   1.643 -0.3552  0.0898 -0.4897
 8306TIP3   OH224881   0.831   0.660   1.492  0.2067 -0.4397  0.1767
 8306TIP3    H124882   0.857   0.581   1.538  1.4326 -0.2354 -0.1317
 8306TIP3    H224883   0.850   0.643   1.400  0.4687  0.1966  0.1027
 8307TIP3   OH224884   3.433   3.428   2.612  0.3749  0.8580 -0.9312
 8307TIP3    H124885   3.527   3.421   2.595  0.6514 -1.2735  0.9502
 8307TIP3    H224886   3.394   3.443   2.526  2.3526  0.7950 -1.8937
 8308TIP3   OH224887   6.541   1.554   2.450 -0.0686  0.1395  0.2120
 8308TIP3    H124888   6.521   1.637   2.494  1.3088  0.8960 -0.5376
 8308TIP3    H224889   6.631   1.534   2.475 -0.9439 -2.1104  1.8373
 8309TIP3   OH224890   3.986   3.193   4.817 -0.2687  0.1642  0.4492
 8309TIP3    H124891   3.943   3.108   4.815  0.0532 -0.0932  2.4843
 8309TIP3    H224892   4.078   3.174   4.798 -0.3046  0.1667  0.2632
 8310TIP3   OH224893   4.653   0.583   1.407 -1.3469  0.2266  0.5088
 8310TIP3    H124894   4.626   0.643   1.477 -0.1182 -1.0465  2.1506
 8310TIP3    H224895   4.745   0.604   1.392 -0.6770 -1.6678  1.6475
 8311TIP3   OH224896   1.159   6.149   2.032 -0.1493  0.0402 -0.6416
 8311TIP3    H124897   1.252   6.129   2.043 -0.0514  1.1442  0.7524
 8311TIP3    H224898   1.135   6.197   2.111 -1.8895 -0.1290 -1.0282
 8312TIP3   OH224899   0.364   6.326   5.392  0.3550 -0.0858  0.0238
 8312TIP3    H124900   0.449   6.368   5.404  0.4615  0.1327 -1.3526
 8312TIP3    H224901   0.302   6.381   5.440  0.6651  1.0250 -0.8124
 8313TIP3   OH224902   1.624   4.367   0.420 -0.0399 -0.0816 -0.0280
 8313TIP3    H124903   1.560   4.357   0.350  0.9020  1.0853 -1.1155
 8313TIP3    H224904   1.601   4.300   0.485  0.0586 -2.3603 -2.2119
 8314TIP3   OH224905   0.618   4.732   0.738 -0.5489  0.2228 -0.1087
 8314TIP3    H124906   0.670   4.665   0.695  0.2321  0.9353 -0.3097
 8314TIP3    H224907   0.541   4.742   0.682  0.4745  1.1682 -1.4162
 8315TIP3   OH224908   0.749   1.115   4.157 -0.4344 -0.4667 -0.4671
 8315TIP3    H124909   0.782   1.097   4.245  1.1051  0.2313 -0.8547
 8315TIP3    H224910   0.662   1.151   4.171  0.9537  2.7717  1.1086
 8316TIP3   OH224911   0.958   0.976   1.043  0.1977  0.1304 -0.4632
 8316TIP3    H124912   0.904   1.017   0.976  0.0593 -0.0320 -0.4538
 8316TIP3    H224913   1.002   0.904   0.998 -1.6484 -1.4284  0.1054
 8317TIP3   OH224914   4.121   2.308   2.182 -0.1863 -0.1091  0.4367
 8317TIP3    H124915   4.148   2.342   2.268 -0.6903 -0.4852  0.7527
 8317TIP3    H224916   4.085   2.221   2.201 -0.6493 -0.0450 -0.1017
 8318TIP3   OH224917   0.223   4.071   3.923 -0.1117 -0.6313 -0.2177
 8318TIP3    H124918   0.225   3.989   3.874 -0.0131 -1.3339  0.9176
 8318TIP3    H224919   0.205   4.045   4.013  1.4122  0.4482  0.4466
 8319TIP3   OH224920   3.904   2.133   4.437  0.4976  0.5435  0.1251
 8319TIP3    H124921   3.891   2.095   4.350  0.2906  0.3448  0.2375
 8319TIP3    H224922   3.903   2.227   4.423  2.1579  0.5168 -0.3176
 8320TIP3   OH224923   2.513   2.760   0.755 -0.1154 -0.0330  0.0372
 8320TIP3    H124924   2.587   2.782   0.812 -0.5971  0.1386  0.5930
 8320TIP3    H224925   2.528   2.668   0.733 -1.0840 -0.7780  2.2299
 8321TIP3   OH224926   3.440   1.830   2.940 -0.0160 -0.4899  0.0252
 8321TIP3    H124927   3.475   1.793   3.021  0.3302 -0.6762 -0.2090
 8321TIP3    H224928   3.345   1.833   2.955 -0.0094 -1.0663  0.2184
 8322TIP3   OH224929   2.544   3.591   2.287  0.1097  0.4561 -0.0639
 8322TIP3    H124930   2.505   3.678   2.289 -0.2084  0.3229 -0.3876
 8322TIP3    H224931   2.470   3.531   2.284  0.3064  0.1267  1.2729
 8323TIP3   OH224932   0.379   0.287   3.781 -0.1379 -0.1037 -0.7821
 8323TIP3    H124933   0.444   0.355   3.768  0.4975 -0.8884 -1.7712
 8323TIP3    H224934   0.409   0.213   3.729 -1.7824 -0.5134 -1.2325
 8324TIP3   OH224935   1.773   3.853   1.720 -0.6438  0.3540 -0.0723
 8324TIP3    H124936   1.722   3.875   1.799  1.8086  2.1676  1.1214
 8324TIP3    H224937   1.841   3.920   1.716  1.2971 -1.5821 -1.9151
 8325TIP3   OH224938   2.043   3.709   4.261 -0.8783 -0.4227 -0.0510
 8325TIP3    H124939   2.023   3.801   4.278 -2.0980 -0.5158 -0.8023
 8325TIP3    H224940   1.994   3.661   4.329 -1.0613 -0.5495 -0.2699
 8326TIP3   OH224941   0.922   1.228   3.295 -0.3802 -0.1599  0.2779
 8326TIP3    H124942   0.995   1.277   3.333 -1.8649  1.7867  0.8071
 8326TIP3    H224943   0.871   1.197   3.370 -0.7813 -0.3984 -0.0830
 8327TIP3   OH224944   2.350   2.110   1.668  0.4971 -0.3115  0.0870
 8327TIP3    H124945   2.434   2.144   1.635  1.4132  0.6303  3.0430
 8327TIP3    H224946   2.372   2.024   1.704 -0.1512 -0.6974 -0.4205
 8328TIP3   OH224947   1.221   2.262   3.045 -0.4231  0.6022  0.1254
 8328TIP3    H124948   1.126   2.261   3.057 -0.8813 -1.4461 -2.7733
 8328TIP3    H224949   1.255   2.218   3.123 -1.6877  2.1357  1.6419
 8329TIP3   OH224950   4.478   0.573   4.223  0.1538 -0.0731 -0.3790
 8329TIP3    H124951   4.433   0.608   4.146 -1.3235  0.5216  0.7103
 8329TIP3    H224952   4.482   0.479   4.208 -0.7856 -0.0468 -0.8586
 8330TIP3   OH224953   2.670   1.384   2.340 -0.2897 -0.0041  0.8445
 8330TIP3    H124954   2.650   1.449   2.407  0.2142 -0.0118  1.0022
 8330TIP3    H224955   2.756   1.350   2.363 -0.0659  0.0622  0.1364
 8331TIP3   OH224956   5.389   4.260   1.512  0.5583 -0.0088 -0.4076
 8331TIP3    H124957   5.442   4.284   1.588 -1.2937 -1.8394  1.6257
 8331TIP3    H224958   5.317   4.323   1.512  0.3356 -0.2612 -0.3860
 8332TIP3   OH224959   5.896   3.773   5.779  0.3232  0.8582  0.5271
 8332TIP3    H124960   5.894   3.741   5.869  3.2665  0.4395  0.5369
 8332TIP3    H224961   5.807   3.762   5.747  0.4916 -6.0711  0.9745
 8333TIP3   OH224962   3.864   1.127   0.841 -0.7691 -0.2134  0.0108
 8333TIP3    H124963   3.820   1.204   0.806  0.9340 -0.0107 -1.8420
 8333TIP3    H224964   3.907   1.158   0.921 -2.3348  0.0354  0.7931
 8334TIP3   OH224965   6.657   3.194   2.218  0.1683 -0.1683 -0.1144
 8334TIP3    H124966   6.626   3.261   2.279  0.4614  0.6123 -0.8011
 8334TIP3    H224967   6.597   3.120   2.230 -0.5735  0.4692  0.1710
 8335TIP3   OH224968   6.385   3.024   0.089  0.4972  0.4457  0.0969
 8335TIP3    H124969   6.393   2.957   0.157 -0.4943 -0.0686 -0.2696
 8335TIP3    H224970   6.314   3.080   0.120 -0.7963 -0.4910 -1.0513
 8336TIP3   OH224971   6.863   4.015   3.287  0.3173  0.5104 -0.3082
 8336TIP3    H124972   6.771   4.007   3.312  0.6430  1.4729  1.3104
 8336TIP3    H224973   6.877   3.942   3.226 -1.4422  0.2098 -0.4088
 8337TIP3   OH224974   6.208   1.443   2.512  0.4161  0.1392 -0.2388
 8337TIP3    H124975   6.254   1.424   2.430  1.6171  1.4782  0.0907
 8337TIP3    H224976   6.131   1.385   2.510  0.7607 -0.3204 -1.9952
 8338TIP3   OH224977   0.603   0.044   0.169 -0.1684 -0.5404  0.2933
 8338TIP3    H124978   0.689   0.035   0.211  0.1017 -2.1040 -0.5342
 8338TIP3    H224979   0.543   0.062   0.242  0.6961 -0.5176  1.0199
 8339TIP3   OH224980   6.965   2.695   3.813  0.4853 -0.3830  0.2154
 8339TIP3    H124981   7.026   2.696   3.887 -0.4933 -0.6981  1.0618
 8339TIP3    H224982   6.941   2.787   3.800  0.6148 -0.3324  0.3306
 8340TIP3   OH224983   1.070   4.765   5.078  0.7255 -0.1335 -0.1965
 8340TIP3    H124984   0.996   4.811   5.037 -0.0469 -0.7145  0.5019
 8340TIP3    H224985   1.130   4.747   5.006  0.2420  0.4629 -0.7612
 8341TIP3   OH224986   3.132   5.862   3.621  0.3480 -0.0446 -0.2419
 8341TIP3    H124987   3.217   5.869   3.665  0.5278 -0.1307 -0.5762
 8341TIP3    H224988   3.150   5.883   3.530 -0.1673  0.8864 -0.1371
 8342TIP3   OH224989   5.518   4.386   4.077  0.3206  0.0360 -0.1502
 8342TIP3    H124990   5.473   4.465   4.107 -0.2037 -0.3756  0.1745
 8342TIP3    H224991   5.448   4.323   4.063  0.5483  0.2039 -2.2944
 8343TIP3   OH224992   3.174   6.547   0.968  0.4384  0.2862 -0.5912
 8343TIP3    H124993   3.243   6.578   0.909  0.7473  0.7903  0.0276
 8343TIP3    H224994   3.166   6.454   0.947 -0.3932  0.7004 -2.3649
 8344TIP3   OH224995   1.415   4.967   4.804 -0.2371 -0.4741 -0.6684
 8344TIP3    H124996   1.482   4.926   4.750  1.3341  0.9389  0.1063
 8344TIP3    H224997   1.364   5.021   4.743  0.9212  0.3658 -0.9161
 8345TIP3   OH224998   4.842   4.092   4.918  0.2489 -0.4082 -0.4906
 8345TIP3    H124999   4.760   4.056   4.884  0.2221 -0.3420 -0.4978
 8345TIP3    H225000   4.872   4.028   4.982 -0.1553 -0.1097  0.0053
 8346TIP3   OH225001   3.038   0.668   4.609 -0.0359  0.5206  0.0861
 8346TIP3    H125002   3.044   0.614   4.530 -2.1918  1.1455 -0.5765
 8346TIP3    H225003   3.121   0.716   4.612  1.6261 -2.1547  0.2622
 8347TIP3   OH225004   5.648   2.929   0.478 -0.4119  0.2644 -0.5752
 8347TIP3    H125005   5.603   2.856   0.519  0.5828  0.0416  0.1546
 8347TIP3    H225006   5.578   2.982   0.439 -1.1843 -0.7330 -0.5662
 8348TIP3   OH225007   0.289   3.303   1.299  0.0257 -0.0372  0.2098
 8348TIP3    H125008   0.277   3.258   1.383 -1.1215 -2.4452 -1.1429
 8348TIP3    H225009   0.355   3.371   1.318  0.2395 -0.8567  2.8923
 8349TIP3   OH225010   7.120   3.164   0.375 -0.3816 -0.1226 -0.0815
 8349TIP3    H125011   7.032   3.134   0.350 -1.1911  0.3840  1.9836
 8349TIP3    H225012   7.148   3.217   0.301 -2.8780  1.7655  0.1942
 8350TIP3   OH225013   1.552   3.887   3.578  0.2866  0.2450  0.5312
 8350TIP3    H125014   1.603   3.879   3.498  0.5773  0.8283  0.6543
 8350TIP3    H225015   1.577   3.972   3.614 -1.2258  0.8361  0.2614
 8351TIP3   OH225016   6.375   1.748   4.937  0.0874  0.2143 -0.6806
 8351TIP3    H125017   6.404   1.834   4.969 -0.8327  0.3695 -0.2461
 8351TIP3    H225018   6.456   1.698   4.929  0.5120  0.7048  0.3149
 8352TIP3   OH225019   6.232   3.850   0.494 -0.0462 -0.2347  0.1027
 8352TIP3    H125020   6.229   3.795   0.573  1.5709 -1.2839 -0.5047
 8352TIP3    H225021   6.165   3.814   0.437  0.7258 -1.3837 -0.1241
 8353TIP3   OH225022   1.719   6.693   5.020  1.0537 -0.7311  0.1456
 8353TIP3    H125023   1.662   6.750   5.072 -1.3632  0.6920 -3.6392
 8353TIP3    H225024   1.799   6.744   5.009  0.2430  0.4940 -0.3338
 8354TIP3   OH225025   3.059   2.669   3.743  0.8616  0.0642  0.2958
 8354TIP3    H125026   2.990   2.657   3.678 -0.2952  1.7340  1.1291
 8354TIP3    H225027   3.093   2.757   3.726  1.1327  0.1883  1.3968
 8355TIP3   OH225028   4.450   1.681   5.461 -0.0709 -0.2373 -0.6722
 8355TIP3    H125029   4.516   1.710   5.524 -1.4133 -2.9886  2.2709
 8355TIP3    H225030   4.367   1.706   5.500 -0.9155 -0.3497 -2.3353
 8356TIP3   OH225031   6.851   1.011   1.497  0.0771  0.5627 -0.3259
 8356TIP3    H125032   6.859   1.086   1.556 -0.4746 -1.0030  1.8543
 8356TIP3    H225033   6.941   0.981   1.483  0.2674  1.3589 -0.9140
 8357TIP3   OH225034   1.941   2.686   0.248 -0.1072 -0.0576 -0.4261
 8357TIP3    H125035   2.017   2.665   0.302 -0.4575 -2.0632 -0.6231
 8357TIP3    H225036   1.946   2.625   0.174 -1.7484 -0.0844 -0.5703
 8358TIP3   OH225037   6.121   3.090   0.647  0.2206 -0.0533  0.0546
 8358TIP3    H125038   6.114   3.070   0.553  1.8337 -0.8942  0.0729
 8358TIP3    H225039   6.206   3.132   0.656 -0.0378  0.2587  1.1143
 8359TIP3   OH225040   5.555   2.531   1.956 -0.3035  0.2902 -0.0866
 8359TIP3    H125041   5.514   2.615   1.976  1.3627  1.1483 -0.0515
 8359TIP3    H225042   5.630   2.527   2.016 -0.1032 -1.0204 -0.4022
 8360TIP3   OH225043   0.264   1.409   1.760 -0.0076 -0.2113  0.5621
 8360TIP3    H125044   0.321   1.435   1.688 -0.1289  0.1576  0.5975
 8360TIP3    H225045   0.311   1.437   1.839 -0.4839  0.5914  0.5715
 8361TIP3   OH225046   2.575   5.899   4.785  0.2769  0.3773  0.3433
 8361TIP3    H125047   2.639   5.941   4.842  0.0035  2.2424 -0.6338
 8361TIP3    H225048   2.625   5.872   4.708  0.1838  0.3194  0.3020
 8362TIP3   OH225049   2.148   2.155   5.827  0.9842 -0.4484 -0.3686
 8362TIP3    H125050   2.187   2.163   5.739  2.2320  0.8592  0.2617
 8362TIP3    H225051   2.200   2.214   5.881 -1.0591  0.3366  0.8305
 8363TIP3   OH225052   5.140   0.818   5.154  0.4563  0.2719  0.1719
 8363TIP3    H125053   5.175   0.892   5.204  0.9412  0.3849 -0.3261
 8363TIP3    H225054   5.079   0.857   5.092  1.8204  0.4377 -1.1017
 8364TIP3   OH225055   3.790   3.766   2.693  0.0135 -0.3795  0.8249
 8364TIP3    H125056   3.790   3.840   2.755 -1.7374 -0.6877  1.2425
 8364TIP3    H225057   3.727   3.792   2.626  1.1314 -0.5069 -0.3018
 8365TIP3   OH225058   3.282   6.805   3.286 -0.4177  0.2499 -0.4397
 8365TIP3    H125059   3.260   6.736   3.348 -0.8921  1.7655  1.1679
 8365TIP3    H225060   3.317   6.759   3.210 -1.3634 -1.7757  0.2775
 8366TIP3   OH225061   2.871   3.412   4.584  0.0089  0.4539  0.3988
 8366TIP3    H125062   2.791   3.376   4.546  0.5822  0.5032 -0.9254
 8366TIP3    H225063   2.932   3.419   4.510  1.1573  0.6494  1.3207
 8367TIP3   OH225064   6.845   3.745   0.220  0.1942 -0.1324  0.0646
 8367TIP3    H125065   6.835   3.831   0.179  1.1245 -0.2577 -0.4301
 8367TIP3    H225066   6.939   3.735   0.234  0.1140 -1.1560 -0.0552
 8368TIP3   OH225067   3.200   0.967   1.605 -0.8252 -0.1778 -0.8025
 8368TIP3    H125068   3.201   0.967   1.701 -0.6667  0.2330 -0.7981
 8368TIP3    H225069   3.124   0.915   1.581 -0.9590 -0.1474 -0.4476
 8369TIP3   OH225070   4.616   1.506   4.089 -0.2540  0.5805 -0.4448
 8369TIP3    H125071   4.712   1.507   4.091 -0.2283 -0.9201  0.3605
 8369TIP3    H225072   4.592   1.584   4.038  1.3980  0.7423 -1.0258
 8370TIP3   OH225073   3.774   0.775   0.028  0.1735 -0.4898  0.1223
 8370TIP3    H125074   3.681   0.761   0.046  0.2477 -1.3316 -0.0735
 8370TIP3    H225075   3.795   0.709  -0.038  0.4295  1.0471 -1.4036
 8371TIP3   OH225076   4.374   6.733   0.596  0.1197 -0.1037 -0.0157
 8371TIP3    H125077   4.317   6.776   0.532 -0.5105  0.2536  0.7717
 8371TIP3    H225078   4.414   6.661   0.547 -0.5213  0.0220 -0.7516
 8372TIP3   OH225079   6.124   0.900   0.731  0.0954 -0.3068  0.5397
 8372TIP3    H125080   6.219   0.900   0.732  0.0991 -0.0678  0.3117
 8372TIP3    H225081   6.099   0.937   0.816  0.1897 -1.5718  1.1350
 8373TIP3   OH225082   6.380   6.691   2.780  0.4653  0.5668  0.1119
 8373TIP3    H125083   6.325   6.758   2.739 -0.5654 -0.2783  0.0908
 8373TIP3    H225084   6.346   6.608   2.748  1.4758  0.0002  0.4573
 8374TIP3   OH225085   6.450   0.594   1.711 -0.0584  0.0225 -0.3164
 8374TIP3    H125086   6.422   0.507   1.683  1.6317 -0.4405 -0.6919
 8374TIP3    H225087   6.451   0.646   1.631 -1.1359  0.4410 -0.0813
 8375TIP3   OH225088   6.350   4.064   4.137 -0.0369 -0.1009  0.3114
 8375TIP3    H125089   6.326   4.081   4.229 -1.3737 -2.4160  0.4599
 8375TIP3    H225090   6.268   4.035   4.096  0.4822  1.1537 -1.7227
 8376TIP3   OH225091   0.685   2.362   0.507  0.4016  0.4207 -0.4246
 8376TIP3    H125092   0.632   2.282   0.512 -1.5484  1.6878  0.8574
 8376TIP3    H225093   0.765   2.340   0.554 -0.2888 -0.6700  0.3110
 8377TIP3   OH225094   3.800   5.230   1.083  0.1101 -0.2330  0.0297
 8377TIP3    H125095   3.776   5.256   0.994 -0.9908  0.8134  0.5950
 8377TIP3    H225096   3.876   5.284   1.105 -1.3467  1.6601  0.7088
 8378TIP3   OH225097   6.555   4.850   4.587 -0.2671 -0.2641 -0.3196
 8378TIP3    H125098   6.547   4.764   4.627 -2.3682 -0.2981 -0.7079
 8378TIP3    H225099   6.603   4.902   4.652 -0.6895 -1.2026  0.7806
 8379TIP3   OH225100   5.480   3.775   1.065  0.5179  0.1348 -0.3508
 8379TIP3    H125101   5.526   3.854   1.037  2.8929 -1.9073 -2.7856
 8379TIP3    H225102   5.484   3.717   0.989 -0.5121 -2.6089  1.5257
 8380TIP3   OH225103   3.362   0.518   3.293 -0.2160 -0.2584 -0.3776
 8380TIP3    H125104   3.427   0.510   3.364  1.0823 -0.1862 -1.5151
 8380TIP3    H225105   3.295   0.453   3.315  0.4976 -0.7131  0.5595
 8381TIP3   OH225106   3.028   0.368   5.122 -0.0006  0.0091  0.4143
 8381TIP3    H125107   3.109   0.398   5.162 -0.8526  1.1976  1.3511
 8381TIP3    H225108   2.987   0.312   5.188  2.1768 -4.7451 -1.7667
 8382TIP3   OH225109   2.387   2.887   5.832 -0.2228 -0.0400  0.1016
 8382TIP3    H125110   2.420   2.908   5.920 -0.9511 -1.2054  0.6753
 8382TIP3    H225111   2.292   2.883   5.842 -0.4020  1.0514 -1.0318
 8383TIP3   OH225112   4.777   2.507   3.998 -0.0502  0.0442 -0.3028
 8383TIP3    H125113   4.743   2.485   3.912  0.8983 -1.2122 -0.3739
 8383TIP3    H225114   4.827   2.588   3.984 -1.9025  1.2374 -0.4225
 8384TIP3   OH225115   1.590   4.857   1.444 -0.3290  0.8317 -0.3773
 8384TIP3    H125116   1.674   4.824   1.411  0.6396  0.8197  1.8996
 8384TIP3    H225117   1.582   4.944   1.405  1.4749  1.4175  0.4606
 8385TIP3   OH225118   1.018   3.846   1.953  0.2051  0.4936  0.1239
 8385TIP3    H125119   1.089   3.890   2.000  0.3765 -0.3699  0.6844
 8385TIP3    H225120   1.060   3.803   1.879  0.1714  0.5177  0.0907
 8386TIP3   OH225121   1.094   1.685   5.589  0.0486  0.4279  0.2121
 8386TIP3    H125122   1.161   1.628   5.551  0.0194  1.1277 -0.9618
 8386TIP3    H225123   1.012   1.657   5.548 -0.0100  1.1075 -0.1491
 8387TIP3   OH225124   6.914   5.631   3.346  0.1617 -0.0059 -0.4017
 8387TIP3    H125125   6.828   5.668   3.328 -0.1050 -0.6263 -0.4555
 8387TIP3    H225126   6.905   5.539   3.320  1.0285  0.0718 -1.0071
 8388TIP3   OH225127   6.453   6.732   3.760 -0.2432  0.4800  0.5114
 8388TIP3    H125128   6.497   6.817   3.756 -0.7413  0.8889  2.5583
 8388TIP3    H225129   6.360   6.752   3.747 -0.1650 -0.0221 -0.9566
 8389TIP3   OH225130   0.748   2.575   5.581  1.0148 -0.3193 -0.1863
 8389TIP3    H125131   0.679   2.510   5.596  0.2536  0.0872 -1.7127
 8389TIP3    H225132   0.723   2.649   5.635  0.4359 -0.3125 -0.4517
 8390TIP3   OH225133   4.275   5.223   0.945  0.5162 -0.0457  0.0478
 8390TIP3    H125134   4.327   5.170   0.884 -0.8512  2.5194 -3.6998
 8390TIP3    H225135   4.188   5.183   0.943  0.5836 -0.2327  0.7332
 8391TIP3   OH225136   0.191   3.187   2.972 -0.2116 -0.0700 -0.3894
 8391TIP3    H125137   0.245   3.116   3.008 -0.3983  0.6383  1.4126
 8391TIP3    H225138   0.106   3.146   2.956 -0.7665 -0.0066  2.0075
 8392TIP3   OH225139   3.498   4.048   5.647  0.3269  0.2298  0.1228
 8392TIP3    H125140   3.586   4.011   5.641  0.7261  1.1840 -0.0875
 8392TIP3    H225141   3.480   4.053   5.741  0.4732 -0.0086  0.1654
 8393TIP3   OH225142   5.069   6.668   2.680  0.0428 -0.0343 -0.1487
 8393TIP3    H125143   5.020   6.748   2.695  1.2276  0.7150 -0.1183
 8393TIP3    H225144   5.101   6.642   2.767 -0.8717 -0.9271 -0.0536
 8394TIP3   OH225145   7.178   1.875   2.101 -0.9065  0.4230 -0.4947
 8394TIP3    H125146   7.215   1.963   2.107  0.2407 -0.0432 -0.3646
 8394TIP3    H225147   7.190   1.850   2.009 -1.3212  0.4421 -0.5541
 8395TIP3   OH225148   4.623   3.334   0.354  0.5170  0.2520 -0.2314
 8395TIP3    H125149   4.545   3.279   0.340 -0.9981  1.3015  3.1719
 8395TIP3    H225150   4.696   3.271   0.359 -0.1571 -0.8327 -2.4678
 8396TIP3   OH225151   0.466   2.148   2.792  0.1873  0.2842 -0.0368
 8396TIP3    H125152   0.371   2.147   2.808  0.3428  0.2965  0.9498
 8396TIP3    H225153   0.474   2.159   2.697 -0.8164 -2.2536 -0.4781
 8397TIP3   OH225154   5.029   3.127   4.612  0.3410 -0.0057 -0.5098
 8397TIP3    H125155   5.095   3.167   4.669  2.3773 -1.0725 -2.0011
 8397TIP3    H225156   4.965   3.197   4.597  1.8118  1.5161 -0.0458
 8398TIP3   OH225157   5.009   3.404   1.722 -0.5005  0.7156  0.2876
 8398TIP3    H125158   4.920   3.371   1.725 -0.3308 -0.0970 -1.7494
 8398TIP3    H225159   5.063   3.328   1.702  0.1271  1.7668 -2.5640
 8399TIP3   OH225160   2.035   2.740   1.153 -0.7224  0.1393  0.6716
 8399TIP3    H125161   2.032   2.687   1.233  0.2375  0.1974  0.7535
 8399TIP3    H225162   2.087   2.688   1.092 -0.4255  0.6403  0.4911
 8400TIP3   OH225163   2.256   2.077   4.969 -0.1258 -0.2596 -0.5199
 8400TIP3    H125164   2.303   2.122   4.899  1.9307 -0.9108  0.3882
 8400TIP3    H225165   2.211   2.147   5.017  2.9519  0.9487  0.8466
 8401TIP3   OH225166   5.503   1.124   1.534  0.0870 -0.3422 -0.2265
 8401TIP3    H125167   5.493   1.218   1.546 -0.8466 -0.5482  0.8542
 8401TIP3    H225168   5.596   1.111   1.519  0.6312  0.5415  1.9781
 8402TIP3   OH225169   5.489   2.851   0.709 -0.4708  0.4644 -0.5210
 8402TIP3    H125170   5.433   2.823   0.782  0.4822  0.9171  0.4142
 8402TIP3    H225171   5.448   2.930   0.676 -1.8509 -0.6648 -1.6128
 8403TIP3   OH225172   4.460   4.255   3.803  0.3982 -0.2062  0.0434
 8403TIP3    H125173   4.450   4.172   3.849 -1.3415  0.7307  1.4932
 8403TIP3    H225174   4.428   4.321   3.865  0.7587  1.4550 -1.4437
 8404TIP3   OH225175   0.389   2.089   4.950 -0.6984  0.3728 -0.0674
 8404TIP3    H125176   0.384   2.141   5.031 -2.5686 -0.2184  0.2589
 8404TIP3    H225177   0.372   1.999   4.979 -0.4720  0.0157 -1.0136
 8405TIP3   OH225178   1.384   0.523   4.300  0.5175 -0.1894 -0.3229
 8405TIP3    H125179   1.385   0.429   4.282 -0.4156 -0.2846  0.0794
 8405TIP3    H225180   1.400   0.530   4.394  0.6303  0.0625 -0.3576
 8406TIP3   OH225181   1.500   4.329   2.087 -0.7011  0.2651  0.3754
 8406TIP3    H125182   1.441   4.335   2.162 -0.6647  1.6335  0.3144
 8406TIP3    H225183   1.576   4.281   2.120 -1.9133 -1.7486  0.3850
 8407TIP3   OH225184   1.035   3.846   2.728 -0.0527  0.1671  0.2971
 8407TIP3    H125185   1.050   3.895   2.809  1.5715  0.5407 -0.1925
 8407TIP3    H225186   1.121   3.814   2.703 -0.4929  0.1656 -1.3591
 8408TIP3   OH225187   1.336   0.066   1.193  0.5618 -0.3071 -0.0619
 8408TIP3    H125188   1.249   0.096   1.165 -0.2686 -0.0996  2.4736
 8408TIP3    H225189   1.381   0.147   1.219  1.6891 -0.3730 -1.7185
 8409TIP3   OH225190   4.871   1.883   4.984 -0.1648 -0.2606 -0.5792
 8409TIP3    H125191   4.835   1.801   5.017 -2.0055  0.8411  0.3406
 8409TIP3    H225192   4.809   1.950   5.014  1.4878  1.5152 -0.9317
 8410TIP3   OH225193   3.166   3.948   5.652 -0.3214  0.4103 -0.0137
 8410TIP3    H125194   3.095   3.917   5.595  0.3109  1.1814 -1.2552
 8410TIP3    H225195   3.233   3.981   5.592  0.9212  0.0989  1.1462
 8411TIP3   OH225196   0.534   1.817   2.706  0.3776  0.1067  0.0075
 8411TIP3    H125197   0.444   1.838   2.728  0.9105  0.4516  2.0475
 8411TIP3    H225198   0.531   1.793   2.613 -2.3040 -2.8194  0.6573
 8412TIP3   OH225199   0.742   3.211   3.860  0.0321 -0.4388 -0.0015
 8412TIP3    H125200   0.746   3.307   3.861 -1.0557 -0.3594 -0.6976
 8412TIP3    H225201   0.702   3.188   3.944 -1.4443 -0.1417 -0.5884
 8413TIP3   OH225202   5.433   5.166   5.858 -0.0329  0.2899 -0.5497
 8413TIP3    H125203   5.370   5.217   5.807  1.8809  1.3801 -1.9666
 8413TIP3    H225204   5.489   5.232   5.900  1.5291 -0.5969 -1.1473
 8414TIP3   OH225205   3.546   0.062   0.541  0.1887 -0.3501  0.4177
 8414TIP3    H125206   3.562   0.021   0.455  3.7787  0.0420  0.7470
 8414TIP3    H225207   3.505   0.146   0.520 -0.2143 -0.8294 -0.8169
 8415TIP3   OH225208   2.511   4.164   1.823  0.1820  0.2406  0.1618
 8415TIP3    H125209   2.559   4.246   1.821 -1.8599  1.5218  0.5128
 8415TIP3    H225210   2.514   4.136   1.915 -1.3666  1.4031  0.6141
 8416TIP3   OH225211   3.490   1.563   3.584  0.0868  0.4972 -0.0498
 8416TIP3    H125212   3.492   1.535   3.492 -0.9939  1.4052 -0.3733
 8416TIP3    H225213   3.535   1.493   3.631 -1.8751 -1.4597 -0.9013
 8417TIP3   OH225214   2.213   1.863   4.245  0.2082 -0.0200  0.0168
 8417TIP3    H125215   2.213   1.769   4.263 -0.6364  0.5320  3.5115
 8417TIP3    H225216   2.210   1.868   4.149 -0.0914 -3.5147 -0.3026
 8418TIP3   OH225217   6.922   1.119   1.913  0.0804 -0.2075 -0.5827
 8418TIP3    H125218   6.976   1.055   1.959  0.3958  0.5504  0.1261
 8418TIP3    H225219   6.851   1.138   1.974  0.9122  1.3742 -0.0624
 8419TIP3   OH225220   2.762   1.795   4.482 -0.1745 -1.0892  0.3608
 8419TIP3    H125221   2.756   1.727   4.549  0.3007 -1.2770  0.2211
 8419TIP3    H225222   2.844   1.841   4.503 -0.9835  0.0935  1.0584
 8420TIP3   OH225223   2.276   5.245   5.480 -0.4686  0.4663  0.5290
 8420TIP3    H125224   2.249   5.230   5.570  1.0876 -1.0221  0.8000
 8420TIP3    H225225   2.360   5.290   5.486 -0.9158  1.4315 -0.2084
 8421TIP3   OH225226   0.848   3.512   3.422  0.0723 -0.0514  0.2206
 8421TIP3    H125227   0.769   3.491   3.372  0.2289 -2.5466  0.8744
 8421TIP3    H225228   0.874   3.598   3.390 -0.6842 -0.8458 -2.8786
 8422TIP3   OH225229   4.117   2.666   3.649  1.1979  0.8301  0.1769
 8422TIP3    H125230   4.078   2.635   3.730  0.6497  0.5628 -0.1786
 8422TIP3    H225231   4.083   2.755   3.638 -0.9595 -0.0669 -1.1249
 8423TIP3   OH225232   1.412   4.665   5.665  0.1092  0.3109 -0.3506
 8423TIP3    H125233   1.351   4.595   5.689 -1.4225  1.1617 -1.5676
 8423TIP3    H225234   1.445   4.640   5.579  0.5343  0.4700 -0.2366
 8424TIP3   OH225235   2.185   0.176   5.565  0.1986 -0.0963  0.1096
 8424TIP3    H125236   2.122   0.246   5.548  1.1033  0.7557  0.1870
 8424TIP3    H225237   2.236   0.207   5.639  1.0296 -0.5485 -0.2586
 8425TIP3   OH225238   6.544   2.889   4.710  0.4139  0.2153 -0.3703
 8425TIP3    H125239   6.576   2.834   4.638 -0.4163  1.4073 -1.7131
 8425TIP3    H225240   6.615   2.949   4.728  0.9735 -0.6697  0.4708
 8426TIP3   OH225241   1.356   1.438   2.109  0.1378  0.3647 -0.2243
 8426TIP3    H125242   1.332   1.364   2.164  0.9675  0.1477 -0.1454
 8426TIP3    H225243   1.376   1.508   2.171  1.9812 -0.1518 -0.1847
 8427TIP3   OH225244   5.465   3.097   0.382  0.0969 -0.1508 -0.1738
 8427TIP3    H125245   5.448   3.176   0.330 -0.7292  0.4028  0.8871
 8427TIP3    H225246   5.380   3.053   0.386  0.3327 -0.5858  0.0436
 8428TIP3   OH225247   4.923   0.865   1.062 -0.2052 -0.3918 -0.0725
 8428TIP3    H125248   4.862   0.805   1.020 -0.7870  1.4497 -2.0640
 8428TIP3    H225249   4.898   0.864   1.154 -2.2937 -0.8072 -0.5871
 8429TIP3   OH225250   1.426   4.204   1.178 -0.0173  0.8945  0.3462
 8429TIP3    H125251   1.471   4.125   1.146  1.3271  2.2339 -1.2723
 8429TIP3    H225252   1.370   4.230   1.105  1.6803  2.9486 -0.3334
 8430TIP3   OH225253   5.548   0.947   4.614 -0.0247 -0.7594  0.1546
 8430TIP3    H125254   5.533   0.985   4.700  0.9408 -0.9087  0.4007
 8430TIP3    H225255   5.464   0.957   4.569 -0.3040  0.0715  0.8164
 8431TIP3   OH225256   6.315   3.435   2.612  0.3678  0.1223 -0.5403
 8431TIP3    H125257   6.311   3.375   2.538 -2.1534  0.9176 -1.1266
 8431TIP3    H225258   6.248   3.403   2.673  1.3969  0.3441  0.7694
 8432TIP3   OH225259   6.533   6.206   4.053  0.6601  0.0725 -0.4566
 8432TIP3    H125260   6.574   6.120   4.058  1.0206  0.2943  0.4966
 8432TIP3    H225261   6.439   6.187   4.057  0.7219 -0.2950 -0.6352
 8433TIP3   OH225262   3.130   0.684   3.777 -0.2462  0.0108  0.3194
 8433TIP3    H125263   3.098   0.745   3.843  0.5129  0.3886  0.3558
 8433TIP3    H225264   3.197   0.633   3.823 -0.7237 -0.7150  0.2319
 8434TIP3   OH225265   4.415   2.933   0.903 -0.4397 -0.1796 -0.1728
 8434TIP3    H125266   4.492   2.884   0.931 -0.5410 -1.4043 -1.8468
 8434TIP3    H225267   4.425   3.020   0.941  0.9239 -0.8178  0.9865
 8435TIP3   OH225268   6.521   1.676   5.372  0.2750 -0.4774 -0.0986
 8435TIP3    H125269   6.445   1.732   5.357  0.5577 -0.2167 -0.5486
 8435TIP3    H225270   6.508   1.642   5.461  0.2989  0.6136  0.3319
 8436TIP3   OH225271   0.898   6.468   2.533  0.0868  0.4324 -0.3131
 8436TIP3    H125272   0.855   6.464   2.618  0.4572 -0.2414 -0.1483
 8436TIP3    H225273   0.835   6.427   2.473 -0.4929  1.5819 -0.5123
 8437TIP3   OH225274   4.191   3.404   2.309  0.8037  0.2308  0.1545
 8437TIP3    H125275   4.158   3.356   2.233 -1.0515 -0.5836  1.4002
 8437TIP3    H225276   4.212   3.335   2.373 -0.3970  0.9909  1.4127
 8438TIP3   OH225277   3.313   0.408   5.759 -0.1017  0.3408 -0.2514
 8438TIP3    H125278   3.365   0.469   5.706  0.5697 -0.0293 -0.0276
 8438TIP3    H225279   3.240   0.384   5.702  0.0222  0.7918 -0.6079
 8439TIP3   OH225280   2.312   4.457   0.532  0.1386 -0.4164  0.3294
 8439TIP3    H125281   2.374   4.527   0.512 -0.7928  0.6399  1.0262
 8439TIP3    H225282   2.285   4.473   0.622  1.1626 -2.6849  1.1305
 8440TIP3   OH225283   3.052   3.360   5.596  0.4086  0.4650 -0.3325
 8440TIP3    H125284   3.031   3.340   5.687 -0.2960  0.7315 -0.4282
 8440TIP3    H225285   3.096   3.282   5.563  2.1099  0.9433  0.6705
 8441TIP3   OH225286   3.091   4.057   5.898 -0.2209 -0.1061 -0.5086
 8441TIP3    H125287   3.044   4.129   5.854  0.3855 -0.0617 -1.1029
 8441TIP3    H225288   3.150   4.024   5.831 -1.7734 -2.3833 -0.8524
 8442TIP3   OH225289   2.044   5.614   3.690  0.4403  0.5996  0.5454
 8442TIP3    H125290   2.093   5.632   3.610  2.0012  1.7933  1.7073
 8442TIP3    H225291   1.953   5.615   3.663  0.9627 -1.9667 -1.7617
 8443TIP3   OH225292   5.640   6.510   2.554 -0.5536  0.0404 -0.2974
 8443TIP3    H125293   5.559   6.504   2.604 -1.1903  1.1218 -1.1585
 8443TIP3    H225294   5.631   6.589   2.501  1.7914  1.1807  0.8328
 8444TIP3   OH225295   4.052   1.219   0.184 -0.5979  0.3957 -0.0585
 8444TIP3    H125296   3.971   1.199   0.232  0.8824 -2.9799  1.3627
 8444TIP3    H225297   4.037   1.183   0.097 -1.1169  1.0584 -0.2501
 8445TIP3   OH225298   7.144   1.511   2.172  0.2173  0.2243  0.0179
 8445TIP3    H125299   7.227   1.556   2.189  0.2993 -0.7108  2.4911
 8445TIP3    H225300   7.168   1.431   2.127  0.5188  0.6062 -0.5020
 8446TIP3   OH225301   4.917   5.632   0.991  0.0542  0.5880 -0.0251
 8446TIP3    H125302   4.867   5.633   0.910 -1.1587  1.2797  0.7044
 8446TIP3    H225303   4.959   5.718   0.994  0.4168  0.4159 -0.1055
 8447TIP3   OH225304   2.736   2.335   0.659 -0.2733  0.0488 -0.4450
 8447TIP3    H125305   2.681   2.265   0.694  0.6210  0.3128  1.6693
 8447TIP3    H225306   2.805   2.345   0.724  1.6741  0.4699 -2.4600
 8448TIP3   OH225307   5.710   2.162   1.250  0.2860  0.2961  0.3951
 8448TIP3    H125308   5.717   2.217   1.172 -2.0863 -1.2377 -1.0208
 8448TIP3    H225309   5.694   2.224   1.321 -0.3892  1.5727 -0.8194
 8449TIP3   OH225310   3.346   3.388   4.325 -0.6131  0.1224 -0.3242
 8449TIP3    H125311   3.369   3.409   4.415 -1.1267 -1.8416  0.3028
 8449TIP3    H225312   3.339   3.473   4.282 -0.9528  1.1325  1.6244
 8450TIP3   OH225313   6.401   6.396   5.539  0.0795  0.5406  0.4662
 8450TIP3    H125314   6.462   6.466   5.515 -0.3082  0.4139 -0.9827
 8450TIP3    H225315   6.332   6.401   5.473  1.0712 -2.5182 -1.0013
 8451TIP3   OH225316   2.768   5.723   2.563  0.1220  0.4906 -0.1152
 8451TIP3    H125317   2.703   5.677   2.509 -0.7610  1.5024  0.0499
 8451TIP3    H225318   2.763   5.681   2.648 -0.9300  1.0923  0.1348
 8452TIP3   OH225319   0.166   6.515   3.530 -0.4051 -0.1684 -0.3537
 8452TIP3    H125320   0.229   6.453   3.493 -0.3252  0.1345 -0.7211
 8452TIP3    H225321   0.182   6.512   3.625 -0.2780 -0.5708 -0.3873
 8453TIP3   OH225322   0.426   6.154   2.057  0.3955  0.4574 -0.4452
 8453TIP3    H125323   0.457   6.086   2.116  1.7891  1.4653  0.0395
 8453TIP3    H225324   0.495   6.161   1.990  1.2331  2.5957  0.5356
 8454TIP3   OH225325   3.964   3.177   2.402  0.5654  0.1696  0.1711
 8454TIP3    H125326   4.000   3.159   2.489 -0.4302  0.1679  0.6045
 8454TIP3    H225327   4.005   3.113   2.345 -0.9010 -1.7752  1.1800
 8455TIP3   OH225328   4.869   0.609   4.234  0.3713 -0.0682 -0.2778
 8455TIP3    H125329   4.801   0.541   4.233 -0.1326  0.4299 -0.5693
 8455TIP3    H225330   4.902   0.608   4.324 -0.0489 -0.2954 -0.1226
 8456TIP3   OH225331   1.688   3.538   2.156 -0.2044  1.0130  0.0185
 8456TIP3    H125332   1.770   3.572   2.119  0.0973  0.8727  0.5430
 8456TIP3    H225333   1.658   3.474   2.092  2.3698 -2.2017  1.7235
 8457TIP3   OH225334   0.706   3.656   1.014  0.6563 -0.5114  0.3476
 8457TIP3    H125335   0.660   3.621   0.938  0.9191  1.4691 -0.7851
 8457TIP3    H225336   0.638   3.700   1.065  0.7737 -0.3008  0.3222
 8458TIP3   OH225337   6.259   4.090   0.586  0.4290  0.0261  0.0127
 8458TIP3    H125338   6.244   4.000   0.557 -2.5915  0.4186  0.0447
 8458TIP3    H225339   6.263   4.084   0.681 -0.8845  0.0134  0.0833
 8459TIP3   OH225340   0.028   1.508   3.053 -0.0420 -0.2779 -0.1431
 8459TIP3    H125341  -0.060   1.522   3.018  0.2132 -0.3182 -0.8202
 8459TIP3    H225342   0.052   1.421   3.022 -0.0701 -0.5972  0.7084
 8460TIP3   OH225343   3.589   4.183   2.900 -0.2538 -0.0226  0.1723
 8460TIP3    H125344   3.509   4.135   2.876  0.6270 -0.6119 -1.7386
 8460TIP3    H225345   3.567   4.223   2.984 -2.2917 -0.8041  0.0908
 8461TIP3   OH225346   5.096   4.944   3.606  0.3023 -0.5801  0.1368
 8461TIP3    H125347   5.062   4.869   3.558 -0.4511 -1.0611  1.3821
 8461TIP3    H225348   5.071   4.929   3.697  0.7387  0.8421  0.5301
 8462TIP3   OH225349   5.480   3.784   5.361 -0.1025  0.1465 -0.0267
 8462TIP3    H125350   5.452   3.813   5.448  1.5234  0.3930  0.4462
 8462TIP3    H225351   5.549   3.719   5.378  1.7238  1.6945 -1.0797
 8463TIP3   OH225352   6.968   0.885   1.247  0.4970  0.3780  0.3634
 8463TIP3    H125353   6.923   0.848   1.323 -1.7960  1.4295 -0.3883
 8463TIP3    H225354   6.950   0.823   1.176 -0.5950  1.2535 -0.1509
 8464TIP3   OH225355   4.982   6.425   5.655 -0.7575  0.5163  0.2662
 8464TIP3    H125356   4.929   6.500   5.629  0.0094  0.3198 -2.1215
 8464TIP3    H225357   5.073   6.455   5.643 -0.4258 -1.1883 -2.3476
 8465TIP3   OH225358   6.822   5.819   3.090 -0.7513 -0.0413  0.2595
 8465TIP3    H125359   6.886   5.872   3.138  0.8947  1.3614 -3.1433
 8465TIP3    H225360   6.770   5.883   3.042 -0.6784 -1.3502 -1.6625
 8466TIP3   OH225361   5.200   3.965   2.091 -0.2992  0.1063 -0.1220
 8466TIP3    H125362   5.132   3.908   2.127 -0.4565  0.5707  0.3199
 8466TIP3    H225363   5.265   3.904   2.056  0.5562 -0.4285  2.2109
 8467TIP3   OH225364   3.515   2.082   2.103  0.3271 -0.3703 -0.2581
 8467TIP3    H125365   3.447   2.148   2.095  0.5124 -0.3057 -1.3800
 8467TIP3    H225366   3.585   2.125   2.152  0.4854  0.3002 -1.0624
 8468TIP3   OH225367   6.785   4.715   3.446  0.0708  0.0088  0.3343
 8468TIP3    H125368   6.741   4.659   3.509 -1.6521 -0.1663 -0.9556
 8468TIP3    H225369   6.814   4.655   3.377  0.7129  0.3614  0.2907
 8469TIP3   OH225370   5.238   0.476   3.268 -0.2134 -0.6865  0.1700
 8469TIP3    H125371   5.312   0.424   3.237  0.5651 -0.9504  2.2490
 8469TIP3    H225372   5.243   0.557   3.218 -1.0003 -2.2230 -2.6027
 8470TIP3   OH225373   0.781   0.550   3.820 -0.6696 -1.0381 -0.0874
 8470TIP3    H125374   0.783   0.455   3.804 -0.9572 -1.1231  0.3501
 8470TIP3    H225375   0.852   0.585   3.767 -1.9918 -1.2043 -2.0618
 8471TIP3   OH225376   4.666   4.371   4.582  0.3016 -0.0264  0.4400
 8471TIP3    H125377   4.750   4.391   4.624 -0.0185 -0.6663  1.4135
 8471TIP3    H225378   4.615   4.452   4.592  0.4876  0.0701  0.6135
 8472TIP3   OH225379   1.568   2.728   0.606 -0.6532 -0.4879 -0.1173
 8472TIP3    H125380   1.479   2.756   0.584  0.6975  2.3451 -2.8140
 8472TIP3    H225381   1.597   2.678   0.529  1.1119  1.5963 -0.9300
 8473TIP3   OH225382   2.794   2.921   0.223  0.0318  0.0259  0.0320
 8473TIP3    H125383   2.773   2.863   0.150 -0.4878 -0.7379  0.7676
 8473TIP3    H225384   2.879   2.892   0.254 -0.2491 -0.3809  0.4298
 8474TIP3   OH225385   5.362   5.667   2.666 -0.1507 -0.2464  0.8628
 8474TIP3    H125386   5.409   5.592   2.629 -1.3505 -0.7762  0.3697
 8474TIP3    H225387   5.423   5.740   2.658  0.5282 -0.8777  0.0881
 8475TIP3   OH225388   7.123   0.851   4.687  0.3882 -0.1177  0.4454
 8475TIP3    H125389   7.120   0.760   4.717  1.2814 -0.4862 -0.5199
 8475TIP3    H225390   7.204   0.885   4.725 -0.0381  0.3420  0.9566
 8476TIP3   OH225391   2.084   6.016   3.525 -0.2676  0.3691  0.6194
 8476TIP3    H125392   2.058   6.072   3.598 -0.6572 -0.4487  1.1169
 8476TIP3    H225393   2.165   5.974   3.554  0.7459  1.6383 -0.2684
 8477TIP3   OH225394   2.474   4.732   5.506  0.3238  0.1529  0.7938
 8477TIP3    H125395   2.409   4.730   5.436  1.4589  0.9099 -0.3123
 8477TIP3    H225396   2.555   4.701   5.466  0.5070 -1.5615  2.3639
 8478TIP3   OH225397   4.616   2.335   4.592  0.3244  0.3006 -0.1090
 8478TIP3    H125398   4.563   2.359   4.667 -0.3284  2.6982 -1.2467
 8478TIP3    H225399   4.553   2.313   4.523  0.8095  0.8309 -0.7448
 8479TIP3   OH225400   5.275   1.506   4.439 -0.1016 -0.4000  0.0193
 8479TIP3    H125401   5.237   1.485   4.524 -0.3699 -2.0279 -0.4593
 8479TIP3    H225402   5.369   1.502   4.453 -0.0863 -3.2898 -0.2581
 8480TIP3   OH225403   5.283   4.608   5.231  0.4950 -0.0323 -0.5153
 8480TIP3    H125404   5.195   4.598   5.196  0.0809 -2.8937  1.0731
 8480TIP3    H225405   5.276   4.676   5.297 -0.7083 -0.6792  0.0450
 8481TIP3   OH225406   4.824   3.170   0.247  0.7046  0.0002  0.2540
 8481TIP3    H125407   4.889   3.165   0.178  0.3404  0.1196 -0.1007
 8481TIP3    H225408   4.750   3.120   0.214  1.1682 -1.4212  1.2846
 8482TIP3   OH225409   1.310   3.402   2.797 -0.2812 -0.1954 -0.2070
 8482TIP3    H125410   1.291   3.430   2.707 -1.7435  1.1581  0.4624
 8482TIP3    H225411   1.352   3.317   2.787  0.6671  0.4460 -2.2120
 8483TIP3   OH225412   1.361   5.470   4.275  0.1881 -0.1346 -0.2455
 8483TIP3    H125413   1.408   5.512   4.346 -0.5221  0.9149 -0.3733
 8483TIP3    H225414   1.268   5.477   4.300 -0.0555  0.0304 -1.1461
 8484TIP3   OH225415   6.751   6.369   2.570  0.7262  0.1447  0.2018
 8484TIP3    H125416   6.708   6.438   2.620 -0.5734 -0.1923 -0.3990
 8484TIP3    H225417   6.843   6.373   2.597  0.2089  0.4687  2.0176
 8485TIP3   OH225418   1.442   1.364   3.245 -0.5282 -0.2409 -0.1702
 8485TIP3    H125419   1.396   1.418   3.181  0.1377  0.4634 -0.0789
 8485TIP3    H225420   1.381   1.358   3.319 -1.5233 -1.5239 -1.0683
 8486TIP3   OH225421   2.653   1.759   2.822  0.5355 -0.7973 -0.7137
 8486TIP3    H125422   2.721   1.749   2.755  0.5769 -0.7594 -0.6775
 8486TIP3    H225423   2.694   1.730   2.903  0.3592 -1.2218 -0.7734
 8487TIP3   OH225424   0.914   4.360   1.870 -0.2514 -0.3961 -0.5668
 8487TIP3    H125425   0.962   4.277   1.868 -0.4850 -0.5370 -2.4331
 8487TIP3    H225426   0.913   4.385   1.962  1.6942 -1.3735 -0.2220
 8488TIP3   OH225427   0.087   5.920   4.715 -0.3352 -0.5707  0.0132
 8488TIP3    H125428   0.040   5.993   4.756  0.2906 -0.1128 -0.0633
 8488TIP3    H225429   0.179   5.934   4.739 -0.1693 -1.1779 -0.2411
 8489TIP3   OH225430   2.923   5.979   0.073  0.5569 -0.1133  0.1186
 8489TIP3    H125431   2.941   6.061   0.028  0.6157 -0.5057 -0.6061
 8489TIP3    H225432   2.842   5.946   0.031 -0.8353  0.7119  2.0211
 8490TIP3   OH225433   0.123   2.302   4.847 -0.1828  0.2418  0.4567
 8490TIP3    H125434   0.080   2.382   4.877 -0.9329  0.1265 -0.2742
 8490TIP3    H225435   0.052   2.248   4.812  0.1887 -1.1445  1.7786
 8491TIP3   OH225436   4.634   6.334   2.060 -0.2516  0.4983  0.1133
 8491TIP3    H125437   4.658   6.306   1.972 -1.0136  1.6056 -0.4528
 8491TIP3    H225438   4.671   6.421   2.069 -2.8783  1.7623 -0.3381
 8492TIP3   OH225439   1.130   4.617   0.774  0.0366 -0.0922 -0.6594
 8492TIP3    H125440   1.090   4.607   0.860  0.8865 -0.2444 -0.2819
 8492TIP3    H225441   1.079   4.559   0.717 -0.8785  0.4270 -0.3836
 8493TIP3   OH225442   3.637   5.546   3.676 -0.1940  0.4313  0.1399
 8493TIP3    H125443   3.571   5.551   3.745 -0.0868  2.2190  0.1541
 8493TIP3    H225444   3.711   5.597   3.709 -0.1957  1.4380 -1.3376
 8494TIP3   OH225445   4.654   2.079   1.206  0.9380  0.1073 -0.2902
 8494TIP3    H125446   4.586   2.016   1.182 -0.6227  1.4406  0.4357
 8494TIP3    H225447   4.709   2.033   1.270 -1.3813  0.0592  1.8154
 8495TIP3   OH225448   5.369   6.021   2.105 -0.3354  0.3265 -0.3652
 8495TIP3    H125449   5.342   6.109   2.134  0.7565  0.1416  1.3266
 8495TIP3    H225450   5.319   5.961   2.161  0.1611 -0.0871 -0.3617
 8496TIP3   OH225451   1.669   1.173   5.284 -0.1245 -0.4290  0.0351
 8496TIP3    H125452   1.666   1.176   5.188  1.2416  2.9723 -0.0607
 8496TIP3    H225453   1.762   1.169   5.305 -0.4053 -0.9402  1.2169
 8497TIP3   OH225454   3.192   0.486   5.424 -0.0419  0.5162  0.4062
 8497TIP3    H125455   3.266   0.509   5.479  0.6588 -2.1426  0.7195
 8497TIP3    H225456   3.228   0.477   5.336  0.1501 -1.1392  0.6208
 8498TIP3   OH225457   1.378   1.110   2.020 -0.4916  0.2311  0.0614
 8498TIP3    H125458   1.284   1.093   2.013 -0.3620 -0.0230 -1.4742
 8498TIP3    H225459   1.399   1.092   2.112 -1.8194 -0.3203  0.2854
 8499TIP3   OH225460   1.474   5.226   4.505  0.0003  0.3098 -0.3459
 8499TIP3    H125461   1.433   5.277   4.574 -0.5612 -2.5135  1.5663
 8499TIP3    H225462   1.409   5.223   4.435 -0.3891  1.2305 -0.0298
 8500TIP3   OH225463   0.720   4.665   4.399 -0.7608 -0.3104 -0.5873
 8500TIP3    H125464   0.642   4.630   4.356 -0.1135 -1.7020 -0.6760
 8500TIP3    H225465   0.792   4.612   4.366 -0.1037 -0.7294  1.3925
 8501TIP3   OH225466   0.511   5.977   2.253  0.8957  0.3226 -0.1474
 8501TIP3    H125467   0.459   5.902   2.280 -0.3311  0.8058 -1.0535
 8501TIP3    H225468   0.556   6.005   2.332 -0.6672  0.2162  0.8154
 8502TIP3   OH225469   1.890   3.859   4.483 -0.2908 -1.0319  0.0430
 8502TIP3    H125470   1.981   3.848   4.510 -0.3234 -1.4414 -0.0182
 8502TIP3    H225471   1.862   3.941   4.525  0.5844 -0.0466 -1.2148
 8503TIP3   OH225472   0.033   4.289   2.785 -0.4843 -0.1375  0.0453
 8503TIP3    H125473  -0.026   4.214   2.776 -1.4977  0.7280 -0.6758
 8503TIP3    H225474   0.064   4.306   2.696  1.4610 -1.0219  0.5014
 8504TIP3   OH225475   1.618   6.679   3.910 -0.5686 -0.0078 -0.5285
 8504TIP3    H125476   1.610   6.591   3.947 -0.6020 -0.6330 -1.9217
 8504TIP3    H225477   1.626   6.737   3.985 -1.3696 -1.1219  0.4521
 8505TIP3   OH225478   6.473   3.254   1.245  0.0716  0.1066 -0.0702
 8505TIP3    H125479   6.481   3.201   1.324 -1.6395 -0.7312 -0.4099
 8505TIP3    H225480   6.444   3.339   1.277  0.0818 -0.0111  0.2610
 8506TIP3   OH225481   4.768   1.272   4.315  0.4427 -0.0524  0.4189
 8506TIP3    H125482   4.687   1.253   4.268  1.4570  0.2567 -1.5682
 8506TIP3    H225483   4.838   1.245   4.255  1.8212  0.4552  1.7194
 8507TIP3   OH225484   4.000   0.446   2.349  0.1163  0.3402  0.4566
 8507TIP3    H125485   4.044   0.377   2.399  0.0511 -0.8968 -1.1281
 8507TIP3    H225486   3.945   0.491   2.413 -1.0034 -2.0403  1.2603
 8508TIP3   OH225487   3.029   4.394   4.686  0.6723 -0.3030 -0.2943
 8508TIP3    H125488   3.035   4.386   4.590  1.1967  0.2351 -0.3083
 8508TIP3    H225489   2.990   4.480   4.700 -0.8827 -1.0072 -0.0419
 8509TIP3   OH225490   4.351   0.961   5.744 -0.4307 -0.1702 -0.0299
 8509TIP3    H125491   4.368   0.933   5.655  1.0423 -2.9572  1.0055
 8509TIP3    H225492   4.438   0.968   5.784 -1.1008 -0.1635  1.5157
 8510TIP3   OH225493   0.972   5.889   0.745  0.2841 -0.2927 -0.2161
 8510TIP3    H125494   0.955   5.968   0.796 -0.3647  0.3074 -1.3160
 8510TIP3    H225495   1.067   5.886   0.736  0.2878  0.8069 -0.7906
 8511TIP3   OH225496   1.211   1.467   2.711  0.2609 -0.0743  0.2136
 8511TIP3    H125497   1.246   1.394   2.762  1.3576  0.6180  0.4728
 8511TIP3    H225498   1.130   1.491   2.755  0.1194 -0.8485  0.3846
 8512TIP3   OH225499   1.033   4.383   1.130 -0.4061  0.4592 -0.5664
 8512TIP3    H125500   1.072   4.346   1.051  1.2067 -0.5937  0.6599
 8512TIP3    H225501   1.018   4.308   1.188 -1.4501  1.2138  0.1827
 8513TIP3   OH225502   2.750   2.408   1.588  0.0642 -0.3601  0.1504
 8513TIP3    H125503   2.838   2.402   1.624  2.0859  1.8727 -3.6694
 8513TIP3    H225504   2.751   2.490   1.538 -2.6635 -2.2922 -3.5546
 8514TIP3   OH225505   6.339   0.378   4.907  0.5709 -0.5560  1.0437
 8514TIP3    H125506   6.398   0.448   4.934 -0.6211  0.6247  0.7072
 8514TIP3    H225507   6.253   0.405   4.939 -0.1396 -1.2286 -0.1797
 8515TIP3   OH225508   0.729   4.250   2.539 -0.1459  0.2513 -0.0136
 8515TIP3    H125509   0.667   4.192   2.583 -1.0107  1.5938  0.5889
 8515TIP3    H225510   0.804   4.254   2.598  1.8620 -3.5345 -1.9486
 8516TIP3   OH225511   1.457   3.286   4.617 -0.0070 -0.2518  0.0965
 8516TIP3    H125512   1.458   3.313   4.709  0.2661  0.3690 -0.0831
 8516TIP3    H225513   1.544   3.308   4.584  0.0851 -0.9934 -0.1656
 8517TIP3   OH225514   6.589   3.999   3.365  0.0449 -0.3318  0.6650
 8517TIP3    H125515   6.601   4.093   3.351  0.6275 -0.5563 -0.4567
 8517TIP3    H225516   6.495   3.985   3.356  0.1586 -0.1385 -1.2153
 8518TIP3   OH225517   6.062   2.632   2.274  0.8101  0.4986 -0.4224
 8518TIP3    H125518   6.046   2.609   2.183 -1.7036  2.5368 -0.6035
 8518TIP3    H225519   6.109   2.715   2.270  1.9900 -0.1077  0.1999
 8519TIP3   OH225520   2.032   1.649   2.804 -0.1093 -0.4961  0.4661
 8519TIP3    H125521   2.022   1.707   2.729  2.1138 -1.2849 -0.4920
 8519TIP3    H225522   1.949   1.601   2.808 -1.3906  1.5416  0.3355
 8520TIP3   OH225523   4.404   5.876   1.500 -0.7932 -0.1450  0.2350
 8520TIP3    H125524   4.476   5.921   1.545  0.1110 -1.6068  0.3281
 8520TIP3    H225525   4.448   5.820   1.436 -1.9086 -0.4972 -0.2354
 8521TIP3   OH225526   0.311   2.038   3.058  0.5433 -0.6822 -0.6685
 8521TIP3    H125527   0.224   2.060   3.091  0.4352 -2.0918  0.0526
 8521TIP3    H225528   0.370   2.098   3.104  0.3697 -2.3805  1.9899
 8522TIP3   OH225529   3.647   2.252   2.283  0.6434 -0.4941 -1.0540
 8522TIP3    H125530   3.711   2.238   2.352  0.4114  1.1967 -0.4443
 8522TIP3    H225531   3.669   2.339   2.248 -2.3889  1.0060  0.4189
 8523TIP3   OH225532   2.928   5.714   2.230  0.3442 -0.0832  0.1344
 8523TIP3    H125533   2.921   5.673   2.144 -1.5843  0.0817  0.1732
 8523TIP3    H225534   3.000   5.776   2.221 -0.3117  0.4805 -1.6145
 8524TIP3   OH225535   6.362   2.296   2.744  0.7512 -0.3899 -0.1643
 8524TIP3    H125536   6.365   2.233   2.672  1.4588 -0.2347 -0.2767
 8524TIP3    H225537   6.412   2.254   2.814  0.0868 -0.5278  0.2300
 8525TIP3   OH225538   2.087   3.246   0.872  0.3502  0.3566 -0.5523
 8525TIP3    H125539   1.992   3.257   0.873  0.3866  1.0724  1.8906
 8525TIP3    H225540   2.100   3.151   0.880 -0.0926  0.1112 -2.2698
 8526TIP3   OH225541   6.686   3.969   0.833  0.0430 -0.1818  0.8254
 8526TIP3    H125542   6.704   4.053   0.791 -0.6384 -0.6178 -0.3835
 8526TIP3    H225543   6.764   3.951   0.885  1.7163 -0.4936 -1.6779
 8527TIP3   OH225544   4.469   3.688   5.204 -0.2229 -0.4613 -0.0080
 8527TIP3    H125545   4.495   3.780   5.197  0.1203 -0.5649 -0.1338
 8527TIP3    H225546   4.551   3.639   5.191 -0.5089 -0.7975 -0.5682
 8528TIP3   OH225547   3.567   3.869   2.552  0.0395 -0.3287 -0.0167
 8528TIP3    H125548   3.543   3.958   2.577  3.0880  1.0636 -1.4465
 8528TIP3    H225549   3.521   3.854   2.470 -1.9693 -0.9041  1.1483
 8529TIP3   OH225550   1.399   4.506   5.420 -0.3852  0.3582 -0.2867
 8529TIP3    H125551   1.338   4.445   5.462  1.3584 -1.4495 -0.2306
 8529TIP3    H225552   1.343   4.570   5.376 -2.2861 -0.0112  1.4565
 8530TIP3   OH225553   2.035   4.556   5.753 -0.9823 -0.7266  0.2785
 8530TIP3    H125554   2.113   4.598   5.718 -1.1422  0.1151  0.8899
 8530TIP3    H225555   1.989   4.626   5.799 -0.8622 -1.7161  2.0021
 8531TIP3   OH225556   0.353   5.207   1.752  0.9722 -0.0252 -0.1392
 8531TIP3    H125557   0.416   5.147   1.791 -0.0656 -0.2579  1.2291
 8531TIP3    H225558   0.298   5.236   1.825  0.6901  1.6688 -0.9588
 8532TIP3   OH225559   4.918   5.829   5.726  0.3205  0.6344 -0.0897
 8532TIP3    H125560   4.986   5.761   5.719  0.5325  1.0094 -2.0810
 8532TIP3    H225561   4.837   5.783   5.706  0.3023  0.6996 -0.1630
 8533TIP3   OH225562   5.142   5.043   0.202  0.1357  0.2927  0.5388
 8533TIP3    H125563   5.139   4.950   0.179 -0.4631  0.2673  0.6811
 8533TIP3    H225564   5.171   5.087   0.122 -0.2804  0.0447  0.2449
 8534TIP3   OH225565   0.260   1.548   5.291 -0.1437  0.3016 -0.5026
 8534TIP3    H125566   0.228   1.633   5.261  0.0737  0.2052 -1.0098
 8534TIP3    H225567   0.347   1.565   5.326 -0.3368  0.3867 -0.0465
 8535TIP3   OH225568   7.027   5.911   5.513 -0.1528 -0.3369 -0.4626
 8535TIP3    H125569   6.986   5.917   5.600  0.2554  1.0560 -0.3427
 8535TIP3    H225570   7.121   5.906   5.531 -0.0284  0.5291 -0.8230
 8536TIP3   OH225571   4.233   0.587   2.788  0.1808 -0.0731  0.2500
 8536TIP3    H125572   4.320   0.548   2.786  0.5639  0.7955 -1.0785
 8536TIP3    H225573   4.173   0.513   2.789  0.9224 -0.6786  1.1469
 8537TIP3   OH225574   2.607   4.316   3.145  0.1991 -0.4671 -0.0672
 8537TIP3    H125575   2.581   4.232   3.184  1.8690 -0.1113  2.0448
 8537TIP3    H225576   2.697   4.302   3.115  0.4010  0.4629  0.0581
 8538TIP3   OH225577   1.608   2.704   5.357  0.4317  0.1153  0.0483
 8538TIP3    H125578   1.513   2.698   5.367  0.2609 -1.4352 -1.9525
 8538TIP3    H225579   1.639   2.614   5.363  1.4288  0.2733 -1.9721
 8539TIP3   OH225580   3.154   6.275   1.881  0.0233  1.0123  0.0118
 8539TIP3    H125581   3.071   6.259   1.925 -0.0302  3.7417  1.1194
 8539TIP3    H225582   3.132   6.285   1.789 -0.4768 -0.6331 -0.0790
 8540TIP3   OH225583   6.464   0.771   4.690 -0.3414  0.3713 -0.1453
 8540TIP3    H125584   6.423   0.857   4.694  0.6758  1.0738 -2.6323
 8540TIP3    H225585   6.435   0.735   4.606 -0.8544 -1.8039  0.9142
 8541TIP3   OH225586   2.900   1.686   3.664  0.4566 -0.0695 -0.0608
 8541TIP3    H125587   2.949   1.606   3.683 -0.3747 -0.4600  0.4722
 8541TIP3    H225588   2.939   1.752   3.722  0.3058 -0.3955  0.4174
 8542TIP3   OH225589   5.967   5.993   5.578 -0.6541  0.2798  0.0784
 8542TIP3    H125590   5.901   5.994   5.648 -1.1865 -2.2926 -0.2821
 8542TIP3    H225591   5.978   5.900   5.557  1.9774  0.7308 -0.9551
 8543TIP3   OH225592   3.647   4.573   1.145 -0.2700 -0.0150  0.6087
 8543TIP3    H125593   3.639   4.549   1.053  2.0421 -0.4627  0.4766
 8543TIP3    H225594   3.734   4.611   1.153 -0.5030  0.2172  2.5797
 8544TIP3   OH225595   6.764   2.924   4.119  0.3108  0.6997 -0.0502
 8544TIP3    H125596   6.707   3.001   4.127 -0.4789  0.0718  0.5825
 8544TIP3    H225597   6.811   2.937   4.037 -0.9303  1.1392 -0.7228
 8545TIP3   OH225598   5.777   5.978   3.365 -0.2020  0.0150 -0.0207
 8545TIP3    H125599   5.747   6.064   3.333  2.3307  0.7211 -0.7185
 8545TIP3    H225600   5.736   5.916   3.305 -1.4617  0.7558  0.0160
 8546TIP3   OH225601   0.641   4.138   1.307  0.6865  0.9191 -0.8414
 8546TIP3    H125602   0.558   4.168   1.271 -0.1757  0.2956  0.5330
 8546TIP3    H225603   0.673   4.075   1.242 -1.3409 -0.9834 -0.1398
 8547TIP3   OH225604   3.669   6.456   4.539 -0.4160 -0.0655  0.1783
 8547TIP3    H125605   3.595   6.500   4.498  0.4404  1.4280  0.1935
 8547TIP3    H225606   3.716   6.525   4.586  0.4230 -1.1683  1.0207
 8548TIP3   OH225607   5.111   6.483   1.915 -0.0290  0.3657 -0.2472
 8548TIP3    H125608   5.108   6.394   1.880  1.2841 -0.0541  0.6255
 8548TIP3    H225609   5.176   6.527   1.860  0.2974  0.3895  0.1536
 8549TIP3   OH225610   2.852   3.379   4.864 -0.0932  0.4796  0.2171
 8549TIP3    H125611   2.768   3.335   4.878  0.5407 -0.5568  0.9221
 8549TIP3    H225612   2.868   3.372   4.770 -0.9611  1.0234  0.0145
 8550TIP3   OH225613   0.684   0.396   1.767  0.0511  0.4760 -0.3229
 8550TIP3    H125614   0.695   0.489   1.784 -1.9225  0.4496  1.6739
 8550TIP3    H225615   0.726   0.353   1.842 -2.9060  0.0450  1.2772
 8551TIP3   OH225616   1.266   5.356   2.203  0.2503 -0.4342 -0.3532
 8551TIP3    H125617   1.317   5.281   2.234  2.5335  1.2658  0.2612
 8551TIP3    H225618   1.191   5.361   2.263 -0.0875 -2.3060 -0.5559
 8552TIP3   OH225619   4.783   6.567   1.400 -0.1066 -0.2117  0.3598
 8552TIP3    H125620   4.762   6.638   1.461  0.4195  0.0903  0.1896
 8552TIP3    H225621   4.843   6.510   1.448 -0.5373 -0.5512  0.5006
 8553TIP3   OH225622   4.378   0.488   0.512 -0.0175  0.2364 -0.2940
 8553TIP3    H125623   4.385   0.566   0.567  1.1516  0.5155 -0.8032
 8553TIP3    H225624   4.388   0.521   0.423  2.4773 -0.6702 -0.4315
 8554TIP3   OH225625   5.453   5.953   2.657  0.0343  0.0264 -0.0309
 8554TIP3    H125626   5.382   5.997   2.610  0.0020 -1.1666 -1.1588
 8554TIP3    H225627   5.506   6.024   2.693 -0.3300  0.9944 -1.3320
 8555TIP3   OH225628   2.917   1.935   5.013  0.1997 -0.2320  0.0217
 8555TIP3    H125629   2.969   1.895   5.082  1.9817  1.5493 -0.2002
 8555TIP3    H225630   2.870   2.007   5.056  0.2869  0.0552 -0.3514
 8556TIP3   OH225631   6.916   3.976   4.707  0.2042 -0.0363  0.2536
 8556TIP3    H125632   6.874   3.923   4.775  0.0170  1.2803  1.2161
 8556TIP3    H225633   7.002   3.998   4.743  0.6637 -0.4931 -0.5520
 8557TIP3   OH225634   5.996   2.185   1.036 -0.1525  0.5829  0.3796
 8557TIP3    H125635   5.971   2.227   1.118  1.6613  2.4883  0.0531
 8557TIP3    H225636   5.977   2.251   0.969  2.3717  0.8005 -0.2089
 8558TIP3   OH225637   5.252   0.893   4.705  0.1605  0.2923 -0.1855
 8558TIP3    H125638   5.228   0.841   4.628  2.8492  0.7001 -1.4098
 8558TIP3    H225639   5.304   0.833   4.759  0.0739  0.6455  0.3029
 8559TIP3   OH225640   5.398   2.623   3.464 -0.7013 -0.7398 -0.0419
 8559TIP3    H125641   5.307   2.598   3.477 -1.3475  0.5080 -1.7641
 8559TIP3    H225642   5.434   2.630   3.553 -2.6352 -0.0669  0.7417
 8560TIP3   OH225643   5.876   0.551   2.489 -0.4998  0.9936 -0.2242
 8560TIP3    H125644   5.916   0.490   2.552 -1.6598 -0.0403 -0.4402
 8560TIP3    H225645   5.847   0.625   2.542 -0.1505  0.8037  0.2378
 8561TIP3   OH225646   4.871   3.913   2.347 -0.3341  0.0746 -0.2984
 8561TIP3    H125647   4.897   3.907   2.255 -2.1048  1.5441 -0.9746
 8561TIP3    H225648   4.932   3.856   2.393  0.3043 -1.0899 -2.4359
 8562TIP3   OH225649   2.282   0.689   1.162 -0.7513  0.7536  0.3557
 8562TIP3    H125650   2.326   0.628   1.104 -1.5732  0.2317  0.2581
 8562TIP3    H225651   2.223   0.635   1.214 -1.4694  1.4469  0.2920
 8563TIP3   OH225652   6.054   5.592   2.505 -0.5225  0.0684  0.1018
 8563TIP3    H125653   6.111   5.516   2.519 -0.4408  0.2146  0.5964
 8563TIP3    H225654   6.061   5.641   2.587 -2.1394 -0.4146  0.5651
 8564TIP3   OH225655   0.021   5.718   5.890 -0.2466  0.0744 -0.0136
 8564TIP3    H125656  -0.047   5.757   5.835 -0.1320  0.7275  0.2949
 8564TIP3    H225657   0.065   5.655   5.833 -0.2275  0.6318 -0.6272
 8565TIP3   OH225658   4.413   2.817   5.467  0.1314  0.1324 -0.4640
 8565TIP3    H125659   4.432   2.841   5.376  2.1684  0.9979  0.1409
 8565TIP3    H225660   4.351   2.884   5.497 -0.5698 -0.1717 -1.1964
 8566TIP3   OH225661   5.190   5.600  -0.009  0.0296  0.7834  0.0326
 8566TIP3    H125662   5.228   5.688  -0.002  0.5798  0.4846  1.0974
 8566TIP3    H225663   5.221   5.555   0.069  0.0559 -0.4814 -0.6825
 8567TIP3   OH225664   1.059   3.673   2.994  0.1340 -0.4782 -0.2174
 8567TIP3    H125665   0.985   3.648   2.939  0.0295  0.0293 -0.3185
 8567TIP3    H225666   1.115   3.596   2.998  0.2596 -0.4433 -1.2211
 8568TIP3   OH225667   2.834   1.397   4.873 -0.3032  0.5200  1.0219
 8568TIP3    H125668   2.771   1.333   4.906 -1.1396  1.5286  1.4588
 8568TIP3    H225669   2.902   1.345   4.831 -1.1571 -0.6289  1.0172
 8569TIP3   OH225670   5.806   2.550   5.011 -0.3567  0.6391 -0.4755
 8569TIP3    H125671   5.778   2.459   5.007 -2.0048  1.0856  0.1119
 8569TIP3    H225672   5.809   2.570   5.105  1.8740  0.6789 -0.4983
 8570TIP3   OH225673   5.307   6.118   0.155  0.3674  0.0531  0.4118
 8570TIP3    H125674   5.294   6.176   0.230  0.7981  1.8151 -0.7912
 8570TIP3    H225675   5.312   6.178   0.080  1.8472 -1.4953 -0.7937
 8571TIP3   OH225676   4.207   0.071   3.833  0.0189  0.5728 -0.6827
 8571TIP3    H125677   4.163  -0.010   3.856  1.3692 -0.3501 -1.2295
 8571TIP3    H225678   4.178   0.090   3.744  1.2193 -0.4066 -1.3016
 8572TIP3   OH225679   6.899   6.042   3.408 -0.4047  0.2135  1.1437
 8572TIP3    H125680   6.892   6.124   3.359  1.1656 -0.6554 -0.6842
 8572TIP3    H225681   6.929   5.978   3.343  0.7048 -1.2708  3.0232
 8573TIP3   OH225682   2.693   6.273   0.207 -0.2169 -0.7768  0.2059
 8573TIP3    H125683   2.755   6.248   0.275 -0.0395  1.4608  0.9496
 8573TIP3    H225684   2.611   6.290   0.254 -0.0140  1.0818 -0.0338
 8574TIP3   OH225685   0.928   6.450   3.217 -0.4560  0.1740 -0.4717
 8574TIP3    H125686   1.004   6.491   3.258 -1.1015  1.1814 -0.2424
 8574TIP3    H225687   0.881   6.523   3.176 -1.4997 -0.3752 -0.2772
 8575TIP3   OH225688   6.905   0.708   3.648  0.3446  0.2619  0.2786
 8575TIP3    H125689   6.838   0.650   3.612  1.3787 -0.5620 -0.4022
 8575TIP3    H225690   6.865   0.795   3.649 -0.1908  0.0750 -1.6298
 8576TIP3   OH225691   3.532   0.308   0.985  0.4538  0.3247  0.4992
 8576TIP3    H125692   3.551   0.219   0.953 -0.8683  0.0612  0.3848
 8576TIP3    H225693   3.517   0.297   1.079 -2.8090 -0.1819  0.0447
 8577TIP3   OH225694   7.112   2.352   4.262 -0.2864 -0.3648  0.1157
 8577TIP3    H125695   7.160   2.337   4.180 -0.5469  0.7898 -0.2639
 8577TIP3    H225696   7.125   2.271   4.312  0.5891 -0.7588 -0.7068
 8578TIP3   OH225697   2.101   6.415   1.950  0.0438 -0.0013 -0.5170
 8578TIP3    H125698   2.103   6.489   1.890 -0.3944  1.1817  0.8402
 8578TIP3    H225699   2.019   6.428   2.000  1.2114  0.1039  1.4963
 8579TIP3   OH225700   4.962   0.509   3.186  0.2764  0.5836 -0.1018
 8579TIP3    H125701   4.983   0.601   3.202 -0.8745  0.8611 -0.1190
 8579TIP3    H225702   5.017   0.462   3.249  0.6544  1.2879  0.1150
 8580TIP3   OH225703   4.676   3.755   1.116 -0.4024  0.0920 -0.4865
 8580TIP3    H125704   4.644   3.685   1.060 -0.8060 -0.1067 -0.0122
 8580TIP3    H225705   4.768   3.733   1.131 -0.7037 -0.7395  0.2465
 8581TIP3   OH225706   3.859   1.972   3.812  0.2932 -0.1814  0.0527
 8581TIP3    H125707   3.770   1.948   3.785  0.8818 -0.7464 -1.4678
 8581TIP3    H225708   3.853   2.065   3.835 -0.5389 -0.0341 -0.7191
 8582TIP3   OH225709   5.559   5.884   4.048  0.3773 -0.0012  0.1061
 8582TIP3    H125710   5.573   5.869   4.141  1.1412 -0.4073 -0.0681
 8582TIP3    H225711   5.534   5.798   4.013  1.1833 -0.1001 -0.2523
 8583TIP3   OH225712   6.796   0.320   5.362 -0.0633 -0.2126  0.5681
 8583TIP3    H125713   6.796   0.381   5.436  0.1486 -0.2849  0.6282
 8583TIP3    H225714   6.844   0.244   5.394  0.6160  0.0203  0.1385
 8584TIP3   OH225715   5.262   6.552   1.319  0.0021  0.1885 -0.4574
 8584TIP3    H125716   5.355   6.570   1.309  0.2038 -1.3924 -1.9621
 8584TIP3    H225717   5.252   6.527   1.411  0.8058  1.5971  0.0277
 8585TIP3   OH225718   4.579   2.014   5.096  0.4303  0.5228 -0.0127
 8585TIP3    H125719   4.567   2.105   5.122 -0.7838  0.2930  0.2817
 8585TIP3    H225720   4.555   2.011   5.003 -0.5517  0.3181  0.2382
 8586TIP3   OH225721   5.940   1.255   0.184  0.0098 -1.0824 -0.4953
 8586TIP3    H125722   5.910   1.201   0.111  0.5619 -2.6823  0.4159
 8586TIP3    H225723   5.979   1.332   0.142 -0.9851 -1.2593 -1.8235
 8587TIP3   OH225724   1.312   4.918   4.226  0.1581 -0.1657 -0.1052
 8587TIP3    H125725   1.287   4.902   4.135 -1.2295 -1.5792  0.4812
 8587TIP3    H225726   1.400   4.882   4.233 -0.5996 -2.2313 -0.3574
 8588TIP3   OH225727   4.726   0.615   0.369 -0.0088 -0.4242  0.9719
 8588TIP3    H125728   4.678   0.596   0.289 -1.7470  1.2948  1.5202
 8588TIP3    H225729   4.807   0.564   0.362 -0.8742 -1.6227 -1.0670
 8589TIP3   OH225730   1.024   3.239   2.605 -0.1567  0.0651 -0.0260
 8589TIP3    H125731   0.982   3.319   2.574  2.2333  1.4681  0.1206
 8589TIP3    H225732   1.101   3.228   2.549  0.3870 -1.2942  0.9170
 8590TIP3   OH225733   3.644   3.479   3.637  0.3605  0.0465 -0.4263
 8590TIP3    H125734   3.641   3.444   3.725  0.6124 -0.3545 -0.5768
 8590TIP3    H225735   3.598   3.414   3.584 -0.2759  0.5482 -0.5051
 8591TIP3   OH225736   4.533   5.374   1.901  0.6384  0.1211 -0.0647
 8591TIP3    H125737   4.522   5.368   1.806 -0.4951  1.1546 -0.0244
 8591TIP3    H225738   4.444   5.380   1.935  0.8358 -2.7769  1.3065
 8592TIP3   OH225739   7.032   5.974   1.245 -0.0824  0.1291 -1.1020
 8592TIP3    H125740   6.996   5.885   1.254  1.4870 -0.3632  0.8707
 8592TIP3    H225741   6.999   6.004   1.160 -3.0197 -1.2088 -0.5696
 8593TIP3   OH225742   0.959   2.788   3.102  0.4334 -0.7684 -0.4318
 8593TIP3    H125743   1.001   2.838   3.032  1.7675  0.0051  0.8422
 8593TIP3    H225744   1.000   2.702   3.097  0.5337 -0.7115 -0.5968
 8594TIP3   OH225745   6.779   3.614   1.824  0.4018 -0.1617  1.0095
 8594TIP3    H125746   6.845   3.546   1.838 -0.5070 -1.7846 -1.7837
 8594TIP3    H225747   6.705   3.586   1.877  0.4677 -0.6726  0.8362
 8595TIP3   OH225748   1.113   1.789   2.812  0.0676  0.4032 -0.2528
 8595TIP3    H125749   1.085   1.701   2.839 -0.0537  0.7056  0.6122
 8595TIP3    H225750   1.067   1.848   2.871 -0.6849  1.1273 -1.5087
 8596TIP3   OH225751   6.074   1.145   2.906  0.4940 -0.4002 -0.0636
 8596TIP3    H125752   6.119   1.134   2.822 -0.3061 -0.3805 -0.4978
 8596TIP3    H225753   5.984   1.118   2.889  0.1636  0.2422  0.6082
 8597TIP3   OH225754   2.686   4.982   2.001 -0.4239 -0.4051  0.0787
 8597TIP3    H125755   2.603   4.936   2.002 -1.9089  2.0788  1.4093
 8597TIP3    H225756   2.701   5.007   2.092 -0.2062  2.4293 -0.6332
 8598TIP3   OH225757   6.807   5.595   3.636 -0.2806  0.6742  0.0873
 8598TIP3    H125758   6.873   5.613   3.569 -1.0950  0.3601 -0.8335
 8598TIP3    H225759   6.856   5.557   3.709  0.8993  2.7851  0.4762
 8599TIP3   OH225760   0.380   3.944   1.340 -0.4177  0.3150  0.1805
 8599TIP3    H125761   0.402   3.956   1.432 -0.0383  1.3210 -0.0263
 8599TIP3    H225762   0.300   3.892   1.341  0.6055 -1.3423  1.0174
 8600TIP3   OH225763   2.284   3.358   2.649 -0.0543 -0.1656  0.2196
 8600TIP3    H125764   2.375   3.377   2.673 -0.2277  1.1048 -0.0539
 8600TIP3    H225765   2.267   3.272   2.687  0.8296  0.1625  1.4365
 8601TIP3   OH225766   3.974   3.561   3.924 -0.0253  0.5926 -0.2209
 8601TIP3    H125767   4.048   3.532   3.870 -0.3569 -0.9143  0.0873
 8601TIP3    H225768   3.917   3.607   3.862 -0.0178 -0.4171 -1.0157
 8602TIP3   OH225769   3.384   1.052   5.557  0.0036 -0.5652 -0.4315
 8602TIP3    H125770   3.377   1.078   5.649  0.1903 -3.0631  0.3563
 8602TIP3    H225771   3.302   1.082   5.517 -1.4778 -2.0901  1.3072
 8603TIP3   OH225772   1.991   1.926   2.254  0.2958 -0.2858  0.3840
 8603TIP3    H125773   2.075   1.937   2.298 -0.5502  0.8229  1.8157
 8603TIP3    H225774   2.008   1.955   2.164  1.4428 -0.0803  0.6495
 8604TIP3   OH225775   0.697   3.147   4.167  0.3194  0.0136  0.1803
 8604TIP3    H125776   0.637   3.173   4.237  0.0136 -0.2647  0.0273
 8604TIP3    H225777   0.696   3.051   4.168 -0.1305 -0.0018 -0.5660
 8605TIP3   OH225778   4.425   2.202   3.946 -0.4768 -0.1046  0.6215
 8605TIP3    H125779   4.380   2.156   4.017 -0.5979 -2.2308 -0.7506
 8605TIP3    H225780   4.441   2.134   3.880  0.2683  1.6481 -1.0821
 8606TIP3   OH225781   1.719   6.540   1.435  0.1803 -0.1703  0.1695
 8606TIP3    H125782   1.743   6.448   1.445  2.9596  0.4924  0.6506
 8606TIP3    H225783   1.742   6.580   1.519 -0.0412  1.1089 -0.3457
 8607TIP3   OH225784   1.159   3.029   3.720  0.1594  0.3120  0.1132
 8607TIP3    H125785   1.136   3.099   3.781  0.0027  0.1914  0.1919
 8607TIP3    H225786   1.197   3.075   3.644  0.0772  0.4794  0.1728
 8608TIP3   OH225787   0.841   2.829   4.712  0.4688 -0.0666  0.7774
 8608TIP3    H125788   0.925   2.822   4.666  0.0601 -0.9353  0.1548
 8608TIP3    H225789   0.792   2.751   4.686 -0.6050  0.5134  1.0163
 8609TIP3   OH225790   4.216   1.967   4.448 -0.1297 -0.7617 -0.0471
 8609TIP3    H125791   4.150   2.018   4.495  1.7565  0.7631  1.1114
 8609TIP3    H225792   4.288   1.958   4.511  2.2215  0.7240 -2.3390
 8610TIP3   OH225793   0.976   1.773   4.743 -0.0735 -0.1249 -0.5111
 8610TIP3    H125794   0.899   1.720   4.718  0.0500 -0.2829 -0.5594
 8610TIP3    H225795   1.003   1.735   4.827 -0.0376 -0.0802 -0.5032
 8611TIP3   OH225796   0.951   0.742   4.986 -0.1628 -0.3468 -0.0032
 8611TIP3    H125797   0.873   0.749   5.040  0.1868  1.6590  0.2904
 8611TIP3    H225798   0.929   0.790   4.906 -0.1105 -1.9399 -1.0154
 8612TIP3   OH225799   6.910   3.729   3.883  0.2925  0.9854 -0.3526
 8612TIP3    H125800   6.884   3.740   3.792  0.9493 -0.3226 -0.7257
 8612TIP3    H225801   6.972   3.800   3.899 -0.8200  2.0201 -0.5015
 8613TIP3   OH225802   2.836   3.134   5.179  0.0532  0.2242 -0.5137
 8613TIP3    H125803   2.913   3.087   5.212 -0.9713 -0.0657  1.6229
 8613TIP3    H225804   2.783   3.067   5.137 -0.8078 -0.3722  1.4203
 8614TIP3   OH225805   1.600   5.973   3.902 -0.1896  0.4351 -0.1936
 8614TIP3    H125806   1.658   5.910   3.945  0.5663  1.4294  0.2878
 8614TIP3    H225807   1.549   5.921   3.840  2.0925 -0.3093 -1.5475
 8615TIP3   OH225808   1.768   5.763   2.882 -0.3320  0.3796 -0.0088
 8615TIP3    H125809   1.802   5.753   2.793 -0.5648  0.6098 -0.1233
 8615TIP3    H225810   1.846   5.765   2.937 -0.2097 -2.0172  0.0352
 8616TIP3   OH225811   6.782   0.408   5.634  0.1086  0.1972  0.5177
 8616TIP3    H125812   6.721   0.482   5.628 -2.0350 -1.5685 -0.8096
 8616TIP3    H225813   6.747   0.354   5.705 -2.2102 -2.6589 -2.5030
 8617TIP3   OH225814   7.127   4.876   4.522 -0.4305 -0.0204 -0.0713
 8617TIP3    H125815   7.139   4.949   4.582 -1.6066 -0.7718  1.1129
 8617TIP3    H225816   7.208   4.872   4.472 -0.8005  2.8824 -1.0649
 8618TIP3   OH225817   4.798   1.914   5.842  0.0249  0.0626  0.3125
 8618TIP3    H125818   4.851   1.837   5.864 -1.0427 -0.6971  0.3222
 8618TIP3    H225819   4.851   1.962   5.778  1.1457 -0.1353  1.0614
 8619TIP3   OH225820   0.882   0.514   4.329 -0.4875  0.0867 -0.1874
 8619TIP3    H125821   0.875   0.581   4.261 -0.6162 -0.1010 -0.3604
 8619TIP3    H225822   0.829   0.441   4.296 -2.4299  0.8196  1.1004
 8620TIP3   OH225823   4.425   2.339   4.764  0.1919 -0.3422 -0.1004
 8620TIP3    H125824   4.466   2.256   4.790 -0.8120 -1.4797 -1.9854
 8620TIP3    H225825   4.338   2.336   4.802 -0.3473 -0.8223 -1.3332
 8621TIP3   OH225826   2.618   0.243   4.889  0.0268 -0.5161  0.2901
 8621TIP3    H125827   2.713   0.248   4.902  0.3172 -0.1486 -1.6497
 8621TIP3    H225828   2.590   0.333   4.873 -0.9076 -0.4299  2.1336
 8622TIP3   OH225829   6.934   3.478   3.989  0.7078 -0.4466  0.0885
 8622TIP3    H125830   6.909   3.421   3.916  0.2409 -0.2393  0.0805
 8622TIP3    H225831   6.942   3.565   3.950 -1.3550  0.0184  0.5913
 8623TIP3   OH225832   6.753   0.769   0.610  0.2755 -0.3512 -0.2529
 8623TIP3    H125833   6.686   0.798   0.549  0.7007  0.7623 -0.2113
 8623TIP3    H225834   6.726   0.681   0.636 -1.8685  0.5437  0.7400
 8624TIP3   OH225835   4.716   0.558   3.059 -0.4091 -0.0274 -0.4413
 8624TIP3    H125836   4.778   0.512   3.116  1.1949 -0.0901 -2.1451
 8624TIP3    H225837   4.686   0.632   3.112  1.2953  0.1277  0.4015
 8625TIP3   OH225838   3.624   1.417   5.858 -0.2843  0.5344  0.0728
 8625TIP3    H125839   3.696   1.355   5.871 -1.0847 -0.0588  2.0037
 8625TIP3    H225840   3.648   1.494   5.910 -1.7330 -0.3016  2.0803
 8626TIP3   OH225841   0.530   4.006   0.682  0.3498  0.3709  0.2550
 8626TIP3    H125842   0.520   3.931   0.740  0.6333 -0.4728 -0.7466
 8626TIP3    H225843   0.461   3.994   0.617  0.5564  0.8434 -0.0560
 8627TIP3   OH225844   0.591   2.397   1.599  0.3742 -0.2260  0.6234
 8627TIP3    H125845   0.587   2.474   1.542 -2.2553 -1.9699 -1.7919
 8627TIP3    H225846   0.630   2.329   1.545 -0.5914 -1.5170  1.4805
 8628TIP3   OH225847   1.824   0.418   0.397  0.0899  0.3173  0.6715
 8628TIP3    H125848   1.892   0.474   0.360  0.3811  1.1208  2.3375
 8628TIP3    H225849   1.767   0.397   0.323  1.9413 -0.1125 -0.7094
 8629TIP3   OH225850   1.476   0.308   1.278 -0.0347  0.2625 -0.0732
 8629TIP3    H125851   1.485   0.389   1.328  3.9920  0.0901 -0.2046
 8629TIP3    H225852   1.511   0.328   1.191  0.7725 -1.4774 -0.2021
 8630TIP3   OH225853   2.131   5.306   4.944 -0.4355  0.3566 -0.0563
 8630TIP3    H125854   2.128   5.326   5.037  0.2620 -2.5381  0.6613
 8630TIP3    H225855   2.202   5.361   4.910  1.5025 -0.8967  1.7942
 8631TIP3   OH225856   4.699   0.539   2.791  0.1071  0.4403  0.2777
 8631TIP3    H125857   4.778   0.581   2.758 -0.5154  0.2738 -1.5518
 8631TIP3    H225858   4.718   0.519   2.882  1.1435  2.8932  0.6616
 8632TIP3   OH225859   5.840   6.607   3.961  0.4142 -0.0022  0.5198
 8632TIP3    H125860   5.812   6.525   3.920  0.7711 -0.0312  0.3297
 8632TIP3    H225861   5.842   6.671   3.889  0.4990  0.0839  0.5983
 8633TIP3   OH225862   4.095   0.959   5.104 -0.5039 -0.3038 -0.7967
 8633TIP3    H125863   4.170   0.966   5.044 -0.5225  2.0638 -0.6700
 8633TIP3    H225864   4.134   0.967   5.191 -0.5944 -2.6099 -0.4955
 8634TIP3   OH225865   1.061   0.622   0.034 -0.0359  0.1908  0.4274
 8634TIP3    H125866   1.019   0.614   0.120  0.4402  2.4548  0.9272
 8634TIP3    H225867   1.143   0.668   0.051  0.1138  0.6033 -1.2274
 8635TIP3   OH225868   2.828   6.609   5.823  0.3264 -0.3982  0.5383
 8635TIP3    H125869   2.898   6.544   5.837  1.4763  0.5042 -0.7214
 8635TIP3    H225870   2.808   6.642   5.911  1.3411 -0.8451  0.9592
 8636TIP3   OH225871   5.251   0.308   3.726 -0.1167  0.0705 -0.0851
 8636TIP3    H125872   5.342   0.280   3.718 -0.0842  0.4947 -1.6587
 8636TIP3    H225873   5.220   0.314   3.635 -1.1972  1.5721  0.3447
 8637TIP3   OH225874   0.622   3.742   4.557 -0.4825  0.3008  0.1214
 8637TIP3    H125875   0.572   3.662   4.570 -0.6052  0.3998  0.2726
 8637TIP3    H225876   0.702   3.714   4.513  0.2737 -0.1454  1.7325
 8638TIP3   OH225877   6.489   0.581   2.266 -0.7397  0.2049  0.5379
 8638TIP3    H125878   6.456   0.491   2.265 -1.4280  0.4563  0.1891
 8638TIP3    H225879   6.491   0.607   2.174 -0.4337  0.5091  0.6293
 8639TIP3   OH225880   2.645   1.312   3.636  0.4246  0.6568  0.1116
 8639TIP3    H125881   2.710   1.259   3.590 -0.0296 -0.5680  0.8492
 8639TIP3    H225882   2.624   1.382   3.574  1.2543  0.1598 -0.7645
 8640TIP3   OH225883   1.827   5.041   3.113  0.6830  0.0162  0.0108
 8640TIP3    H125884   1.792   4.959   3.149 -1.5910  0.4438 -1.0982
 8640TIP3    H225885   1.888   5.012   3.045  0.8462 -0.7481  0.4627
 8641TIP3   OH225886   0.655   5.102   3.766  0.2472  0.0111 -0.0543
 8641TIP3    H125887   0.746   5.132   3.762 -0.4699  2.3333 -0.1166
 8641TIP3    H225888   0.605   5.180   3.788 -1.9851 -0.7413 -2.0783
 8642TIP3   OH225889   1.525   2.086   1.761 -0.7982  0.0841 -0.4479
 8642TIP3    H125890   1.565   2.054   1.842 -0.2323 -2.4451 -1.6145
 8642TIP3    H225891   1.431   2.084   1.777 -0.7350 -1.4067 -0.1473
 8643TIP3   OH225892   3.314   3.530   0.335 -0.0799  0.3981 -0.7054
 8643TIP3    H125893   3.228   3.569   0.353  0.5809  1.2381  0.7682
 8643TIP3    H225894   3.314   3.448   0.385 -0.1971  0.1512 -1.1037
 8644TIP3   OH225895   0.526   3.530   3.526 -0.5827 -0.4166  0.6432
 8644TIP3    H125896   0.457   3.484   3.478 -0.5481  0.0915  0.1091
 8644TIP3    H225897   0.562   3.592   3.464 -1.9623  1.7713  1.8932
 8645TIP3   OH225898   6.302   5.865   5.501 -0.0413 -0.4395  0.0445
 8645TIP3    H125899   6.324   5.945   5.453  0.3464 -0.6276 -0.0976
 8645TIP3    H225900   6.335   5.882   5.590 -0.0768 -0.3913  0.0488
 8646TIP3   OH225901   4.261   6.399   5.237  0.0351  0.0715 -0.1183
 8646TIP3    H125902   4.196   6.403   5.167  1.0246 -2.8557 -1.3829
 8646TIP3    H225903   4.344   6.380   5.192  1.3190  1.1951  1.6242
 8647TIP3   OH225904   6.751   2.259   1.476  0.4880  0.4223 -0.5927
 8647TIP3    H125905   6.808   2.254   1.399 -0.9599 -1.6216 -1.6104
 8647TIP3    H225906   6.780   2.187   1.532 -0.4131  0.0144 -0.6411
 8648TIP3   OH225907   0.429   5.098   4.757  0.0160 -1.0068 -0.0442
 8648TIP3    H125908   0.455   5.071   4.845  0.7092 -0.8739 -0.2017
 8648TIP3    H225909   0.335   5.113   4.764  0.4807  1.9139  1.4636
 8649TIP3   OH225910   3.957   2.345   1.244 -0.1956 -0.4361  0.3840
 8649TIP3    H125911   3.919   2.432   1.242  1.2534  0.3339  2.5342
 8649TIP3    H225912   3.885   2.288   1.274 -0.9991  0.0837 -0.5075
 8650TIP3   OH225913   3.767   3.002   1.862  0.1023  0.7083  0.3517
 8650TIP3    H125914   3.688   3.055   1.873 -0.2553 -0.0092  1.4046
 8650TIP3    H225915   3.785   2.967   1.950 -0.5187 -2.0803 -0.5276
 8651TIP3   OH225916   6.495   6.321   2.955  0.3082 -0.3006  0.3353
 8651TIP3    H125917   6.460   6.379   3.023  1.3521 -0.0926  0.7152
 8651TIP3    H225918   6.420   6.301   2.899  0.0464  2.0666 -0.2846
 8652TIP3   OH225919   2.614   4.931   4.809  0.3230 -0.6459  0.0072
 8652TIP3    H125920   2.520   4.916   4.801  0.3963 -1.5503  0.7322
 8652TIP3    H225921   2.623   4.984   4.889  0.5096 -1.5748  0.6188
 8653TIP3   OH225922   6.571   1.769   1.847  0.1831  0.1710 -0.3635
 8653TIP3    H125923   6.620   1.825   1.788  0.9679  1.3463  1.3262
 8653TIP3    H225924   6.604   1.791   1.934 -0.6351 -1.7734  0.5050
 8654TIP3   OH225925   7.024   5.899   1.930  0.1663  0.1988  0.3234
 8654TIP3    H125926   6.996   5.808   1.931 -0.4514  0.3812  1.3372
 8654TIP3    H225927   6.968   5.941   1.864  0.2382 -0.0815  0.0824
 8655TIP3   OH225928   7.033   3.592   4.842  0.0185 -0.1809  0.1561
 8655TIP3    H125929   7.027   3.497   4.858  0.4150 -0.4056 -0.9825
 8655TIP3    H225930   6.989   3.605   4.758 -0.7116  0.7693  0.6692
 8656TIP3   OH225931   6.122   5.154   2.941 -0.2548  0.1914 -0.0597
 8656TIP3    H125932   6.151   5.063   2.938 -1.4400 -0.1874 -0.2591
 8656TIP3    H225933   6.080   5.163   3.027  0.7909  0.8532  0.4004
 8657TIP3   OH225934   4.577   5.513   2.814  0.1523  0.0222 -0.1742
 8657TIP3    H125935   4.659   5.467   2.834  0.9918  0.9094 -1.4188
 8657TIP3    H225936   4.541   5.536   2.900  1.9843  0.9318  0.4152
 8658TIP3   OH225937   6.765   6.435   0.711 -0.5884 -0.0692 -0.7332
 8658TIP3    H125938   6.698   6.393   0.765 -2.2627  2.7587 -0.4164
 8658TIP3    H225939   6.762   6.388   0.628 -0.0350 -2.5866  0.5489
 8659TIP3   OH225940   7.133   6.006   5.093  0.0328  0.3768  0.8095
 8659TIP3    H125941   7.084   5.999   5.012  0.5518 -0.5482  0.5616
 8659TIP3    H225942   7.066   6.016   5.161 -0.3938  1.5102  0.2555
 8660TIP3   OH225943   6.537   2.161   5.322  0.7405 -0.5010  0.0737
 8660TIP3    H125944   6.558   2.082   5.372 -0.9256 -0.1178  1.4953
 8660TIP3    H225945   6.511   2.225   5.388 -1.5997  0.0299 -1.2318
 8661TIP3   OH225946   0.651   4.364   4.393  0.1300  0.0718  0.1451
 8661TIP3    H125947   0.717   4.296   4.401 -1.4044 -1.4938  0.0785
 8661TIP3    H225948   0.582   4.339   4.455 -1.8476 -0.1289 -1.9934
 8662TIP3   OH225949   2.679   5.799   0.407  0.0533 -0.5322  0.1091
 8662TIP3    H125950   2.754   5.845   0.369  1.2675 -1.6820  1.0490
 8662TIP3    H225951   2.603   5.844   0.370  1.1864  0.9923 -0.4697
 8663TIP3   OH225952   5.708   6.536   4.510  0.5419  0.2737 -0.2451
 8663TIP3    H125953   5.787   6.514   4.558 -0.0376  1.6422  1.4430
 8663TIP3    H225954   5.693   6.629   4.529 -1.6358 -0.0245 -0.2394
 8664TIP3   OH225955   3.237   4.198   4.707 -0.1991 -0.0789  1.1261
 8664TIP3    H125956   3.164   4.259   4.696  1.2050  1.4669 -0.2060
 8664TIP3    H225957   3.247   4.156   4.622  0.5789 -0.1032  1.2166
 8665TIP3   OH225958   1.253   1.046   1.048 -0.0436 -0.0165 -0.2032
 8665TIP3    H125959   1.325   1.003   1.002 -0.4838  1.1441 -2.1020
 8665TIP3    H225960   1.174   1.004   1.013 -0.3538 -0.1137  0.6027
 8666TIP3   OH225961   6.704   2.066   4.834  0.4189  0.4811 -0.0553
 8666TIP3    H125962   6.633   2.060   4.898 -0.6338  1.8601 -1.0334
 8666TIP3    H225963   6.725   2.159   4.830  1.1993  0.2833 -0.9577
 8667TIP3   OH225964   1.526   3.027   5.548 -0.2771  0.0806 -0.0620
 8667TIP3    H125965   1.441   2.991   5.523 -1.3153  1.8090  0.8288
 8667TIP3    H225966   1.508   3.079   5.626  1.7681 -0.1888  0.6571
 8668TIP3   OH225967   3.420   1.542   1.658 -0.3944  0.6191  0.0433
 8668TIP3    H125968   3.430   1.450   1.635 -0.1219  0.8595 -0.8603
 8668TIP3    H225969   3.417   1.544   1.754  2.0105 -0.0809  0.1821
 8669TIP3   OH225970   3.188   1.038   4.930  0.3207  0.6349 -0.0264
 8669TIP3    H125971   3.140   0.966   4.970 -0.5796  1.2584  0.0509
 8669TIP3    H225972   3.273   1.037   4.972  0.6957 -1.0261 -0.7719
 8670TIP3   OH225973   1.140   5.908   2.952 -0.3515  0.0897  0.4353
 8670TIP3    H125974   1.144   5.974   3.021  1.4621 -0.1906  0.6493
 8670TIP3    H225975   1.177   5.829   2.992  1.1295  0.0371 -0.9389
 8671TIP3   OH225976   3.069   3.305   5.042  0.2204 -0.1139  0.7300
 8671TIP3    H125977   3.042   3.360   5.116 -0.4227 -0.3116  0.6487
 8671TIP3    H225978   2.991   3.299   4.987  0.0596 -1.6602  1.0820
 8672TIP3   OH225979   3.473   3.056   3.816  0.4596  0.8297  0.1504
 8672TIP3    H125980   3.521   3.015   3.745 -1.6100  0.0414 -0.8493
 8672TIP3    H225981   3.459   3.146   3.787  1.2300  1.0497  0.4253
 8673TIP3   OH225982   6.008   5.015   1.668 -0.1007  0.4025 -0.5513
 8673TIP3    H125983   6.064   5.090   1.685 -2.6226  2.5458 -1.1690
 8673TIP3    H225984   5.957   5.004   1.749 -0.9892  0.5176 -1.0871
 8674TIP3   OH225985   1.832   1.200   0.963 -0.1581  0.0551 -0.1167
 8674TIP3    H125986   1.883   1.158   0.894  0.4301 -0.2958  0.5066
 8674TIP3    H225987   1.888   1.192   1.041 -0.7056  0.6445  0.3406
 8675TIP3   OH225988   0.878   1.423   1.340 -0.0702 -0.1320 -0.0963
 8675TIP3    H125989   0.890   1.497   1.281 -0.2170 -0.4901 -0.5801
 8675TIP3    H225990   0.886   1.346   1.284  0.4282 -0.4983  0.4587
 8676TIP3   OH225991   6.504   0.936   4.936  0.0137 -0.2786 -0.3343
 8676TIP3    H125992   6.411   0.925   4.955  0.1825  0.1599  0.8213
 8676TIP3    H225993   6.526   1.022   4.972  1.2533 -1.1083  1.0038
 8677TIP3   OH225994   4.060   4.043   5.562 -0.4052  0.4976 -0.3881
 8677TIP3    H125995   3.991   3.987   5.597 -0.5369  0.7317 -0.2649
 8677TIP3    H225996   4.130   4.038   5.626  0.4449 -1.1847 -1.4048
 8678TIP3   OH225997   0.351   2.085   0.138 -0.2872  0.2172  0.3858
 8678TIP3    H125998   0.420   2.077   0.071 -1.2395  0.8174 -0.7036
 8678TIP3    H225999   0.305   2.002   0.135  1.4033 -0.8960  2.3582
 8679TIP3   OH226000   3.944   6.291   3.350 -0.2533 -0.1101  0.0367
 8679TIP3    H126001   3.960   6.371   3.299 -0.2956 -0.3077 -0.2928
 8679TIP3    H226002   4.027   6.274   3.395 -0.1511 -0.0398 -0.1234
 8680TIP3   OH226003   4.238   4.231   2.193  0.4608 -0.4961 -0.1468
 8680TIP3    H126004   4.179   4.170   2.237 -1.3751  0.5275 -1.0986
 8680TIP3    H226005   4.317   4.230   2.247 -0.7243 -1.2502  1.6679
 8681TIP3   OH226006   2.765   4.577   4.469  0.0285 -0.1983  0.1701
 8681TIP3    H126007   2.858   4.553   4.473 -0.2736 -1.3036  1.2531
 8681TIP3    H226008   2.745   4.610   4.557 -0.9204 -1.3096  0.4004
 8682TIP3   OH226009   1.371   5.826   4.189 -0.0285 -0.3184  0.7574
 8682TIP3    H126010   1.291   5.785   4.221 -0.5014 -0.7333 -0.8435
 8682TIP3    H226011   1.399   5.771   4.115  0.7275  0.8165  0.1478
 8683TIP3   OH226012   4.299   5.434   2.028  0.2974  0.4739 -0.0889
 8683TIP3    H126013   4.319   5.389   2.110 -0.8618 -0.8181 -0.4881
 8683TIP3    H226014   4.211   5.469   2.040  0.6598  1.5016 -0.2887
 8684TIP3   OH226015   1.334   5.918   3.424 -0.0859  0.2368  0.9143
 8684TIP3    H126016   1.364   5.880   3.342 -0.8710 -0.0477  0.7483
 8684TIP3    H226017   1.412   5.956   3.463  0.6011 -0.9721  0.7713
 8685TIP3   OH226018   5.550   5.375   4.064 -0.3033 -0.4480 -0.7828
 8685TIP3    H126019   5.595   5.291   4.057 -1.3956 -0.9993 -1.4253
 8685TIP3    H226020   5.459   5.355   4.044 -0.4261  1.0412 -1.8324
 8686TIP3   OH226021   0.123   0.054   4.326  0.1543  0.9043  0.3529
 8686TIP3    H126022   0.084   0.137   4.299  3.0863  1.7959 -1.7849
 8686TIP3    H226023   0.051  -0.008   4.326 -1.5929  2.7639 -1.4080
 8687TIP3   OH226024   7.071   4.200   4.039 -0.2448 -0.3357  0.4495
 8687TIP3    H126025   7.030   4.270   4.089 -0.0224  0.7561 -0.8250
 8687TIP3    H226026   7.044   4.217   3.948  0.9377 -1.0968 -0.0630
 8688TIP3   OH226027   0.880   1.259   3.815  0.1310  0.1984  0.3176
 8688TIP3    H126028   0.873   1.353   3.833  0.0494  0.1967  0.2951
 8688TIP3    H226029   0.790   1.230   3.803  0.1355  0.0639  0.5975
 8689TIP3   OH226030   5.726   0.290   1.468 -0.3818  0.1534  0.1032
 8689TIP3    H126031   5.801   0.308   1.525 -1.2449 -0.4240  1.4627
 8689TIP3    H226032   5.742   0.201   1.435 -0.8743 -0.3163  1.0885
 8690TIP3   OH226033   7.120   5.861   0.878  0.7150 -0.5835  0.0867
 8690TIP3    H126034   7.208   5.866   0.840  0.3289 -0.2171 -0.7865
 8690TIP3    H226035   7.115   5.773   0.915  1.1692 -0.8818 -0.5482
 8691TIP3   OH226036   4.521   0.940   5.144 -0.2678 -0.9612  0.6609
 8691TIP3    H126037   4.546   0.896   5.063 -0.8345  0.3298 -0.2485
 8691TIP3    H226038   4.555   0.883   5.214  1.7728 -1.2251 -0.4706
 8692TIP3   OH226039   4.897   1.497   4.083  0.0229  0.0008 -0.0621
 8692TIP3    H126040   4.934   1.408   4.081  1.0182  0.4106 -0.7671
 8692TIP3    H226041   4.966   1.550   4.122  0.6397  0.9627 -2.3052
 8693TIP3   OH226042   4.045   5.182   4.460  0.4142 -0.1985  0.0165
 8693TIP3    H126043   3.968   5.214   4.508  1.5264  1.7532  0.6255
 8693TIP3    H226044   4.113   5.246   4.479  2.4419 -2.2679  0.0968
 8694TIP3   OH226045   5.498   1.650   0.866  0.5095  0.0077 -0.3541
 8694TIP3    H126046   5.506   1.672   0.959  1.9196 -0.0170 -0.4463
 8694TIP3    H226047   5.548   1.718   0.821 -0.3572  0.1555 -1.1227
 8695TIP3   OH226048   6.300   5.245   0.502 -0.2328 -0.7572  0.5501
 8695TIP3    H126049   6.211   5.256   0.536 -0.0733 -1.0274  1.0644
 8695TIP3    H226050   6.302   5.155   0.468 -1.3115  0.3802 -2.9771
 8696TIP3   OH226051   6.051   0.977   4.409 -0.2048 -0.3513  0.1847
 8696TIP3    H126052   6.126   0.957   4.353 -0.6010 -3.2447  0.5412
 8696TIP3    H226053   6.006   1.048   4.364  1.0699 -0.6195 -1.6376
 8697TIP3   OH226054   2.302   1.219   1.365  0.0481  0.5529  0.7555
 8697TIP3    H126055   2.354   1.139   1.377 -0.1638  0.1604 -0.8166
 8697TIP3    H226056   2.211   1.190   1.372 -0.0350  0.6127 -0.0265
 8698TIP3   OH226057   2.393   4.440   4.804 -0.3102 -0.0342  0.3878
 8698TIP3    H126058   2.454   4.499   4.760 -0.8713  1.1546  1.1617
 8698TIP3    H226059   2.307   4.474   4.782 -0.6185  0.7685  2.5781
 8699TIP3   OH226060   3.847   2.165   2.500  0.0008 -0.2022  0.1776
 8699TIP3    H126061   3.897   2.124   2.430  0.8420  0.8553  0.1407
 8699TIP3    H226062   3.904   2.234   2.534 -0.6129 -0.3182  1.5279
 8700TIP3   OH226063   4.732   3.756   1.795  0.1934 -0.0816 -0.3586
 8700TIP3    H126064   4.713   3.848   1.780 -0.1965 -0.1852 -0.5184
 8700TIP3    H226065   4.826   3.753   1.809  0.2477  0.3079 -0.6201
 8701TIP3   OH226066   4.551   1.282   1.208  0.5202  0.3328 -0.1779
 8701TIP3    H126067   4.631   1.329   1.233  0.4962 -0.1917  0.9740
 8701TIP3    H226068   4.481   1.328   1.253  0.0723  1.1691 -1.6845
 8702TIP3   OH226069   1.792   3.464   5.190 -0.5741 -0.5252  0.1561
 8702TIP3    H126070   1.866   3.524   5.197 -0.3216 -0.9932  3.1249
 8702TIP3    H226071   1.831   3.377   5.197 -1.2970 -0.7979  1.0566
 8703TIP3   OH226072   2.039   4.822   0.298 -0.2670 -0.4459 -0.1098
 8703TIP3    H126073   2.091   4.898   0.273 -0.6185 -0.9005 -2.4014
 8703TIP3    H226074   1.983   4.805   0.223  1.4118 -4.3522 -0.7075
 8704TIP3   OH226075   5.600   0.676   5.097  0.2094 -0.0449 -0.8692
 8704TIP3    H126076   5.534   0.666   5.028 -0.6450  2.8531 -0.6040
 8704TIP3    H226077   5.550   0.670   5.179 -0.0512  3.1190 -0.6685
 8705TIP3   OH226078   1.692   3.928   4.298 -0.3607  0.6587  0.1821
 8705TIP3    H126079   1.612   3.905   4.345 -0.8020 -0.8933 -1.2484
 8705TIP3    H226080   1.763   3.893   4.351 -0.4846  2.8590  1.9499
 8706TIP3   OH226081   4.739   4.118   4.180 -0.0622 -0.5595  0.3606
 8706TIP3    H126082   4.751   4.189   4.243 -0.6475  0.4616 -0.6544
 8706TIP3    H226083   4.819   4.065   4.188  1.0338  0.9967  0.1460
 8707TIP3   OH226084   2.683   2.295   2.296  0.2443  0.3755 -0.2974
 8707TIP3    H126085   2.697   2.347   2.218  0.6142 -1.5894 -1.6082
 8707TIP3    H226086   2.655   2.209   2.264 -2.8312  0.3956  1.8226
 8708TIP3   OH226087   3.089   3.479   3.252  0.4396 -0.3666  0.4401
 8708TIP3    H126088   3.077   3.408   3.315  1.9271  0.1130  1.2950
 8708TIP3    H226089   3.167   3.525   3.282 -1.1953  2.4445  0.6796
 8709TIP3   OH226090   3.524   5.666   4.752  0.1740 -0.4741  0.7152
 8709TIP3    H126091   3.608   5.693   4.715 -0.0219 -1.5825 -0.6543
 8709TIP3    H226092   3.541   5.579   4.789 -0.6557 -1.4250 -0.9799
 8710TIP3   OH226093   4.684   5.807   3.134  0.3974  0.3444 -0.2728
 8710TIP3    H126094   4.602   5.821   3.182  0.9448 -2.0364  1.5716
 8710TIP3    H226095   4.747   5.864   3.179  0.2020  0.6265 -0.3516
 8711TIP3   OH226096   2.018   1.648   2.403 -0.0416 -0.7622  0.3285
 8711TIP3    H126097   2.084   1.628   2.337 -1.2398 -2.4736 -0.4233
 8711TIP3    H226098   2.055   1.721   2.452  1.5052 -0.3453 -1.3365
 8712TIP3   OH226099   2.356   5.012   2.183  0.4407 -0.2612  0.1934
 8712TIP3    H126100   2.278   5.038   2.133  0.2195 -1.0082  0.1288
 8712TIP3    H226101   2.402   5.094   2.201  0.4302  0.0461 -1.0780
 8713TIP3   OH226102   2.265   0.359   3.623  0.3215 -0.4432  0.2475
 8713TIP3    H126103   2.217   0.327   3.700  0.4746 -0.9277  0.1452
 8713TIP3    H226104   2.357   0.349   3.646  0.3717  0.1041  0.2854
 8714TIP3   OH226105   2.269   0.090   4.930  0.0254  0.2914  0.3523
 8714TIP3    H126106   2.331   0.079   4.858 -0.7613 -1.5104 -0.1170
 8714TIP3    H226107   2.320   0.133   4.999  2.1814 -2.0843  0.3972
 8715TIP3   OH226108   4.177   4.261   5.419  0.1752  0.0856  0.3702
 8715TIP3    H126109   4.161   4.168   5.437  0.8841  0.0154  0.6735
 8715TIP3    H226110   4.246   4.261   5.352 -0.9723  0.3793 -0.8642
 8716TIP3   OH226111   5.964   4.547   2.561 -0.0627 -0.2653 -0.2644
 8716TIP3    H126112   6.046   4.578   2.522 -0.0824 -0.7855 -0.7337
 8716TIP3    H226113   5.972   4.452   2.560  0.1134 -0.2988  1.3996
 8717TIP3   OH226114   6.928   0.142   1.822  0.4054  0.6809 -0.2891
 8717TIP3    H126115   6.835   0.133   1.798  0.6928 -1.3920 -0.7723
 8717TIP3    H226116   6.930   0.220   1.877 -1.7314  0.4734  0.1950
 8718TIP3   OH226117   0.761   6.765   5.152 -0.2784  0.3266  0.3511
 8718TIP3    H126118   0.816   6.798   5.082  0.4589  1.7742  1.5498
 8718TIP3    H226119   0.672   6.770   5.117  0.0116  1.7269 -0.2296
 8719TIP3   OH226120   4.183   5.698   4.884 -0.1278 -0.1080  0.0507
 8719TIP3    H126121   4.114   5.632   4.875  0.1814 -0.2674 -1.4217
 8719TIP3    H226122   4.226   5.699   4.798 -1.2322  3.2384 -0.6057
 8720TIP3   OH226123   3.416   0.127   5.459 -0.1677  0.3586 -0.0213
 8720TIP3    H126124   3.329   0.143   5.497  0.2312 -1.1965  1.6816
 8720TIP3    H226125   3.424   0.031   5.458  0.9200  0.4456 -1.6282
 8721TIP3   OH226126   4.722   6.649   2.220 -0.1302  0.1771 -0.1639
 8721TIP3    H126127   4.741   6.643   2.126 -1.0632 -0.0167 -0.3534
 8721TIP3    H226128   4.804   6.679   2.259  0.6644 -0.9699 -0.8857
 8722TIP3   OH226129   1.856   2.214   5.378 -0.2096  0.7325 -0.0334
 8722TIP3    H126130   1.827   2.181   5.293  0.9919 -0.1796 -0.1341
 8722TIP3    H226131   1.814   2.156   5.442 -0.3990  0.8456 -0.0557
 8723TIP3   OH226132   2.493   2.644   1.094  0.6459  0.2796  0.0584
 8723TIP3    H126133   2.564   2.691   1.051 -0.7334  0.9892 -1.5541
 8723TIP3    H226134   2.433   2.621   1.023 -0.6674 -0.4304  1.3432
 8724TIP3   OH226135   3.058   4.676   5.805  0.1512  0.4162  0.1917
 8724TIP3    H126136   3.002   4.608   5.842  1.3899 -1.1431 -0.6823
 8724TIP3    H226137   3.007   4.713   5.733  0.1260 -0.8632 -0.4856
 8725TIP3   OH226138   3.893   2.874   0.053 -0.3070 -0.3000 -0.4258
 8725TIP3    H126139   3.966   2.897  -0.005 -0.6019  1.2051 -0.2424
 8725TIP3    H226140   3.933   2.863   0.139  0.0025 -1.6427 -0.7280
 8726TIP3   OH226141   3.713   0.673   0.736 -0.3863  0.0744 -0.1189
 8726TIP3    H126142   3.730   0.761   0.702  2.2805 -0.4560 -0.3314
 8726TIP3    H226143   3.740   0.614   0.666 -2.0021 -0.9770  0.0766
 8727TIP3   OH226144   4.636   4.584   1.774  0.3432  0.2319  0.3776
 8727TIP3    H126145   4.610   4.505   1.823  1.4748 -0.3447  0.0707
 8727TIP3    H226146   4.599   4.570   1.687  0.9653 -0.2057  0.1774
 8728TIP3   OH226147   3.035   6.068   4.258 -0.0070 -0.2836 -0.1993
 8728TIP3    H126148   2.990   6.003   4.204 -1.3336  0.3798  0.0662
 8728TIP3    H226149   3.119   6.028   4.278  0.7899 -0.3304 -3.2028
 8729TIP3   OH226150   2.879   3.232   1.753 -0.2423  0.0860 -0.0352
 8729TIP3    H126151   2.856   3.306   1.809  0.5613  1.1860 -1.0968
 8729TIP3    H226152   2.801   3.214   1.702 -0.0092  1.1535 -0.7826
 8730TIP3   OH226153   3.016   2.116   2.165 -0.2664  0.3074 -0.2289
 8730TIP3    H126154   2.947   2.092   2.227 -0.1251  2.2478  0.7777
 8730TIP3    H226155   2.987   2.200   2.129  1.3676  0.9945 -0.0354
 8731TIP3   OH226156   5.182   3.248   4.787  0.2670 -0.0154 -0.3683
 8731TIP3    H126157   5.233   3.214   4.860 -1.1724 -0.2903  0.5388
 8731TIP3    H226158   5.235   3.321   4.753  1.3877 -0.4699  0.3464
 8732TIP3   OH226159   0.433   5.212   1.283  0.0859 -0.3874 -0.0879
 8732TIP3    H126160   0.500   5.269   1.322 -1.9074  0.7493  1.9181
 8732TIP3    H226161   0.350   5.251   1.310 -1.4358 -1.5994 -2.6839
 8733TIP3   OH226162   6.687   2.364   5.598 -0.3104 -0.1037  0.1182
 8733TIP3    H126163   6.680   2.279   5.641 -0.3880 -0.2595 -0.2006
 8733TIP3    H226164   6.639   2.424   5.655 -0.3166 -0.2862  0.3063
 8734TIP3   OH226165   3.178   3.615   0.970  0.4506 -0.4629  0.8018
 8734TIP3    H126166   3.172   3.635   0.876  2.1842  0.5149  0.8617
 8734TIP3    H226167   3.205   3.523   0.973  2.4230  0.0594  0.2635
 8735TIP3   OH226168   2.245   6.429   1.658 -0.0301 -0.3192 -0.1450
 8735TIP3    H126169   2.293   6.481   1.721 -0.0408 -1.2245  0.6390
 8735TIP3    H226170   2.225   6.489   1.587 -1.6810  1.2613  1.5550
 8736TIP3   OH226171   4.129   5.527   0.598 -0.1170  0.1579 -0.3286
 8736TIP3    H126172   4.077   5.607   0.593  0.2218  0.4080 -0.0052
 8736TIP3    H226173   4.069   5.461   0.633  0.2692  0.9279  2.0087
 8737TIP3   OH226174   3.280   3.285   4.048 -0.6228  0.2221 -0.3873
 8737TIP3    H126175   3.292   3.309   4.140  1.3086 -0.4029 -0.4221
 8737TIP3    H226176   3.187   3.265   4.040 -0.6057 -1.0765  1.7987
 8738TIP3   OH226177   5.261   3.446   0.602 -0.4880  0.1299 -0.4762
 8738TIP3    H126178   5.355   3.426   0.593 -0.0175  1.2048  1.4513
 8738TIP3    H226179   5.255   3.540   0.586 -0.8747  0.4697  1.4288
 8739TIP3   OH226180   5.918   1.226   1.971  0.2931 -0.2037 -0.4188
 8739TIP3    H126181   5.993   1.166   1.972  0.1431 -0.4217 -1.6057
 8739TIP3    H226182   5.895   1.235   1.879 -0.9546  0.1110 -0.0887
 8740TIP3   OH226183   3.606   4.118   4.010  0.1241 -0.6078 -0.1381
 8740TIP3    H126184   3.580   4.145   3.922 -2.0980 -0.8795  0.3737
 8740TIP3    H226185   3.630   4.200   4.053 -1.0542 -0.1472 -0.3111
 8741TIP3   OH226186   1.287   2.478   5.564  0.0104 -0.2041  0.1203
 8741TIP3    H126187   1.346   2.443   5.631 -0.4939 -0.6263  0.3449
 8741TIP3    H226188   1.258   2.402   5.515 -2.6424 -0.4381  1.8400
 8742TIP3   OH226189   4.015   5.341   0.768  0.4078 -0.5860 -0.4382
 8742TIP3    H126190   4.054   5.257   0.793 -0.5225 -0.0290  3.6031
 8742TIP3    H226191   3.922   5.322   0.756  0.5222 -0.4712 -1.5307
 8743TIP3   OH226192   3.756   3.786   0.280 -0.8418 -0.0956  0.3465
 8743TIP3    H126193   3.782   3.717   0.341 -0.2251  1.0145  1.3769
 8743TIP3    H226194   3.757   3.866   0.333 -0.9840  0.7922 -0.9588
 8744TIP3   OH226195   7.184   2.805   2.671 -0.1268  0.3513 -0.3183
 8744TIP3    H126196   7.114   2.869   2.678  0.1369  0.7091 -0.8730
 8744TIP3    H226197   7.140   2.720   2.675 -0.7317  0.5642 -1.8335
 8745TIP3   OH226198   3.014   5.494   1.273  0.0113 -0.0461 -0.4671
 8745TIP3    H126199   3.033   5.458   1.360 -0.5169  1.0744  0.1378
 8745TIP3    H226200   2.928   5.534   1.282 -0.3943 -0.5830 -1.7387
 8746TIP3   OH226201   4.952   3.124   4.065 -0.4555  1.2769 -0.9409
 8746TIP3    H126202   5.031   3.165   4.099 -0.5214  1.0541 -0.5118
 8746TIP3    H226203   4.963   3.125   3.970 -0.7053  2.7949 -0.9756
 8747TIP3   OH226204   0.054   0.102   0.823 -0.5941  0.5949  0.2968
 8747TIP3    H126205  -0.004   0.097   0.746 -0.6921  2.1484  0.2286
 8747TIP3    H226206   0.008   0.161   0.883 -0.2907 -0.2312  1.3741
 8748TIP3   OH226207   0.721   3.979   5.493  0.1734  0.3736  0.1012
 8748TIP3    H126208   0.797   3.923   5.507 -0.2982  0.1398  2.0369
 8748TIP3    H226209   0.703   3.972   5.399  1.2749 -1.2185 -0.0352
 8749TIP3   OH226210   4.670   3.646   2.467  0.3082 -0.4013  0.1804
 8749TIP3    H126211   4.679   3.656   2.562 -0.3198  1.4516  0.0981
 8749TIP3    H226212   4.645   3.734   2.437  2.5465 -0.3890 -1.9492
 8750TIP3   OH226213   0.641   3.919  -0.011  0.0033 -0.1990  0.7557
 8750TIP3    H126214   0.623   3.831  -0.044  2.8454 -0.2293 -1.1451
 8750TIP3    H226215   0.692   3.905   0.069 -0.5512 -0.2343  1.1087
 8751TIP3   OH226216   0.954   1.438   5.149 -0.0571  0.0771  0.8617
 8751TIP3    H126217   0.977   1.355   5.108 -1.8178  0.3367 -0.7761
 8751TIP3    H226218   0.892   1.414   5.219 -0.3817 -0.0160  0.5448
 8752TIP3   OH226219   6.226   2.385   1.132 -0.0872  0.0674  0.3761
 8752TIP3    H126220   6.159   2.446   1.104  1.6273  1.9907  0.2548
 8752TIP3    H226221   6.249   2.335   1.053 -2.4252 -1.8039  0.7600
 8753TIP3   OH226222   2.489   0.486   3.166 -0.3542  0.0107  0.7622
 8753TIP3    H126223   2.496   0.548   3.238 -1.1392 -0.6376  1.4054
 8753TIP3    H226224   2.400   0.498   3.133  0.1555  0.6597 -0.4396
 8754TIP3   OH226225   1.243   3.562   4.490  0.1583  0.3314  0.2975
 8754TIP3    H126226   1.308   3.503   4.528  0.0625 -1.2719 -1.8426
 8754TIP3    H226227   1.294   3.629   4.446  0.4661 -0.8495 -1.2605
 8755TIP3   OH226228   5.871   3.549   5.114 -0.7313  0.2175  0.6078
 8755TIP3    H126229   5.841   3.633   5.148 -0.7470  0.0710  0.9626
 8755TIP3    H226230   5.855   3.553   5.020  1.5370  1.5937  0.2041
 8756TIP3   OH226231   2.179   2.340   5.091  0.4835  0.4011  0.4971
 8756TIP3    H126232   2.137   2.286   5.158 -0.2766  1.7043  1.1139
 8756TIP3    H226233   2.167   2.430   5.122  3.0794  0.8848  0.3157
 8757TIP3   OH226234   0.683   0.317   4.254 -0.0830  0.4557  0.3645
 8757TIP3    H126235   0.721   0.330   4.167  1.1353  0.4993  0.8815
 8757TIP3    H226236   0.619   0.247   4.243 -0.6391  1.1236 -0.7539
 8758TIP3   OH226237   1.519   5.719   5.876  0.5394 -0.1433  0.0430
 8758TIP3    H126238   1.443   5.776   5.875  0.5620 -0.1150 -0.7480
 8758TIP3    H226239   1.540   5.705   5.784  2.3140  0.9581  0.2242
 8759TIP3   OH226240   0.817   6.201   0.390 -0.0035  0.0158 -0.4661
 8759TIP3    H126241   0.779   6.203   0.302  0.0772  0.4497 -0.4924
 8759TIP3    H226242   0.771   6.270   0.438  0.7459  0.5401 -0.4938
 8760TIP3   OH226243   3.849   5.086   4.194  0.1072 -0.2442  0.0692
 8760TIP3    H126244   3.902   5.081   4.114  0.2608 -0.5755  0.1902
 8760TIP3    H226245   3.912   5.082   4.265 -0.0521 -0.2805  0.2097
 8761TIP3   OH226246   1.835   0.411   4.775 -0.3971  0.8887 -0.3790
 8761TIP3    H126247   1.822   0.323   4.739  0.4506  0.5869  0.0217
 8761TIP3    H226248   1.747   0.445   4.787 -0.8131 -0.6273  1.2111
 8762TIP3   OH226249   2.868   3.789   4.273  0.2910  0.4089 -0.0967
 8762TIP3    H126250   2.816   3.868   4.259 -1.1709 -0.6804 -1.1589
 8762TIP3    H226251   2.818   3.719   4.230  1.3558 -1.1607  1.0817
 8763TIP3   OH226252   5.023   1.247   0.809 -0.5310 -0.0731 -0.0894
 8763TIP3    H126253   5.068   1.292   0.738 -0.2633 -0.7965 -0.3797
 8763TIP3    H226254   5.087   1.186   0.844 -1.2546 -1.0498 -0.4453
 8764TIP3   OH226255   2.869   0.115   1.260 -0.5300 -0.4572  0.3380
 8764TIP3    H126256   2.833   0.094   1.174 -0.7519  0.0028  0.3147
 8764TIP3    H226257   2.792   0.136   1.313 -0.2944  0.6602  0.2530
 8765TIP3   OH226258   6.259   6.363   4.980  0.5250  0.1281 -0.0458
 8765TIP3    H126259   6.236   6.455   4.961  0.5057  0.4055  1.2480
 8765TIP3    H226260   6.310   6.367   5.061  1.0699 -0.9567 -0.3161
 8766TIP3   OH226261   2.940   5.303   2.571  0.3785 -0.0254  0.0090
 8766TIP3    H126262   2.995   5.340   2.640  0.1649  1.9081 -0.8049
 8766TIP3    H226263   3.000   5.279   2.501  0.2650  2.0743 -0.8748
 8767TIP3   OH226264   1.408   1.835   0.849 -0.0016 -0.7518 -0.0854
 8767TIP3    H126265   1.415   1.740   0.859  2.2973 -0.5060  1.1561
 8767TIP3    H226266   1.440   1.853   0.761 -3.5869 -1.3211 -1.6888
 8768TIP3   OH226267   4.310   2.211   2.846 -0.0861  0.2265  0.5800
 8768TIP3    H126268   4.268   2.212   2.932 -1.7631  0.1397 -0.1922
 8768TIP3    H226269   4.255   2.154   2.793  2.2874 -1.7434  0.0583
 8769TIP3   OH226270   2.714   0.579   3.034 -0.6984 -0.0963 -0.2643
 8769TIP3    H126271   2.764   0.650   3.074  1.7580 -3.1475  2.6624
 8769TIP3    H226272   2.636   0.570   3.089 -1.0845  0.3619 -0.7235
 8770TIP3   OH226273   5.557   4.510   3.383  0.3511 -0.3548  0.0199
 8770TIP3    H126274   5.466   4.535   3.369  0.1173 -0.8350  0.6358
 8770TIP3    H226275   5.606   4.592   3.374  0.0057 -0.3004 -1.5223
 8771TIP3   OH226276   0.140   5.467   4.721  0.0525  0.2985  0.2394
 8771TIP3    H126277   0.092   5.544   4.688 -0.8207 -0.3053  0.0530
 8771TIP3    H226278   0.155   5.414   4.643  0.5115  0.1976  0.3934
 8772TIP3   OH226279   6.096   3.650   1.797 -0.3362 -0.5057 -0.1022
 8772TIP3    H126280   6.142   3.658   1.881 -0.4778 -0.9335  0.0205
 8772TIP3    H226281   6.023   3.592   1.816 -0.9744  0.2318 -0.2801
 8773TIP3   OH226282   4.227   2.185   3.101  0.1347  0.6292 -0.1896
 8773TIP3    H126283   4.217   2.122   3.172  0.9747  0.7061  0.0061
 8773TIP3    H226284   4.170   2.258   3.124 -3.7659 -1.4961 -2.1690
 8774TIP3   OH226285   5.290   0.722   3.152 -0.3027 -0.0013  0.3914
 8774TIP3    H126286   5.370   0.763   3.118 -0.2135 -0.8665 -0.4883
 8774TIP3    H226287   5.231   0.719   3.076 -0.4822 -1.0465  0.5676
 8775TIP3   OH226288   0.468   6.523   2.747 -0.4485  0.4368 -0.0863
 8775TIP3    H126289   0.385   6.496   2.707  0.1127 -0.0388 -0.9845
 8775TIP3    H226290   0.531   6.521   2.674  0.2295  1.3848  0.4410
 8776TIP3   OH226291   0.636   6.451   5.435 -0.1013  0.0418 -0.0715
 8776TIP3    H126292   0.692   6.374   5.443 -0.3145  0.0570  2.1061
 8776TIP3    H226293   0.652   6.501   5.515 -1.5769  1.1597 -0.4275
 8777TIP3   OH226294   6.538   1.486   0.033  0.3676 -0.1716 -1.0404
 8777TIP3    H126295   6.504   1.397   0.022  0.7072 -0.4967  0.2980
 8777TIP3    H226296   6.608   1.493  -0.032  0.3067 -0.8679 -1.1920
 8778TIP3   OH226297   4.268   5.354   1.187 -0.1489 -0.2137  0.0288
 8778TIP3    H126298   4.232   5.295   1.121  0.4776 -0.4159 -0.1394
 8778TIP3    H226299   4.345   5.393   1.146  0.7191 -0.9376  0.8865
 8779TIP3   OH226300   6.188   2.402   1.843 -0.3430  0.6920  0.2337
 8779TIP3    H126301   6.111   2.399   1.786 -0.8206  0.3969  0.8863
 8779TIP3    H226302   6.236   2.322   1.822  1.1451  2.0308 -1.9895
 8780TIP3   OH226303   4.009   2.181   3.440 -1.1077 -0.5850  0.3077
 8780TIP3    H126304   4.086   2.131   3.412 -0.4828 -0.6605  2.0477
 8780TIP3    H226305   4.044   2.267   3.464 -1.9681  0.2500 -1.2634
 8781TIP3   OH226306   6.392   6.468   3.896  0.0216  0.0594 -0.2558
 8781TIP3    H126307   6.476   6.424   3.908  0.3153  0.1880 -1.6632
 8781TIP3    H226308   6.414   6.561   3.889 -0.1148  0.0162 -1.5018
 8782TIP3   OH226309   1.719   2.167   2.766  0.5249 -0.2745  0.1754
 8782TIP3    H126310   1.718   2.227   2.840  1.0879 -0.4846  0.3631
 8782TIP3    H226311   1.762   2.089   2.800 -0.8359 -1.0645  0.1401
 8783TIP3   OH226312   4.390   1.581   1.337  0.0737  0.1160 -0.0868
 8783TIP3    H126313   4.482   1.568   1.363  0.4750  2.1109 -0.3250
 8783TIP3    H226314   4.364   1.661   1.382 -0.8042  0.9013 -1.8992
 8784TIP3   OH226315   0.041   4.590   2.513 -0.1128  0.0704 -0.1254
 8784TIP3    H126316   0.069   4.653   2.579  0.1982  0.5944 -0.7506
 8784TIP3    H226317   0.063   4.631   2.429 -0.2956 -0.6807 -0.5520
 8785TIP3   OH226318   1.739   4.631   0.159  0.2498 -0.5094  0.1392
 8785TIP3    H126319   1.804   4.571   0.196  1.4496  0.8810  0.3678
 8785TIP3    H226320   1.675   4.644   0.230  0.6453 -0.5804  0.5149
 8786TIP3   OH226321   4.704   4.766   0.600 -0.0100 -0.4654  0.0785
 8786TIP3    H126322   4.711   4.794   0.691  0.4329 -0.1881 -0.0365
 8786TIP3    H226323   4.782   4.713   0.585  0.7240  0.7300 -0.5601
 8787TIP3   OH226324   3.316   1.687   1.440 -0.0934  0.7450  0.0904
 8787TIP3    H126325   3.375   1.643   1.501  0.3197 -1.8632 -2.0043
 8787TIP3    H226326   3.363   1.767   1.415  1.9102 -0.5065 -0.3555
 8788TIP3   OH226327   0.452   1.472   4.570  0.6038  0.1806 -0.0850
 8788TIP3    H126328   0.377   1.500   4.518  0.4746  1.0383  0.5345
 8788TIP3    H226329   0.528   1.496   4.518  0.4708 -1.3610 -1.0539
 8789TIP3   OH226330   1.324   0.859   3.684  0.0613 -0.2325  0.3689
 8789TIP3    H126331   1.417   0.846   3.666  0.1575  0.0194  0.6636
 8789TIP3    H226332   1.294   0.920   3.617  0.5421  1.1294  1.3412
 8790TIP3   OH226333   1.150   2.569   3.050  0.0101 -0.0246  0.1440
 8790TIP3    H126334   1.199   2.580   3.131 -1.3698 -1.3034  1.2239
 8790TIP3    H226335   1.143   2.474   3.039 -1.1861  0.1224 -0.5810
 8791TIP3   OH226336   0.825   6.250   5.456  0.2632  0.0495 -0.3177
 8791TIP3    H126337   0.919   6.269   5.452  0.1189  0.8492  0.0317
 8791TIP3    H226338   0.803   6.223   5.367  0.4691  1.6151 -0.8725
 8792TIP3   OH226339   4.578   2.466   5.744 -0.3841  0.0232  0.3200
 8792TIP3    H126340   4.643   2.534   5.759 -1.2204  0.5503  1.7073
 8792TIP3    H226341   4.505   2.512   5.703  0.0047 -0.5363 -1.0812
 8793TIP3   OH226342   2.194   5.101   3.087  0.2847 -0.2670  0.0441
 8793TIP3    H126343   2.124   5.100   3.152  0.0674  0.4453 -0.1662
 8793TIP3    H226344   2.154   5.141   3.009  0.6299 -0.8232 -0.4237
 8794TIP3   OH226345   1.505   1.326   0.810 -0.5884 -0.0690  0.3204
 8794TIP3    H126346   1.520   1.290   0.722 -0.2607  1.7113 -0.3828
 8794TIP3    H226347   1.540   1.259   0.869  1.1783 -0.3490 -0.9707
 8795TIP3   OH226348   2.091   5.115   1.234  0.0721  0.4231  0.7287
 8795TIP3    H126349   2.002   5.089   1.210 -0.0448  0.4537  1.1140
 8795TIP3    H226350   2.135   5.033   1.257  0.3994  0.3115 -0.2615
 8796TIP3   OH226351   0.367   1.942   3.418 -0.1612 -0.3033  0.0579
 8796TIP3    H126352   0.425   1.900   3.354 -0.1741 -0.7269  0.3191
 8796TIP3    H226353   0.285   1.956   3.370  0.0367 -0.0463 -0.2030
 8797TIP3   OH226354   0.684   5.353   5.106 -0.1016  0.4174 -0.2728
 8797TIP3    H126355   0.725   5.266   5.114 -0.3864  0.1320 -1.6984
 8797TIP3    H226356   0.591   5.334   5.097 -0.0231  0.7527 -2.1810
 8798TIP3   OH226357   5.796   6.733   1.987 -0.2757 -0.6736 -0.1165
 8798TIP3    H126358   5.831   6.650   1.954  0.1217 -0.6078  0.1370
 8798TIP3    H226359   5.833   6.800   1.929  0.1378 -0.5917  0.2344
 8799TIP3   OH226360   4.020   1.791   3.263 -0.2418  0.5943  0.1304
 8799TIP3    H126361   3.984   1.756   3.344 -0.3341 -0.5430 -0.3864
 8799TIP3    H226362   3.943   1.817   3.212 -0.2245  0.3072 -0.0383
 8800TIP3   OH226363   4.096   6.184   1.766  0.2853  0.7287  0.2106
 8800TIP3    H126364   4.099   6.110   1.827 -1.7679 -0.1602 -0.6804
 8800TIP3    H226365   4.157   6.161   1.696  2.3849  1.5936  1.6516
 8801TIP3   OH226366   4.709   0.705   0.616 -0.1360  0.0920  0.0015
 8801TIP3    H126367   4.698   0.688   0.523 -0.8413  3.1173 -0.5764
 8801TIP3    H226368   4.795   0.669   0.638  0.3347 -0.0767 -1.9771
 8802TIP3   OH226369   4.327   5.019   1.674 -0.0493 -0.4386 -0.0891
 8802TIP3    H126370   4.338   5.022   1.769  0.7528  0.1432 -0.1868
 8802TIP3    H226371   4.246   5.068   1.658 -0.2474 -0.6332  0.3025
 8803TIP3   OH226372   5.568   4.075   5.596 -0.3857 -0.1016 -0.1242
 8803TIP3    H126373   5.477   4.091   5.622 -0.2833  0.2329  0.0313
 8803TIP3    H226374   5.570   4.095   5.502 -0.6967 -1.0628 -0.3443
 8804TIP3   OH226375   3.182   3.869   0.441  0.1307 -0.5436  0.3298
 8804TIP3    H126376   3.208   3.861   0.533  1.0084 -0.1705  0.1199
 8804TIP3    H226377   3.262   3.854   0.392  0.0181  0.9195 -0.3269
 8805TIP3   OH226378   4.527   5.289   0.398 -0.0207 -0.1185  0.0399
 8805TIP3    H126379   4.443   5.336   0.407 -0.4958 -0.6257 -1.3642
 8805TIP3    H226380   4.573   5.337   0.329 -0.0239 -1.0337 -0.6064
 8806TIP3   OH226381   2.296   5.534   5.195 -0.7669 -0.4716  0.7389
 8806TIP3    H126382   2.314   5.453   5.147 -2.3387 -0.3502 -0.1266
 8806TIP3    H226383   2.333   5.603   5.140 -1.9976 -0.3841  0.0046
 8807TIP3   OH226384   3.902   3.564   0.008 -0.0600 -0.2030 -0.3603
 8807TIP3    H126385   3.839   3.635   0.005 -0.1271 -0.2097  0.7602
 8807TIP3    H226386   3.988   3.607   0.014 -0.1260 -0.2156  0.7242
 8808TIP3   OH226387   2.364   3.763   1.952 -0.1272  0.6699  0.0635
 8808TIP3    H126388   2.314   3.805   2.021 -0.6935  0.9803 -0.5262
 8808TIP3    H226389   2.329   3.799   1.871  1.1768  1.0423 -0.3693
 8809TIP3   OH226390   5.656   5.934   1.086 -0.1197 -0.3952  0.1701
 8809TIP3    H126391   5.645   5.983   1.004  1.5474 -1.6885 -0.8631
 8809TIP3    H226392   5.728   5.978   1.131 -0.7280  0.0237  0.7723
 8810TIP3   OH226393   2.235   4.993   0.257 -0.7575  0.1462  0.3572
 8810TIP3    H126394   2.197   5.073   0.222  0.7430  1.6932  2.1007
 8810TIP3    H226395   2.274   5.019   0.340 -0.1418 -2.3851  0.9447
 8811TIP3   OH226396   6.084   3.351   3.242  0.4542 -0.5603 -0.4722
 8811TIP3    H126397   6.094   3.264   3.203  0.4396 -0.6642 -0.2445
 8811TIP3    H226398   6.122   3.343   3.330 -0.0232 -0.4775 -0.2560
 8812TIP3   OH226399   5.107   2.234   5.088 -0.1292  0.2954 -0.2022
 8812TIP3    H126400   5.202   2.231   5.077 -0.1038  1.7423 -0.5567
 8812TIP3    H226401   5.092   2.203   5.178  0.8157  1.5625  0.4186
 8813TIP3   OH226402   3.077   5.917   4.600 -0.2268  0.2216 -0.1329
 8813TIP3    H126403   3.094   5.882   4.513 -1.8863  1.4886 -1.0387
 8813TIP3    H226404   3.029   5.848   4.645 -2.2514  0.6739 -1.4165
 8814TIP3   OH226405   3.801   1.376   1.575  0.4023 -0.1829 -0.1134
 8814TIP3    H126406   3.745   1.346   1.503  1.1690  0.1153 -0.8457
 8814TIP3    H226407   3.885   1.333   1.560  0.8758  0.6758  0.0353
 8815TIP3   OH226408   2.831   1.460   0.655 -0.4319  0.0158  0.1166
 8815TIP3    H126409   2.737   1.443   0.649 -0.9319  2.2512  0.7163
 8815TIP3    H226410   2.862   1.456   0.564 -0.9809 -1.1664 -0.0417
 8816TIP3   OH226411   3.640   4.110   1.828 -0.3135 -0.5083 -0.3333
 8816TIP3    H126412   3.645   4.168   1.904  0.1584 -0.4853 -0.3772
 8816TIP3    H226413   3.557   4.064   1.839 -0.6807  0.1531 -0.2861
 8817TIP3   OH226414   1.406   4.187   5.088  0.4862  0.3477 -0.0961
 8817TIP3    H126415   1.443   4.182   5.176  0.6119  1.6798 -0.0433
 8817TIP3    H226416   1.356   4.269   5.088 -1.6034 -0.8582 -0.5119
 8818TIP3   OH226417   4.206   0.545   1.039 -0.0477 -0.5125  0.1578
 8818TIP3    H126418   4.119   0.526   1.003 -0.4601  0.6463  0.4900
 8818TIP3    H226419   4.255   0.581   0.965 -0.1011 -0.4381  0.1584
 8819TIP3   OH226420   1.462   5.257   2.604  0.2821 -0.6520  0.5194
 8819TIP3    H126421   1.390   5.317   2.625 -0.6105 -1.3966 -0.2868
 8819TIP3    H226422   1.483   5.216   2.688 -0.9815 -1.1841  0.6118
 8820TIP3   OH226423   5.682   0.976   5.493  0.5474 -0.4213 -0.2285
 8820TIP3    H126424   5.682   0.945   5.402  0.1128  1.2403 -0.8305
 8820TIP3    H226425   5.714   0.902   5.543  1.9248 -1.0113 -1.8684
 8821TIP3   OH226426   1.271   3.210   3.552 -0.1699  0.0327  0.7047
 8821TIP3    H126427   1.273   3.203   3.457 -0.8173 -1.1656  0.7630
 8821TIP3    H226428   1.348   3.262   3.574  1.3786 -1.7073 -0.3219
 8822TIP3   OH226429   3.266   2.625   4.370 -0.0202 -0.1106 -0.0532
 8822TIP3    H126430   3.285   2.664   4.284 -0.5037  1.0840  0.3581
 8822TIP3    H226431   3.275   2.698   4.431  1.3961 -1.1824  1.0720
 8823TIP3   OH226432   5.897   5.003   1.983 -0.0745 -0.2241  0.5236
 8823TIP3    H126433   5.851   5.068   1.931  0.9495  0.3303  0.2880
 8823TIP3    H226434   5.827   4.955   2.029 -1.0326 -0.9908 -1.5952
 8824TIP3   OH226435   3.345   0.006   2.871 -0.2364  0.1622  0.7738
 8824TIP3    H126436   3.364   0.097   2.848  1.0587 -0.5217 -1.1550
 8824TIP3    H226437   3.298  -0.029   2.796 -1.9630 -0.4402  2.0737
 8825TIP3   OH226438   3.983   0.485   0.538  0.1298 -0.4417 -0.5567
 8825TIP3    H126439   4.012   0.484   0.447 -0.8125  0.1936 -0.8887
 8825TIP3    H226440   3.899   0.440   0.537 -0.1664  0.0779 -0.1133
 8826TIP3   OH226441   5.815   0.840   5.729  0.3357  0.5958  0.2319
 8826TIP3    H126442   5.814   0.760   5.782 -0.3572  1.2149  1.1673
 8826TIP3    H226443   5.865   0.903   5.781  2.4533  0.2763 -1.2899
 8827TIP3   OH226444   0.243   3.133   0.383  0.0217 -0.7920 -0.4283
 8827TIP3    H126445   0.190   3.212   0.382 -0.9084 -1.4121 -1.0722
 8827TIP3    H226446   0.305   3.145   0.311  0.5037 -0.2590  0.0587
 8828TIP3   OH226447   6.195   0.860   1.353  0.0274 -0.8465 -0.6967
 8828TIP3    H126448   6.163   0.770   1.345 -0.6818 -0.6316 -0.3778
 8828TIP3    H226449   6.140   0.911   1.293 -1.1119 -0.2678  0.7799
 8829TIP3   OH226450   6.306   0.548   1.357 -0.0392  0.0442  0.0585
 8829TIP3    H126451   6.296   0.477   1.294 -0.1504 -0.4034  0.5745
 8829TIP3    H226452   6.398   0.545   1.384  0.2305  0.8032 -0.7392
 8830TIP3   OH226453   2.795   2.065   0.051  0.0776 -0.2243 -0.0105
 8830TIP3    H126454   2.853   1.992   0.029 -0.6037 -0.4428 -1.1976
 8830TIP3    H226455   2.746   2.035   0.127 -0.2914 -1.0851 -0.5667
 8831TIP3   OH226456   4.710   4.076   3.211  0.3234 -0.3041  0.0773
 8831TIP3    H126457   4.699   4.032   3.126  0.0723 -1.6546  0.7842
 8831TIP3    H226458   4.713   4.004   3.274  0.4443  0.6950  1.2212
 8832TIP3   OH226459   2.062   3.227   1.897  0.0273 -0.2413  0.1987
 8832TIP3    H126460   2.098   3.206   1.983  0.1217 -1.5897 -0.1478
 8832TIP3    H226461   2.073   3.147   1.846 -0.3985  0.4060 -0.9498
 8833TIP3   OH226462   3.770   1.764   2.350  0.4322 -0.1017 -0.0028
 8833TIP3    H126463   3.763   1.755   2.255  0.0626 -0.2403  0.0356
 8833TIP3    H226464   3.742   1.854   2.367 -0.3011 -0.3304  0.0488
 8834TIP3   OH226465   5.667   4.620   3.064 -0.6646 -0.1497 -0.2324
 8834TIP3    H126466   5.751   4.580   3.039 -1.4046 -1.3153 -0.9669
 8834TIP3    H226467   5.678   4.640   3.157  0.9915  1.2600 -0.6755
 8835TIP3   OH226468   2.386   2.451   0.388  0.1461 -0.3157 -0.1406
 8835TIP3    H126469   2.367   2.503   0.310  0.3392 -0.5809 -0.3636
 8835TIP3    H226470   2.301   2.440   0.430  0.2476  1.1886  0.5486
 8836TIP3   OH226471   1.334   1.004   4.576  0.0101 -0.0882 -0.3804
 8836TIP3    H126472   1.388   1.036   4.649 -0.9830 -0.9044  0.7567
 8836TIP3    H226473   1.264   1.069   4.569  1.1324  1.0173 -1.9128
 8837TIP3   OH226474   1.500   4.200   5.351 -0.1192  0.4350 -0.7589
 8837TIP3    H126475   1.559   4.274   5.345 -1.1076  1.3871  0.7525
 8837TIP3    H226476   1.421   4.235   5.391 -1.5071 -0.9367 -2.1360
 8838TIP3   OH226477   5.997   2.478   4.143 -0.4634  0.5644  0.3273
 8838TIP3    H126478   5.918   2.525   4.116 -1.5077 -0.1371  2.0099
 8838TIP3    H226479   5.969   2.387   4.150  1.2977 -0.2433 -1.9763
 8839TIP3   OH226480   3.351   1.378   2.522 -0.2920  0.2507  0.0059
 8839TIP3    H126481   3.357   1.444   2.454 -0.0438 -1.3127 -1.5625
 8839TIP3    H226482   3.410   1.409   2.591  0.8566  0.9987 -1.2676
 8840TIP3   OH226483   2.539   6.275   1.915 -0.0370  0.2611 -0.2441
 8840TIP3    H126484   2.522   6.189   1.876 -0.7453  0.4112 -0.2810
 8840TIP3    H226485   2.599   6.318   1.853  0.4465 -0.2670 -0.1414
 8841TIP3   OH226486   6.810   3.520   2.995  0.1123 -0.3825 -0.6890
 8841TIP3    H126487   6.796   3.431   3.028 -1.6761 -0.9520 -2.8195
 8841TIP3    H226488   6.730   3.542   2.948 -0.5591  3.3514  1.7277
 8842TIP3   OH226489   4.941   2.773   4.048  0.0481 -0.0849 -0.0686
 8842TIP3    H126490   4.875   2.817   4.101  1.5584  0.8456  1.1478
 8842TIP3    H226491   5.019   2.773   4.104  1.2926 -0.4154 -1.7500
 8843TIP3   OH226492   2.319   6.094   0.647  0.3186  0.0560  0.6157
 8843TIP3    H126493   2.347   6.162   0.708  0.6348 -0.2370  0.7974
 8843TIP3    H226494   2.251   6.046   0.694 -0.9941  1.1589 -0.0513
 8844TIP3   OH226495   3.820   4.000   4.830 -0.1040 -0.0598  0.0991
 8844TIP3    H126496   3.764   4.020   4.756  0.9823  1.0457 -0.4726
 8844TIP3    H226497   3.766   4.018   4.907 -0.3925  1.5622 -0.4271
 8845TIP3   OH226498   3.606   4.635   5.609  0.1099 -0.8830  0.1398
 8845TIP3    H126499   3.627   4.572   5.677  4.0489 -0.2051 -0.1744
 8845TIP3    H226500   3.657   4.606   5.533 -0.1805  1.0942 -0.8789
 8846TIP3   OH226501   0.780   4.919   5.348  0.2663  0.5622 -0.0062
 8846TIP3    H126502   0.806   5.008   5.325  1.0815  0.3787  0.1600
 8846TIP3    H226503   0.841   4.894   5.418  1.2210 -0.7632 -1.2636
 8847TIP3   OH226504   0.846   1.159   5.641 -0.5157 -0.1662  0.2521
 8847TIP3    H126505   0.840   1.111   5.723  0.4908  0.5882  0.7818
 8847TIP3    H226506   0.923   1.122   5.597 -0.4489  0.1403  0.1125
 8848TIP3   OH226507   5.686   3.650   5.448 -0.0764  0.1697  0.0625
 8848TIP3    H126508   5.734   3.673   5.368  1.3544  0.5756  1.0080
 8848TIP3    H226509   5.730   3.572   5.481  0.1048  0.6731  1.0579
 8849TIP3   OH226510   5.124   6.286   4.563  0.4011  0.2560  0.1691
 8849TIP3    H126511   5.149   6.361   4.616 -0.6995  1.0769 -0.4249
 8849TIP3    H226512   5.033   6.269   4.588  0.4935 -0.6055 -0.0334
 8850TIP3   OH226513   4.344   0.610   3.526 -0.2628  0.4413 -0.5870
 8850TIP3    H126514   4.373   0.649   3.444  0.1833 -1.4361 -1.3691
 8850TIP3    H226515   4.422   0.567   3.561 -0.8567 -0.2305 -0.0550
 8851TIP3   OH226516   1.590   6.568   4.577 -0.0810  0.7822  0.3644
 8851TIP3    H126517   1.578   6.575   4.671 -0.0117  1.0810  0.3523
 8851TIP3    H226518   1.505   6.592   4.540 -0.2549  0.1860  0.3629
 8852TIP3   OH226519   1.789   4.659   3.470 -0.0441 -0.1917  0.3339
 8852TIP3    H126520   1.755   4.660   3.560  0.7108 -0.8416  0.6341
 8852TIP3    H226521   1.884   4.657   3.480  0.0340 -1.4610 -0.4675
 8853TIP3   OH226522   0.732   6.573   5.651  0.1911 -0.3566  0.4737
 8853TIP3    H126523   0.674   6.586   5.726 -0.9909  1.0850 -0.6329
 8853TIP3    H226524   0.819   6.559   5.691 -0.8284 -2.4640  2.1533
 8854TIP3   OH226525   4.851   4.781   1.631 -0.3989  1.0291  0.5478
 8854TIP3    H126526   4.896   4.713   1.681 -2.1121 -0.7857 -0.2642
 8854TIP3    H226527   4.791   4.821   1.694 -1.6373 -0.3946  0.3382
 8855TIP3   OH226528   6.662   3.418   3.346 -0.0108 -0.3663  0.1375
 8855TIP3    H126529   6.706   3.345   3.389  1.6050 -0.4940 -1.6286
 8855TIP3    H226530   6.713   3.495   3.370 -2.0511  0.4099  2.4896
 8856TIP3   OH226531   0.678   5.753   0.511 -0.3264  0.0023 -0.2293
 8856TIP3    H126532   0.593   5.779   0.476  0.1771 -0.7029 -2.0779
 8856TIP3    H226533   0.742   5.799   0.458  0.4779  0.0129  0.7098
 8857TIP3   OH226534   4.664   6.419   1.229  0.1809  0.3643  0.1302
 8857TIP3    H126535   4.609   6.483   1.185 -1.2925 -0.2328  1.0030
 8857TIP3    H226536   4.723   6.471   1.284 -0.3975  0.9865  0.1716
 8858TIP3   OH226537   3.521   4.847   5.748  0.0526  0.0540  0.0226
 8858TIP3    H126538   3.557   4.784   5.685  0.8611 -0.3526  0.8715
 8858TIP3    H226539   3.570   4.927   5.733 -0.6231  0.3412 -0.7088
 8859TIP3   OH226540   4.011   3.551   1.957 -0.0910 -0.3540 -0.3025
 8859TIP3    H126541   4.033   3.627   1.904 -0.8676 -0.7796 -1.2853
 8859TIP3    H226542   3.923   3.569   1.990  0.0038 -0.5140  0.0430
 8860TIP3   OH226543   0.984   4.057   0.080  0.1585 -0.1417 -0.1855
 8860TIP3    H126544   0.927   4.010   0.142 -1.4987  1.7973 -0.1266
 8860TIP3    H226545   1.057   4.088   0.134  0.8665 -1.9254 -0.0757
 8861TIP3   OH226546   4.870   4.609   1.013 -0.2182 -0.2357  0.3449
 8861TIP3    H126547   4.863   4.671   1.086  0.6135  0.6949 -0.3408
 8861TIP3    H226548   4.936   4.546   1.041  0.4262  0.3771  0.2297
 8862TIP3   OH226549   2.544   5.641   0.114  0.4306 -0.4513  0.0276
 8862TIP3    H126550   2.573   5.675   0.198 -0.3420 -0.0997  0.1602
 8862TIP3    H226551   2.556   5.546   0.122  0.4294 -0.4162  0.5141
 8863TIP3   OH226552   2.027   0.547   4.360 -0.4439  0.4566  0.0006
 8863TIP3    H126553   2.039   0.452   4.363 -1.3824  0.3449  2.3585
 8863TIP3    H226554   1.978   0.567   4.440  0.5119  3.0453  0.0114
 8864TIP3   OH226555   1.396   6.337   0.721  0.9257  0.3743  0.5031
 8864TIP3    H126556   1.457   6.386   0.665  1.1025  0.1279  0.4819
 8864TIP3    H226557   1.451   6.278   0.772  0.8001  0.8483  1.2053
 8865TIP3   OH226558   6.459   3.802   2.867  0.0392  0.1786 -0.3344
 8865TIP3    H126559   6.486   3.711   2.855  0.9169  0.3313  0.3598
 8865TIP3    H226560   6.366   3.796   2.889 -0.5439 -0.3723 -2.6634
 8866TIP3   OH226561   1.576   3.520   0.931 -0.0146  0.1030  0.2628
 8866TIP3    H126562   1.555   3.433   0.964  0.2051 -0.0779 -0.0613
 8866TIP3    H226563   1.570   3.578   1.007 -1.0497 -0.0460  0.3008
 8867TIP3   OH226564   6.413   6.105   4.434  0.3967  0.1920 -0.1063
 8867TIP3    H126565   6.485   6.167   4.423  0.5725  0.1391  0.7224
 8867TIP3    H226566   6.412   6.084   4.527  0.3784 -1.1165 -0.3792
 8868TIP3   OH226567   6.649   6.071   0.317 -0.3995  0.0259 -0.5204
 8868TIP3    H126568   6.554   6.078   0.314 -0.4238 -0.2638 -0.5406
 8868TIP3    H226569   6.671   6.023   0.237  0.0190  2.5684 -2.0266
 8869TIP3   OH226570   3.803   3.009   1.277 -0.6096  0.2939  0.2387
 8869TIP3    H126571   3.715   3.044   1.294  0.0813  1.1109  2.5124
 8869TIP3    H226572   3.855   3.085   1.254 -0.4079 -0.1664 -0.9270
 8870TIP3   OH226573   2.256   3.201   3.933 -0.3755  0.0275  0.1328
 8870TIP3    H126574   2.168   3.223   3.904 -1.3398  0.9557  3.3759
 8870TIP3    H226575   2.245   3.121   3.985  0.9834 -0.7227 -0.6743
 8871TIP3   OH226576   4.474   4.142   4.148  0.0842  0.0516 -0.1456
 8871TIP3    H126577   4.569   4.134   4.139  0.2127  0.8093  0.3723
 8871TIP3    H226578   4.451   4.078   4.216  0.4390  0.8178  0.7259
 8872TIP3   OH226579   2.721   5.986   5.421 -0.1089 -0.7410 -0.2062
 8872TIP3    H126580   2.682   6.033   5.348 -2.0338 -0.3427  1.0247
 8872TIP3    H226581   2.660   5.997   5.494  1.4113 -1.6684  1.3106
 8873TIP3   OH226582   1.409   6.511   1.262  0.7471 -0.0397  0.4593
 8873TIP3    H126583   1.407   6.472   1.349  1.0093 -0.5493  0.2460
 8873TIP3    H226584   1.461   6.591   1.272  0.1426  0.2986  0.9179
 8874TIP3   OH226585   0.445   5.314  -0.020 -0.3251  0.1337 -0.3437
 8874TIP3    H126586   0.428   5.228   0.018  0.3269  0.1859  0.0867
 8874TIP3    H226587   0.398   5.375   0.037 -1.1128  0.0327 -0.8796
 8875TIP3   OH226588   4.125   5.801   3.142 -0.3746  0.1030  0.1828
 8875TIP3    H126589   4.123   5.714   3.180 -1.2821  0.2220  0.4381
 8875TIP3    H226590   4.176   5.853   3.204  0.9422 -0.4322 -0.4195
 8876TIP3   OH226591   1.436   2.534   2.696  0.2766  0.3822 -0.3008
 8876TIP3    H126592   1.344   2.539   2.673  0.5545  0.2552 -1.4974
 8876TIP3    H226593   1.441   2.465   2.762 -0.5375  0.7332  0.1491
 8877TIP3   OH226594   3.555   2.433   2.902 -0.4914 -0.5760 -0.0436
 8877TIP3    H126595   3.531   2.384   2.980 -2.0190 -0.9899 -0.7353
 8877TIP3    H226596   3.629   2.487   2.929 -0.4122 -1.3786  1.4267
 8878TIP3   OH226597   0.268   6.524   0.893  0.3280 -0.2215  0.6975
 8878TIP3    H126598   0.258   6.490   0.805 -1.7283  0.0978  0.7628
 8878TIP3    H226599   0.363   6.534   0.904  0.5933  1.9028 -2.3030
 8879TIP3   OH226600   0.669   5.420   1.142 -0.9864  0.2478  0.7348
 8879TIP3    H126601   0.684   5.508   1.176 -1.0613  0.9210 -0.9084
 8879TIP3    H226602   0.671   5.430   1.047 -1.5303 -1.4344  0.5146
 8880TIP3   OH226603   0.674   2.842   2.292 -0.3565 -0.2516  0.1857
 8880TIP3    H126604   0.611   2.802   2.231  1.1673 -0.6084 -1.2010
 8880TIP3    H226605   0.671   2.784   2.369  0.0381 -1.7187 -0.8432
 8881TIP3   OH226606   5.174   4.895   0.896 -0.6133  0.3936  0.1750
 8881TIP3    H126607   5.087   4.905   0.858  0.2960 -0.1426 -2.2172
 8881TIP3    H226608   5.234   4.908   0.822  1.2147 -2.8409  0.9175
 8882TIP3   OH226609   6.397   0.238   4.062  0.4947  0.3572  0.0190
 8882TIP3    H126610   6.376   0.323   4.023 -0.7458  0.7222  1.4036
 8882TIP3    H226611   6.451   0.259   4.138  2.8628 -0.3446 -1.3857
 8883TIP3   OH226612   0.057   0.636   0.152  0.0853  0.0931 -0.3868
 8883TIP3    H126613   0.012   0.715   0.179 -0.7771  0.1173 -1.7899
 8883TIP3    H226614   0.150   0.655   0.165 -0.2391  0.1933  2.1457
 8884TIP3   OH226615   5.094   3.698   3.938  0.1239 -0.2475  0.3391
 8884TIP3    H126616   5.081   3.741   3.854 -1.5886 -3.2089 -1.0564
 8884TIP3    H226617   5.012   3.712   3.985 -1.7379 -4.1658 -1.3391
 8885TIP3   OH226618   4.183   1.050   0.919  0.1524  0.3615 -0.0838
 8885TIP3    H126619   4.151   0.960   0.924  0.6590  0.1264 -0.9020
 8885TIP3    H226620   4.273   1.042   0.887  0.4560  1.1164  0.5335
 8886TIP3   OH226621   2.200   5.957   1.205 -0.7209  0.1382  0.7077
 8886TIP3    H126622   2.110   5.925   1.208 -0.8441  0.3936 -0.0831
 8886TIP3    H226623   2.254   5.878   1.208 -0.9335  0.0158  2.0335
 8887TIP3   OH226624   4.771   3.986   5.525  0.3635  0.2352  0.5073
 8887TIP3    H126625   4.729   4.042   5.590 -0.1867  0.6773 -0.2143
 8887TIP3    H226626   4.787   4.043   5.451 -1.0281 -0.7198 -0.5921
 8888TIP3   OH226627   4.782   6.527   3.915  0.4653  0.1991 -0.0791
 8888TIP3    H126628   4.843   6.533   3.842 -0.8276  0.9403 -1.1336
 8888TIP3    H226629   4.807   6.598   3.974  1.6578 -0.5470  0.3592
 8889TIP3   OH226630   5.407   3.746   1.806 -0.7303 -0.6949 -0.8439
 8889TIP3    H126631   5.350   3.677   1.773 -2.5057 -0.2241  1.0577
 8889TIP3    H226632   5.366   3.827   1.777 -1.2699 -0.3388  0.8390
 8890TIP3   OH226633   4.534   4.007   2.639  0.4813  0.4673 -0.4101
 8890TIP3    H126634   4.621   3.996   2.677 -0.2838  0.4684  1.4263
 8890TIP3    H226635   4.475   3.963   2.700 -0.7567 -0.1501 -1.9793
 8891TIP3   OH226636   4.152   4.567   3.766  0.4896  0.3386 -0.5238
 8891TIP3    H126637   4.082   4.593   3.706 -0.8935  2.1180  1.7292
 8891TIP3    H226638   4.200   4.648   3.783  1.5325 -0.3652 -0.0317
 8892TIP3   OH226639   6.291   2.686   3.046  0.0495 -0.0783  0.4563
 8892TIP3    H126640   6.347   2.609   3.052 -0.6931 -0.4973  3.2812
 8892TIP3    H226641   6.240   2.671   2.966 -0.6519 -2.9850  1.2979
 8893TIP3   OH226642   3.563   1.456   3.329  0.1155 -0.0610  0.4170
 8893TIP3    H126643   3.532   1.413   3.250 -0.1328  1.1416 -0.1578
 8893TIP3    H226644   3.652   1.421   3.342  0.3550  0.1201 -0.6855
 8894TIP3   OH226645   1.662   0.964   2.488 -0.0933  0.1800 -0.1424
 8894TIP3    H126646   1.615   0.898   2.538 -0.5387 -0.1664 -1.0060
 8894TIP3    H226647   1.734   0.991   2.546 -1.5724  1.0377  1.3854
 8895TIP3   OH226648   5.642   4.269   2.403 -0.2422  0.1458  0.2548
 8895TIP3    H126649   5.595   4.190   2.431 -1.2677  0.9011  0.7403
 8895TIP3    H226650   5.574   4.336   2.397  0.5425  0.8918 -0.5867
 8896TIP3   OH226651   1.507   1.366   2.585  0.0325 -0.1569 -0.7710
 8896TIP3    H126652   1.491   1.359   2.679 -0.8544  1.5025 -0.7535
 8896TIP3    H226653   1.432   1.322   2.545 -0.5437  0.7225 -0.6836
 8897TIP3   OH226654   3.513   2.254   3.125  0.0005  0.0878  0.1547
 8897TIP3    H126655   3.580   2.275   3.190 -2.6055  1.1750  2.7000
 8897TIP3    H226656   3.494   2.161   3.140 -0.0705  0.1462  0.4382
 8898TIP3   OH226657   0.430   3.586   1.301 -0.7849 -0.1925 -0.3429
 8898TIP3    H126658   0.492   3.646   1.343 -0.8275  0.8485 -1.6868
 8898TIP3    H226659   0.446   3.598   1.207 -2.4822 -0.4808 -0.6940
 8899TIP3   OH226660   2.813   0.473   3.596  0.4095  0.2411 -0.5750
 8899TIP3    H126661   2.895   0.497   3.553  1.3151  0.0297  0.9526
 8899TIP3    H226662   2.787   0.551   3.645  0.3185 -0.0687 -0.1238
 8900TIP3   OH226663   2.584   2.020   5.576  0.2835 -0.3871 -0.2392
 8900TIP3    H126664   2.616   1.983   5.494 -1.1064  0.2792 -1.1105
 8900TIP3    H226665   2.524   1.953   5.611 -1.0700  0.3524 -1.0626
 8901TIP3   OH226666   0.591   5.068   1.777  0.2142  0.0606 -0.2969
 8901TIP3    H126667   0.652   5.114   1.835  0.4110 -0.5413 -0.0233
 8901TIP3    H226668   0.633   4.984   1.760 -1.0752 -0.8454  0.8544
 8902TIP3   OH226669   6.256   0.904   5.003 -0.0962 -0.1662  0.5065
 8902TIP3    H126670   6.167   0.931   4.978  0.6140  2.2367  0.3024
 8902TIP3    H226671   6.252   0.809   5.005 -2.1282 -0.2235 -1.5345
 8903TIP3   OH226672   1.504   5.331   4.103 -0.7745 -0.8546 -0.1020
 8903TIP3    H126673   1.444   5.362   4.171  0.7369 -0.7747  1.2718
 8903TIP3    H226674   1.533   5.245   4.135 -0.0747 -0.8332 -0.6607
 8904TIP3   OH226675   3.350   4.507   4.075 -0.0990 -0.6743 -0.1948
 8904TIP3    H126676   3.412   4.567   4.115 -1.0401  0.0999  0.1562
 8904TIP3    H226677   3.298   4.561   4.016 -0.6406 -1.2336 -0.2480
 8905TIP3   OH226678   0.923   1.988   1.431  0.2342 -0.3643  0.0144
 8905TIP3    H126679   0.832   1.999   1.456  0.8510  2.7510  1.4050
 8905TIP3    H226680   0.969   1.970   1.514  1.3122  2.3021  0.1099
 8906TIP3   OH226681   1.030   5.365   0.532 -0.0432 -0.3078 -0.8300
 8906TIP3    H126682   0.940   5.397   0.531  0.3181  0.8789  0.8636
 8906TIP3    H226683   1.026   5.283   0.581  0.0871  0.9230  1.3722
 8907TIP3   OH226684   5.366   5.373   5.301  0.5613 -0.3249  0.2839
 8907TIP3    H126685   5.402   5.288   5.326 -0.6968 -1.1459 -0.5481
 8907TIP3    H226686   5.433   5.414   5.247  0.9964 -0.9792  0.3287
 8908TIP3   OH226687   5.195   5.209   4.465  0.1554 -0.4985 -0.3877
 8908TIP3    H126688   5.111   5.184   4.504  0.7607 -0.4553  1.0202
 8908TIP3    H226689   5.197   5.166   4.380 -1.8301  0.5100 -0.9881
 8909TIP3   OH226690   5.601   3.056   4.146  0.3964 -0.5205  0.0192
 8909TIP3    H126691   5.648   2.986   4.190 -0.6883 -2.2448 -1.4316
 8909TIP3    H226692   5.656   3.081   4.073  1.0435  0.6028  0.8498
 8910TIP3   OH226693   1.618   1.794   2.917 -0.7152 -0.0605  0.2606
 8910TIP3    H126694   1.559   1.722   2.895 -1.9800 -0.1869  3.5286
 8910TIP3    H226695   1.561   1.870   2.926  0.1345  0.6179  0.0358
 8911TIP3   OH226696   2.778   3.915   3.039  0.3738 -0.0037 -0.3346
 8911TIP3    H126697   2.752   4.003   3.014  3.1327  0.8745 -0.3968
 8911TIP3    H226698   2.734   3.858   2.975 -0.3354  1.4202 -1.1584
 8912TIP3   OH226699   2.802   2.373   4.855  0.5405  0.4276  0.3166
 8912TIP3    H126700   2.879   2.331   4.893  0.5927  0.8722  0.7098
 8912TIP3    H226701   2.740   2.380   4.927 -1.3250 -3.1357 -0.6805
 8913TIP3   OH226702   0.623   4.735   2.903  0.2812  0.4624 -0.4543
 8913TIP3    H126703   0.579   4.651   2.910 -2.0997  1.6925  0.4585
 8913TIP3    H226704   0.615   4.760   2.811  0.0834  0.1792 -0.5135
 8914TIP3   OH226705   7.063   3.152   4.588 -0.0627  0.1413 -0.2813
 8914TIP3    H126706   7.049   3.209   4.664 -0.3933  0.1220 -0.3248
 8914TIP3    H226707   7.139   3.100   4.611 -0.1005  0.2054 -0.0022
 8915TIP3   OH226708   5.189   2.557   1.066  0.1844 -0.0524  0.3880
 8915TIP3    H126709   5.096   2.540   1.079  0.0734  0.6706  0.5515
 8915TIP3    H226710   5.211   2.626   1.129  0.5988  0.5008 -0.3437
 8916TIP3   OH226711   1.336   4.842   1.519  0.3057 -0.2612 -0.6619
 8916TIP3    H126712   1.345   4.902   1.594  0.2477 -1.3708  0.2509
 8916TIP3    H226713   1.425   4.836   1.484  0.4218 -0.0947 -0.4066
 8917TIP3   OH226714   1.967   1.017   4.232 -0.2211 -0.3357  0.1075
 8917TIP3    H126715   1.976   0.924   4.254 -0.0582 -0.2706  0.3250
 8917TIP3    H226716   2.037   1.034   4.169  2.4407  0.5638  3.0498
 8918TIP3   OH226717   2.410   3.028   1.359  0.0181  0.3206 -0.0512
 8918TIP3    H126718   2.360   3.063   1.432  0.4248  1.3256 -0.2392
 8918TIP3    H226719   2.344   2.991   1.300 -0.5266  1.6402 -0.3005
 8919TIP3   OH226720   3.911   3.254   1.248  0.3921  0.2453  0.4703
 8919TIP3    H126721   3.868   3.293   1.324  0.2995  0.4018  0.3385
 8919TIP3    H226722   3.871   3.297   1.173  1.8867  1.5672  0.3782
 8920TIP3   OH226723   1.463   5.107   2.289 -0.3819  0.3326 -0.0771
 8920TIP3    H126724   1.420   5.097   2.205 -1.3075  1.4819  0.2257
 8920TIP3    H226725   1.414   5.050   2.349 -0.4461  0.3928 -0.0727
 8921TIP3   OH226726   3.791   3.777   1.155 -0.0570  0.8109  0.0269
 8921TIP3    H126727   3.870   3.755   1.106  1.0624  1.0011  1.6725
 8921TIP3    H226728   3.779   3.705   1.216 -0.7255  1.1537  0.3112
 8922TIP3   OH226729   3.997   5.489   3.093  0.1891  0.2472 -0.5638
 8922TIP3    H126730   3.915   5.440   3.107  0.9232 -1.2573 -1.2511
 8922TIP3    H226731   3.990   5.564   3.152 -0.8175 -0.9282  0.9022
 8923TIP3   OH226732   0.355   0.412   4.050  0.1373 -0.1226  0.0968
 8923TIP3    H126733   0.359   0.320   4.076 -1.2920 -0.2061  0.1165
 8923TIP3    H226734   0.365   0.411   3.955 -1.3683 -0.4727 -0.0876
 8924TIP3   OH226735   6.770   0.494   2.251 -0.2064 -0.0097 -0.1432
 8924TIP3    H126736   6.696   0.542   2.287 -0.5284 -0.9930  0.5398
 8924TIP3    H226737   6.741   0.466   2.164 -0.6460 -0.3866  0.1184
 8925TIP3   OH226738   5.581   1.700   2.673  0.7014  0.2677  0.4895
 8925TIP3    H126739   5.638   1.764   2.631  0.7093  1.0542  1.6608
 8925TIP3    H226740   5.595   1.619   2.623  1.1120  1.0212 -0.6543
 8926TIP3   OH226741   0.326   3.098   3.285  0.1642 -0.7790  0.5352
 8926TIP3    H126742   0.366   3.021   3.327 -0.8543 -0.5927  1.8848
 8926TIP3    H226743   0.278   3.142   3.355 -0.8704  0.0316 -0.6421
 8927TIP3   OH226744   2.354   2.362   3.812 -0.1300 -0.1507  0.3544
 8927TIP3    H126745   2.409   2.308   3.869 -1.1167 -0.4424  1.0659
 8927TIP3    H226746   2.293   2.301   3.773 -0.6102  0.3059  0.3758
 8928TIP3   OH226747   2.630   3.493   3.498  0.2836  0.1784 -0.1651
 8928TIP3    H126748   2.635   3.477   3.403  2.7474  1.5845 -0.3808
 8928TIP3    H226749   2.611   3.408   3.536  3.5142 -1.4030 -1.7075
 8929TIP3   OH226750   6.672   2.546   5.378  0.0554  0.3289 -0.5482
 8929TIP3    H126751   6.583   2.576   5.395 -1.2944 -2.3503 -2.2340
 8929TIP3    H226752   6.681   2.467   5.431  1.9162  1.1413  0.4557
 8930TIP3   OH226753   1.622   6.171   0.871  0.8436 -0.7156  0.2074
 8930TIP3    H126754   1.599   6.143   0.960  0.1488 -0.7738  0.0177
 8930TIP3    H226755   1.586   6.102   0.815 -1.6198  0.8949 -0.3263
 8931TIP3   OH226756   3.741   4.385   5.746 -0.2910  0.5669  0.3995
 8931TIP3    H126757   3.779   4.325   5.683 -0.2505  0.8234  0.1762
 8931TIP3    H226758   3.816   4.432   5.783 -0.2890  0.2084  0.8567
 8932TIP3   OH226759   1.248   3.587   0.017 -0.0375 -0.2157 -0.5190
 8932TIP3    H126760   1.337   3.555   0.028  0.1400  0.4947  0.2088
 8932TIP3    H226761   1.196   3.508   0.002  0.3783 -0.8701  1.2123
 8933TIP3   OH226762   3.587   1.672   3.129  0.0256  0.2147  0.0439
 8933TIP3    H126763   3.556   1.590   3.168 -0.2967  0.1382 -0.3693
 8933TIP3    H226764   3.605   1.729   3.204 -1.7227  0.4814  0.3030
 8934TIP3   OH226765   1.833   5.204   2.475  0.3407  0.0785 -0.6368
 8934TIP3    H126766   1.767   5.267   2.445 -1.0568 -0.7113  0.6257
 8934TIP3    H226767   1.894   5.256   2.526 -1.7664  0.2602  1.8855
 8935TIP3   OH226768   4.450   4.019   3.925  0.1496  0.4351 -0.4717
 8935TIP3    H126769   4.459   4.069   4.006  1.7412  0.4869 -0.6515
 8935TIP3    H226770   4.472   3.929   3.950 -1.2213  0.0689 -0.4741
 8936TIP3   OH226771   7.178   5.652   3.262  0.0192  0.4027  0.2513
 8936TIP3    H126772   7.110   5.700   3.311 -0.4068 -1.4471  1.5942
 8936TIP3    H226773   7.146   5.650   3.172 -0.7708  1.1885  0.4987
 8937TIP3   OH226774   4.980   1.630   0.559  0.1545 -0.5097  0.2669
 8937TIP3    H126775   4.917   1.604   0.626  0.8634 -1.0579  0.7406
 8937TIP3    H226776   5.056   1.662   0.609 -0.5806  2.3517 -0.2809
 8938TIP3   OH226777   1.237   3.889   1.228  0.2513 -0.4836  0.3857
 8938TIP3    H126778   1.239   3.835   1.307  0.8828 -0.3513  0.4633
 8938TIP3    H226779   1.146   3.919   1.221 -0.1610 -1.7140  0.2311
 8939TIP3   OH226780   2.013   2.442   1.652  0.0492 -0.6862 -0.3241
 8939TIP3    H126781   1.923   2.432   1.683 -0.2320  3.3724  0.8154
 8939TIP3    H226782   2.067   2.409   1.724 -0.6393  2.0776  1.6207
 8940TIP3   OH226783   2.622   4.032   1.051  0.4697 -0.0824  0.1576
 8940TIP3    H126784   2.582   3.965   0.996 -0.4462  0.4302  0.1803
 8940TIP3    H226785   2.632   4.107   0.993  2.5147 -0.5626 -0.1723
 8941TIP3   OH226786   6.760   5.087   4.306 -0.2517  0.3036  0.3537
 8941TIP3    H126787   6.788   5.034   4.381 -1.9993  0.6127  1.2707
 8941TIP3    H226788   6.725   5.167   4.345 -3.3564 -0.4849 -0.5511
 8942TIP3   OH226789   4.110   5.513   3.360 -0.0336 -0.4446  0.5751
 8942TIP3    H126790   4.198   5.551   3.363  0.2757 -1.1619  0.7813
 8942TIP3    H226791   4.075   5.529   3.448 -0.2938  0.2467  0.3556
 8943TIP3   OH226792   3.461   6.487   2.989 -0.0838  0.4827  0.7990
 8943TIP3    H126793   3.533   6.439   3.030 -0.2230  0.6306  1.2164
 8943TIP3    H226794   3.385   6.430   3.000  0.5796 -1.4437 -2.8354
 8944TIP3   OH226795   2.832   1.415   1.055 -0.1132  0.2562 -0.1196
 8944TIP3    H126796   2.905   1.432   1.115 -0.0432  1.8749 -0.6145
 8944TIP3    H226797   2.791   1.501   1.042 -1.3363 -0.4099 -0.8405
 8945TIP3   OH226798   0.452   2.270   0.312  0.0900  0.0872 -0.9071
 8945TIP3    H126799   0.401   2.227   0.242 -1.2788  0.0626  0.0626
 8945TIP3    H226800   0.485   2.198   0.366  1.4987  0.0847 -1.7196
 8946TIP3   OH226801   6.379   0.142   3.707 -0.4538 -0.0174 -0.1199
 8946TIP3    H126802   6.411   0.231   3.723 -0.8630  0.3181 -1.0935
 8946TIP3    H226803   6.289   0.143   3.738  0.2356 -0.8127  2.1235
 8947TIP3   OH226804   3.172   3.080   1.939 -0.0967 -0.4063  0.1764
 8947TIP3    H126805   3.097   3.135   1.960  0.1240 -0.1661  0.3506
 8947TIP3    H226806   3.187   3.028   2.018 -0.3751 -0.7964 -0.0296
 8948TIP3   OH226807   3.743   3.699   3.482  0.4578  0.1126  0.0279
 8948TIP3    H126808   3.658   3.742   3.471  0.2005 -0.5016 -0.4515
 8948TIP3    H226809   3.722   3.614   3.520  0.7856 -0.3340 -0.7727
 8949TIP3   OH226810   5.010   5.914   4.584  0.2326 -0.5891  0.0234
 8949TIP3    H126811   5.027   5.845   4.649  0.0625  0.6300  1.4404
 8949TIP3    H226812   5.091   5.966   4.584  0.1285 -0.4232 -0.5488
 8950TIP3   OH226813   4.989   2.950   5.302  0.3195  0.7258 -0.2737
 8950TIP3    H126814   4.939   3.016   5.350 -1.2736  0.1733 -1.1014
 8950TIP3    H226815   5.077   2.986   5.297  0.3912  1.0997  2.4307
 8951TIP3   OH226816   1.473   5.657   0.887  0.3827 -0.1637  0.7821
 8951TIP3    H126817   1.461   5.751   0.900 -1.9532 -0.3657  0.5693
 8951TIP3    H226818   1.541   5.651   0.820 -1.2424  1.5180 -1.1808
 8952TIP3   OH226819   2.225   3.727   5.600 -0.1462  0.2077 -0.2143
 8952TIP3    H126820   2.260   3.797   5.655  0.1967  1.1100 -1.5171
 8952TIP3    H226821   2.303   3.679   5.571 -0.5029 -2.3457  2.6399
 8953TIP3   OH226822   6.845   1.836   4.853 -0.5185 -0.0633 -0.1558
 8953TIP3    H126823   6.791   1.910   4.880  1.0802  0.9018  0.5651
 8953TIP3    H226824   6.926   1.876   4.822  0.2811 -1.5042 -0.0194
 8954TIP3   OH226825   4.087   4.227   1.614  0.3432  0.1095 -1.0944
 8954TIP3    H126826   4.000   4.262   1.632  0.4998 -0.5514  1.2809
 8954TIP3    H226827   4.108   4.258   1.526 -0.6278  3.6431 -0.2209
 8955TIP3   OH226828   1.704   4.047   2.769  0.9693 -0.0126  0.3003
 8955TIP3    H126829   1.694   4.034   2.864 -0.4144 -1.2671  0.0142
 8955TIP3    H226830   1.664   4.132   2.753  2.0242  0.6346  0.9415
 8956TIP3   OH226831   3.511   0.052   4.779  0.3980  0.3419  0.2209
 8956TIP3    H126832   3.575   0.032   4.848  1.3348  1.9302 -0.1341
 8956TIP3    H226833   3.536  -0.005   4.706  0.3841 -0.2243  0.6542
 8957TIP3   OH226834   0.551   3.151   2.840  0.0338  0.1999  0.4336
 8957TIP3    H126835   0.519   3.230   2.883  0.5783  1.7442 -1.7909
 8957TIP3    H226836   0.641   3.173   2.815  0.8539 -1.8475  1.4006
 8958TIP3   OH226837   6.858   3.128   4.384 -0.2497  0.1319 -0.2076
 8958TIP3    H126838   6.946   3.119   4.420  0.3869 -0.5363 -1.8439
 8958TIP3    H226839   6.864   3.203   4.325 -1.1444  0.8994  0.6428
 8959TIP3   OH226840   6.866   3.427   2.108 -0.1511  0.0427 -0.1164
 8959TIP3    H126841   6.919   3.356   2.145 -1.7738 -0.8320  0.6304
 8959TIP3    H226842   6.794   3.382   2.064  0.0199  1.1853 -1.6404
 8960TIP3   OH226843   5.876   1.867   2.805  0.6383 -0.2232 -0.4423
 8960TIP3    H126844   5.791   1.911   2.815  0.7502 -0.2204  0.7358
 8960TIP3    H226845   5.860   1.799   2.740 -0.4020 -0.5210  0.0884
 8961TIP3   OH226846   4.586   3.971   0.926 -0.9545 -0.5444 -0.0428
 8961TIP3    H126847   4.662   3.933   0.882 -0.5482 -1.0714  1.0512
 8961TIP3    H226848   4.577   3.919   1.006 -1.7944  0.2222  0.3808
 8962TIP3   OH226849   4.675   3.355   0.824  0.4856  0.3928 -0.2619
 8962TIP3    H126850   4.693   3.409   0.747  0.1588  1.2984  0.2863
 8962TIP3    H226851   4.745   3.289   0.824  1.3112  1.2456 -0.5582
 8963TIP3   OH226852   1.236   6.053  -0.015 -0.2849  0.0435 -0.1963
 8963TIP3    H126853   1.225   6.074   0.078  2.8028 -0.1041  0.2936
 8963TIP3    H226854   1.167   5.989  -0.033 -2.1774  1.4848  1.4319
 8964TIP3   OH226855   0.556   3.415   0.493  0.4953 -0.3203  0.0537
 8964TIP3    H126856   0.631   3.461   0.532  0.4065  0.6003 -0.8180
 8964TIP3    H226857   0.565   3.431   0.399 -1.3128  0.5876  0.0080
 8965TIP3   OH226858   0.871   6.629   0.501 -0.3311 -0.6458 -0.2467
 8965TIP3    H126859   0.967   6.620   0.504 -0.4709 -2.3020  0.6754
 8965TIP3    H226860   0.839   6.539   0.508 -1.9962  0.0299  2.0621
 8966TIP3   OH226861   4.822   6.089   1.492  0.0772 -0.2041  0.0009
 8966TIP3    H126862   4.805   6.032   1.418 -0.0728 -0.7615  0.4619
 8966TIP3    H226863   4.908   6.128   1.474  0.2860 -0.7607 -0.1977
 8967TIP3   OH226864   4.744   4.872   4.790  0.3084  0.4439  0.2650
 8967TIP3    H126865   4.706   4.842   4.708 -0.1066  0.5890  0.4000
 8967TIP3    H226866   4.706   4.958   4.804 -0.1971  0.1151  0.9752
 8968TIP3   OH226867   4.837   0.108   2.466  0.3676  0.2337  0.4115
 8968TIP3    H126868   4.797   0.170   2.527  1.7844 -0.9990  2.7669
 8968TIP3    H226869   4.795   0.024   2.485  0.2861 -0.0596 -0.9255
 8969TIP3   OH226870   1.532   3.539   5.102  0.8537 -0.7470  0.1860
 8969TIP3    H126871   1.616   3.581   5.121  1.4449 -1.5929 -0.4714
 8969TIP3    H226872   1.549   3.486   5.024  0.7465 -3.8486  2.0911
 8970TIP3   OH226873   3.490   4.773   4.234  0.0584 -0.1825 -0.2090
 8970TIP3    H126874   3.486   4.779   4.329 -1.0720 -1.4379 -0.1415
 8970TIP3    H226875   3.432   4.842   4.202  2.5869  2.1295 -0.1291
 8971TIP3   OH226876   3.347   6.455   5.560  0.1496  1.2094 -0.0153
 8971TIP3    H126877   3.269   6.486   5.606 -1.2940  0.5486 -1.8650
 8971TIP3    H226878   3.338   6.491   5.471  0.4683 -1.1485 -1.0871
 8972TIP3   OH226879   4.112   1.257   0.461 -0.1304 -0.5585  0.2841
 8972TIP3    H126880   4.037   1.268   0.403 -0.4609  0.2366  0.8398
 8972TIP3    H226881   4.126   1.162   0.466 -0.4399 -0.6560 -0.6479
 8973TIP3   OH226882   0.915   3.964   3.713 -0.2819 -0.1838  0.1055
 8973TIP3    H126883   0.983   4.009   3.662  1.5007 -0.9302  1.7136
 8973TIP3    H226884   0.915   3.875   3.677  0.8406 -0.6569  1.2148
 8974TIP3   OH226885   2.814   0.879   5.808  0.0953  0.5513 -0.1687
 8974TIP3    H126886   2.864   0.953   5.772  1.3206 -0.0548  0.2163
 8974TIP3    H226887   2.858   0.802   5.772  0.2146 -0.0297  1.1891
 8975TIP3   OH226888   6.727   5.568   1.931 -0.4950 -0.4565  1.0898
 8975TIP3    H126889   6.747   5.477   1.953 -0.4268 -0.4837  0.9152
 8975TIP3    H226890   6.655   5.562   1.868 -0.0445 -0.4177  0.5636
 8976TIP3   OH226891   4.122   1.200   2.906  0.0167  0.7372  0.3079
 8976TIP3    H126892   4.171   1.252   2.842  1.8732 -1.3674 -0.1062
 8976TIP3    H226893   4.157   1.227   2.991  2.6339 -1.2568 -0.0105
 8977TIP3   OH226894   6.609   6.274   1.603 -0.1271  0.4570 -0.3204
 8977TIP3    H126895   6.592   6.309   1.516  2.8992 -0.3540 -1.3731
 8977TIP3    H226896   6.700   6.299   1.621  0.1695 -1.6506  1.4641
 8978TIP3   OH226897   5.381   0.848   3.824 -0.3286  0.1420 -0.4200
 8978TIP3    H126898   5.444   0.822   3.891  1.1310  0.6734 -1.5386
 8978TIP3    H226899   5.332   0.768   3.805  0.9047 -0.6287 -0.4543
 8979TIP3   OH226900   3.089   4.338   5.741  0.1999 -0.1355  0.0422
 8979TIP3    H126901   3.092   4.387   5.659 -1.3590  2.6308  1.4918
 8979TIP3    H226902   3.179   4.345   5.776 -0.2205  3.0685  0.8208
 8980TIP3   OH226903   3.091   2.941   4.217 -0.7046 -0.2889 -0.3504
 8980TIP3    H126904   3.067   3.017   4.165  0.1540  2.3785  2.8369
 8980TIP3    H226905   3.149   2.890   4.160 -0.5317  1.9210 -2.2889
 8981TIP3   OH226906   6.939   5.499   5.565  0.2784 -0.6574  0.1048
 8981TIP3    H126907   6.882   5.429   5.534 -0.1458 -0.4489  0.4044
 8981TIP3    H226908   6.921   5.572   5.506  0.0446 -0.5083  0.3625
 8982TIP3   OH226909   1.321   0.200   0.474 -0.4889  0.2897 -1.0018
 8982TIP3    H126910   1.355   0.257   0.543 -0.7199 -1.3131  0.5120
 8982TIP3    H226911   1.300   0.118   0.518 -1.6032 -0.4802 -2.8128
 8983TIP3   OH226912   2.849   0.061   4.516 -0.0861 -0.4588 -0.0126
 8983TIP3    H126913   2.868   0.098   4.602  0.7240  1.1098 -0.8039
 8983TIP3    H226914   2.767   0.014   4.527  1.3624 -2.6981  2.2570
 8984TIP3   OH226915   4.425   6.189   4.082 -0.1271  0.3848  0.4172
 8984TIP3    H126916   4.447   6.203   4.174 -0.6479 -0.0561  0.6144
 8984TIP3    H226917   4.355   6.252   4.064 -1.2131 -0.6885  0.8031
 8985TIP3   OH226918   4.924   4.398   2.744  0.4027 -0.1089  0.6093
 8985TIP3    H126919   4.872   4.332   2.789 -0.8664  0.4156 -0.0656
 8985TIP3    H226920   4.894   4.481   2.781  0.2506  0.2450 -0.2989
 8986TIP3   OH226921   0.935   3.797   5.488  0.4232  0.0886 -0.2714
 8986TIP3    H126922   1.012   3.773   5.436 -0.2083  0.7472 -1.5583
 8986TIP3    H226923   0.881   3.718   5.489  0.9215 -0.2508  0.2965
 8987TIP3   OH226924   6.593   3.104   1.460 -0.3005 -0.6234 -0.1952
 8987TIP3    H126925   6.644   3.182   1.437 -0.1687 -0.7537 -0.3410
 8987TIP3    H226926   6.657   3.033   1.463 -0.5409 -0.8672 -0.7995
 8988TIP3   OH226927   1.801   0.173   5.840 -0.5089  0.4273  0.5846
 8988TIP3    H126928   1.872   0.124   5.800 -0.5678  0.7495  0.0820
 8988TIP3    H226929   1.844   0.229   5.905 -0.1370  1.5155 -0.5511
 8989TIP3   OH226930   6.633   6.558   2.343 -0.0943  0.1184 -0.0870
 8989TIP3    H126931   6.674   6.632   2.299  0.7056 -1.1949 -1.6680
 8989TIP3    H226932   6.706   6.509   2.381 -0.5390 -0.1864  0.3818
 8990TIP3   OH226933   3.524   2.278   1.649 -0.1866  0.1953  0.1355
 8990TIP3    H126934   3.501   2.185   1.653 -1.2567  0.4389 -0.1214
 8990TIP3    H226935   3.513   2.309   1.739 -1.1921  0.3712 -0.0335
 8991TIP3   OH226936   6.619   5.994   1.527  0.4855 -0.0826  0.5745
 8991TIP3    H126937   6.622   6.089   1.527  2.4089 -0.0848 -0.7001
 8991TIP3    H226938   6.548   5.972   1.587 -0.8960  2.1637 -0.1195
 8992TIP3   OH226939   6.920   0.637   4.207  0.3823 -0.4512 -0.9291
 8992TIP3    H126940   6.944   0.714   4.258  0.3091  0.8422 -2.7433
 8992TIP3    H226941   6.853   0.668   4.146 -1.1816 -2.4612 -0.3460
 8993TIP3   OH226942   4.081   1.628   4.600 -0.2529 -0.1145 -1.0577
 8993TIP3    H126943   4.037   1.694   4.546  0.9345  0.2628 -1.6005
 8993TIP3    H226944   4.141   1.584   4.539  2.0782  1.1819  0.1630
 8994TIP3   OH226945   5.399   2.273   4.387 -0.3167  0.2144 -0.6290
 8994TIP3    H126946   5.377   2.288   4.478 -0.2233 -0.3786 -0.5060
 8994TIP3    H226947   5.338   2.205   4.358  0.1425 -0.1400 -0.7904
 8995TIP3   OH226948   6.435   5.329   0.265 -0.1571 -0.2970 -0.3350
 8995TIP3    H126949   6.497   5.258   0.280  0.8255  0.6220  0.0943
 8995TIP3    H226950   6.388   5.337   0.349  0.7164  0.4663  0.1008
 8996TIP3   OH226951   6.067   1.129   3.316  0.0318 -0.1538  0.3043
 8996TIP3    H126952   6.003   1.109   3.247  0.5636  0.9725 -0.5456
 8996TIP3    H226953   6.139   1.172   3.270 -0.5265  2.6159  1.8387
 8997TIP3   OH226954   1.278   4.946   0.666 -0.2198 -0.1615  0.6996
 8997TIP3    H126955   1.357   4.934   0.718  0.8900  0.6236 -0.7139
 8997TIP3    H226956   1.227   5.012   0.713  0.8457  0.6757  0.7202
 8998TIP3   OH226957   7.022   5.067   0.560 -0.2853  0.0741 -0.0527
 8998TIP3    H126958   7.006   5.161   0.556  0.3503  0.1791 -0.1985
 8998TIP3    H226959   6.999   5.042   0.649  3.0187  1.0509  1.2369
 8999TIP3   OH226960   4.069   4.883   3.464  0.1779 -0.2305  0.3721
 8999TIP3    H126961   4.019   4.893   3.382  1.3609 -2.1965 -0.6913
 8999TIP3    H226962   4.084   4.972   3.495  1.0497  0.7064 -2.4392
 9000TIP3   OH226963   3.375   1.165   3.528  0.4644 -0.5604  0.0593
 9000TIP3    H126964   3.435   1.163   3.454  0.9669 -0.5324  0.4657
 9000TIP3    H226965   3.360   1.073   3.550  2.4021 -0.5894  1.5882
 9001TIP3   OH226966   0.962   0.213   2.198 -0.4856 -0.5050 -0.2014
 9001TIP3    H126967   1.053   0.244   2.208 -0.4693 -0.6616  0.1662
 9001TIP3    H226968   0.950   0.204   2.104  0.0953 -1.1143 -0.2281
 9002TIP3   OH226969   4.073   5.365   2.409 -0.0018 -0.6358  0.1017
 9002TIP3    H126970   4.019   5.342   2.484  0.0885 -0.9766  0.0651
 9002TIP3    H226971   4.021   5.339   2.333  0.5465 -1.7187  0.0846
 9003TIP3   OH226972   0.000   5.389   4.964 -0.1409 -0.1297  0.3297
 9003TIP3    H126973   0.056   5.425   4.894  0.4797 -0.6446  0.5521
 9003TIP3    H226974  -0.020   5.465   5.019 -2.2420  0.6903 -1.4313
 9004TIP3   OH226975   1.121   3.790   4.098  0.2211 -0.1354  0.2978
 9004TIP3    H126976   1.097   3.710   4.052  1.0217 -2.1313  3.0807
 9004TIP3    H226977   1.067   3.790   4.177  1.8924  0.7937  1.5272
 9005TIP3   OH226978   0.184   4.412   4.584  0.0693  0.1892 -0.4268
 9005TIP3    H126979   0.251   4.353   4.551  0.4554  0.5440 -0.2788
 9005TIP3    H226980   0.207   4.426   4.675  0.0628  0.6833 -0.5013
 9006TIP3   OH226981   1.832   1.726   0.871 -0.0587 -0.2452 -0.6146
 9006TIP3    H126982   1.789   1.640   0.866 -1.9036  0.6852 -2.2317
 9006TIP3    H226983   1.878   1.725   0.955 -2.6823 -1.6613  0.9576
 9007TIP3   OH226984   4.137   2.856   0.702  0.5940 -0.1110 -0.3225
 9007TIP3    H126985   4.113   2.882   0.791  1.9281  0.8430 -0.2107
 9007TIP3    H226986   4.209   2.915   0.678 -0.3621  0.3032 -2.3988
 9008TIP3   OH226987   1.994   4.089   2.621  0.3289 -0.5298 -0.0169
 9008TIP3    H126988   2.052   4.105   2.696 -0.6073 -0.3635  0.6875
 9008TIP3    H226989   1.913   4.057   2.660  0.3969 -2.1430 -1.0722
 9009TIP3   OH226990   6.170   5.321   0.174 -0.1712 -0.1120  0.2917
 9009TIP3    H126991   6.265   5.310   0.186 -0.0574  1.0325  0.5691
 9009TIP3    H226992   6.162   5.372   0.094 -0.4976  0.6424  0.7951
 9010TIP3   OH226993   2.885   4.066   1.565  0.3320  0.6535 -0.1218
 9010TIP3    H126994   2.946   4.079   1.638 -0.0773 -1.7815  0.7324
 9010TIP3    H226995   2.880   4.152   1.523  1.7630  1.7497  1.7844
 9011TIP3   OH226996   0.216   2.054   0.486 -0.6475  0.1340 -0.1217
 9011TIP3    H126997   0.201   2.146   0.464 -0.7372  0.3494  0.7651
 9011TIP3    H226998   0.227   2.055   0.581  0.0845 -0.6829 -0.1957
 9012TIP3   OH226999   4.499   3.676   5.556  0.1095 -0.0933  0.2042
 9012TIP3    H127000   4.516   3.588   5.589 -0.0990 -1.1198 -2.2283
 9012TIP3    H227001   4.567   3.690   5.490 -1.7149  0.2315 -1.7236
 9013TIP3   OH227002   3.368   6.428   4.019 -0.0246 -0.1149  0.5638
 9013TIP3    H127003   3.336   6.513   4.048  1.3339 -0.6663  4.2275
 9013TIP3    H227004   3.289   6.380   3.994 -0.9901  1.6027  0.1809
 9014TIP3   OH227005   2.656   6.716   4.285  0.1473 -0.4374 -0.2323
 9014TIP3    H127006   2.713   6.646   4.254  0.0179 -1.2660  1.3180
 9014TIP3    H227007   2.712   6.793   4.289  0.3578 -0.4847 -1.6909
 9015TIP3   OH227008   3.151   1.993   0.109 -1.1685  0.0247 -0.1641
 9015TIP3    H127009   3.180   2.078   0.075  0.7534 -0.9712 -1.1738
 9015TIP3    H227010   3.162   2.000   0.204 -1.5367  1.0505 -0.1831
 9016TIP3   OH227011   6.409   3.539   0.489 -0.3468 -0.2474 -0.5432
 9016TIP3    H127012   6.503   3.542   0.470 -0.4788  0.4731 -1.1126
 9016TIP3    H227013   6.403   3.549   0.584  0.2799 -2.9579 -0.1236
 9017TIP3   OH227014   6.860   0.938   4.168  0.7845 -0.2896  0.1483
 9017TIP3    H127015   6.954   0.921   4.167  0.7872 -0.3123  0.6457
 9017TIP3    H227016   6.851   1.021   4.216  0.7233  0.8591 -1.7550
 9018TIP3   OH227017   0.032   6.600   4.661  0.3756  0.2034  0.5538
 9018TIP3    H127018  -0.058   6.625   4.678  0.4583  1.4117 -0.6153
 9018TIP3    H227019   0.083   6.643   4.729  0.1284 -0.0054  0.8703
 9019TIP3   OH227020   1.842   0.724   1.310 -0.4784  0.0434  0.0927
 9019TIP3    H127021   1.750   0.725   1.334 -0.9241  0.4789 -1.4738
 9019TIP3    H227022   1.869   0.816   1.315  0.1104 -0.1750  1.3026
 9020TIP3   OH227023   5.963   0.656   3.484 -0.2707 -0.0948  0.1978
 9020TIP3    H127024   6.006   0.737   3.457  2.1855 -1.1729  0.6585
 9020TIP3    H227025   5.912   0.630   3.407  2.5431 -0.4336 -1.6998
 9021TIP3   OH227026   2.785   2.855   1.624  0.1772 -0.0425 -0.1176
 9021TIP3    H127027   2.827   2.798   1.688  0.4654 -1.4255 -1.4863
 9021TIP3    H227028   2.691   2.841   1.636  0.1259  1.2545  1.3336
 9022TIP3   OH227029   6.256   3.624   3.336 -0.2903 -0.0058  0.3765
 9022TIP3    H127030   6.301   3.627   3.420  0.4102  0.4469 -0.0086
 9022TIP3    H227031   6.263   3.533   3.308  0.5500  0.0908  0.2419
 9023TIP3   OH227032   0.479   0.784   3.018  0.2123 -0.4171 -0.2293
 9023TIP3    H127033   0.421   0.855   2.990  0.6092 -0.1420 -0.3574
 9023TIP3    H227034   0.459   0.771   3.110  1.3258  1.0122  0.2458
 9024TIP3   OH227035   4.198   1.411   5.378 -0.3685 -0.0291 -0.0318
 9024TIP3    H127036   4.268   1.463   5.340 -1.1194  0.1808 -1.1754
 9024TIP3    H227037   4.230   1.387   5.465  1.2087 -0.1520 -0.6238
 9025TIP3   OH227038   1.697   0.979   3.970  0.1294  0.5048 -0.2067
 9025TIP3    H127039   1.663   0.930   4.045  0.6193  1.5241  0.7090
 9025TIP3    H227040   1.792   0.968   3.975  0.1294  0.0292 -1.0796
 9026TIP3   OH227041   3.990   0.073   4.463 -0.8716 -0.2828  0.8496
 9026TIP3    H127042   4.047   0.056   4.538 -0.7927 -1.7607  0.4939
 9026TIP3    H227043   4.047   0.067   4.387 -1.0789  0.5528  0.6144
 9027TIP3   OH227044   4.263   4.704   1.676  0.4461 -0.4903  0.1130
 9027TIP3    H127045   4.220   4.646   1.613 -0.8161  0.5141 -0.0059
 9027TIP3    H227046   4.258   4.791   1.634 -1.4744  0.4260  2.0347
 9028TIP3   OH227047   4.865   0.236   5.887 -0.4430  0.3914  0.0269
 9028TIP3    H127048   4.945   0.264   5.843 -0.5749  0.5253 -0.1286
 9028TIP3    H227049   4.831   0.165   5.833 -1.3811  1.5112 -0.9077
 9029TIP3   OH227050   6.048   6.406   2.072 -0.2767 -0.0154  0.3463
 9029TIP3    H127051   6.082   6.328   2.028  3.3933  1.0859  0.9111
 9029TIP3    H227052   6.073   6.395   2.163  1.6762  2.3674  0.2010
 9030TIP3   OH227053   0.194   6.009   5.125  0.0224 -0.1963 -0.0642
 9030TIP3    H127054   0.106   6.045   5.118 -0.1062 -0.7985 -2.9251
 9030TIP3    H227055   0.184   5.932   5.180 -0.8258  0.7656  1.1967
 9031TIP3   OH227056   3.059   3.630   5.581 -0.1590 -0.1494 -0.4720
 9031TIP3    H127057   3.016   3.639   5.666 -0.5399 -0.7214 -0.5995
 9031TIP3    H227058   3.070   3.536   5.569  3.4513 -0.0163  0.6991
 9032TIP3   OH227059   3.813   4.601   0.235 -0.2137 -0.3746 -0.5509
 9032TIP3    H127060   3.747   4.537   0.262  0.0785 -0.1477  0.7696
 9032TIP3    H227061   3.885   4.589   0.296  0.6754 -0.1112 -1.5170
 9033TIP3   OH227062   3.056   2.443   4.501 -0.2690 -0.0134 -0.3852
 9033TIP3    H127063   3.087   2.517   4.553  0.8088 -0.6380 -0.1024
 9033TIP3    H227064   2.969   2.425   4.535 -0.0004  0.2644  0.4942
 9034TIP3   OH227065   0.354   2.408   5.828 -0.0633 -0.0268  0.0626
 9034TIP3    H127066   0.390   2.319   5.833 -0.0337 -0.0983 -1.0735
 9034TIP3    H227067   0.260   2.397   5.842 -0.1555 -0.3377 -0.7323
 9035TIP3   OH227068   1.463   2.263   5.677  0.1082 -0.0083 -0.3126
 9035TIP3    H127069   1.539   2.319   5.688 -1.5233  2.6046 -1.3648
 9035TIP3    H227070   1.488   2.201   5.608  1.5636  0.1913  0.0120
 9036TIP3   OH227071   4.107   0.972   1.380 -0.0972  0.0399  0.1629
 9036TIP3    H127072   4.092   1.020   1.461 -2.6475 -0.6040  0.1592
 9036TIP3    H227073   4.153   1.033   1.323  1.0464  0.7626  1.8034
 9037TIP3   OH227074   3.867   1.944   4.224 -0.1828  0.5737  0.2024
 9037TIP3    H127075   3.771   1.939   4.225 -0.2071  1.0163  0.1876
 9037TIP3    H227076   3.887   2.000   4.149  0.0922  0.4033  0.1499
 9038TIP3   OH227077   5.942   2.251   3.939 -0.0822  0.0988  0.1846
 9038TIP3    H127078   5.952   2.196   4.017  0.8391 -0.4294 -0.2811
 9038TIP3    H227079   5.895   2.196   3.877 -0.5683  0.4203  0.2644
 9039TIP3   OH227080   5.633   0.574   0.172 -0.3180 -0.3143  0.6228
 9039TIP3    H127081   5.580   0.625   0.234 -0.1147  0.0482  0.5042
 9039TIP3    H227082   5.582   0.495   0.156 -0.7919  0.0014  0.5544
 9040TIP3   OH227083   4.498   1.701   3.948  0.5790 -0.1467  0.1164
 9040TIP3    H127084   4.496   1.768   4.017  0.1492 -1.0560  1.0139
 9040TIP3    H227085   4.418   1.718   3.897  1.1397  0.8275 -0.4820
 9041TIP3   OH227086   5.128   5.091   4.223  1.1073 -0.0676  0.0018
 9041TIP3    H127087   5.145   5.060   4.134  2.4922 -1.4640  0.7075
 9041TIP3    H227088   5.095   5.015   4.269 -0.3113  0.8391  0.5270
 9042TIP3   OH227089   0.099   5.120   3.061 -0.0510 -0.0272 -0.2944
 9042TIP3    H127090   0.079   5.180   3.133  1.5453  0.2562 -0.0455
 9042TIP3    H227091   0.148   5.174   2.998 -0.1977 -0.6213 -0.9255
 9043TIP3   OH227092   5.805   4.073   2.645  0.0209  0.3187 -0.1712
 9043TIP3    H127093   5.724   4.072   2.594 -0.0895 -0.3812  0.0077
 9043TIP3    H227094   5.776   4.094   2.734  0.0392  0.1253 -0.1187
 9044TIP3   OH227095   3.280   4.998   5.458  0.6938 -0.1577 -0.2587
 9044TIP3    H127096   3.264   5.024   5.367  0.3768  0.3598 -0.0588
 9044TIP3    H227097   3.284   4.902   5.455 -1.5184 -0.2919 -0.4763
 9045TIP3   OH227098   5.906   2.987   4.084 -0.4643 -0.0554 -0.4448
 9045TIP3    H127099   5.938   3.075   4.102 -1.7091  0.5778 -1.1905
 9045TIP3    H227100   5.866   2.958   4.166 -0.6662  0.3504 -0.3995
 9046TIP3   OH227101   4.504   4.625   2.966 -0.1776  0.3817 -0.4466
 9046TIP3    H127102   4.525   4.637   2.873  0.5959  2.8282 -0.0400
 9046TIP3    H227103   4.581   4.660   3.012 -0.5965 -0.6669  1.1252
 9047TIP3   OH227104   4.924   1.747   4.637 -0.0652  0.2356  0.1333
 9047TIP3    H127105   4.871   1.737   4.716 -2.9519  2.9412 -1.2667
 9047TIP3    H227106   4.892   1.680   4.578  0.7011 -0.4861  0.5114
 9048TIP3   OH227107   3.025   2.158   2.722  0.7436  0.4071 -0.1291
 9048TIP3    H127108   2.967   2.196   2.788 -1.6194 -0.2299 -1.6639
 9048TIP3    H227109   2.971   2.156   2.642  2.2470 -2.0121 -1.2091
 9049TIP3   OH227110   7.066   0.838   3.189 -0.4462 -0.5120 -0.7112
 9049TIP3    H127111   7.077   0.928   3.158 -0.3481 -0.2137  0.1795
 9049TIP3    H227112   7.120   0.785   3.130  0.1209  0.1044 -0.7530
 9050TIP3   OH227113   3.045   2.636   4.962 -0.0678  0.3182 -0.9729
 9050TIP3    H127114   3.105   2.568   4.994  0.7194  0.7125 -1.5768
 9050TIP3    H227115   3.052   2.707   5.026  1.3308  1.0117 -1.8497
 9051TIP3   OH227116   1.542   5.677   4.465  0.2072 -0.1006  0.3704
 9051TIP3    H127117   1.570   5.585   4.458 -1.5240 -0.5971 -0.5212
 9051TIP3    H227118   1.484   5.679   4.540  0.2146  0.2646  0.3686
 9052TIP3   OH227119   4.603   3.955   4.838  0.3531 -0.1177 -0.3810
 9052TIP3    H127120   4.611   3.862   4.817 -0.5690 -0.1443 -0.6736
 9052TIP3    H227121   4.525   3.960   4.894  0.5452  0.4460 -0.1581
 9053TIP3   OH227122   4.084   5.261   0.306  0.1021 -0.2618  0.6585
 9053TIP3    H127123   4.125   5.185   0.348  1.4701  0.8468  1.4520
 9053TIP3    H227124   4.014   5.286   0.366 -0.8971 -1.3681 -0.0221
 9054TIP3   OH227125   0.829   2.973   3.325 -0.5677  0.0768  0.1722
 9054TIP3    H127126   0.820   3.066   3.303  3.9024  0.3348 -1.6492
 9054TIP3    H227127   0.782   2.928   3.255 -2.7116  0.8246  1.0238
 9055TIP3   OH227128   3.845   5.698   3.811 -0.3800 -0.3421 -0.6010
 9055TIP3    H127129   3.857   5.756   3.886 -1.6287  1.6863 -1.8924
 9055TIP3    H227130   3.908   5.730   3.746 -1.4483 -0.0595 -1.5195
 9056TIP3   OH227131   6.250   6.250   3.267  0.8428  0.4232  0.9254
 9056TIP3    H127132   6.241   6.162   3.231  0.8791  0.4900  0.7542
 9056TIP3    H227133   6.180   6.257   3.332  0.0340  0.7138  0.0487
 9057TIP3   OH227134   6.367   1.871   2.885  0.1515 -0.5462 -0.2259
 9057TIP3    H127135   6.411   1.786   2.885  1.3608  0.0278  1.1713
 9057TIP3    H227136   6.437   1.934   2.870 -0.2731  0.3595  1.3405
 9058TIP3   OH227137   0.894   1.913   1.937  0.2528  0.1439 -0.2795
 9058TIP3    H127138   0.868   2.003   1.920  1.4110  0.3612 -0.9587
 9058TIP3    H227139   0.899   1.872   1.851  2.0787  0.1051 -0.1970
 9059TIP3   OH227140   4.899   6.216   4.843 -0.8613  0.4060  0.1524
 9059TIP3    H127141   4.924   6.204   4.751  0.8040  2.8338  0.1906
 9059TIP3    H227142   4.876   6.128   4.873 -0.4948 -0.6229 -2.3018
 9060TIP3   OH227143   5.870   4.669   3.445  0.5432  0.2434  0.5461
 9060TIP3    H127144   5.945   4.723   3.468 -0.3218  3.0468 -2.3936
 9060TIP3    H227145   5.896   4.626   3.363 -0.9704  1.3862 -0.6076
 9061TIP3   OH227146   5.559   2.340   0.536  0.1296 -0.3276  0.1208
 9061TIP3    H127147   5.510   2.420   0.515  0.7953  0.0340 -0.1007
 9061TIP3    H227148   5.525   2.274   0.476  1.3602  0.4540 -1.5398
 9062TIP3   OH227149   4.014   5.225   5.830  0.2252 -0.0724 -0.2148
 9062TIP3    H127150   3.918   5.224   5.834  0.2145 -0.5518 -0.5200
 9062TIP3    H227151   4.040   5.281   5.903 -0.1990 -2.1602  1.6366
 9063TIP3   OH227152   6.743   2.401   4.562  0.3348  0.4767 -0.0036
 9063TIP3    H127153   6.714   2.319   4.522  2.4325 -0.9564  1.2068
 9063TIP3    H227154   6.802   2.439   4.498  1.2622 -0.2488  0.3834
 9064TIP3   OH227155   4.419   5.584   4.670 -0.6657  0.1033 -0.5120
 9064TIP3    H127156   4.482   5.548   4.607 -1.2994  0.1334 -1.1659
 9064TIP3    H227157   4.397   5.510   4.727  0.8932  0.3801  0.5119
 9065TIP3   OH227158   5.040   4.297   1.419  0.1922  0.0028  0.1494
 9065TIP3    H127159   4.952   4.332   1.425 -0.1212 -0.3830 -1.7834
 9065TIP3    H227160   5.097   4.374   1.414 -0.1778  0.2431 -0.3407
 9066TIP3   OH227161   2.526   2.502   0.626 -0.1771  0.0286 -0.2210
 9066TIP3    H127162   2.591   2.432   0.631  1.7565  1.6250 -1.5927
 9066TIP3    H227163   2.494   2.499   0.536 -2.3528 -0.9551  0.5193
 9067TIP3   OH227164   4.288   1.325   3.729  0.0724  0.2138 -0.2672
 9067TIP3    H127165   4.359   1.387   3.743 -0.3701  0.5992  0.3466
 9067TIP3    H227166   4.223   1.348   3.796 -0.2307 -0.7132 -0.2343
 9068TIP3   OH227167   2.558   3.849   3.632  0.8567 -0.5948  0.3381
 9068TIP3    H127168   2.502   3.809   3.699  1.1175 -0.5401  0.5890
 9068TIP3    H227169   2.539   3.943   3.639  0.0083 -0.6842 -0.4629
 9069TIP3   OH227170   1.161   3.590   3.351  0.1402  0.0892  0.3207
 9069TIP3    H127171   1.107   3.665   3.375 -0.1650  0.5946 -1.7115
 9069TIP3    H227172   1.131   3.566   3.263  0.3431 -2.3404  0.8510
 9070TIP3   OH227173   5.132   2.270   0.365  0.2367 -0.0297 -0.1430
 9070TIP3    H127174   5.220   2.268   0.404 -0.5892  1.0356  1.9208
 9070TIP3    H227175   5.074   2.293   0.438 -1.7626 -0.6258 -1.4721
 9071TIP3   OH227176   2.279   3.282   5.763  0.2372 -0.4578  0.7085
 9071TIP3    H127177   2.359   3.243   5.798  0.5850  1.0154  1.6727
 9071TIP3    H227178   2.241   3.214   5.707  2.0848 -1.2435  0.3340
 9072TIP3   OH227179   1.721   1.605   0.252  0.0922 -0.8282 -0.0247
 9072TIP3    H127180   1.730   1.517   0.287  1.5150 -1.2550 -1.3449
 9072TIP3    H227181   1.742   1.596   0.159  2.1267  1.1979  0.1665
 9073TIP3   OH227182   5.521   1.897   1.862 -0.2390 -0.1014 -0.7742
 9073TIP3    H127183   5.592   1.834   1.850  0.0496 -0.2161  1.2424
 9073TIP3    H227184   5.542   1.942   1.944 -0.6325  2.3979 -1.9511
 9074TIP3   OH227185   1.935   5.688   0.119 -0.8934  0.1070 -0.1495
 9074TIP3    H127186   1.884   5.665   0.197 -0.9551  1.2269  0.1619
 9074TIP3    H227187   1.999   5.618   0.111 -0.8359  0.0137  0.9620
 9075TIP3   OH227188   0.908   4.236   3.490  0.5239 -0.3454 -0.4976
 9075TIP3    H127189   0.825   4.237   3.537  1.2805 -1.5144  0.9146
 9075TIP3    H227190   0.896   4.300   3.419 -1.2073  0.2559  0.2933
 9076TIP3   OH227191   3.149   0.120   4.079  0.3346  0.4139  0.0459
 9076TIP3    H127192   3.096   0.124   4.158  1.6353  0.5121  0.9490
 9076TIP3    H227193   3.131   0.033   4.042 -1.5722  0.9994 -0.5282
 9077TIP3   OH227194   1.835   6.447   4.923  0.0046 -0.6657  0.3230
 9077TIP3    H127195   1.783   6.527   4.936  0.8948 -0.1166  0.5658
 9077TIP3    H227196   1.788   6.380   4.974  0.3631  0.1804  1.8383
 9078TIP3   OH227197   3.105   6.598   4.348  0.4248  0.5911 -0.1596
 9078TIP3    H127198   3.075   6.508   4.360  1.3861  0.1581 -0.9044
 9078TIP3    H227199   3.156   6.617   4.428  0.1061  0.5289  0.0605
 9079TIP3   OH227200   0.521   3.066   2.313 -0.2465  0.0844 -0.7752
 9079TIP3    H127201   0.556   3.127   2.379  1.5570 -0.7397 -0.8958
 9079TIP3    H227202   0.586   2.996   2.310 -2.1719 -1.7886 -0.7673
 9080TIP3   OH227203   3.147   0.659   3.495  0.1652  0.0586  0.4810
 9080TIP3    H127204   3.158   0.668   3.590 -0.4389  0.3093  0.5292
 9080TIP3    H227205   3.237   0.651   3.461  0.3969  0.2425  1.0436
 9081TIP3   OH227206   2.833   4.649   0.525  0.3828  0.2570 -0.3661
 9081TIP3    H127207   2.911   4.667   0.472  1.2441 -1.8855  0.0784
 9081TIP3    H227208   2.867   4.612   0.606 -1.0827 -1.0216 -0.2831
 9082TIP3   OH227209   7.109   4.350   4.533 -0.2991  0.5848  0.6877
 9082TIP3    H127210   7.079   4.436   4.503 -1.7190 -0.1510 -0.0801
 9082TIP3    H227211   7.194   4.339   4.491 -0.6530  1.0940 -0.1847
 9083TIP3   OH227212   3.963   6.710   4.458  0.1961 -0.4243 -0.0783
 9083TIP3    H127213   4.033   6.767   4.427 -1.4495  1.1251 -1.1307
 9083TIP3    H227214   3.999   6.666   4.535  1.4773  2.2151  0.9213
 9084TIP3   OH227215   4.560   6.666   1.053  0.6675 -0.1207 -0.3972
 9084TIP3    H127216   4.520   6.720   0.985 -1.8338 -0.1403  0.9585
 9084TIP3    H227217   4.602   6.728   1.112 -0.1889  0.1904 -0.0996
 9085TIP3   OH227218   2.625   6.487   2.858  0.0616  0.8518 -0.0657
 9085TIP3    H127219   2.636   6.441   2.775  3.8563  1.5005 -0.1083
 9085TIP3    H227220   2.623   6.417   2.924  0.3864  0.4411 -0.4839
 9086TIP3   OH227221   6.990   2.015   1.270 -0.2416  0.0642 -0.4179
 9086TIP3    H127222   7.070   2.022   1.217  0.2122 -1.4064  0.0295
 9086TIP3    H227223   6.933   2.084   1.236  1.4023  1.4834 -0.3948
 9087TIP3   OH227224   3.253   3.318   0.081 -0.6502  0.0824  0.5435
 9087TIP3    H127225   3.211   3.285   0.160 -2.4868  0.2157 -0.3231
 9087TIP3    H227226   3.249   3.414   0.089 -1.0846  0.0985  0.1775
 9088TIP3   OH227227   2.659   1.964   3.934  0.0377  0.2945 -0.6158
 9088TIP3    H127228   2.654   2.030   3.865 -1.5629 -2.0094 -2.9170
 9088TIP3    H227229   2.751   1.962   3.959  1.1583 -0.0258 -4.1732
 9089TIP3   OH227230   6.003   1.477   4.678  0.3073  0.1146 -0.3935
 9089TIP3    H127231   5.979   1.553   4.731 -1.2812 -0.5057 -0.1724
 9089TIP3    H227232   5.921   1.449   4.638  1.2444 -0.2008 -2.2127
 9090TIP3   OH227233   2.531   0.240   0.871  0.3469  0.4620  0.6486
 9090TIP3    H127234   2.451   0.190   0.854  1.8769 -2.1441  0.4728
 9090TIP3    H227235   2.517   0.324   0.827 -2.4710  0.3382  1.1347
 9091TIP3   OH227236   5.885   3.685   2.978 -0.2612 -0.5091  0.3915
 9091TIP3    H127237   5.858   3.651   3.063 -2.1544 -0.9463 -0.3175
 9091TIP3    H227238   5.804   3.687   2.927  1.0690 -1.8091 -1.9264
 9092TIP3   OH227239   1.648   3.995   5.500 -0.0656 -0.0412 -0.0950
 9092TIP3    H127240   1.709   4.029   5.566  0.5782 -1.1744 -0.0646
 9092TIP3    H227241   1.594   4.070   5.475  1.1435  0.9278  0.1034
 9093TIP3   OH227242   7.204   3.658   1.061  0.6031 -0.1414 -0.2024
 9093TIP3    H127243   7.248   3.582   1.022 -0.1035 -1.1859  0.9709
 9093TIP3    H227244   7.111   3.639   1.054  0.3601  1.1781 -0.9422
 9094TIP3   OH227245   7.173   2.524   4.981  0.0493 -0.0554 -0.3410
 9094TIP3    H127246   7.160   2.513   5.075 -1.2294  0.0194 -0.4915
 9094TIP3    H227247   7.233   2.599   4.973  1.1613 -0.8303  0.4189
 9095TIP3   OH227248   2.311   0.637   0.067  0.0902 -0.9006 -0.5454
 9095TIP3    H127249   2.319   0.698  -0.007 -0.8121 -0.1553 -0.0593
 9095TIP3    H227250   2.320   0.550   0.028 -3.6409 -0.7344 -2.1576
 9096TIP3   OH227251   6.386   2.104   4.436  0.2903 -0.1815  0.0121
 9096TIP3    H127252   6.459   2.068   4.487  0.4271 -1.5229 -1.0772
 9096TIP3    H227253   6.356   2.179   4.488  0.0324 -1.7890  2.3699
 9097TIP3   OH227254   6.266   0.930   5.689 -0.7679  0.0230  0.2823
 9097TIP3    H127255   6.333   0.924   5.622 -0.8395  3.6523 -0.3284
 9097TIP3    H227256   6.262   0.843   5.728  3.4192 -0.6840 -0.4450
 9098TIP3   OH227257   1.927   3.746   5.741 -0.4290  0.1570  0.7878
 9098TIP3    H127258   1.974   3.827   5.721 -0.8469  0.3896  0.7134
 9098TIP3    H227259   1.904   3.710   5.656  0.4201 -0.4464  0.8085
 9099TIP3   OH227260   3.081   5.573   5.703  0.1147 -0.3711  0.0783
 9099TIP3    H127261   3.011   5.518   5.738 -0.8918  0.6829 -0.2165
 9099TIP3    H227262   3.045   5.608   5.621  0.5443  1.0836  0.4857
 9100TIP3   OH227263   3.431   2.639   4.681 -0.1654  0.3937  0.3756
 9100TIP3    H127264   3.367   2.569   4.670 -1.4424  1.6392 -0.3915
 9100TIP3    H227265   3.516   2.596   4.667 -0.9587 -0.8180 -1.0197
 9101TIP3   OH227266   0.448   6.570   3.787 -0.1757 -0.0781 -0.3316
 9101TIP3    H127267   0.419   6.653   3.824 -0.3665 -0.5606  0.6408
 9101TIP3    H227268   0.542   6.567   3.804  0.3457  1.0380 -2.6029
 9102TIP3   OH227269   6.329   1.223   1.363 -0.4663 -0.2160 -0.0793
 9102TIP3    H127270   6.237   1.220   1.392 -0.1942  0.4618  0.8910
 9102TIP3    H227271   6.379   1.212   1.444  0.3357 -2.2415 -0.7771
 9103TIP3   OH227272   6.834   2.962   1.414  0.1036 -0.0086 -0.0820
 9103TIP3    H127273   6.879   2.880   1.396 -0.1489 -0.1022 -0.2921
 9103TIP3    H227274   6.808   2.996   1.329 -2.0302 -0.9912  0.0976
 9104TIP3   OH227275   4.156   0.902   4.547  0.0189  0.2670 -0.7278
 9104TIP3    H127276   4.132   0.935   4.460 -0.3829  0.0302 -0.7093
 9104TIP3    H227277   4.086   0.841   4.569  0.3880 -0.0615 -0.4560
 9105TIP3   OH227278   3.900   3.476   4.536 -0.4473 -0.3506  0.1186
 9105TIP3    H127279   3.922   3.549   4.594 -1.3132 -0.3685  0.4758
 9105TIP3    H227280   3.816   3.500   4.498 -1.3176 -1.6753  1.1146
 9106TIP3   OH227281   3.075   0.916   3.294  0.3751 -0.0654  0.4406
 9106TIP3    H127282   3.156   0.878   3.260  0.9972  0.3405  1.4604
 9106TIP3    H227283   3.091   1.010   3.295 -0.0369  0.0008  0.8533
 9107TIP3   OH227284   0.047   5.220   5.364  0.4727 -0.3922 -0.0282
 9107TIP3    H127285   0.048   5.221   5.460  0.4526 -1.5840  0.0023
 9107TIP3    H227286  -0.000   5.140   5.341 -1.7572  1.1244 -1.0671
 9108TIP3   OH227287   3.027   6.372   3.582  0.4833 -0.0123 -0.0107
 9108TIP3    H127288   3.096   6.320   3.624  0.1167 -1.0801 -0.6939
 9108TIP3    H227289   2.965   6.391   3.652  0.3293 -1.0018  0.1303
 9109TIP3   OH227290   1.055   1.334   5.759 -0.2254 -0.0312  0.7436
 9109TIP3    H127291   0.995   1.303   5.692 -1.2837 -1.5083  2.2905
 9109TIP3    H227292   1.102   1.255   5.787  0.4856  0.6291  1.4588
 9110TIP3   OH227293   2.271   3.948   0.546 -0.0897 -0.2816 -1.3223
 9110TIP3    H127294   2.245   4.031   0.504 -0.0185  0.1780 -0.4837
 9110TIP3    H227295   2.310   3.897   0.475 -0.1696  0.3877 -1.8652
 9111TIP3   OH227296   0.810   5.764   2.538 -0.1716 -0.1956 -0.3052
 9111TIP3    H127297   0.755   5.702   2.586  1.6323 -2.0596 -0.5213
 9111TIP3    H227298   0.887   5.777   2.594  0.5989 -0.0806 -1.3422
 9112TIP3   OH227299   4.012   0.812   4.075  0.3031 -0.0122  0.1848
 9112TIP3    H127300   3.997   0.846   3.987 -0.2633 -0.1548  0.2212
 9112TIP3    H227301   4.006   0.717   4.065 -0.7801  0.0054  0.5484
 9113TIP3   OH227302   4.457   2.795   3.552 -0.6091 -0.4914 -0.4193
 9113TIP3    H127303   4.446   2.771   3.643 -2.3930  0.7023 -0.2552
 9113TIP3    H227304   4.488   2.886   3.555 -0.1646 -0.6179 -1.0004
 9114TIP3   OH227305   5.341   3.020   1.500  0.0921  0.7219 -0.3541
 9114TIP3    H127306   5.355   3.042   1.592  0.4770  0.9693 -0.4689
 9114TIP3    H227307   5.333   3.105   1.456 -2.0373  0.6131 -0.2708
 9115TIP3   OH227308   2.036   6.259   1.718  0.5680  0.0356 -0.1505
 9115TIP3    H127309   1.960   6.307   1.752  0.1929 -1.3274  1.0305
 9115TIP3    H227310   2.103   6.326   1.704  0.0294  0.9156  1.3459
 9116TIP3   OH227311   4.730   1.702   3.211  0.0847  0.3531  0.6316
 9116TIP3    H127312   4.701   1.673   3.297 -1.6956 -0.8433 -0.3295
 9116TIP3    H227313   4.820   1.671   3.205 -0.6794 -2.1414  0.9572
 9117TIP3   OH227314   2.338   1.802   3.004 -0.0526  0.4444 -0.4459
 9117TIP3    H127315   2.384   1.857   2.941  0.3226  0.8512  0.1762
 9117TIP3    H227316   2.373   1.827   3.089 -0.6952  0.0443 -0.0480
 9118TIP3   OH227317   2.570   2.664   4.509 -0.4822  0.3795 -0.0440
 9118TIP3    H127318   2.546   2.584   4.556  2.9852 -0.4314  0.6434
 9118TIP3    H227319   2.591   2.635   4.420 -0.3818  0.7499 -0.1452
 9119TIP3   OH227320   6.117   0.842   3.363  0.0030 -0.1239  0.1915
 9119TIP3    H127321   6.097   0.936   3.361  1.2733  0.2969  2.8826
 9119TIP3    H227322   6.141   0.821   3.273  0.3581  2.2915 -0.3536
 9120TIP3   OH227323   3.238   1.244   4.542  0.0145  0.4254 -0.0931
 9120TIP3    H127324   3.282   1.172   4.586 -1.3189 -0.9409 -0.8892
 9120TIP3    H227325   3.275   1.244   4.454  1.6221  2.1996  0.5422
 9121TIP3   OH227326   0.332   0.843   1.548 -0.2205  0.0739 -0.9773
 9121TIP3    H127327   0.426   0.826   1.563 -0.5412  1.1948  4.0568
 9121TIP3    H227328   0.327   0.937   1.531 -0.4296 -0.0786 -1.7931
 9122TIP3   OH227329   1.201   2.523   5.196  0.2937  0.3844 -0.1603
 9122TIP3    H127330   1.109   2.546   5.208 -0.3373 -2.2136  0.5957
 9122TIP3    H227331   1.219   2.542   5.104 -0.4913  2.4085  0.0589
 9123TIP3   OH227332   5.023   4.606   2.464 -0.2285  0.0170 -0.3501
 9123TIP3    H127333   4.963   4.534   2.446  0.6224 -0.7052 -0.3598
 9123TIP3    H227334   4.968   4.684   2.463 -1.3136 -0.7113  0.4896
 9124TIP3   OH227335   5.762   4.450   5.892  0.2334  0.2048 -0.0673
 9124TIP3    H127336   5.690   4.504   5.859  0.0025  0.8608  1.3955
 9124TIP3    H227337   5.765   4.375   5.833 -1.8348  0.0370 -0.0278
 9125TIP3   OH227338   0.638   0.631   5.758 -0.1361 -0.9121  0.0121
 9125TIP3    H127339   0.550   0.661   5.736  0.1504  0.6060  0.7733
 9125TIP3    H227340   0.671   0.698   5.818  2.4091 -0.1353 -2.0795
 9126TIP3   OH227341   6.593   2.804   1.964  0.0483 -0.4066 -0.1073
 9126TIP3    H127342   6.596   2.753   1.883  0.6969  1.4784 -1.3648
 9126TIP3    H227343   6.572   2.893   1.934  0.4685  0.3694  1.7906
 9127TIP3   OH227344   4.126   1.843   2.533 -0.1292 -0.2413 -0.8315
 9127TIP3    H127345   4.044   1.799   2.554  0.0913 -0.6606 -0.8366
 9127TIP3    H227346   4.161   1.794   2.459  0.8584 -0.9892  0.1115
 9128TIP3   OH227347   6.982   1.509   4.907  0.1424 -0.4213 -0.0123
 9128TIP3    H127348   7.036   1.588   4.908 -0.5606  0.0731  0.3605
 9128TIP3    H227349   6.975   1.483   4.998  0.7194 -1.1766 -0.1723
 9129TIP3   OH227350   5.970   6.217   2.837 -0.1542  0.2317 -0.3787
 9129TIP3    H127351   5.936   6.228   2.748 -0.5976 -0.2991 -0.2776
 9129TIP3    H227352   5.968   6.123   2.852 -0.4211  0.3499  0.3289
 9130TIP3   OH227353   2.883   1.616   1.323  0.1208  0.4509 -0.3394
 9130TIP3    H127354   2.930   1.700   1.325  1.8005 -0.4374 -0.6118
 9130TIP3    H227355   2.946   1.554   1.286 -1.3042 -0.8174 -0.7602
 9131TIP3   OH227356   6.909   4.458   2.051  0.7670  0.5163  0.4100
 9131TIP3    H127357   6.843   4.513   2.011 -0.2177 -1.4484 -0.8517
 9131TIP3    H227358   6.868   4.422   2.130  0.4289 -0.4003 -0.1654
 9132TIP3   OH227359   0.795   4.813   0.346  0.4793 -0.1806  0.1121
 9132TIP3    H127360   0.809   4.908   0.353 -0.8930  0.4907 -3.9100
 9132TIP3    H227361   0.851   4.786   0.273 -1.4162 -1.8204 -0.8229
 9133TIP3   OH227362   6.568   3.472   1.960 -0.3392 -0.0908 -0.4325
 9133TIP3    H127363   6.554   3.431   1.875  1.0340 -1.2125 -0.1590
 9133TIP3    H227364   6.492   3.447   2.012 -1.1798  0.5812 -1.2836
 9134TIP3   OH227365   6.734   4.714   0.902  0.2746  0.5485 -0.0953
 9134TIP3    H127366   6.722   4.784   0.837  1.1341  0.5495 -0.2597
 9134TIP3    H227367   6.716   4.634   0.853 -0.0270  0.6031 -0.0810
 9135TIP3   OH227368   1.997   4.498   0.768  0.5902 -0.4625  0.1410
 9135TIP3    H127369   1.976   4.481   0.676 -1.1374 -0.8770  0.5890
 9135TIP3    H227370   1.946   4.434   0.817 -0.3809  1.2741  1.5153
 9136TIP3   OH227371   1.301   1.087   3.534 -0.1871  0.6259 -0.3759
 9136TIP3    H127372   1.237   1.150   3.567  0.1422  1.1551 -0.7244
 9136TIP3    H227373   1.375   1.141   3.506  1.6692 -0.1096  2.6412
 9137TIP3   OH227374   3.578   0.981   0.761 -0.4111  1.0148 -0.2264
 9137TIP3    H127375   3.650   1.011   0.816 -0.2750  2.5097 -1.1585
 9137TIP3    H227376   3.530   0.918   0.816  1.4502  0.1511  0.4808
 9138TIP3   OH227377   0.712   1.615   3.379  0.1179 -0.5285 -0.0867
 9138TIP3    H127378   0.659   1.693   3.390  2.0340  0.7013  1.0687
 9138TIP3    H227379   0.656   1.543   3.407 -0.5880  0.8338  2.2012
 9139TIP3   OH227380   6.511   1.627   0.815  0.1802  0.2519  0.3620
 9139TIP3    H127381   6.583   1.669   0.767  0.6233  0.0438  0.8322
 9139TIP3    H227382   6.435   1.682   0.797  0.2811  0.0413 -0.7760
 9140TIP3   OH227383   5.315   6.744   0.960 -0.0265 -0.0948 -0.7420
 9140TIP3    H127384   5.270   6.806   0.903 -0.9469  1.8381  1.8990
 9140TIP3    H227385   5.257   6.668   0.962 -0.8698  0.5258 -0.9947
 9141TIP3   OH227386   4.302   3.926   4.216 -0.4736 -0.4580 -0.2258
 9141TIP3    H127387   4.253   3.871   4.155  0.5490 -0.1658 -1.3505
 9141TIP3    H227388   4.235   3.974   4.265 -1.3182 -0.1264 -1.6525
 9142TIP3   OH227389   2.485   1.919   0.928 -0.2943 -0.7433 -0.3743
 9142TIP3    H127390   2.505   1.828   0.947 -0.3856 -0.3985  1.5043
 9142TIP3    H227391   2.401   1.935   0.969  0.1885  0.4589  0.2074
 9143TIP3   OH227392   4.596   3.069   0.511 -0.0919 -0.4997  0.8613
 9143TIP3    H127393   4.640   3.002   0.459 -0.7214  0.1247 -0.5437
 9143TIP3    H227394   4.667   3.115   0.556  0.6330 -0.1450 -0.5964
 9144TIP3   OH227395   3.803   0.405   0.178  0.3439  0.2328  0.0974
 9144TIP3    H127396   3.721   0.450   0.156  0.5996  2.1925  2.6688
 9144TIP3    H227397   3.775   0.315   0.197 -1.1492  0.7258  0.4072
 9145TIP3   OH227398   4.753   1.157   3.768  0.3543  0.3926 -0.6231
 9145TIP3    H127399   4.718   1.230   3.718 -1.6666 -0.8997 -1.2189
 9145TIP3    H227400   4.708   1.163   3.853 -0.1861 -0.4173 -0.8460
 9146TIP3   OH227401   1.691   0.135   2.144  0.1890  0.0561 -0.0250
 9146TIP3    H127402   1.680   0.187   2.224  0.4220 -0.0300  0.0655
 9146TIP3    H227403   1.763   0.076   2.165 -1.4607 -1.8063  0.6478
 9147TIP3   OH227404   5.252   4.388   0.325  0.1652 -0.1851 -0.0013
 9147TIP3    H127405   5.332   4.340   0.346  1.5368  2.5831  1.6956
 9147TIP3    H227406   5.275   4.440   0.248  1.0192  2.4357  1.8426
 9148TIP3   OH227407   4.857   6.072   0.379 -0.2044 -0.4699  0.2501
 9148TIP3    H127408   4.817   6.129   0.444 -0.1150 -0.1339  0.0104
 9148TIP3    H227409   4.901   6.131   0.318 -0.8426 -0.7422 -0.4956
 9149TIP3   OH227410   6.843   4.362   4.824  0.5113  0.2992  0.3477
 9149TIP3    H127411   6.933   4.330   4.833  0.6466  1.0870  2.2351
 9149TIP3    H227412   6.794   4.286   4.792  1.6904 -0.3611  0.0362
 9150TIP3   OH227413   2.180   6.382   0.936  0.4365  0.1536  0.1708
 9150TIP3    H127414   2.230   6.434   0.999  1.3611  0.5246 -0.8606
 9150TIP3    H227415   2.209   6.292   0.950 -1.1286 -0.1597  1.9230
 9151TIP3   OH227416   6.520   0.665   0.849  0.1314 -0.3842 -0.2082
 9151TIP3    H127417   6.549   0.665   0.940 -0.6126 -1.0862  0.0407
 9151TIP3    H227418   6.486   0.753   0.835  0.2760 -0.2616  0.1876
 9152TIP3   OH227419   4.147   6.615   2.326  0.1300  0.0238  0.2671
 9152TIP3    H127420   4.138   6.639   2.233 -2.0147 -0.5354  0.2635
 9152TIP3    H227421   4.234   6.646   2.351  0.4048  0.9898 -1.6955
 9153TIP3   OH227422   2.334   3.644   4.721 -0.1890 -0.1597  0.1729
 9153TIP3    H127423   2.385   3.652   4.802  0.8233 -0.2695 -0.4397
 9153TIP3    H227424   2.358   3.559   4.686 -2.4254 -1.1973  0.9283
 9154TIP3   OH227425   5.377   2.302   5.827  0.1343  0.2269  0.1741
 9154TIP3    H127426   5.403   2.281   5.917  0.6554  1.0185  0.2205
 9154TIP3    H227427   5.290   2.340   5.835 -0.2824 -0.7221  0.2218
 9155TIP3   OH227428   2.113   0.996   3.490  0.4573  0.6168 -0.1424
 9155TIP3    H127429   2.072   1.054   3.425 -0.2116  0.4929  0.1620
 9155TIP3    H227430   2.136   1.054   3.562 -0.6936  0.4291  0.3871
 9156TIP3   OH227431   4.913   4.629   5.797 -0.2359  0.3884 -0.1253
 9156TIP3    H127432   4.914   4.722   5.773 -1.0796 -0.0283 -1.8998
 9156TIP3    H227433   5.003   4.612   5.828  0.1873  1.5661 -0.6434
 9157TIP3   OH227434   6.833   0.398   3.941  0.1700  0.4195 -0.2258
 9157TIP3    H127435   6.919   0.366   3.967  1.4569  0.8063 -3.5123
 9157TIP3    H227436   6.776   0.322   3.948  0.8167  0.0525  1.6546
 9158TIP3   OH227437   3.978   1.530   1.202  0.9789  0.2766  0.2608
 9158TIP3    H127438   4.014   1.612   1.167  1.8510 -1.2856 -2.9085
 9158TIP3    H227439   3.896   1.518   1.154  0.9513 -0.7802  0.5562
 9159TIP3   OH227440   6.712   4.825   2.426  0.3906 -0.5313  0.8437
 9159TIP3    H127441   6.692   4.751   2.368 -0.4132 -1.1538  1.8789
 9159TIP3    H227442   6.788   4.797   2.476  0.7936 -0.1827  0.4381
 9160TIP3   OH227443   5.981   4.792   2.685 -0.2003  0.2417  0.2905
 9160TIP3    H127444   5.978   4.701   2.657 -0.7608  0.7058 -1.3199
 9160TIP3    H227445   5.978   4.842   2.603 -1.0810  1.7146  1.1719
 9161TIP3   OH227446   5.368   1.129   0.416 -0.1349 -0.4780 -0.2960
 9161TIP3    H127447   5.451   1.090   0.444  0.0599 -0.9984 -1.5356
 9161TIP3    H227448   5.371   1.219   0.449  0.3237 -0.8879  0.8198
 9162TIP3   OH227449   5.797   0.190   0.250  0.0152 -0.3186  0.3603
 9162TIP3    H127450   5.803   0.115   0.308 -2.3326 -1.0143 -0.1527
 9162TIP3    H227451   5.777   0.264   0.307 -0.0371 -0.5660  0.6619
 9163TIP3   OH227452   0.972   0.849   1.697  0.5290  0.0429 -0.0328
 9163TIP3    H127453   0.980   0.754   1.709  0.5648 -0.1517 -1.4464
 9163TIP3    H227454   0.898   0.874   1.751  0.3017 -0.8508  0.0854
 9164TIP3   OH227455   4.046   2.034   5.388  0.1102 -0.0684  0.5637
 9164TIP3    H127456   4.130   2.030   5.434 -0.2134 -2.0320  1.0717
 9164TIP3    H227457   4.054   1.969   5.318 -0.8583 -0.0037  0.3854
 9165TIP3   OH227458   4.001   0.334   5.807 -0.4184  0.0803 -0.4766
 9165TIP3    H127459   3.930   0.281   5.844 -1.5093 -0.0774 -2.6525
 9165TIP3    H227460   4.076   0.274   5.804  0.0792  0.4084  2.3673
 9166TIP3   OH227461   0.358   1.195   5.869  0.2390 -0.0266 -0.3513
 9166TIP3    H127462   0.409   1.116   5.886 -0.4301 -0.1998  1.0267
 9166TIP3    H227463   0.274   1.163   5.835 -0.6883 -0.0703  1.8264
 9167TIP3   OH227464   0.453   0.918   2.045 -0.1834  0.1509  0.1536
 9167TIP3    H127465   0.420   0.982   1.982 -2.0262  1.0296  1.9062
 9167TIP3    H227466   0.473   0.841   1.993  2.4138  2.1494 -2.1006
 9168TIP3   OH227467   2.905   0.485   5.454 -0.0485  0.1314  0.0803
 9168TIP3    H127468   2.900   0.398   5.416 -1.4870 -0.2023  0.9502
 9168TIP3    H227469   2.999   0.501   5.466  0.4458  0.0251 -2.9299
 9169TIP3   OH227470   5.147   4.496   1.737 -0.0668 -0.4144  0.0934
 9169TIP3    H127471   5.208   4.562   1.771 -0.1846 -0.8845  1.2438
 9169TIP3    H227472   5.060   4.534   1.749 -0.2328 -1.2758  2.0076
 9170TIP3   OH227473   5.917   4.358   1.794 -0.5694  0.9148  0.2105
 9170TIP3    H127474   5.884   4.329   1.879 -1.1367 -2.3213 -0.9793
 9170TIP3    H227475   5.950   4.278   1.753  2.5418  2.8471 -1.4401
 9171TIP3   OH227476   0.174   4.494   5.475  0.5354  1.1604  0.2787
 9171TIP3    H127477   0.113   4.530   5.410  0.5063 -0.2588 -0.5214
 9171TIP3    H227478   0.157   4.545   5.554 -1.3730  1.1226 -0.0526
 9172TIP3   OH227479   0.084   4.206   2.265 -0.1137  0.0129 -0.1949
 9172TIP3    H127480   0.109   4.144   2.197  0.6790 -0.3773  0.4260
 9172TIP3    H227481   0.044   4.279   2.218 -0.0396 -0.4702 -1.0279
 9173TIP3   OH227482   3.073   1.826   1.376 -0.1139  0.2882 -0.6137
 9173TIP3    H127483   3.129   1.755   1.408  1.0795  1.6738  0.5179
 9173TIP3    H227484   3.114   1.905   1.410 -0.9163  1.6016 -2.5558
 9174TIP3   OH227485   6.516   6.073   2.152 -0.3506 -0.3096  0.4940
 9174TIP3    H127486   6.577   6.010   2.114 -1.3998 -0.3020 -1.2945
 9174TIP3    H227487   6.430   6.032   2.143 -0.8423  0.5302  1.1428
 9175TIP3   OH227488   1.847   3.589   5.475  0.7960 -0.3501  0.1584
 9175TIP3    H127489   1.770   3.537   5.494  0.3834  0.3760  0.5135
 9175TIP3    H227490   1.897   3.537   5.411  0.0251 -0.8194 -0.0657
 9176TIP3   OH227491   4.747   6.454   5.017 -0.6767 -0.1625  0.7956
 9176TIP3    H127492   4.810   6.393   4.980 -0.3774  0.4497  0.2953
 9176TIP3    H227493   4.695   6.484   4.942 -0.4350  0.6471  0.9443
 9177TIP3   OH227494   7.085   6.721   1.254  0.0807 -0.2668 -0.1870
 9177TIP3    H127495   7.029   6.741   1.179 -0.0087  2.8446  0.5796
 9177TIP3    H227496   7.174   6.734   1.221  0.0606  0.6614  0.1080
 9178TIP3   OH227497   0.024   6.271   3.834 -0.1103  0.0129 -0.0512
 9178TIP3    H127498   0.011   6.225   3.751  1.2809 -1.2450  0.3680
 9178TIP3    H227499   0.110   6.312   3.825 -0.7595  1.4740  0.0950
 9179TIP3   OH227500   5.085   3.416   0.799  0.4986 -0.3346  0.4985
 9179TIP3    H127501   5.095   3.504   0.836  0.5579 -0.3441  0.5065
 9179TIP3    H227502   5.150   3.413   0.728 -0.4332  0.1040 -0.4000
 9180TIP3   OH227503   2.519   2.873   2.810 -0.2368 -0.3544  0.2049
 9180TIP3    H127504   2.609   2.839   2.817 -0.1274 -0.0583  0.2567
 9180TIP3    H227505   2.512   2.936   2.881 -0.3898 -0.1608  0.0188
 9181TIP3   OH227506   1.124   1.973   3.842  0.1519  0.4137  0.6160
 9181TIP3    H127507   1.125   1.983   3.937  0.3783  2.4154  0.4455
 9181TIP3    H227508   1.178   1.896   3.826 -2.3249 -1.8679  2.2311
 9182TIP3   OH227509   1.140   6.502   3.742 -0.1692  0.5227  0.3115
 9182TIP3    H127510   1.155   6.527   3.833  0.0995  3.1016 -0.3594
 9182TIP3    H227511   1.189   6.421   3.731  0.9312  0.8910  2.1195
 9183TIP3   OH227512   4.283   5.679   1.128  0.7408 -0.1924  0.6592
 9183TIP3    H127513   4.217   5.746   1.113 -0.4131 -1.5639 -0.7796
 9183TIP3    H227514   4.256   5.606   1.072  2.2783 -1.6243  1.6823
 9184TIP3   OH227515   3.896   6.171   0.366  0.1102 -0.8528 -0.3265
 9184TIP3    H127516   3.978   6.214   0.342 -0.9258  1.5961  0.1799
 9184TIP3    H227517   3.922   6.083   0.392  2.4716 -0.4036 -0.9252
 9185TIP3   OH227518   1.569   5.443   3.873 -0.4733  0.4957 -0.2278
 9185TIP3    H127519   1.510   5.392   3.817 -0.1734 -0.0295 -0.0729
 9185TIP3    H227520   1.576   5.390   3.953  0.7216  0.2332 -0.4944
 9186TIP3   OH227521   5.979   5.956   2.948  0.1245  0.1391 -0.2030
 9186TIP3    H127522   6.064   5.981   2.984  0.3130 -0.5480 -0.1648
 9186TIP3    H227523   5.934   5.913   3.021 -0.8439  1.7827  0.2373
 9187TIP3   OH227524   1.977   6.363   2.567 -0.3161 -0.0053 -0.1682
 9187TIP3    H127525   1.974   6.334   2.476  0.8404  1.2475 -0.6387
 9187TIP3    H227526   1.981   6.283   2.618  1.5637 -0.7200 -1.3582
 9188TIP3   OH227527   0.974   6.161   3.862 -0.5095  0.0263  0.3304
 9188TIP3    H127528   0.992   6.075   3.826 -1.3054  0.7389 -1.9584
 9188TIP3    H227529   1.012   6.159   3.950  3.1135 -1.2942 -1.0654
 9189TIP3   OH227530   0.308   3.194   1.553  0.1057 -0.2444 -0.0969
 9189TIP3    H127531   0.397   3.161   1.568 -0.0986 -0.4052  0.7952
 9189TIP3    H227532   0.273   3.210   1.640 -0.1111  1.5422 -0.4589
 9190TIP3   OH227533   6.088   6.778   3.248 -0.4640 -0.0772 -0.5838
 9190TIP3    H127534   6.166   6.753   3.297 -0.5178 -2.7083 -1.6754
 9190TIP3    H227535   6.122   6.811   3.164 -0.4741  0.3549 -0.4165
 9191TIP3   OH227536   3.125   2.940   1.198 -0.3185  0.4736 -0.3495
 9191TIP3    H127537   3.175   3.015   1.230 -0.9108  0.8319 -0.2480
 9191TIP3    H227538   3.040   2.948   1.242 -0.7512  0.3460 -1.1508
 9192TIP3   OH227539   2.963   6.218   0.694  0.0193  0.3269 -0.6235
 9192TIP3    H127540   3.029   6.151   0.677 -0.0691 -0.4022  1.6323
 9192TIP3    H227541   3.014   6.296   0.719  0.0904 -0.3489  1.5080
 9193TIP3   OH227542   6.084   1.188   1.496 -0.7536 -0.1273 -0.1799
 9193TIP3    H127543   5.995   1.206   1.465 -1.3527 -0.4991  1.2594
 9193TIP3    H227544   6.078   1.101   1.534  0.1528 -0.0121  0.2346
 9194TIP3   OH227545   3.856   5.473   1.343 -0.7927  0.1650  0.2022
 9194TIP3    H127546   3.862   5.554   1.393 -0.1113  0.7161 -0.7521
 9194TIP3    H227547   3.873   5.499   1.253  1.2076 -1.2717  0.0948
 9195TIP3   OH227548   6.453   5.087   5.686  0.2965 -0.1314 -0.4448
 9195TIP3    H127549   6.475   5.011   5.633 -0.4670 -2.1121  1.8632
 9195TIP3    H227550   6.367   5.114   5.654  0.2081 -0.7716 -0.7647
 9196TIP3   OH227551   2.604   6.004   2.311  0.4301  0.1445 -0.1662
 9196TIP3    H127552   2.620   5.928   2.254 -1.2002  0.2459 -0.7945
 9196TIP3    H227553   2.511   6.001   2.331  0.6564  1.0244  1.2364
 9197TIP3   OH227554   1.777   1.521   3.308 -0.0549 -0.6160 -0.2236
 9197TIP3    H127555   1.827   1.593   3.269  0.6125 -0.5490  0.7171
 9197TIP3    H227556   1.686   1.551   3.305  0.3368  0.8928  1.3639
 9198TIP3   OH227557   3.526   6.234   0.873  0.1242 -0.4050  0.1344
 9198TIP3    H127558   3.486   6.153   0.904  0.0278 -0.1779  0.6141
 9198TIP3    H227559   3.619   6.225   0.894  0.4369 -1.1372 -1.4103
 9199TIP3   OH227560   4.346   1.239   1.848  0.3299  0.1698  0.1120
 9199TIP3    H127561   4.328   1.238   1.942 -0.0295  0.6687  0.0524
 9199TIP3    H227562   4.304   1.319   1.817  0.4145 -0.0153 -0.4799
 9200TIP3   OH227563   5.552   6.249   0.610  0.3697  0.1331  0.1760
 9200TIP3    H127564   5.633   6.267   0.658  0.2830 -1.2544  0.8853
 9200TIP3    H227565   5.496   6.204   0.674 -0.0266 -1.1318 -1.0203
 9201TIP3   OH227566   5.562   3.176   0.924  0.3335  0.2898 -0.5305
 9201TIP3    H127567   5.616   3.109   0.882  2.0812  2.5538 -2.1301
 9201TIP3    H227568   5.615   3.207   0.997 -0.2331  0.3080 -0.1233
 9202TIP3   OH227569   5.561   4.698   5.680  0.4483  0.2072  0.0390
 9202TIP3    H127570   5.519   4.625   5.726 -0.5145  0.7447  0.0468
 9202TIP3    H227571   5.612   4.742   5.747 -0.3860  0.5681  0.4554
 9203TIP3   OH227572   1.052   2.946   5.265  0.1712  0.3084 -0.0593
 9203TIP3    H127573   0.991   3.020   5.266  0.3814  0.4912 -0.7920
 9203TIP3    H227574   1.009   2.879   5.320 -1.3323 -0.0773 -1.6288
 9204TIP3   OH227575   3.696   5.698   0.276 -0.3083  0.5495  0.5999
 9204TIP3    H127576   3.750   5.774   0.253 -0.8108  0.4922 -0.8965
 9204TIP3    H227577   3.713   5.634   0.207 -2.2297  0.5151  0.0922
 9205TIP3   OH227578   2.966   4.242   0.399 -0.2203 -0.2041 -0.0913
 9205TIP3    H127579   2.984   4.334   0.380  1.5009 -0.1838  1.4176
 9205TIP3    H227580   2.927   4.243   0.487  0.7778 -0.9681  0.3799
 9206TIP3   OH227581   5.247   2.617   2.360  0.5273 -0.3784 -0.1944
 9206TIP3    H127582   5.319   2.648   2.305  1.2582 -0.4471  0.6994
 9206TIP3    H227583   5.197   2.695   2.382  1.6201  0.0211  0.9895
 9207TIP3   OH227584   4.978   0.355   1.030 -0.4953  0.1774  0.0648
 9207TIP3    H127585   4.972   0.320   0.941  0.6965  1.3775 -0.5145
 9207TIP3    H227586   5.071   0.348   1.053 -0.6171  0.8398  0.8182
 9208TIP3   OH227587   4.964   3.982   4.241  0.1097  0.3629  0.3744
 9208TIP3    H127588   4.928   4.000   4.328 -0.8210  1.2780 -0.1671
 9208TIP3    H227589   5.018   4.059   4.221 -1.6420  1.3716 -0.8153
 9209TIP3   OH227590   6.610   4.747   5.638  0.4359  0.1645 -0.4555
 9209TIP3    H127591   6.552   4.754   5.714  0.7217  0.8879 -0.2962
 9209TIP3    H227592   6.564   4.794   5.569  0.1807 -0.4865 -0.7392
 9210TIP3   OH227593   4.519   5.842   3.587 -0.0242  0.0609  0.2338
 9210TIP3    H127594   4.524   5.835   3.682 -0.7330  3.3210  0.6366
 9210TIP3    H227595   4.600   5.886   3.562 -0.3176  0.2017 -0.5078
 9211TIP3   OH227596   2.879   6.085   2.391  0.1915  0.5370  0.5989
 9211TIP3    H127597   2.794   6.042   2.393  0.1146  0.6082 -0.5378
 9211TIP3    H227598   2.911   6.071   2.302  1.7990 -0.3045  1.2617
 9212TIP3   OH227599   0.025   0.949   1.712 -0.4553  0.1233  0.3008
 9212TIP3    H127600   0.061   0.863   1.692 -2.1476 -0.8746  1.2455
 9212TIP3    H227601   0.009   0.989   1.627  1.3075 -0.0488 -0.1420
 9213TIP3   OH227602   6.229   1.055   5.253  0.2163 -0.3594 -0.4674
 9213TIP3    H127603   6.262   1.027   5.168  0.2176 -1.1502 -0.2098
 9213TIP3    H227604   6.197   1.144   5.237  0.9468 -0.1970 -1.1020
 9214TIP3   OH227605   0.383   4.895   3.847  0.1255  0.0045 -0.5112
 9214TIP3    H127606   0.426   4.846   3.777 -1.0394 -1.4228 -0.2775
 9214TIP3    H227607   0.303   4.928   3.807 -1.3445 -2.1284  0.4467
 9215TIP3   OH227608   4.256   1.702   2.334 -0.4087  0.1883  0.3668
 9215TIP3    H127609   4.343   1.665   2.348 -0.0131  1.2357  0.7448
 9215TIP3    H227610   4.266   1.760   2.259 -0.6454  0.7144  0.7318
 9216TIP3   OH227611   3.279   0.372   4.909 -0.1924  0.3674  0.9450
 9216TIP3    H127612   3.360   0.421   4.893  0.0114 -0.5996 -1.3823
 9216TIP3    H227613   3.210   0.427   4.870 -0.2240 -0.2206  0.1482
 9217TIP3   OH227614   1.570   6.742   1.268 -0.0478  0.3715 -0.3056
 9217TIP3    H127615   1.583   6.734   1.173 -2.6280 -0.9724 -0.6367
 9217TIP3    H227616   1.639   6.686   1.306 -0.5616 -1.1943 -1.5405
 9218TIP3   OH227617   6.709   2.314   2.732  0.1898  0.1883 -0.0061
 9218TIP3    H127618   6.674   2.266   2.656 -1.7989 -0.1434  1.0480
 9218TIP3    H227619   6.711   2.405   2.703 -0.2463  0.0260 -0.5775
 9219TIP3   OH227620   6.922   0.839   0.834 -0.2389  0.0780 -0.3477
 9219TIP3    H127621   6.855   0.840   0.765  1.0928  2.8934 -1.7548
 9219TIP3    H227622   6.994   0.891   0.798  2.0234 -1.3598  1.8012
 9220TIP3   OH227623   3.613   6.673   5.558 -0.0023  0.1046  0.0652
 9220TIP3    H127624   3.530   6.716   5.578 -0.0107  0.1501 -0.0672
 9220TIP3    H227625   3.678   6.744   5.561  0.1249 -0.0249  0.7444
 9221TIP3   OH227626   2.432   2.867   2.362  0.1807 -0.1720  0.2562
 9221TIP3    H127627   2.359   2.863   2.301  0.1888  0.4019  0.2046
 9221TIP3    H227628   2.432   2.782   2.406 -0.3557 -0.2655  0.0730
 9222TIP3   OH227629   6.113   3.425   3.527  0.2348 -0.1340 -0.1417
 9222TIP3    H127630   6.090   3.493   3.590 -0.7526 -0.4765 -0.1135
 9222TIP3    H227631   6.037   3.366   3.526  0.2043 -0.1091 -1.7045
 9223TIP3   OH227632   5.195   1.469   1.207  0.1749 -0.6167  0.3900
 9223TIP3    H127633   5.186   1.376   1.228 -1.0470 -0.4926  0.5441
 9223TIP3    H227634   5.286   1.489   1.225  0.7835 -2.0682 -0.8613
 9224TIP3   OH227635   1.575   0.598   2.139  0.2030 -0.5505 -1.3665
 9224TIP3    H127636   1.533   0.595   2.225  0.3562  0.0620 -1.2663
 9224TIP3    H227637   1.656   0.548   2.150  0.2699 -0.3901 -1.1278
 9225TIP3   OH227638   6.037   6.063   4.038  0.0432  0.9076 -0.0390
 9225TIP3    H127639   6.107   6.103   4.090 -0.4389  0.1191  1.2399
 9225TIP3    H227640   6.075   5.980   4.008 -0.1592  0.7313  0.1971
 9226TIP3   OH227641   1.633   2.894   4.671  0.3161 -0.2943  0.4031
 9226TIP3    H127642   1.686   2.974   4.677 -1.4872  0.8638  2.2184
 9226TIP3    H227643   1.556   2.912   4.725 -2.3520 -1.5959 -2.6651
 9227TIP3   OH227644   0.208   0.543   4.761 -0.6232  0.0131 -0.2086
 9227TIP3    H127645   0.224   0.538   4.667 -0.3164  0.3272 -0.1733
 9227TIP3    H227646   0.289   0.576   4.798 -1.2719  1.4698 -0.0162
 9228TIP3   OH227647   1.510   0.437   1.040  0.1066  0.2741  1.0446
 9228TIP3    H127648   1.456   0.509   1.007 -0.3531 -0.3275  0.4526
 9228TIP3    H227649   1.485   0.362   0.986  2.3262  0.2152  0.0068
 9229TIP3   OH227650   1.018   0.525   0.803  0.7822  0.0772 -0.2403
 9229TIP3    H127651   1.099   0.546   0.849 -0.0163  1.5216  0.5707
 9229TIP3    H227652   0.967   0.475   0.866  0.3715  0.6155 -0.1368
 9230TIP3   OH227653   6.951   4.662   4.917  0.2539  0.3392  0.0887
 9230TIP3    H127654   6.962   4.567   4.909  1.3131  0.3197  1.2884
 9230TIP3    H227655   6.915   4.674   5.005  0.3966  1.0607  0.0537
 9231TIP3   OH227656   5.124   1.287   5.826  0.8302 -0.1580  0.6234
 9231TIP3    H127657   5.174   1.252   5.900  1.6790 -1.4334 -0.4975
 9231TIP3    H227658   5.092   1.209   5.780 -2.1635  0.5884  1.2140
 9232TIP3   OH227659   5.453   1.238   2.982 -0.7210 -0.0063  0.0796
 9232TIP3    H127660   5.529   1.265   2.930  0.3197 -0.5681  1.2639
 9232TIP3    H227661   5.480   1.156   3.023 -1.3933  0.5779  1.7544
 9233TIP3   OH227662   1.584   3.216   2.308 -0.2599  0.3116  0.2144
 9233TIP3    H127663   1.674   3.224   2.277 -0.5947  1.8802 -0.4316
 9233TIP3    H227664   1.584   3.260   2.392 -0.7159  1.6256 -0.4471
 9234TIP3   OH227665   4.096   6.524   1.650 -0.1970 -0.5152  0.4926
 9234TIP3    H127666   4.053   6.580   1.715  0.9382  1.0604 -0.0276
 9234TIP3    H227667   4.168   6.483   1.698 -0.4377 -0.7451  0.6533
 9235TIP3   OH227668   4.198   4.263   4.136 -0.0241  0.3095 -0.3451
 9235TIP3    H127669   4.253   4.202   4.087 -1.2058 -0.2282 -1.0495
 9235TIP3    H227670   4.255   4.296   4.206  1.0761 -0.4784 -0.8398
 9236TIP3   OH227671   6.126   1.033   0.990  0.3183 -0.5574  0.0769
 9236TIP3    H127672   6.210   1.022   1.035  0.2314 -0.3485  0.2934
 9236TIP3    H227673   6.061   1.014   1.057  0.1867 -2.9354 -0.6426
 9237TIP3   OH227674   1.657   4.466   2.397  0.1047  0.9871 -0.6232
 9237TIP3    H127675   1.691   4.499   2.313 -0.9277  1.9868 -0.6740
 9237TIP3    H227676   1.591   4.530   2.422  0.5154  0.7907  1.0550
 9238TIP3   OH227677   6.556   5.012   2.518 -0.5019  0.3062 -0.0956
 9238TIP3    H127678   6.630   4.952   2.505  0.0793  0.6457  1.3751
 9238TIP3    H227679   6.479   4.955   2.523 -0.1120 -0.2113  0.0816
 9239TIP3   OH227680   0.927   2.490   1.761 -0.1157  0.8505  0.3927
 9239TIP3    H127681   0.888   2.511   1.676  0.3497 -0.7898 -0.2514
 9239TIP3    H227682   0.856   2.500   1.824 -1.0353 -0.0209 -0.4842
 9240TIP3   OH227683   3.749   4.468   0.526 -0.0948  0.0413 -0.0508
 9240TIP3    H127684   3.707   4.455   0.441  0.7826 -0.7794 -0.3700
 9240TIP3    H227685   3.682   4.510   0.580 -0.9183 -0.1590 -0.9064
 9241TIP3   OH227686   5.568   5.679   0.947  0.0987 -0.5508 -0.4080
 9241TIP3    H127687   5.521   5.733   1.010  0.3672  1.1842 -1.6040
 9241TIP3    H227688   5.507   5.670   0.873 -0.8939 -3.9863  0.6482
 9242TIP3   OH227689   3.607   3.893   4.149  0.1825  0.3636 -0.3812
 9242TIP3    H127690   3.601   3.948   4.071  0.6629  0.8613 -0.0777
 9242TIP3    H227691   3.663   3.820   4.123 -1.2805 -0.5381 -1.0889
 9243TIP3   OH227692   4.138   5.649   5.607  0.2722 -0.0934  0.5678
 9243TIP3    H127693   4.055   5.622   5.647 -0.0971 -0.9259 -0.7231
 9243TIP3    H227694   4.113   5.707   5.536  0.7693 -0.6366 -0.0600
 9244TIP3   OH227695   3.400   2.725   2.410 -0.4183  0.3265 -0.5419
 9244TIP3    H127696   3.413   2.718   2.316  2.0531  0.1161 -0.2619
 9244TIP3    H227697   3.481   2.765   2.442 -1.6039  1.3363  1.3932
 9245TIP3   OH227698   1.454   2.383   2.305  0.3122  0.5896 -0.0653
 9245TIP3    H127699   1.465   2.298   2.261 -0.5909 -0.8503  2.3037
 9245TIP3    H227700   1.439   2.361   2.397 -1.6980  3.2562  0.3611
 9246TIP3   OH227701   3.388   1.397   2.843 -0.0542  0.0422 -0.2852
 9246TIP3    H127702   3.432   1.454   2.780  1.3972 -0.0467  0.5903
 9246TIP3    H227703   3.296   1.421   2.838  0.0896  0.3023 -2.1386
 9247TIP3   OH227704   4.991   1.170   2.295  0.6859 -0.0130 -0.3451
 9247TIP3    H127705   4.917   1.227   2.317  0.0357 -0.1521 -2.0920
 9247TIP3    H227706   4.964   1.124   2.216  1.0135 -3.1358  1.2251
 9248TIP3   OH227707   1.618   2.421   1.629 -0.4669  0.4343 -0.0699
 9248TIP3    H127708   1.535   2.468   1.638 -1.5323 -1.2574 -0.5961
 9248TIP3    H227709   1.646   2.439   1.539 -0.1592  1.1500  0.1643
 9249TIP3   OH227710   4.861   5.859   2.123 -0.2152  0.4572  1.0760
 9249TIP3    H127711   4.827   5.795   2.061  1.3826 -0.5247  1.1684
 9249TIP3    H227712   4.783   5.888   2.172 -1.9294  2.8681 -2.6565
 9250TIP3   OH227713   0.882   3.051   5.750 -0.2662 -0.3640  0.2427
 9250TIP3    H127714   0.911   3.140   5.769 -0.2304 -0.5000  0.8161
 9250TIP3    H227715   0.963   3.001   5.738 -0.2203  0.2239 -2.7901
 9251TIP3   OH227716   4.862   4.438   4.811  0.1084  0.0392 -0.0394
 9251TIP3    H127717   4.905   4.439   4.726 -0.5159  1.5514 -0.3615
 9251TIP3    H227718   4.909   4.370   4.860  0.6741 -0.6497 -1.4654
 9252TIP3   OH227719   2.184   1.073   1.911  0.4434  0.2136  0.1982
 9252TIP3    H127720   2.097   1.050   1.878 -0.1789  0.4585  1.5862
 9252TIP3    H227721   2.222   0.990   1.939  0.1101  0.2678  0.8245
 9253TIP3   OH227722   5.474   5.196   4.525  0.1891 -0.1487  0.3558
 9253TIP3    H127723   5.383   5.203   4.496  0.1380 -0.8737  0.3172
 9253TIP3    H227724   5.503   5.287   4.536 -0.8959  0.0844  1.4944
 9254TIP3   OH227725   7.076   2.213   2.812 -0.4020 -0.1654  0.2529
 9254TIP3    H127726   7.003   2.275   2.810 -1.6711 -1.6048 -0.6930
 9254TIP3    H227727   7.154   2.268   2.825 -1.4187  1.6731 -0.8922
 9255TIP3   OH227728   5.931   6.680   2.578  0.1294  0.6439  0.3507
 9255TIP3    H127729   5.872   6.614   2.542  1.4941 -0.6000  0.3131
 9255TIP3    H227730   5.921   6.756   2.521 -0.4602 -0.0040 -0.4224
 9256TIP3   OH227731   5.531   5.001   3.404 -0.0409 -0.9381  0.5552
 9256TIP3    H127732   5.435   5.006   3.400  0.0351  0.3527 -1.0981
 9256TIP3    H227733   5.551   5.004   3.498 -1.6238 -1.6424  0.9513
 9257TIP3   OH227734   3.925   4.030   3.699 -0.5314  0.4282 -0.5958
 9257TIP3    H127735   3.835   4.018   3.666 -1.3737  1.8486  1.0165
 9257TIP3    H227736   3.927   4.121   3.730  1.1537  0.0983  0.3757
 9258TIP3   OH227737   2.122   3.386   0.577  0.5866 -0.6291 -0.0717
 9258TIP3    H127738   2.202   3.424   0.540  0.1145  0.3849 -0.0792
 9258TIP3    H227739   2.152   3.311   0.628  1.3264 -1.6677 -1.9553
 9259TIP3   OH227740   5.577   5.440   4.518 -0.3655  0.1998  0.0037
 9259TIP3    H127741   5.550   5.507   4.582 -2.1543 -1.1726  0.7639
 9259TIP3    H227742   5.668   5.421   4.541  0.1036  2.1277 -0.0559
 9260TIP3   OH227743   3.351   5.094   2.900  0.1605 -0.0589 -0.4213
 9260TIP3    H127744   3.410   5.169   2.905 -0.0162  0.0162  1.6221
 9260TIP3    H227745   3.407   5.018   2.917 -0.2117 -0.0265  1.0975
 9261TIP3   OH227746   3.717   1.844   5.575 -0.5331  0.4096  0.1936
 9261TIP3    H127747   3.625   1.823   5.559 -0.7298  1.9274 -0.9418
 9261TIP3    H227748   3.729   1.931   5.536  1.3065  0.3951  0.6143
 9262TIP3   OH227749   3.468   3.077   0.387 -0.2554 -0.1895 -0.0665
 9262TIP3    H127750   3.487   3.097   0.295 -1.8403 -0.8983 -0.6001
 9262TIP3    H227751   3.447   3.161   0.426 -1.8057 -0.1185 -0.9661
 9263TIP3   OH227752   3.684   5.046   5.701  0.3761 -0.4405 -0.3607
 9263TIP3    H127753   3.766   5.009   5.670  0.4090 -1.9256  1.3115
 9263TIP3    H227754   3.686   5.137   5.673  2.5152 -0.4917 -0.4998
 9264TIP3   OH227755   2.233   4.086   3.952 -0.9812  0.0699 -0.3699
 9264TIP3    H127756   2.199   4.154   3.894 -2.2183  0.2674  0.5579
 9264TIP3    H227757   2.320   4.117   3.978 -0.9399  0.5822 -1.0841
 9265TIP3   OH227758   3.575   2.891   4.002  0.5811  0.4320  0.3986
 9265TIP3    H127759   3.491   2.873   3.961  1.3239 -0.5117 -0.7629
 9265TIP3    H227760   3.578   2.831   4.077  1.7192 -2.3049 -1.6768
 9266TIP3   OH227761   6.878   1.969   3.099 -0.0310  0.0729  0.1764
 9266TIP3    H127762   6.848   2.059   3.084 -1.1301 -0.5592 -1.7012
 9266TIP3    H227763   6.816   1.934   3.163 -1.1302 -0.0729 -0.9227
 9267TIP3   OH227764   2.130   5.446   2.368  0.2985 -0.1558 -0.0914
 9267TIP3    H127765   2.072   5.440   2.444 -1.5350 -0.8096 -1.4673
 9267TIP3    H227766   2.130   5.539   2.346 -1.8155 -0.3513 -1.1743
 9268TIP3   OH227767   2.319   3.867   3.823 -0.7750  1.1966  0.2099
 9268TIP3    H127768   2.287   3.948   3.864  0.0412  2.5515 -1.6646
 9268TIP3    H227769   2.252   3.845   3.758 -0.6464  0.7652  0.2208
 9269TIP3   OH227770   2.650   4.755   0.737 -0.4625 -0.3112 -0.3911
 9269TIP3    H127771   2.733   4.787   0.772  0.4516 -0.0684 -2.6800
 9269TIP3    H227772   2.674   4.695   0.667 -2.2263 -0.6866 -0.7292
 9270TIP3   OH227773   2.675   5.005   2.493 -0.1896  0.2912 -0.5802
 9270TIP3    H127774   2.612   5.055   2.442 -1.5833 -0.4696  0.3031
 9270TIP3    H227775   2.629   4.923   2.513  1.6322 -0.9217 -1.1323
 9271TIP3   OH227776   2.976   5.862   2.873 -0.8776 -0.0359  0.1420
 9271TIP3    H127777   3.032   5.871   2.797  0.3415 -1.6007  0.7853
 9271TIP3    H227778   2.904   5.805   2.844 -0.7100 -0.1886  0.0297
 9272TIP3   OH227779   0.102   5.308   1.843 -0.0015 -0.5188 -0.1243
 9272TIP3    H127780   0.082   5.221   1.811  0.6754 -0.8233  0.2543
 9272TIP3    H227781   0.023   5.359   1.826 -0.3466 -1.1651 -0.4822
 9273TIP3   OH227782   2.505   3.151   5.207 -0.0884 -0.3277 -0.3191
 9273TIP3    H127783   2.535   3.230   5.251 -0.0945 -0.3105 -0.3459
 9273TIP3    H227784   2.544   3.155   5.120 -0.4898 -0.1038 -0.4934
 9274TIP3   OH227785   0.739   6.792   1.884 -0.7111 -0.1935  0.2264
 9274TIP3    H127786   0.738   6.698   1.865  0.7701 -0.0814 -0.6037
 9274TIP3    H227787   0.730   6.833   1.798 -3.1794  0.4766  0.7590
 9275TIP3   OH227788   3.363   2.354   0.105  0.3200 -0.9397  0.1000
 9275TIP3    H127789   3.269   2.336   0.094  0.1992  0.1692 -0.8586
 9275TIP3    H227790   3.405   2.301   0.037  0.5530 -2.5845  1.4601
 9276TIP3   OH227791   6.890   3.322   2.641 -0.3366 -0.0201  0.0892
 9276TIP3    H127792   6.960   3.294   2.701  0.3247  0.5716 -0.3928
 9276TIP3    H227793   6.899   3.264   2.565 -0.1145  0.3047 -0.1374
 9277TIP3   OH227794   6.928   6.216   0.827  0.0400 -0.3066 -0.1226
 9277TIP3    H127795   6.889   6.303   0.819  1.6483  0.5904  1.0475
 9277TIP3    H227796   7.021   6.233   0.841  0.6236 -2.2792 -1.1754
 9278TIP3   OH227797   7.091   3.780   5.198 -0.2669  0.2739 -0.1572
 9278TIP3    H127798   7.096   3.686   5.211 -1.0934  0.2753  0.2540
 9278TIP3    H227799   7.180   3.811   5.212  0.1163 -0.5004 -0.8047
 9279TIP3   OH227800   0.953   3.582   1.368  0.9391 -0.6090  0.7574
 9279TIP3    H127801   0.919   3.666   1.399  2.5157  0.2901  0.1430
 9279TIP3    H227802   0.879   3.522   1.376 -0.9169  1.2958 -0.7483
 9280TIP3   OH227803   6.217   1.650   1.457 -0.4385 -0.2245 -0.0381
 9280TIP3    H127804   6.271   1.681   1.530  0.6594  0.5487 -1.1310
 9280TIP3    H227805   6.184   1.730   1.417  1.7085 -0.3639 -2.3794
 9281TIP3   OH227806   4.880   5.154   1.861 -0.3439  0.3932  0.4072
 9281TIP3    H127807   4.808   5.103   1.825 -2.1770  1.4387  2.3000
 9281TIP3    H227808   4.897   5.115   1.947  2.5777 -0.8533 -0.5952
 9282TIP3   OH227809   3.896   6.546   1.405 -1.0482 -0.5385  0.1130
 9282TIP3    H127810   3.931   6.486   1.471  0.8739 -1.1208 -1.3247
 9282TIP3    H227811   3.928   6.633   1.432  2.1605 -1.0975 -1.3834
 9283TIP3   OH227812   7.130   5.955   3.965 -0.8174  0.2609  0.5874
 9283TIP3    H127813   7.152   5.879   4.020  0.0738  0.5218  0.6116
 9283TIP3    H227814   7.209   5.971   3.914 -1.6648 -0.0511 -0.8865
 9284TIP3   OH227815   3.843   0.209   2.648 -0.1758 -0.0052 -0.1129
 9284TIP3    H127816   3.902   0.176   2.580  0.3193  1.8166 -0.6262
 9284TIP3    H227817   3.861   0.154   2.724  0.9327 -0.6004 -0.7843
 9285TIP3   OH227818   2.049   5.102   4.777 -0.0144 -0.2364  0.2382
 9285TIP3    H127819   2.080   5.169   4.838  1.7306  1.2132 -2.0892
 9285TIP3    H227820   1.980   5.056   4.826  0.6346  1.3984  2.9282
 9286TIP3   OH227821   4.103   2.628   1.023 -0.8114 -0.4226 -0.1779
 9286TIP3    H127822   4.139   2.638   0.935 -0.9691 -0.6123 -0.2656
 9286TIP3    H227823   4.160   2.680   1.079 -0.4207 -0.6971 -0.3209
 9287TIP3   OH227824   2.748   5.315   5.536 -0.0504 -0.3593  0.3394
 9287TIP3    H127825   2.838   5.299   5.507 -0.6342 -1.6179 -0.8721
 9287TIP3    H227826   2.719   5.231   5.572 -0.9752 -0.1592  0.0827
 9288TIP3   OH227827   7.067   1.043   5.344 -0.3211 -0.2142 -0.4610
 9288TIP3    H127828   7.089   1.038   5.436 -0.3154  0.9500 -0.3751
 9288TIP3    H227829   7.107   0.966   5.304  1.2882  0.2627  0.1969
 9289TIP3   OH227830   3.298   5.617   2.906  0.0481  0.1319  0.6724
 9289TIP3    H127831   3.357   5.590   2.976  0.2665  0.8558  0.7785
 9289TIP3    H227832   3.303   5.713   2.906 -0.9178  0.1988  0.5067
 9290TIP3   OH227833   4.854   2.261   0.849 -0.9616 -0.1175  0.0611
 9290TIP3    H127834   4.777   2.315   0.864 -1.0978 -0.2841 -0.0335
 9290TIP3    H227835   4.878   2.280   0.758 -1.2300 -0.4919 -0.0922
 9291TIP3   OH227836   2.334   0.066   2.661 -0.1977 -0.2346 -1.1747
 9291TIP3    H127837   2.240   0.048   2.653 -0.4203 -0.0289  0.5643
 9291TIP3    H227838   2.345   0.091   2.752  1.5466 -0.1366 -1.3922
 9292TIP3   OH227839   0.262   2.627   4.453 -0.1147 -0.2335  0.1990
 9292TIP3    H127840   0.209   2.549   4.438  0.0929 -0.2261 -0.6337
 9292TIP3    H227841   0.210   2.699   4.418  0.3816 -0.2108 -0.5027
 9293TIP3   OH227842   3.122   6.005   3.354 -0.0152  0.0925 -0.2003
 9293TIP3    H127843   3.174   6.086   3.345 -2.3347  1.5238 -1.7983
 9293TIP3    H227844   3.036   6.036   3.384 -0.9775 -1.7840 -0.9136
 9294TIP3   OH227845   0.232   6.269   4.763  0.1329  0.2798  0.6447
 9294TIP3    H127846   0.182   6.294   4.840  2.1144  0.2630  2.0314
 9294TIP3    H227847   0.278   6.349   4.736  1.3812 -0.2626  1.0612
 9295TIP3   OH227848   3.122   5.240   1.194 -0.1570 -0.0444  0.1624
 9295TIP3    H127849   3.062   5.177   1.234  0.6761  0.6187  2.6383
 9295TIP3    H227850   3.076   5.323   1.197  0.0704  0.0860  0.0904
 9296TIP3   OH227851   0.576   3.782   3.672 -0.4755  0.0006  0.3358
 9296TIP3    H127852   0.559   3.843   3.743 -2.1792  0.6741 -0.6067
 9296TIP3    H227853   0.598   3.700   3.717 -0.7347  0.6040  1.6235
 9297TIP3   OH227854   5.888   4.098   5.900  0.2279  0.5604  0.1254
 9297TIP3    H127855   5.890   4.019   5.846  0.6118  1.0783 -0.6403
 9297TIP3    H227856   5.836   4.160   5.850  1.7479  1.5171 -0.3313
 9298TIP3   OH227857   4.174   1.720   5.541 -0.0962 -0.6697 -0.1776
 9298TIP3    H127858   4.157   1.795   5.599  1.4352  0.5110 -1.1718
 9298TIP3    H227859   4.088   1.697   5.506 -0.6241  0.5791  0.2336
 9299TIP3   OH227860   5.996   4.002   3.312  0.0994 -0.1172 -0.0595
 9299TIP3    H127861   5.959   4.038   3.393 -0.9275  0.8484 -0.9200
 9299TIP3    H227862   6.081   4.045   3.303  0.2669 -0.3143  0.5631
 9300TIP3   OH227863   0.660   3.192   5.014  0.2786  0.3412 -0.4080
 9300TIP3    H127864   0.686   3.140   4.938 -1.2649 -0.3324 -0.5109
 9300TIP3    H227865   0.607   3.263   4.977 -0.2637  0.1589  0.0125
 9301TIP3   OH227866   3.125   2.212   0.914 -0.1908  0.0732 -0.1136
 9301TIP3    H127867   3.116   2.127   0.956 -0.7522  0.4517  0.5446
 9301TIP3    H227868   3.153   2.192   0.825 -1.1710 -0.8344 -0.2285
 9302TIP3   OH227869   3.022   3.561   0.344 -0.5079  0.0588 -0.4670
 9302TIP3    H127870   3.003   3.520   0.259  2.4012 -1.0150 -0.6901
 9302TIP3    H227871   2.984   3.502   0.408 -0.8152 -0.2824 -0.9514
 9303TIP3   OH227872   2.639   3.915   0.201 -0.4692  0.2228  0.0785
 9303TIP3    H127873   2.667   4.006   0.217  1.8061 -0.1026 -1.5031
 9303TIP3    H227874   2.601   3.917   0.113 -1.2003 -0.2034  0.3832
 9304TIP3   OH227875   4.717   4.619   5.257  0.0668 -0.0119  0.3847
 9304TIP3    H127876   4.658   4.549   5.232  1.3962 -1.2651  0.6339
 9304TIP3    H227877   4.682   4.652   5.339  0.3758 -1.5627  1.1672
 9305TIP3   OH227878   0.338   3.709   4.453 -0.0264 -0.0152  0.4337
 9305TIP3    H127879   0.410   3.761   4.417 -0.4495  0.3967  0.1760
 9305TIP3    H227880   0.289   3.679   4.377  0.3535 -1.0051  0.5696
 9306TIP3   OH227881   5.765   0.332   0.679 -0.3382  0.7175 -0.0410
 9306TIP3    H127882   5.820   0.379   0.616 -0.2397  0.0604 -0.4469
 9306TIP3    H227883   5.697   0.291   0.625 -1.5226  1.8827  0.4852
 9307TIP3   OH227884   3.941   5.132   3.104 -0.2650 -0.2544  0.0768
 9307TIP3    H127885   3.856   5.089   3.112  0.1422 -0.8487  1.7871
 9307TIP3    H227886   3.924   5.223   3.128  0.0356 -1.0010  3.6709
 9308TIP3   OH227887   5.842   1.054   5.065  0.3435 -0.2093  0.1068
 9308TIP3    H127888   5.817   1.021   5.151 -0.1923  1.4156  0.6301
 9308TIP3    H227889   5.914   1.114   5.083  1.0450 -0.7824 -0.7458
 9309TIP3   OH227890   0.952   2.613   4.179 -0.3062 -0.5220 -0.3576
 9309TIP3    H127891   0.912   2.674   4.241  0.4479  0.7372 -1.0558
 9309TIP3    H227892   1.046   2.631   4.184  0.1554 -2.8425  0.6418
 9310TIP3   OH227893   2.871   1.150   5.202 -1.1987  0.7178 -0.1571
 9310TIP3    H127894   2.930   1.076   5.189 -1.8551  0.0220  0.7072
 9310TIP3    H227895   2.922   1.226   5.173 -0.3883 -0.0127 -0.7320
 9311TIP3   OH227896   2.316   3.966   4.342  0.3092  0.5758 -0.1250
 9311TIP3    H127897   2.271   3.995   4.263 -0.1834  1.1668  0.3618
 9311TIP3    H227898   2.396   4.018   4.345  0.3677  0.4934 -0.2832
 9312TIP3   OH227899   1.740   4.702   3.037  0.1964 -0.3362 -0.1469
 9312TIP3    H127900   1.670   4.758   3.001 -0.1321 -1.8148 -1.9637
 9312TIP3    H227901   1.764   4.744   3.119 -1.9432  0.9455 -0.0942
 9313TIP3   OH227902   1.960   3.918   3.104 -0.4786 -0.0330  0.3287
 9313TIP3    H127903   1.989   3.902   3.193  2.0642  0.3889 -0.3302
 9313TIP3    H227904   1.971   4.012   3.091 -1.2443 -0.0119 -0.3148
 9314TIP3   OH227905   0.078   2.574   0.345  0.4479  0.0844 -0.0736
 9314TIP3    H127906   0.037   2.551   0.261  0.6302 -0.4496 -0.0256
 9314TIP3    H227907   0.144   2.639   0.323  0.6426 -0.2145 -0.3805
 9315TIP3   OH227908   3.395   3.957   2.988  0.0947  0.2279  0.2623
 9315TIP3    H127909   3.345   3.916   2.917 -1.6547  1.5154  0.6648
 9315TIP3    H227910   3.417   3.886   3.047 -1.7609 -0.3376  0.3227
 9316TIP3   OH227911   3.799   4.171   3.273 -0.7119  0.3146 -0.0574
 9316TIP3    H127912   3.719   4.122   3.255 -0.2362  0.3320 -2.4868
 9316TIP3    H227913   3.781   4.260   3.242 -0.6713  1.0682  1.9367
 9317TIP3   OH227914   3.129   1.506   1.546 -0.0025  0.7973  0.0543
 9317TIP3    H127915   3.204   1.561   1.525  1.4485 -0.9271  0.4606
 9317TIP3    H227916   3.104   1.466   1.463  1.3709 -0.7892  0.3704
 9318TIP3   OH227917   5.883   6.206   1.451  0.2051  0.1056  0.2708
 9318TIP3    H127918   5.932   6.158   1.517  2.0824  1.6466  0.0879
 9318TIP3    H227919   5.920   6.294   1.452 -1.5658  0.9447 -0.9584
 9319TIP3   OH227920   3.782   6.436   1.167 -0.2895 -0.5489  0.0112
 9319TIP3    H127921   3.826   6.351   1.161  0.6562 -0.1439  0.9237
 9319TIP3    H227922   3.833   6.485   1.232  0.9805  1.8217 -2.5436
 9320TIP3   OH227923   5.791   5.173   3.752 -0.3905  0.0457  0.1717
 9320TIP3    H127924   5.762   5.194   3.841 -1.1656 -1.8952  0.4324
 9320TIP3    H227925   5.748   5.238   3.697  0.8151  1.8445  1.2617
 9321TIP3   OH227926   2.459   2.455   5.703 -0.0600 -0.0028  0.2383
 9321TIP3    H127927   2.452   2.372   5.749 -0.1577  0.2225  0.6311
 9321TIP3    H227928   2.375   2.499   5.720  0.5469  0.8020  1.2537
 9322TIP3   OH227929   2.534   2.886   4.037 -0.0511  0.0650  0.0372
 9322TIP3    H127930   2.596   2.812   4.034  1.0179  0.9514 -0.6523
 9322TIP3    H227931   2.480   2.875   3.959 -0.2934 -0.3101  0.2539
 9323TIP3   OH227932   3.238   5.534   0.890 -0.8169  0.4320 -0.7564
 9323TIP3    H127933   3.193   5.450   0.886 -0.3707  0.2022 -0.9621
 9323TIP3    H227934   3.232   5.560   0.983 -0.4806 -0.0848 -0.5880
 9324TIP3   OH227935   6.638   5.276   2.601  0.5641 -0.0505  0.5650
 9324TIP3    H127936   6.703   5.230   2.654  1.2442  1.1241  0.7823
 9324TIP3    H227937   6.603   5.209   2.542  1.4155 -0.8672  0.9653
 9325TIP3   OH227938   0.594   6.485   4.148  0.4232 -0.1288 -0.8224
 9325TIP3    H127939   0.582   6.489   4.243  1.5281 -1.8021 -0.5798
 9325TIP3    H227940   0.536   6.414   4.119 -0.5057  0.8743 -1.5548
 9326TIP3   OH227941   1.235   6.496   2.354  0.1458 -0.2401 -0.8098
 9326TIP3    H127942   1.225   6.581   2.312  2.2382 -0.3118 -1.5617
 9326TIP3    H227943   1.327   6.475   2.344 -0.1002 -2.1049  0.3528
 9327TIP3   OH227944   6.970   6.600   2.436 -0.0218 -0.5143 -0.0339
 9327TIP3    H127945   7.054   6.596   2.391 -0.7249 -0.2840 -1.4641
 9327TIP3    H227946   6.984   6.558   2.520  1.2759 -1.3361 -0.6394
 9328TIP3   OH227947   0.559   5.830   1.707 -0.5201 -0.1231 -0.2228
 9328TIP3    H127948   0.464   5.823   1.722 -0.1571 -0.3561  2.6309
 9328TIP3    H227949   0.579   5.759   1.647 -1.9694 -1.0151  0.2841
 9329TIP3   OH227950   3.940   3.029   4.078 -0.8931  0.0955  0.4932
 9329TIP3    H127951   4.005   3.080   4.127  1.0255 -0.1186 -1.6689
 9329TIP3    H227952   3.935   2.945   4.125  1.1324 -0.2301  0.2322
 9330TIP3   OH227953   1.557   1.558   1.444 -0.6594 -0.3685 -0.3656
 9330TIP3    H127954   1.609   1.613   1.502 -0.2530 -1.0336 -0.0939
 9330TIP3    H227955   1.573   1.594   1.356 -0.1462 -0.2474 -0.2257
 9331TIP3   OH227956   5.759   6.202   4.098 -0.0637  0.4341  0.1150
 9331TIP3    H127957   5.842   6.159   4.077 -0.3924  0.1809 -0.6980
 9331TIP3    H227958   5.770   6.232   4.188  0.8961  0.3724  0.0308
 9332TIP3   OH227959   1.973   4.221   4.295 -0.0633  0.3199 -0.2383
 9332TIP3    H127960   1.976   4.316   4.308 -0.2847  0.2046  0.7492
 9332TIP3    H227961   1.988   4.184   4.382  0.8049 -0.5673 -0.7463
 9333TIP3   OH227962   2.112   4.817   3.336  0.1669 -0.1918 -0.7194
 9333TIP3    H127963   2.188   4.875   3.332 -0.5335  0.6664 -2.5689
 9333TIP3    H227964   2.111   4.773   3.251 -0.6559 -1.2004 -0.2086
 9334TIP3   OH227965  -0.013   4.712   0.636  0.4160  0.0579  0.0492
 9334TIP3    H127966   0.012   4.775   0.568 -0.0481  0.7626  0.5285
 9334TIP3    H227967   0.058   4.647   0.635  1.0937  0.7837 -0.1917
 9335TIP3   OH227968   4.417   5.289   3.496 -0.0781  0.7080 -0.0538
 9335TIP3    H127969   4.460   5.308   3.413 -2.2690  2.2084 -0.9210
 9335TIP3    H227970   4.442   5.361   3.553  1.0137 -0.0576  0.4753
 9336TIP3   OH227971   4.051   3.461   0.636 -0.2071 -0.3629  0.3231
 9336TIP3    H127972   3.971   3.455   0.689 -0.5554 -1.1912 -0.2643
 9336TIP3    H227973   4.097   3.379   0.655  0.1946 -0.1678  0.1810
 9337TIP3   OH227974   2.996   4.764   0.784 -0.1696 -0.0706 -0.3232
 9337TIP3    H127975   3.078   4.749   0.738  0.0186 -1.5903  0.4310
 9337TIP3    H227976   3.022   4.800   0.868 -0.1468 -1.5340  0.3385
 9338TIP3   OH227977   0.930   6.771   0.727  0.0430  0.0876  0.2127
 9338TIP3    H127978   1.001   6.808   0.674  1.0258  0.0338  1.4473
 9338TIP3    H227979   0.915   6.684   0.690  1.8360 -0.6063  0.9826
 9339TIP3   OH227980   3.145   4.858   2.356 -0.1961  0.0377 -0.0778
 9339TIP3    H127981   3.216   4.922   2.347  1.1183 -1.2697  0.5495
 9339TIP3    H227982   3.075   4.905   2.401  0.6016  1.1325  0.0526
 9340TIP3   OH227983   2.433   3.470   4.036  0.0211 -0.1123  0.1076
 9340TIP3    H127984   2.412   3.410   3.965  0.1661 -1.7985  1.4411
 9340TIP3    H227985   2.349   3.491   4.076  0.2084 -1.7477  1.4279
 9341TIP3   OH227986   4.677   2.214   4.087  0.2219 -0.1556 -1.0770
 9341TIP3    H127987   4.729   2.287   4.055  0.4314 -0.4449 -1.4094
 9341TIP3    H227988   4.628   2.184   4.010 -0.0096 -0.2430 -0.8982
 9342TIP3   OH227989   1.492   2.817   1.689  0.0103 -0.3812  0.0626
 9342TIP3    H127990   1.446   2.735   1.706  0.5514 -0.4798  1.1705
 9342TIP3    H227991   1.492   2.863   1.773  0.6084  0.2852 -0.2865
 9343TIP3   OH227992   2.077   2.296   0.211 -0.6985 -0.4671  0.5478
 9343TIP3    H127993   2.031   2.289   0.127 -0.5284  1.1031  0.3030
 9343TIP3    H227994   2.153   2.350   0.193  0.3945 -1.6981  1.3199
 9344TIP3   OH227995   5.363   1.998   4.078 -0.3828 -0.1653  0.0927
 9344TIP3    H127996   5.329   1.973   4.164 -0.6147  0.3918  0.1672
 9344TIP3    H227997   5.291   2.046   4.037  0.3524  1.2165  0.3361
 9345TIP3   OH227998   2.696   5.606   0.591 -0.7972 -0.0010 -0.3478
 9345TIP3    H127999   2.750   5.651   0.656  0.9881 -1.4661 -0.7562
 9345TIP3    H228000   2.692   5.667   0.517  0.9567 -0.1436 -0.6002
 9346TIP3   OH228001   4.348   6.573   5.580 -0.5588  0.0157  0.2489
 9346TIP3    H128002   4.332   6.605   5.668 -1.0661  1.3480 -0.2939
 9346TIP3    H228003   4.392   6.489   5.592 -0.1719  0.4074  1.7504
 9347TIP3   OH228004   6.280   1.896   4.274  0.0549 -0.2341 -0.5041
 9347TIP3    H128005   6.299   1.984   4.307  1.8779 -0.8485  0.2554
 9347TIP3    H228006   6.204   1.867   4.323  0.6931  0.1627  0.7632
 9348TIP3   OH228007   4.187   3.174   0.581 -0.0622  0.5505  0.7528
 9348TIP3    H128008   4.237   3.095   0.603  0.6018  1.1359  1.4425
 9348TIP3    H228009   4.184   3.223   0.664  0.3115  1.6514  0.1364
 9349TIP3   OH228010   3.530   5.599   3.084 -0.1892 -0.0382 -0.0028
 9349TIP3    H128011   3.603   5.652   3.053 -0.6052  1.5008  1.4903
 9349TIP3    H228012   3.542   5.595   3.179 -1.2277 -1.0508  0.1114
 9350TIP3   OH228013   1.215   4.236   3.426 -0.0869  0.0942 -0.5574
 9350TIP3    H128014   1.128   4.220   3.462  0.5726 -1.6166  0.4358
 9350TIP3    H228015   1.273   4.238   3.502  0.7883  0.8456 -1.2229
 9351TIP3   OH228016   5.173   6.372   4.311  0.5171 -0.1346  0.0134
 9351TIP3    H128017   5.261   6.406   4.299  0.2916  0.2996 -0.4827
 9351TIP3    H228018   5.171   6.340   4.401  1.2407 -0.3358 -0.0392
 9352TIP3   OH228019   2.995   3.958   0.880  0.5655 -0.3584 -0.0899
 9352TIP3    H128020   2.916   3.943   0.829  0.8656 -1.4715 -0.2546
 9352TIP3    H228021   2.969   3.943   0.970  0.0770  1.4421  0.1229
 9353TIP3   OH228022   0.243   5.669   3.034 -0.4335  0.1677 -0.0104
 9353TIP3    H128023   0.168   5.610   3.022  0.8514 -1.5602  0.0721
 9353TIP3    H228024   0.308   5.636   2.972  0.6433  0.9604  0.6844
 9354TIP3   OH228025   1.593   4.428   3.284 -0.0780  0.1193 -0.6591
 9354TIP3    H128026   1.515   4.457   3.332  1.7335  0.7728  2.1212
 9354TIP3    H228027   1.592   4.333   3.292  0.0634  0.2017  0.5389
 9355TIP3   OH228028   5.807   1.884   4.272  0.2077 -0.8238 -0.3853
 9355TIP3    H128029   5.863   1.922   4.339 -1.1376 -0.4888  0.5780
 9355TIP3    H228030   5.731   1.942   4.268  0.7320 -0.1678 -3.0227
 9356TIP3   OH228031   0.449   5.166   5.038 -0.1488  0.6643 -0.0778
 9356TIP3    H128032   0.357   5.146   5.058  0.0042 -0.2877 -0.2819
 9356TIP3    H228033   0.498   5.093   5.074  0.4170  0.5514 -1.0488
 9357TIP3   OH228034   1.813   5.185   3.687  0.3654  0.6083 -0.6777
 9357TIP3    H128035   1.905   5.178   3.662  0.2170 -3.2491 -0.7796
 9357TIP3    H228036   1.766   5.196   3.604  0.5457 -2.0163 -1.2159
 9358TIP3   OH228037   0.212   3.149   4.969  0.3528  0.0696 -0.8943
 9358TIP3    H128038   0.177   3.225   4.922  2.7750  0.5546 -2.0793
 9358TIP3    H228039   0.255   3.097   4.901  0.0094 -1.6534  0.1284
 9359TIP3   OH228040   4.221   1.319   3.126  0.0123  0.1545 -0.0497
 9359TIP3    H128041   4.237   1.298   3.218 -1.7024 -0.9356  0.0391
 9359TIP3    H228042   4.221   1.414   3.123  1.2617  0.2028  0.8468
 9360TIP3   OH228043   1.206   5.403   0.843  0.6152 -0.0205 -0.2634
 9360TIP3    H128044   1.201   5.449   0.760  0.9915  0.6127  0.0551
 9360TIP3    H228045   1.189   5.470   0.909  2.9402  0.1020  0.3059
 9361TIP3   OH228046   6.312   2.959   0.920 -0.1743  0.1045 -0.3661
 9361TIP3    H128047   6.267   2.895   0.864  0.3558 -1.4076  0.8501
 9361TIP3    H228048   6.318   3.038   0.866 -0.0266 -1.1533 -2.3063
 9362TIP3   OH228049   4.365   0.212   0.415 -0.7051 -0.5799 -0.4749
 9362TIP3    H128050   4.360   0.226   0.320  1.4468 -1.1036 -0.7229
 9362TIP3    H228051   4.359   0.300   0.452 -0.6794 -0.2884 -1.1461
 9363TIP3   OH228052   7.086   0.493   3.794  0.1693  0.1969  0.0820
 9363TIP3    H128053   7.124   0.497   3.881 -0.5780  0.6286  0.3971
 9363TIP3    H228054   7.005   0.543   3.800  0.6393  1.1726 -1.1487
 9364TIP3   OH228055   0.333   1.562   4.291  0.0177  0.6193  0.3621
 9364TIP3    H128056   0.268   1.591   4.227  0.2618 -1.9455 -1.2089
 9364TIP3    H228057   0.398   1.632   4.292 -0.5553  1.2325 -1.4034
 9365TIP3   OH228058   1.489   1.441   5.103  0.0714  0.4531 -0.1706
 9365TIP3    H128059   1.406   1.487   5.117 -0.7218 -0.6116 -1.1883
 9365TIP3    H228060   1.542   1.503   5.052 -0.9317  0.3258 -1.4198
 9366TIP3   OH228061   5.952   5.209   4.481 -0.2543  0.7717 -0.0208
 9366TIP3    H128062   6.048   5.216   4.478 -0.2862  1.2985  0.0986
 9366TIP3    H228063   5.931   5.199   4.574 -0.2827  0.0975 -0.0959
 9367TIP3   OH228064   5.875   6.286   3.626 -0.5698  0.1441  0.2655
 9367TIP3    H128065   5.947   6.316   3.681  0.9038 -0.8060 -1.0459
 9367TIP3    H228066   5.888   6.329   3.542 -0.5553 -1.2643 -0.4928
 9368TIP3   OH228067   1.359   3.271   1.186  0.9739  0.0210 -0.1189
 9368TIP3    H128068   1.295   3.309   1.126  0.3513  0.6795  0.9383
 9368TIP3    H228069   1.332   3.179   1.195 -0.6056  0.5748  1.2744
 9369TIP3   OH228070   1.584   6.697   2.889  0.5780 -0.6437 -0.0044
 9369TIP3    H128071   1.515   6.764   2.890  0.7366 -0.4783  0.0591
 9369TIP3    H228072   1.663   6.745   2.911  0.6955 -0.8530  0.0312
 9370TIP3   OH228073   2.702   0.081   0.123  0.2906 -0.5814  0.1360
 9370TIP3    H128074   2.705   0.175   0.143  4.5331 -0.7142  1.0201
 9370TIP3    H228075   2.625   0.049   0.170 -1.4449  2.4225 -0.4090
 9371TIP3   OH228076   0.178   3.815   0.363  0.4164 -0.6498  0.0932
 9371TIP3    H128077   0.155   3.868   0.440 -2.2302 -1.5375  0.0105
 9371TIP3    H228078   0.194   3.880   0.294  0.0379  0.0884  0.6806
 9372TIP3   OH228079   5.264   4.524   3.371  0.2321 -0.1053  0.1977
 9372TIP3    H128080   5.273   4.445   3.425 -0.8794 -0.2194  0.2370
 9372TIP3    H228081   5.238   4.491   3.285  0.7002  0.1642 -0.0535
 9373TIP3   OH228082   2.089   1.085   5.640 -0.1127  0.0416 -0.2621
 9373TIP3    H128083   2.173   1.131   5.647 -0.8002  1.2512  0.5630
 9373TIP3    H228084   2.094   1.016   5.706  0.4185 -0.2270 -0.5745
 9374TIP3   OH228085   0.379   2.721   2.108 -0.0224 -0.5234  0.4595
 9374TIP3    H128086   0.380   2.766   2.192  1.1657  0.5438 -0.0983
 9374TIP3    H228087   0.359   2.630   2.130 -0.9183 -0.0359  1.7616
 9375TIP3   OH228088   3.210   4.123   0.296  0.5295  0.3406  0.0489
 9375TIP3    H128089   3.146   4.118   0.367 -0.5442 -1.1431 -0.9539
 9375TIP3    H228090   3.225   4.032   0.270 -0.1280  0.8521 -2.4610
 9376TIP3   OH228091   1.010   3.292   3.111  0.3688 -0.1836  0.2467
 9376TIP3    H128092   1.074   3.358   3.086  0.5952  0.1127  1.5692
 9376TIP3    H228093   1.019   3.283   3.206 -0.2910 -1.4562  0.2158
 9377TIP3   OH228094   2.518   4.379   1.556 -0.3655  0.7664 -0.1358
 9377TIP3    H128095   2.532   4.381   1.462  0.2440  0.5179 -0.0523
 9377TIP3    H228096   2.598   4.340   1.592 -1.2824 -0.7506  0.3588
 9378TIP3   OH228097   2.804   6.468   4.273  0.5248 -0.6590  0.5715
 9378TIP3    H128098   2.734   6.433   4.327 -0.6102 -0.0765 -0.4708
 9378TIP3    H228099   2.884   6.432   4.311 -0.3723 -1.8636  1.4026
 9379TIP3   OH228100   6.172   5.769   0.884  0.5503 -0.2011 -0.1178
 9379TIP3    H128101   6.127   5.684   0.876  1.1094 -0.3655 -2.2240
 9379TIP3    H228102   6.222   5.762   0.965 -2.2357 -0.4528  1.7110
 9380TIP3   OH228103   7.031   4.371   1.839 -0.6363 -0.0886 -0.3693
 9380TIP3    H128104   6.999   4.395   1.926  0.2971 -0.3122  0.0536
 9380TIP3    H228105   6.958   4.324   1.798 -0.7482 -0.8603  0.6738
 9381TIP3   OH228106   7.145   0.982   5.599 -0.2787 -0.2755 -0.5122
 9381TIP3    H128107   7.176   1.066   5.633  1.0711 -1.3044  0.9397
 9381TIP3    H228108   7.102   0.940   5.674  1.0249 -1.7764 -0.5543
 9382TIP3   OH228109   4.278   1.261   5.579 -0.0144 -0.6337  0.4296
 9382TIP3    H128110   4.317   1.293   5.661 -0.1265 -2.0916  1.0938
 9382TIP3    H228111   4.349   1.213   5.536  0.1556  0.4475 -0.5427
 9383TIP3   OH228112   5.929   5.356   2.043 -0.3630  0.3246  0.0451
 9383TIP3    H128113   5.997   5.291   2.023 -0.2615  0.8687 -1.5098
 9383TIP3    H228114   5.977   5.438   2.054 -0.3984  0.0544  2.8633
 9384TIP3   OH228115   2.338   5.261   1.516  0.3519  0.2351  0.1373
 9384TIP3    H128116   2.342   5.355   1.498 -0.7531  0.8332  2.6273
 9384TIP3    H228117   2.408   5.223   1.463  0.9852  2.4998 -0.7252
 9385TIP3   OH228118   0.467   6.410   0.376  0.5220  0.5222  0.7764
 9385TIP3    H128119   0.414   6.488   0.391  0.7170  0.4943  1.6202
 9385TIP3    H228120   0.519   6.432   0.298 -0.3057  0.7603  0.2793
 9386TIP3   OH228121   0.624   6.019   5.815 -0.0452 -0.0132  0.4749
 9386TIP3    H128122   0.650   6.104   5.781 -0.1776 -0.2857 -0.3138
 9386TIP3    H228123   0.650   6.022   5.908 -1.8761  1.6727  1.0163
 9387TIP3   OH228124   0.448   6.154   4.566  0.6855  0.4816 -0.2547
 9387TIP3    H128125   0.372   6.189   4.614 -0.1060  0.1014 -1.1823
 9387TIP3    H228126   0.523   6.171   4.623  0.0060  1.5715  0.3494
 9388TIP3   OH228127   6.526   2.963   2.208  0.2345 -0.0812  0.3916
 9388TIP3    H128128   6.528   2.879   2.253  1.4647 -0.5380 -0.4726
 9388TIP3    H228129   6.472   2.948   2.130  1.1485 -0.3365 -0.2148
 9389TIP3   OH228130   3.853   6.465   5.362 -0.3000  0.8909  0.5573
 9389TIP3    H128131   3.843   6.371   5.376  1.6010  0.5739  0.1113
 9389TIP3    H228132   3.774   6.491   5.315 -0.9777 -0.4332  0.9257
 9390TIP3   OH228133   2.811   5.386   0.962 -0.1426 -0.1634 -0.2818
 9390TIP3    H128134   2.843   5.400   0.873  0.5204  0.2618  0.0247
 9390TIP3    H228135   2.849   5.302   0.988 -0.4316 -0.3450 -0.4385
 9391TIP3   OH228136   6.877   2.077   4.259  0.1239 -0.3195 -0.2000
 9391TIP3    H128137   6.905   2.103   4.172 -0.7884 -1.0167 -0.7248
 9391TIP3    H228138   6.942   2.013   4.287  0.7283  0.3185 -0.1282
 9392TIP3   OH228139   1.821   6.387   0.836  0.0684  0.4877 -0.8988
 9392TIP3    H128140   1.747   6.329   0.820 -0.8968  1.4096  0.0016
 9392TIP3    H228141   1.822   6.399   0.931  2.3159 -0.6628 -0.7183
 9393TIP3   OH228142   0.608   3.050   5.737 -0.0679  0.5194  0.7904
 9393TIP3    H128143   0.576   3.118   5.678 -0.9742  0.3711  1.1044
 9393TIP3    H228144   0.704   3.061   5.736 -0.2124  2.3439  1.4566
 9394TIP3   OH228145   3.057   1.040   1.075  0.2497 -0.3871 -0.0984
 9394TIP3    H128146   3.066   0.949   1.045  1.8494 -1.5567  3.3283
 9394TIP3    H228147   3.012   1.032   1.159  0.4523  1.9851  0.2914
 9395TIP3   OH228148   1.788   3.758   3.464 -0.0197 -0.3768 -0.3951
 9395TIP3    H128149   1.763   3.733   3.552 -3.5596  0.4306 -1.0215
 9395TIP3    H228150   1.749   3.691   3.407 -0.9932  1.0460 -1.4852
 9396TIP3   OH228151   1.278   1.194   2.486 -0.0401  0.5286 -0.5644
 9396TIP3    H128152   1.226   1.170   2.562  1.0176 -1.8191 -0.4725
 9396TIP3    H228153   1.214   1.217   2.418 -1.0557  0.5691  0.3871
 9397TIP3   OH228154   3.417   6.729   0.355 -0.4519  0.2075  0.1423
 9397TIP3    H128155   3.433   6.635   0.349 -0.3609  0.2363 -0.0544
 9397TIP3    H228156   3.493   6.763   0.401  0.3382  0.4243 -1.2870
 9398TIP3   OH228157   5.499   0.623   0.451  0.2072  0.6190  0.2735
 9398TIP3    H128158   5.458   0.544   0.485  1.3319 -0.8084 -1.5254
 9398TIP3    H228159   5.440   0.694   0.478 -1.4160 -0.9205  0.9715
 9399TIP3   OH228160   2.576   0.037   5.689  0.1536 -0.1258  0.3728
 9399TIP3    H128161   2.502  -0.006   5.733  0.9293 -0.7119  1.1355
 9399TIP3    H228162   2.586   0.120   5.735 -0.6398  0.3991 -0.3747
 9400TIP3   OH228163   3.441   1.396   4.716 -0.2932 -0.5644 -0.2394
 9400TIP3    H128164   3.483   1.471   4.674  2.7226 -2.5350 -1.0687
 9400TIP3    H228165   3.410   1.342   4.643  1.9857 -2.3811 -0.0103
 9401TIP3   OH228166   2.531   3.122   3.892  0.4966  0.3978 -0.1143
 9401TIP3    H128167   2.548   3.040   3.939  0.1935 -0.2864 -1.1757
 9401TIP3    H228168   2.435   3.128   3.890  0.5088  1.6342  1.3868
 9402TIP3   OH228169   2.599   1.775   3.707  0.3632  0.1970 -0.2059
 9402TIP3    H128170   2.652   1.695   3.707  0.6540  0.3893 -0.4397
 9402TIP3    H228171   2.611   1.813   3.794 -2.5742 -1.8513  1.2748
 9403TIP3   OH228172   4.132   3.700   0.467  0.2769 -0.0830  0.0701
 9403TIP3    H128173   4.089   3.657   0.540 -0.2311  2.2217  1.2326
 9403TIP3    H228174   4.095   3.659   0.389 -0.9228 -0.9823  1.0841
 9404TIP3   OH228175   2.474   3.752   3.234  0.1046  0.0288 -0.8496
 9404TIP3    H128176   2.522   3.734   3.315 -1.3404 -2.8103 -0.5231
 9404TIP3    H228177   2.382   3.749   3.260 -0.3716 -0.1341 -2.4596
 9405TIP3   OH228178   6.380   4.786   4.388 -0.0070 -0.6185  0.1345
 9405TIP3    H128179   6.442   4.818   4.453 -0.1687  1.8704 -0.8305
 9405TIP3    H228180   6.296   4.782   4.434  0.1762 -0.4278  0.4891
 9406TIP3   OH228181   2.460   3.651   5.176  0.0046 -0.2644  0.3797
 9406TIP3    H128182   2.547   3.641   5.213  1.0155  1.3281 -1.3748
 9406TIP3    H228183   2.423   3.727   5.221 -0.7718 -1.3035  1.5595
 9407TIP3   OH228184   2.744   2.304   2.776  0.2905 -0.0799  0.1675
 9407TIP3    H128185   2.716   2.213   2.784  1.3528 -0.3169  1.4125
 9407TIP3    H228186   2.727   2.326   2.684 -2.0633 -0.8082  0.3571
 9408TIP3   OH228187   5.705   2.366   1.441 -0.1241 -0.1167 -0.6318
 9408TIP3    H128188   5.785   2.414   1.418  1.2453 -0.8285  2.2560
 9408TIP3    H228189   5.647   2.433   1.476 -0.2456  0.1772 -1.3682
 9409TIP3   OH228190   4.927   6.471   2.551  0.1067 -0.0063 -0.5542
 9409TIP3    H128191   4.848   6.480   2.603  0.2950 -1.9869  0.1713
 9409TIP3    H228192   4.991   6.528   2.593 -0.2742 -0.1900  0.2774
 9410TIP3   OH228193   5.443   0.037   4.212  0.2688  0.1566 -0.6274
 9410TIP3    H128194   5.403  -0.034   4.262 -1.7261  0.9246 -1.0708
 9410TIP3    H228195   5.389   0.045   4.134  1.5698  0.9655 -1.4877
 9411TIP3   OH228196   4.273   0.088   2.653  0.2190  0.5356 -0.1116
 9411TIP3    H128197   4.361   0.057   2.630 -0.1354 -0.2940 -0.4043
 9411TIP3    H228198   4.267   0.076   2.748  0.9637  2.0534  0.1439
 9412TIP3   OH228199   5.989   2.689   5.159 -0.3187  0.0335 -0.7159
 9412TIP3    H128200   5.904   2.731   5.153 -0.4910 -0.0463  0.8039
 9412TIP3    H228201   6.038   2.742   5.223 -0.7666 -2.3371  1.7795
 9413TIP3   OH228202   4.209   2.023   3.319 -0.2279  0.2317 -0.6905
 9413TIP3    H128203   4.172   1.935   3.317 -0.9893  0.5509 -2.1170
 9413TIP3    H228204   4.304   2.009   3.317 -0.1667 -0.5896  2.5842
 9414TIP3   OH228205   6.456   5.599   1.330 -0.4569  0.2696 -0.6387
 9414TIP3    H128206   6.381   5.569   1.383 -1.9676  0.2254 -2.6843
 9414TIP3    H228207   6.420   5.671   1.278  1.5235  1.6585 -0.1967
 9415TIP3   OH228208   3.844   3.239   5.345 -0.6823 -0.6839  0.1002
 9415TIP3    H128209   3.768   3.297   5.333 -0.7740 -0.3608  1.9280
 9415TIP3    H228210   3.872   3.218   5.256 -0.8637  1.8750 -0.6400
 9416TIP3   OH228211   3.123   1.239   2.135 -0.1270 -0.2962 -0.3125
 9416TIP3    H128212   3.209   1.277   2.149 -0.9831  2.2374 -1.2516
 9416TIP3    H228213   3.123   1.158   2.184  2.7485 -0.3244 -0.2427
 9417TIP3   OH228214   4.426   0.558   5.047 -0.3205  0.2336 -0.1361
 9417TIP3    H128215   4.494   0.508   5.002  0.0108  1.3145 -0.8448
 9417TIP3    H228216   4.449   0.551   5.140 -0.0101 -0.5257 -0.2652
 9418TIP3   OH228217   0.835   3.588   4.481 -0.0895 -0.1704  0.3863
 9418TIP3    H128218   0.829   3.494   4.465  0.0658 -0.0794 -0.2314
 9418TIP3    H228219   0.909   3.597   4.542 -0.2625 -0.4664  0.6417
 9419TIP3   OH228220   6.721   6.730   3.150  0.3993  0.1627  0.2273
 9419TIP3    H128221   6.746   6.651   3.102  0.0067  0.9140 -1.2588
 9419TIP3    H228222   6.665   6.698   3.221  2.2085 -1.1344  1.1664
 9420TIP3   OH228223   5.644   6.691   0.265 -0.1035  0.1090 -0.6667
 9420TIP3    H128224   5.736   6.719   0.266 -0.1910  0.4194  0.9830
 9420TIP3    H228225   5.622   6.677   0.357 -1.3151 -1.3441 -1.1425
 9421TIP3   OH228226   1.254   2.388   0.634  0.5686  0.0180 -0.7040
 9421TIP3    H128227   1.237   2.479   0.657 -0.3068 -0.1258 -0.7449
 9421TIP3    H228228   1.235   2.383   0.540  0.2150 -0.3012 -0.6167
 9422TIP3   OH228229   3.141   1.963   1.116 -0.0172  0.6528 -0.0597
 9422TIP3    H128230   3.122   1.891   1.177 -2.1265  1.0556 -0.1915
 9422TIP3    H228231   3.076   2.030   1.137 -1.6721  0.3313 -3.5520
 9423TIP3   OH228232   4.027   6.383   2.646  0.1452  0.1315 -0.5731
 9423TIP3    H128233   4.068   6.297   2.640 -1.0958 -0.6157  0.9217
 9423TIP3    H228234   3.957   6.380   2.580  0.8434  0.4635 -1.3487
 9424TIP3   OH228235   4.470   6.787   3.887 -0.0688 -0.4136 -0.5270
 9424TIP3    H128236   4.386   6.763   3.849  0.0466 -0.3196 -0.8454
 9424TIP3    H228237   4.528   6.799   3.812  0.7514 -2.3547 -0.2757
 9425TIP3   OH228238   1.662   4.396   5.641 -0.1244 -0.6290  0.0061
 9425TIP3    H128239   1.705   4.416   5.724 -0.7544  2.8982 -0.3854
 9425TIP3    H228240   1.731   4.402   5.576 -0.0899 -1.0752 -0.0054
 9426TIP3   OH228241   1.160   2.465   1.467 -0.3274  0.5567 -0.1765
 9426TIP3    H128242   1.152   2.382   1.513  0.2300 -0.0773 -1.1890
 9426TIP3    H228243   1.248   2.496   1.488 -1.0411  1.6511  1.3901
 9427TIP3   OH228244   7.008   4.720   2.924 -0.1540 -0.2279  0.0447
 9427TIP3    H128245   7.075   4.675   2.975 -0.2360 -2.0357 -1.3026
 9427TIP3    H228246   6.925   4.683   2.955 -0.2725 -0.5408 -0.6112
 9428TIP3   OH228247   6.346   3.507   5.410  0.5980 -0.5265 -0.3404
 9428TIP3    H128248   6.263   3.526   5.367  0.6701 -0.7841 -0.5896
 9428TIP3    H228249   6.413   3.542   5.352  0.6733 -0.4611 -0.2165
 9429TIP3   OH228250   5.221   1.762   1.443  0.0217 -0.1198  0.4993
 9429TIP3    H128251   5.228   1.808   1.359 -1.2667 -0.6200  0.0912
 9429TIP3    H228252   5.129   1.735   1.448  0.3961 -1.3079  1.4350
 9430TIP3   OH228253   3.331   6.044   1.851  0.2286  0.1981 -0.5790
 9430TIP3    H128254   3.248   6.091   1.847  0.6925  1.1507  0.4804
 9430TIP3    H228255   3.308   5.957   1.883 -0.4524  0.1899 -1.0818
 9431TIP3   OH228256   3.260   0.592   1.053  0.5615  0.7700  0.2942
 9431TIP3    H128257   3.213   0.535   0.992 -1.2834  1.8667  0.6279
 9431TIP3    H228258   3.298   0.532   1.118 -0.3431 -0.1620 -0.0226
 9432TIP3   OH228259   6.708   5.400   4.007 -0.5005  0.4929  0.0238
 9432TIP3    H128260   6.717   5.355   3.923 -1.6025  0.2354  0.0237
 9432TIP3    H228261   6.786   5.376   4.057 -0.1168  0.1898 -0.7150
 9433TIP3   OH228262   1.610   2.838   5.120 -0.4666  0.3250  0.0123
 9433TIP3    H128263   1.519   2.868   5.126 -0.6124 -0.1825  0.4188
 9433TIP3    H228264   1.630   2.804   5.207 -0.1053 -0.1814 -0.2633
 9434TIP3   OH228265   3.323   1.933   2.438 -0.1931  0.0132  0.1399
 9434TIP3    H128266   3.306   1.840   2.451 -1.3073  0.1024 -0.6106
 9434TIP3    H228267   3.284   1.975   2.514 -1.9292  0.0617 -0.7295
 9435TIP3   OH228268   4.483   1.249   0.001  0.1567 -0.3247  0.4976
 9435TIP3    H128269   4.432   1.214   0.074  0.8773 -0.9267  0.7305
 9435TIP3    H228270   4.459   1.192  -0.073 -1.0110  0.6440  0.1030
 9436TIP3   OH228271   2.076   4.110   5.836 -0.3949  0.1295 -0.7954
 9436TIP3    H128272   2.130   4.186   5.816 -1.1308  0.5024 -1.4151
 9436TIP3    H228273   2.061   4.115   5.931  0.7425 -0.0527 -0.5925
 9437TIP3   OH228274   1.078   3.463   1.642  0.0104 -0.0176 -0.2177
 9437TIP3    H128275   1.155   3.407   1.627  0.2329  0.0508  0.6293
 9437TIP3    H228276   1.056   3.496   1.555  0.2171 -0.9758 -0.6453
 9438TIP3   OH228277   5.796   4.466   1.575  0.2971  0.0573 -0.5665
 9438TIP3    H128278   5.867   4.434   1.631 -1.5226  0.5812  2.3010
 9438TIP3    H228279   5.716   4.437   1.620 -1.3180  1.4972 -2.3490
 9439TIP3   OH228280   6.036   1.908   5.268  0.3105 -0.9767 -0.2894
 9439TIP3    H128281   6.021   1.906   5.174 -0.5668  2.7090 -0.3493
 9439TIP3    H228282   6.092   1.985   5.282 -1.2917 -0.1768  2.3467
 9440TIP3   OH228283   6.036   2.857   1.637 -0.4530 -0.2358  0.2684
 9440TIP3    H128284   5.950   2.829   1.667 -0.7079  0.1747 -0.0582
 9440TIP3    H228285   6.030   2.953   1.631  1.2181  0.2475  3.9095
 9441TIP3   OH228286   4.108   2.444   3.481 -0.4735 -0.2559 -0.0394
 9441TIP3    H128287   4.073   2.466   3.395 -0.0557 -0.1410 -0.1769
 9441TIP3    H228288   4.096   2.524   3.533 -1.4005 -0.5525  0.2274
 9442TIP3   OH228289   1.594   5.192   3.519  0.2880 -0.4463 -0.2819
 9442TIP3    H128290   1.600   5.109   3.566 -0.2686 -0.9706 -1.1168
 9442TIP3    H228291   1.589   5.168   3.427 -0.8431  0.4569 -0.4926
 9443TIP3   OH228292   2.012   6.738   5.801 -0.2195 -0.1944 -0.8837
 9443TIP3    H128293   1.965   6.806   5.752  0.5739  0.6179 -0.5508
 9443TIP3    H228294   1.944   6.690   5.847 -1.0054 -1.0694 -2.8611
 9444TIP3   OH228295   1.617   6.782   1.005  0.3067  0.4938 -0.2667
 9444TIP3    H128296   1.680   6.838   0.960  0.0742  0.9009 -0.0935
 9444TIP3    H228297   1.600   6.710   0.944  1.3394  0.0898 -0.0958
 9445TIP3   OH228298   7.024   5.642   0.216  0.1470  0.2975 -0.2417
 9445TIP3    H128299   7.093   5.584   0.248  0.5167  0.2535 -1.0963
 9445TIP3    H228300   7.003   5.609   0.129 -1.6437 -0.2887  0.3696
 9446TIP3   OH228301   0.605   5.568   1.569 -0.1004  0.0111  0.1392
 9446TIP3    H128302   0.623   5.524   1.652 -0.5662 -1.0583 -0.3159
 9446TIP3    H228303   0.692   5.585   1.532  0.1699  1.4525  1.2934
 9447TIP3   OH228304   2.250   2.764   2.191 -0.4063 -0.4561 -0.4258
 9447TIP3    H128305   2.246   2.679   2.233  1.1032 -0.4934 -0.3310
 9447TIP3    H228306   2.161   2.777   2.156 -0.6932 -1.9906 -0.3327
 9448TIP3   OH228307   7.200   0.351   2.147  0.1327 -0.7598 -0.4653
 9448TIP3    H128308   7.170   0.348   2.056  1.9520 -1.6973 -1.0830
 9448TIP3    H228309   7.189   0.443   2.173 -1.3551 -0.6758 -1.2627
 9449TIP3   OH228310   3.848   1.955   5.013  0.1248 -0.5911  0.4823
 9449TIP3    H128311   3.850   1.860   5.027 -1.1537 -0.7488 -0.2226
 9449TIP3    H228312   3.775   1.986   5.066 -0.9108 -0.3583 -1.0092
 9450TIP3   OH228313   6.798   1.185   5.179  0.5932 -0.4512  0.3566
 9450TIP3    H128314   6.777   1.227   5.263  1.2286 -0.8148  0.7072
 9450TIP3    H228315   6.877   1.229   5.150  0.3243 -0.2673 -0.1036
 9451TIP3   OH228316   0.035   4.890   4.009 -0.1871 -0.0114  0.6131
 9451TIP3    H128317   0.126   4.900   4.038 -0.2920  0.3799  0.8172
 9451TIP3    H228318   0.026   4.797   3.989  0.4695  0.0777 -0.1252
 9452TIP3   OH228319   7.128   4.775   0.242 -0.2422  0.4156 -0.1663
 9452TIP3    H128320   7.161   4.828   0.315 -0.9506  0.2479  0.2865
 9452TIP3    H228321   7.196   4.782   0.175 -0.3156  1.8996 -0.1229
 9453TIP3   OH228322   3.600   1.984   2.381 -0.1301  0.0281 -0.2683
 9453TIP3    H128323   3.631   2.054   2.324 -0.6733  0.1917 -0.3732
 9453TIP3    H228324   3.504   1.993   2.381 -0.3554 -1.7735 -1.6770
 9454TIP3   OH228325   1.059   5.908   5.065 -0.3466  0.2692  0.5447
 9454TIP3    H128326   0.987   5.890   5.004 -1.3819  1.2103  1.4422
 9454TIP3    H228327   1.134   5.925   5.008 -0.8993 -0.4216 -0.4285
 9455TIP3   OH228328   2.783   1.264   5.539  0.5993 -0.2865 -0.2700
 9455TIP3    H128329   2.725   1.272   5.464  2.8221 -0.9972 -2.2108
 9455TIP3    H228330   2.848   1.334   5.527  1.6063 -1.0709  0.3660
 9456TIP3   OH228331   1.125   3.965   4.393 -0.1229 -0.3681 -0.0646
 9456TIP3    H128332   1.053   3.910   4.362 -0.6736  1.2332 -1.8548
 9456TIP3    H228333   1.087   4.019   4.462 -1.1790  1.5829 -2.0631
 9457TIP3   OH228334   5.069   2.648   2.859  0.2339 -0.4218 -0.5361
 9457TIP3    H128335   5.162   2.642   2.837  0.0720 -2.5240 -0.8984
 9457TIP3    H228336   5.048   2.564   2.901 -1.3373  0.3076  0.2703
 9458TIP3   OH228337   0.257   6.625   5.168  0.0874 -0.3813  1.2700
 9458TIP3    H128338   0.312   6.666   5.234 -0.0329 -1.1409  1.8641
 9458TIP3    H228339   0.178   6.678   5.166  0.4160  0.1069  1.1625
 9459TIP3   OH228340   2.863   1.698   0.404 -0.1262  0.2733 -0.8577
 9459TIP3    H128341   2.770   1.718   0.417  0.1040  0.9424 -0.1210
 9459TIP3    H228342   2.865   1.604   0.388 -0.5197 -1.0130  4.6365
 9460TIP3   OH228343   7.071   2.835   2.239 -0.1523  0.2482  0.0279
 9460TIP3    H128344   6.993   2.878   2.275 -1.4687 -1.5922 -0.4803
 9460TIP3    H228345   7.046   2.810   2.150  1.0012 -0.4161 -0.1265
 9461TIP3   OH228346   3.764   0.128   1.080  0.4319 -0.4064 -0.0528
 9461TIP3    H128347   3.696   0.087   1.026  0.6076 -0.7043 -0.0491
 9461TIP3    H228348   3.843   0.077   1.062  0.2133 -1.3447  1.4741
 9462TIP3   OH228349   1.323   0.486   0.247 -0.2239 -0.1153  0.0017
 9462TIP3    H128350   1.341   0.438   0.167 -0.2041  1.3827 -0.9431
 9462TIP3    H228351   1.233   0.516   0.237  0.1122  0.9577  0.0339
 9463TIP3   OH228352   4.389   1.952   5.315  0.1108  0.2007  0.4119
 9463TIP3    H128353   4.434   1.930   5.396  0.3380 -0.5143  0.0965
 9463TIP3    H228354   4.458   1.988   5.258  0.7383 -2.5932 -0.7453
 9464TIP3   OH228355   6.757   6.383   3.547 -0.0189  0.0719 -0.3371
 9464TIP3    H128356   6.788   6.453   3.491  1.2112 -1.2850 -1.4400
 9464TIP3    H228357   6.836   6.349   3.589 -0.7577  0.2064  1.2342
 9465TIP3   OH228358   5.139   5.758   2.530 -0.3879 -0.4279 -0.3501
 9465TIP3    H128359   5.072   5.693   2.552 -0.3894 -0.0417  0.8423
 9465TIP3    H228360   5.208   5.744   2.595 -0.9465  1.5929  0.7201
 9466TIP3   OH228361   1.784   5.639   2.229  0.2314 -0.4090 -0.2515
 9466TIP3    H128362   1.843   5.631   2.304  0.6864 -0.3461 -0.5968
 9466TIP3    H228363   1.712   5.579   2.248 -0.2843  0.5095  0.8085
 9467TIP3   OH228364   5.272   1.794   0.209 -0.6339  0.3641 -0.4602
 9467TIP3    H128365   5.246   1.727   0.146 -2.2597  0.2142  0.3283
 9467TIP3    H228366   5.202   1.859   0.206 -0.8846  0.2231  1.3539
 9468TIP3   OH228367   5.362   3.962   5.055 -0.5135  0.3227 -0.3081
 9468TIP3    H128368   5.453   3.936   5.046 -0.6844 -0.4739  0.1277
 9468TIP3    H228369   5.365   4.054   5.081  0.1965  0.0439  0.6481
 9469TIP3   OH228370   5.831   0.107   2.513 -0.2419  0.1474 -0.9951
 9469TIP3    H128371   5.869   0.056   2.442  3.0541  0.6335  0.2476
 9469TIP3    H228372   5.844   0.054   2.591 -0.3749  1.1717 -0.2536
 9470TIP3   OH228373   7.072   0.734   2.728 -0.1791  0.0440 -0.6565
 9470TIP3    H128374   7.095   0.800   2.663 -1.2518  0.8476 -0.2402
 9470TIP3    H228375   7.140   0.741   2.795 -0.2822  0.7163 -0.6212
 9471TIP3   OH228376   2.578   6.062   0.513 -0.5550 -0.0452  0.5217
 9471TIP3    H128377   2.540   6.029   0.432  1.6344 -2.7664  0.4404
 9471TIP3    H228378   2.507   6.058   0.577 -1.8207  0.4083 -0.8249
 9472TIP3   OH228379   6.971   0.327   0.372  0.0593  0.5192 -0.2103
 9472TIP3    H128380   6.881   0.358   0.386  0.9386  2.9307  0.4718
 9472TIP3    H228381   6.981   0.256   0.436 -1.6926 -0.6173 -1.1005
 9473TIP3   OH228382   3.774   0.515   1.586 -0.2457  0.1473 -0.0083
 9473TIP3    H128383   3.707   0.473   1.640  1.5262 -0.3270  1.9767
 9473TIP3    H228384   3.811   0.583   1.642 -0.4020  1.7620 -1.7898
 9474TIP3   OH228385   3.172   1.703   4.644 -0.3949 -0.8470  0.0486
 9474TIP3    H128386   3.118   1.627   4.622 -4.1220  1.5289  0.0561
 9474TIP3    H228387   3.164   1.711   4.739 -1.6650  0.5298 -0.1337
 9475TIP3   OH228388   6.057   4.349   3.922  0.0593  0.0750  0.0233
 9475TIP3    H128389   6.036   4.323   4.011 -0.3910 -2.3759 -0.7216
 9475TIP3    H228390   6.126   4.414   3.931 -0.6744  0.6248  2.1675
 9476TIP3   OH228391   3.450   2.854   0.562 -0.1506 -0.5938 -0.2692
 9476TIP3    H128392   3.456   2.774   0.512 -0.6750 -1.2254  0.6465
 9476TIP3    H228393   3.421   2.920   0.499 -0.3493 -1.2646 -0.8932
 9477TIP3   OH228394   5.000   1.017   5.832  0.2941 -0.1254 -0.2004
 9477TIP3    H128395   5.075   1.000   5.774  1.1359 -1.2687  1.1456
 9477TIP3    H228396   5.008   0.950   5.900  0.2048  2.0445  2.0683
 9478TIP3   OH228397   2.343   4.567   5.690 -0.0439  0.2138 -0.1035
 9478TIP3    H128398   2.372   4.624   5.619 -0.6890  2.1180  1.0957
 9478TIP3    H228399   2.420   4.558   5.746 -0.4277  1.4858  0.6711
 9479TIP3   OH228400   4.484   2.022   3.733 -0.8643  0.3208  0.4076
 9479TIP3    H128401   4.557   2.076   3.702 -0.0603 -1.0709 -0.2543
 9479TIP3    H228402   4.482   1.948   3.672 -1.0688 -1.0593  2.0084
 9480TIP3   OH228403   4.874   6.151   4.575 -0.1251 -0.0493 -0.0252
 9480TIP3    H128404   4.787   6.111   4.571  0.4950 -1.6268  1.3563
 9480TIP3    H228405   4.934   6.081   4.548  0.9376  0.0689  1.8809
 9481TIP3   OH228406   3.890   3.232   0.492 -0.0838  0.4717  0.8781
 9481TIP3    H128407   3.984   3.252   0.500 -0.3714  2.5789 -0.2509
 9481TIP3    H228408   3.883   3.190   0.406 -0.2427  0.7613  0.7510
 9482TIP3   OH228409   0.379   6.082   0.688 -0.4178 -0.2059 -0.4252
 9482TIP3    H128410   0.323   6.096   0.764 -0.7396  0.2514 -0.7407
 9482TIP3    H228411   0.419   5.997   0.703 -2.2407 -1.1803 -0.8265
 9483TIP3   OH228412   1.073   4.241   3.050 -0.3230 -0.0736  0.2241
 9483TIP3    H128413   1.119   4.179   2.994  4.4318  3.7795 -0.7764
 9483TIP3    H228414   1.074   4.200   3.137  1.4589 -1.9634 -0.6100
 9484TIP3   OH228415   0.513   5.323   2.060  0.0090  0.2291  0.3518
 9484TIP3    H128416   0.603   5.290   2.050  0.4271  1.6664 -1.0497
 9484TIP3    H228417   0.461   5.244   2.075  1.6035 -0.5563  2.3797
 9485TIP3   OH228418   5.887   3.918   3.873  0.1155  0.3518  0.2393
 9485TIP3    H128419   5.833   3.892   3.798  0.0832 -2.4631  1.1075
 9485TIP3    H228420   5.849   3.870   3.947  1.5976  1.1644  1.5894
 9486TIP3   OH228421   4.164   1.535   0.505 -0.0379  0.2611 -0.2920
 9486TIP3    H128422   4.145   1.442   0.499  0.0468  0.3134 -2.2802
 9486TIP3    H228423   4.083   1.574   0.538  0.2335 -0.5668  1.4810
 9487TIP3   OH228424   4.952   5.091   3.322  0.0941 -0.5510  0.3552
 9487TIP3    H128425   4.858   5.102   3.335 -0.0618 -0.7271 -0.5466
 9487TIP3    H228426   4.961   5.002   3.287  0.4621 -0.1066 -0.7354
 9488TIP3   OH228427   2.434   0.946   1.433 -0.1972  0.0485  0.8501
 9488TIP3    H128428   2.352   0.905   1.461 -0.2587 -0.6945 -0.3346
 9488TIP3    H228429   2.501   0.879   1.449 -0.1739 -0.2365 -0.3210
 9489TIP3   OH228430   3.375   3.297   0.543 -0.5525 -0.2967  0.3584
 9489TIP3    H128431   3.436   3.367   0.566 -0.5969 -0.4483  0.9563
 9489TIP3    H228432   3.308   3.300   0.611 -0.0255 -1.5493  0.9736
 9490TIP3   OH228433   0.171   0.904   4.816 -0.1798 -0.5277 -0.0165
 9490TIP3    H128434   0.158   0.940   4.729  0.5384  1.8352  0.7910
 9490TIP3    H228435   0.241   0.840   4.806  0.0336 -0.1394 -1.1434
 9491TIP3   OH228436   2.436   6.050   3.017  0.3992 -0.1640 -0.2899
 9491TIP3    H128437   2.459   6.071   3.108 -0.9004  0.9499 -0.1762
 9491TIP3    H228438   2.516   6.015   2.979  1.8646  2.1455  0.4766
 9492TIP3   OH228439   5.209   6.218   2.821 -0.2441  0.3726  0.3452
 9492TIP3    H128440   5.147   6.289   2.836 -0.6565 -0.3840  2.7012
 9492TIP3    H228441   5.154   6.142   2.804  0.0753  0.0440  0.7459
 9493TIP3   OH228442   4.704   4.503   0.192  0.8296  0.1011  0.1164
 9493TIP3    H128443   4.782   4.517   0.139  0.1608  0.6811 -0.7343
 9493TIP3    H228444   4.733   4.445   0.262  1.6852 -0.8172 -0.9680
 9494TIP3   OH228445   0.265   3.929   1.661 -0.2391  0.0504 -0.2966
 9494TIP3    H128446   0.335   3.901   1.719  0.1993  0.6800 -0.5107
 9494TIP3    H228447   0.216   3.849   1.642  0.6296 -0.4647 -0.4240
 9495TIP3   OH228448   5.478   4.431   5.801 -0.2801 -0.5549 -0.2398
 9495TIP3    H128449   5.515   4.419   5.888  1.1986  0.5493 -0.6686
 9495TIP3    H228450   5.456   4.343   5.771  2.5841 -1.4018 -0.1527
 9496TIP3   OH228451   4.196   1.644   4.075 -0.1105 -0.1279  0.0925
 9496TIP3    H128452   4.152   1.717   4.119 -0.8935 -0.1802 -0.5633
 9496TIP3    H228453   4.191   1.666   3.982  2.7297  0.6513  0.0537
 9497TIP3   OH228454   1.610   5.352   2.395  0.4884 -0.1533  0.4587
 9497TIP3    H128455   1.560   5.351   2.476 -0.6813 -0.0759 -0.2419
 9497TIP3    H228456   1.567   5.288   2.339  1.3718 -0.3172 -0.0540
 9498TIP3   OH228457   3.241   6.436   1.217  0.2393  0.9955 -0.0702
 9498TIP3    H128458   3.215   6.489   1.142 -0.3161  0.1371 -0.5072
 9498TIP3    H228459   3.336   6.431   1.212  0.1326 -0.6075 -1.8573
 9499TIP3   OH228460   5.472   0.598   3.594 -0.0152 -0.0324  0.0131
 9499TIP3    H128461   5.552   0.619   3.643 -0.0770 -2.1510  1.1409
 9499TIP3    H228462   5.500   0.533   3.530 -0.5610  0.3665 -0.6325
 9500TIP3   OH228463   1.469   4.672   1.235  0.1112 -0.4426 -0.1416
 9500TIP3    H128464   1.547   4.618   1.244 -0.6178 -1.6584 -0.9469
 9500TIP3    H228465   1.462   4.718   1.319  0.8581 -1.4473  0.4885
 9501TIP3   OH228466   5.032   0.929   4.912 -0.2460  0.0748 -0.4638
 9501TIP3    H128467   4.977   0.864   4.868 -0.7138  0.4399 -0.4291
 9501TIP3    H228468   5.105   0.943   4.851 -1.4578  1.4107 -1.6827
 9502TIP3   OH228469   4.233   3.744   4.843 -0.4104 -0.1699 -0.0768
 9502TIP3    H128470   4.246   3.757   4.750  0.6262  0.6916  0.1686
 9502TIP3    H228471   4.188   3.823   4.873  0.2247  0.0411  0.3338
 9503TIP3   OH228472   1.093   5.126   2.021 -0.1664  0.5034  0.0769
 9503TIP3    H128473   1.169   5.183   2.005  1.1612 -1.4938 -1.2444
 9503TIP3    H228474   1.044   5.128   1.939  0.2167 -0.6523 -0.2032
 9504TIP3   OH228475   2.507   1.652   5.175  0.2108  0.1179 -0.0490
 9504TIP3    H128476   2.502   1.571   5.125  1.2035 -0.4935  0.8195
 9504TIP3    H228477   2.487   1.626   5.265 -0.8926  1.0912  0.0168
 9505TIP3   OH228478   3.239   2.178   2.335 -0.0818  0.0497 -0.2536
 9505TIP3    H128479   3.293   2.102   2.355 -0.6224 -0.0553  0.8367
 9505TIP3    H228480   3.180   2.149   2.265  1.5772  0.3194 -1.8562
 9506TIP3   OH228481   5.741   5.119   1.781  0.0430 -0.1301 -0.4253
 9506TIP3    H128482   5.677   5.186   1.806  0.2911  0.5099 -1.4265
 9506TIP3    H228483   5.756   5.135   1.687  3.3756  1.2382  0.2253
 9507TIP3   OH228484   6.174   5.580   3.940 -0.0103 -0.0982  0.0405
 9507TIP3    H128485   6.248   5.527   3.970 -0.0769 -1.4910 -2.0615
 9507TIP3    H228486   6.212   5.642   3.878 -0.6463 -1.1711 -1.4500
 9508TIP3   OH228487   0.500   2.156   5.747  0.3241 -0.9498  0.4698
 9508TIP3    H128488   0.493   2.136   5.654 -0.9567  0.4014  0.2375
 9508TIP3    H228489   0.582   2.204   5.756 -0.8565  1.4123 -0.5118
 9509TIP3   OH228490   5.035   6.047   0.748 -0.4221  0.2421 -0.1582
 9509TIP3    H128491   4.958   6.032   0.694  0.0032  0.5965 -0.8965
 9509TIP3    H228492   5.016   6.129   0.794 -1.2344 -0.6274  1.0731
 9510TIP3   OH228493   7.048   4.262   0.745 -0.3165  0.0918 -0.6111
 9510TIP3    H128494   7.049   4.353   0.777  0.0783 -0.3233  0.6155
 9510TIP3    H228495   6.956   4.238   0.743 -0.3256 -0.2906  1.5710
 9511TIP3   OH228496   3.668   6.102   3.148  0.3747  0.5125  0.4459
 9511TIP3    H128497   3.699   6.073   3.233  0.3422  0.6864  0.5164
 9511TIP3    H228498   3.715   6.047   3.085 -0.3123 -0.2781  0.6062
 9512TIP3   OH228499   1.107   2.599   0.874  0.1762 -0.0993  0.5949
 9512TIP3    H128500   1.085   2.627   0.785 -0.7081  1.4309  1.2546
 9512TIP3    H228501   1.080   2.673   0.929  0.2741 -1.2080  2.1745
 9513TIP3   OH228502   0.768   0.799   3.487 -0.2422  0.0472  0.4742
 9513TIP3    H128503   0.782   0.847   3.568 -1.3906 -0.0852  0.7566
 9513TIP3    H228504   0.676   0.775   3.488 -0.4689  0.7189 -1.2480
 9514TIP3   OH228505   6.710   4.812   0.212 -0.3978 -0.1812  0.7976
 9514TIP3    H128506   6.756   4.896   0.209 -1.0588  0.1996  1.1517
 9514TIP3    H228507   6.776   4.750   0.243 -0.5639  0.6850  3.0638
 9515TIP3   OH228508   1.461   5.912   3.156  0.0985  0.2362  0.3321
 9515TIP3    H128509   1.449   5.835   3.102  1.6934  0.8629 -0.9965
 9515TIP3    H228510   1.556   5.921   3.166 -0.0932  1.2853  1.5499
 9516TIP3   OH228511   6.531   3.865   0.515  0.0794 -0.4679  0.3375
 9516TIP3    H128512   6.530   3.822   0.600 -1.5852  2.4339  1.9183
 9516TIP3    H228513   6.440   3.864   0.486  0.3913 -0.1211 -0.7163
 9517TIP3   OH228514   5.014   4.864   4.712 -0.1466  0.0232  0.3595
 9517TIP3    H128515   5.002   4.790   4.653 -1.0849  1.5289 -1.4306
 9517TIP3    H228516   4.928   4.876   4.753  0.7726 -1.7976  3.1862
 9518TIP3   OH228517   1.283   4.033   2.001  0.5451  0.2939 -0.0357
 9518TIP3    H128518   1.378   4.049   2.002  0.3542  1.6571 -0.9601
 9518TIP3    H228519   1.255   4.053   2.091  0.9743  1.0391 -0.0552
 9519TIP3   OH228520   4.680   2.073   0.632  0.2251  0.0317 -0.1494
 9519TIP3    H128521   4.631   1.991   0.637 -0.1118  0.2765  0.8015
 9519TIP3    H228522   4.756   2.060   0.688  0.0177  0.4666  0.2396
 9520TIP3   OH228523   1.248   1.598   5.121  0.0722  0.1520 -0.1693
 9520TIP3    H128524   1.159   1.607   5.156 -0.6728 -0.0728 -1.9338
 9520TIP3    H228525   1.297   1.669   5.162 -1.0111  0.5073  0.5409
 9521TIP3   OH228526   2.428   3.525   5.646 -0.0513 -0.0787 -0.1888
 9521TIP3    H128527   2.382   3.502   5.727 -0.3746  2.3564  0.3980
 9521TIP3    H228528   2.515   3.551   5.675 -0.6664  2.4050 -0.3196
 9522TIP3   OH228529   4.682   3.005   2.990 -0.0853 -0.3545  0.4861
 9522TIP3    H128530   4.741   3.077   2.969  1.0864 -0.6269  2.5955
 9522TIP3    H228531   4.707   2.935   2.930 -1.0548  0.8335 -1.4078
 9523TIP3   OH228532   3.317   0.406   3.626 -0.2840  0.1737  0.1303
 9523TIP3    H128533   3.225   0.407   3.652 -0.4163 -3.1371  0.2396
 9523TIP3    H228534   3.355   0.335   3.678  2.6054  2.0276  0.7566
 9524TIP3   OH228535   6.901   2.414   3.334  0.6738 -0.2023 -0.5098
 9524TIP3    H128536   6.856   2.362   3.400  0.5669  1.3367  0.6907
 9524TIP3    H228537   6.863   2.501   3.343  1.4461  0.3009 -1.8662
 9525TIP3   OH228538   2.413   5.642   3.977  0.0753  0.0515  0.2706
 9525TIP3    H128539   2.357   5.711   4.012  0.1844 -0.5155  1.6188
 9525TIP3    H228540   2.354   5.584   3.930 -0.5970 -0.7436  1.9818
 9526TIP3   OH228541   5.625   1.041   3.094 -0.2116  0.4164  0.1511
 9526TIP3    H128542   5.719   1.051   3.107  0.4625 -0.3774 -3.1666
 9526TIP3    H228543   5.595   0.994   3.172  1.6259  2.6555  2.3852
 9527TIP3   OH228544   5.663   1.764   0.030 -0.5024  0.2858  0.0963
 9527TIP3    H128545   5.604   1.820   0.081 -0.7516  1.2324 -1.1840
 9527TIP3    H228546   5.751   1.795   0.053 -0.6366  1.2705 -0.6202
 9528TIP3   OH228547   0.268   6.372   3.784  0.1236 -0.2046 -0.4139
 9528TIP3    H128548   0.327   6.442   3.810 -0.7514  0.2504  0.4026
 9528TIP3    H228549   0.324   6.310   3.737  1.1655  0.3935  0.0011
 9529TIP3   OH228550   4.468   1.919   3.295 -0.4777  0.5979  0.2915
 9529TIP3    H128551   4.518   1.970   3.358  0.1973  0.9265 -0.4989
 9529TIP3    H228552   4.496   1.828   3.309  0.6708  0.8273 -0.4313
 9530TIP3   OH228553   1.756   2.801   1.163 -0.1834  0.1033 -0.0622
 9530TIP3    H128554   1.840   2.758   1.149  0.0159  0.5662 -0.2997
 9530TIP3    H228555   1.753   2.871   1.098 -1.0264 -0.2952 -0.4669
 9531TIP3   OH228556   2.726   2.037   2.128  0.1588  0.3274  0.8257
 9531TIP3    H128557   2.728   1.955   2.177  1.1671  0.6673  1.3796
 9531TIP3    H228558   2.695   2.013   2.041 -1.6121 -0.3099  1.5814
 9532TIP3   OH228559   2.284   6.592   2.253  0.0837  0.1117  0.0278
 9532TIP3    H128560   2.296   6.505   2.215  1.0095  0.5293 -0.6797
 9532TIP3    H228561   2.251   6.646   2.181  0.4574  0.5703  0.1933
 9533TIP3   OH228562   0.907   2.095   2.202 -0.1232  0.1681  0.1902
 9533TIP3    H128563   0.888   2.034   2.131 -1.3206  0.6241  0.0892
 9533TIP3    H228564   1.003   2.100   2.204 -0.0500 -0.1638 -1.1268
 9534TIP3   OH228565   5.514   0.729   0.814 -0.5428 -0.1928  0.2383
 9534TIP3    H128566   5.470   0.648   0.839 -1.4465  0.8959  2.4321
 9534TIP3    H228567   5.607   0.710   0.823 -0.7653 -0.8102  1.3959
 9535TIP3   OH228568   0.061   0.716   2.952  1.1320 -0.0267 -0.0723
 9535TIP3    H128569   0.143   0.685   2.914  1.5581  0.9258  0.0546
 9535TIP3    H228570   0.041   0.654   3.022  1.8970 -0.0830  0.0946
 9536TIP3   OH228571   4.562   4.617   4.631  0.1054  0.8128 -0.3123
 9536TIP3    H128572   4.497   4.653   4.571  0.8445  0.7013 -1.1851
 9536TIP3    H228573   4.538   4.653   4.716 -2.3334 -0.7929 -0.2066
 9537TIP3   OH228574   6.804   6.669   4.098 -0.5226  0.3260  0.1012
 9537TIP3    H128575   6.869   6.654   4.030 -0.0105  2.0151  0.1619
 9537TIP3    H228576   6.750   6.590   4.098 -0.9507  0.5062 -2.7165
 9538TIP3   OH228577   1.145   2.667   1.769  0.4812  0.0688  0.1869
 9538TIP3    H128578   1.059   2.624   1.765  0.2266  0.6469 -1.2243
 9538TIP3    H228579   1.147   2.709   1.855  0.5112 -2.2356  1.3734
 9539TIP3   OH228580   6.582   3.693   2.129 -0.1956  0.5681  0.5343
 9539TIP3    H128581   6.635   3.699   2.208 -0.3872  2.1410  0.5762
 9539TIP3    H228582   6.599   3.605   2.095 -0.0732 -0.1196  2.2826
 9540TIP3   OH228583   3.378   1.497   1.946 -0.1571 -0.4870 -0.2076
 9540TIP3    H128584   3.406   1.577   1.991 -0.5371  0.7724 -2.1008
 9540TIP3    H228585   3.407   1.426   2.004  1.5889  0.9412  0.7893
 9541TIP3   OH228586   4.206   3.835   4.537  0.6748  0.5283  0.2901
 9541TIP3    H128587   4.162   3.752   4.518 -0.0208  0.6110  1.4614
 9541TIP3    H228588   4.139   3.889   4.579  1.3835  1.3449  0.4016
 9542TIP3   OH228589   6.574   1.879   4.284  0.2785 -0.4172 -0.2649
 9542TIP3    H128590   6.571   1.967   4.247 -1.4663 -0.4427 -0.2487
 9542TIP3    H228591   6.483   1.859   4.306  0.4838 -2.5720 -1.1000
 9543TIP3   OH228592   0.341   1.870   1.464  0.0838 -0.9735 -0.1627
 9543TIP3    H128593   0.383   1.913   1.538  2.2438 -1.8675 -0.7692
 9543TIP3    H228594   0.356   1.776   1.479  0.0796 -1.2009 -1.4278
 9544TIP3   OH228595   6.388   4.265   3.005 -0.5596  0.0260  0.0316
 9544TIP3    H128596   6.354   4.255   2.916  1.0853 -2.6545 -0.4157
 9544TIP3    H228597   6.460   4.327   2.996  0.3689 -1.1345 -0.7889
 9545TIP3   OH228598   5.257   0.390   1.898 -0.0631 -0.0214  1.0573
 9545TIP3    H128599   5.238   0.297   1.888  1.0394 -0.2033  0.4854
 9545TIP3    H228600   5.269   0.422   1.809  0.1994  0.5312  1.2872
 9546TIP3   OH228601   3.761   2.121   1.331  0.1680 -0.4797  0.1419
 9546TIP3    H128602   3.667   2.138   1.327  0.0915 -1.0341 -0.6162
 9546TIP3    H228603   3.780   2.114   1.425 -0.9260 -2.3745  0.2557
 9547TIP3   OH228604   1.650   2.098   0.505  0.0093 -0.0486  0.1328
 9547TIP3    H128605   1.611   2.155   0.571 -0.5974  0.3443 -0.5615
 9547TIP3    H228606   1.684   2.157   0.438  1.6741 -0.3802  0.6280
 9548TIP3   OH228607   1.899   1.747   3.269 -0.1599 -0.4908  0.8788
 9548TIP3    H128608   1.947   1.810   3.215  1.3891 -1.0890  1.5275
 9548TIP3    H228609   1.852   1.801   3.333  0.9717  0.0229  1.2879
 9549TIP3   OH228610   2.734   4.498   1.031 -0.5766 -0.2922  0.3009
 9549TIP3    H128611   2.704   4.587   1.045  0.6050  0.0954  0.5358
 9549TIP3    H228612   2.737   4.458   1.118 -2.0592 -0.9129  0.0990
 9550TIP3   OH228613   3.923   4.966   5.875 -0.2740 -0.2353  0.0837
 9550TIP3    H128614   3.940   5.058   5.893  1.0206 -0.5809  0.8189
 9550TIP3    H228615   3.918   4.960   5.780 -0.4237  0.6053  0.0367
 9551TIP3   OH228616   2.716   0.045   1.015  0.0699  0.0194 -0.2107
 9551TIP3    H128617   2.734  -0.023   0.950  1.1253  0.2334 -0.1642
 9551TIP3    H228618   2.725   0.127   0.966  1.5991  0.2115  0.3423
 9552TIP3   OH228619   6.280   4.136   4.411  0.1189 -0.6040 -0.1153
 9552TIP3    H128620   6.348   4.154   4.476 -1.5700  0.3847  1.4561
 9552TIP3    H228621   6.243   4.221   4.391 -1.1748 -1.2059 -0.3637
 9553TIP3   OH228622   0.464   3.178   0.219 -0.0002  0.0933  0.2130
 9553TIP3    H128623   0.510   3.097   0.240  0.9041  0.7775  0.9526
 9553TIP3    H228624   0.531   3.246   0.225 -0.9229  1.0027  0.4760
 9554TIP3   OH228625   4.679   5.150   2.152  0.0520 -0.2009  0.0828
 9554TIP3    H128626   4.765   5.109   2.142  0.1351 -0.6102  1.9702
 9554TIP3    H228627   4.692   5.241   2.125  0.4276 -0.8150 -1.9888
 9555TIP3   OH228628   4.863   2.329   2.062 -0.0982  0.4224 -0.4625
 9555TIP3    H128629   4.846   2.378   2.143  0.7287 -1.0275  0.6302
 9555TIP3    H228630   4.911   2.391   2.006  1.1239  0.8163  0.9633
 9556TIP3   OH228631   3.208   6.741   5.810  0.1039  0.1259 -0.3136
 9556TIP3    H128632   3.263   6.820   5.807 -0.3357  0.5009  0.8475
 9556TIP3    H228633   3.176   6.731   5.721  1.0824  0.6062 -0.7327
 9557TIP3   OH228634   1.806   5.997   3.472  0.8464 -0.4210  0.1517
 9557TIP3    H128635   1.898   6.017   3.487  0.3106  1.1330  1.7102
 9557TIP3    H228636   1.779   6.061   3.406  0.5747 -0.0045  0.6648
 9558TIP3   OH228637   2.506   4.068   5.740 -0.0496  0.2187 -0.3082
 9558TIP3    H128638   2.585   4.071   5.794  1.7499 -1.1485 -2.6945
 9558TIP3    H228639   2.449   4.005   5.785  1.4456 -0.9897 -0.0050
 9559TIP3   OH228640   4.204   6.442   1.422  0.0658 -0.1102 -0.0917
 9559TIP3    H128641   4.282   6.497   1.424 -0.2755  0.3689  0.6318
 9559TIP3    H228642   4.144   6.483   1.484 -0.4618 -0.9125 -0.0490
 9560TIP3   OH228643   0.494   1.559   3.059 -0.0655  0.3154  0.2805
 9560TIP3    H128644   0.498   1.469   3.092 -0.7393  0.0379 -0.3648
 9560TIP3    H228645   0.423   1.558   2.995 -0.1746  1.3455  0.3672
 9561TIP3   OH228646   3.631   1.755   4.241 -0.3789  0.4407 -0.1565
 9561TIP3    H128647   3.584   1.780   4.320 -1.6041  0.2098 -0.7847
 9561TIP3    H228648   3.571   1.774   4.170  0.6838  0.6014 -1.0430
 9562TIP3   OH228649   6.200   5.406   5.100  0.3955  0.0160  0.4057
 9562TIP3    H128650   6.201   5.500   5.121  0.9212 -0.0167  0.5396
 9562TIP3    H228651   6.254   5.399   5.022 -1.2094  0.0771 -0.7742
 9563TIP3   OH228652   5.003   0.064   4.975  0.2159  0.5184  0.1612
 9563TIP3    H128653   4.936  -0.001   4.992  1.1067 -0.3692  0.3784
 9563TIP3    H228654   5.058   0.063   5.053  0.1787  1.6226  0.2151
 9564TIP3   OH228655   2.018   1.124   0.247 -0.2744 -0.7030  0.4523
 9564TIP3    H128656   2.064   1.043   0.269  1.8340  0.2622 -0.1758
 9564TIP3    H228657   2.004   1.118   0.152 -1.4165 -0.9386  0.6189
 9565TIP3   OH228658   0.901   2.479   3.660 -0.5327  0.4350 -0.1993
 9565TIP3    H128659   0.927   2.391   3.634  0.6835  0.5933  0.3861
 9565TIP3    H228660   0.956   2.537   3.606  2.0767  0.7728  2.5146
 9566TIP3   OH228661   6.059   6.082   0.256  0.5102 -0.3148 -0.2034
 9566TIP3    H128662   6.104   6.141   0.195  0.4097 -0.7074 -0.6652
 9566TIP3    H228663   6.001   6.030   0.201 -1.4810  1.0176  0.5066
 9567TIP3   OH228664   5.336   5.018   0.704  0.2269  0.2984  0.7578
 9567TIP3    H128665   5.346   4.979   0.618  1.3943  2.0719  0.0268
 9567TIP3    H228666   5.385   5.101   0.699 -0.5092  0.9279  2.7996
 9568TIP3   OH228667   3.613   4.273   2.043 -0.4341 -0.5191 -0.4667
 9568TIP3    H128668   3.651   4.352   2.006  0.4635  0.9107  3.0925
 9568TIP3    H228669   3.531   4.302   2.083 -0.0591 -1.3159  0.9511
 9569TIP3   OH228670   4.550   5.614   1.565  0.5701  0.1190  0.3060
 9569TIP3    H128671   4.512   5.614   1.477  0.6506  2.5470  0.2196
 9569TIP3    H228672   4.529   5.527   1.600  0.6467 -0.9618 -2.1229
 9570TIP3   OH228673   5.762   5.946   5.754  0.2231  0.1197  0.4510
 9570TIP3    H128674   5.668   5.943   5.736  0.0394 -0.0317  1.3715
 9570TIP3    H228675   5.774   5.886   5.827  1.0910 -0.0925  0.1377
 9571TIP3   OH228676   3.424   4.333   2.208 -0.0606  0.0879  0.5695
 9571TIP3    H128677   3.391   4.390   2.139  1.5741 -1.5242 -1.6992
 9571TIP3    H228678   3.468   4.392   2.269 -1.6639  1.5707  0.3784
 9572TIP3   OH228679   3.511   2.714   5.188 -0.3483 -0.1352  0.6164
 9572TIP3    H128680   3.552   2.630   5.166 -0.9390 -0.1202 -0.6010
 9572TIP3    H228681   3.429   2.714   5.139 -0.5912  0.9477  1.0010
 9573TIP3   OH228682   6.357   0.463   3.509 -0.4133 -0.6522  0.4884
 9573TIP3    H128683   6.288   0.527   3.527  0.0753 -0.3852  1.4794
 9573TIP3    H228684   6.385   0.433   3.595  0.9468 -0.5032  0.1254
 9574TIP3   OH228685   6.959   5.649   4.166 -0.6454 -0.3108 -0.0050
 9574TIP3    H128686   6.956   5.712   4.238 -2.2433  0.7600 -0.9441
 9574TIP3    H228687   6.951   5.563   4.209  1.4659  0.0687  1.2813
 9575TIP3   OH228688   3.612   5.464   2.689 -0.3713  0.5221  0.1308
 9575TIP3    H128689   3.574   5.550   2.676 -0.3117  0.3148 -1.5956
 9575TIP3    H228690   3.593   5.416   2.608  2.4558  0.0183 -0.3410
 9576TIP3   OH228691   0.665   5.915   1.401  0.1643  0.0563 -0.4191
 9576TIP3    H128692   0.699   5.990   1.353  0.8018  0.0742  0.0360
 9576TIP3    H228693   0.681   5.937   1.493 -2.0830  0.5408 -0.0935
 9577TIP3   OH228694   0.121   6.794   3.528 -0.3833 -0.1543  0.1374
 9577TIP3    H128695   0.127   6.703   3.558  1.2431  0.1344  0.7464
 9577TIP3    H228696   0.084   6.787   3.439 -0.4244 -1.3827  0.2284
 9578TIP3   OH228697   1.065   5.025   3.933  0.5159  0.3360  0.2026
 9578TIP3    H128698   0.972   5.006   3.934  0.4883  0.4587  0.0745
 9578TIP3    H228699   1.107   4.943   3.907  0.5431 -0.0988  1.5309
 9579TIP3   OH228700   5.323   6.201   1.059 -0.0427 -0.3006  0.7475
 9579TIP3    H128701   5.376   6.213   1.138 -0.4653  2.1737  0.7202
 9579TIP3    H228702   5.237   6.177   1.091 -0.8112  2.7799  1.2649
 9580TIP3   OH228703   0.877   4.059   3.205 -0.2993  0.2126  0.1417
 9580TIP3    H128704   0.970   4.046   3.219  0.0719  0.9189 -1.4632
 9580TIP3    H228705   0.858   4.142   3.249  0.4896  1.5500 -1.8969
 9581TIP3   OH228706   0.315   3.223   2.620  0.1092  0.4281 -0.1301
 9581TIP3    H128707   0.265   3.142   2.631  1.3411 -0.0761  2.5498
 9581TIP3    H228708   0.249   3.289   2.602 -0.9645 -1.0320 -2.0302
 9582TIP3   OH228709   1.678   0.322   1.668  0.1593  0.3002  0.0978
 9582TIP3    H128710   1.635   0.407   1.673  0.5342  0.5890 -1.2240
 9582TIP3    H228711   1.608   0.259   1.651 -0.0511  0.4164  0.5383
 9583TIP3   OH228712   5.535   4.844   5.448 -0.4144 -0.4129 -0.4187
 9583TIP3    H128713   5.587   4.782   5.397 -1.3539 -1.8742  0.3200
 9583TIP3    H228714   5.545   4.814   5.539 -2.0527 -0.3799 -0.2092
 9584TIP3   OH228715   2.299   0.730   0.755  0.2484 -0.3379 -0.1621
 9584TIP3    H128716   2.286   0.747   0.848 -0.1303  1.4170 -0.4946
 9584TIP3    H228717   2.327   0.814   0.719 -0.2779 -0.7945 -1.7438
 9585TIP3   OH228718   0.011   2.509   0.069  0.3772  0.2021 -0.2290
 9585TIP3    H128719   0.068   2.432   0.064 -1.5320 -1.3398  0.6390
 9585TIP3    H228720  -0.075   2.474   0.090 -0.0585  2.7750  3.0065
 9586TIP3   OH228721   2.217   2.319   1.794 -0.2229  0.1046  0.1157
 9586TIP3    H128722   2.294   2.370   1.768 -0.5817  0.2644 -0.6731
 9586TIP3    H228723   2.232   2.232   1.757 -0.3322  0.0804  0.1282
 9587TIP3   OH228724   5.226   4.492   0.922 -0.4875 -0.2367 -0.1797
 9587TIP3    H128725   5.214   4.517   1.014 -0.6390 -0.9991  0.0159
 9587TIP3    H228726   5.305   4.437   0.923 -1.1948 -1.2647 -0.3110
 9588TIP3   OH228727   2.886   5.180   4.093 -0.5472 -0.2063 -0.4029
 9588TIP3    H128728   2.952   5.126   4.135 -0.7801 -0.3498 -0.2262
 9588TIP3    H228729   2.868   5.136   4.010 -0.2956 -0.0737 -0.5304
 9589TIP3   OH228730   4.857   3.331   1.380  0.3020 -0.0008 -0.1936
 9589TIP3    H128731   4.764   3.353   1.375  0.3406  0.6101  1.3154
 9589TIP3    H228732   4.872   3.312   1.472  1.9436  1.1683 -0.1821
 9590TIP3   OH228733   6.627   6.509   5.209 -0.6668  0.4135  0.0753
 9590TIP3    H128734   6.616   6.603   5.195 -1.9508  0.0990 -1.3217
 9590TIP3    H228735   6.713   6.490   5.170 -1.2792  0.7013 -1.4909
 9591TIP3   OH228736   3.897   4.350   1.096 -0.2239  0.2754  0.7396
 9591TIP3    H128737   3.835   4.406   1.048 -0.7325 -0.1987  0.8358
 9591TIP3    H228738   3.872   4.261   1.074 -0.1205  0.0597  1.4538
 9592TIP3   OH228739   1.888   4.107  -0.010  0.9770  0.1063 -0.0063
 9592TIP3    H128740   1.976   4.102   0.025  1.1261 -0.4921 -0.4548
 9592TIP3    H228741   1.866   4.201  -0.008  1.5756  0.2422  0.2006
 9593TIP3   OH228742   2.374   3.290   2.972 -0.3594  0.4203  0.2556
 9593TIP3    H128743   2.318   3.296   3.050 -0.8553  0.3398 -0.0876
 9593TIP3    H228744   2.336   3.218   2.921  0.2195  0.1905  0.1415
 9594TIP3   OH228745   2.312   1.076   5.378 -0.2302  0.4152 -0.2413
 9594TIP3    H128746   2.284   1.006   5.437  1.2036  0.0222 -0.0011
 9594TIP3    H228747   2.315   1.154   5.433 -0.2708  0.3444 -0.1369
 9595TIP3   OH228748   0.187   4.603   4.365 -0.0855 -0.0953 -0.1248
 9595TIP3    H128749   0.210   4.692   4.390  1.2293 -0.7493  1.0773
 9595TIP3    H228750   0.190   4.553   4.446 -0.6501 -1.2813 -0.8035
 9596TIP3   OH228751   0.746   3.611   0.536  0.1777 -0.1366  0.2253
 9596TIP3    H128752   0.829   3.583   0.574  0.3521  1.0560  0.7528
 9596TIP3    H228753   0.752   3.707   0.533 -0.6778 -0.0974 -0.8784
 9597TIP3   OH228754   5.598   0.585   2.284 -0.5581 -0.8046 -0.2393
 9597TIP3    H128755   5.682   0.582   2.329 -0.0927 -0.1942 -1.0280
 9597TIP3    H228756   5.533   0.572   2.353  0.1645 -0.8658  0.4461
 9598TIP3   OH228757   4.119   0.300   5.178 -0.2649  0.1458 -0.6873
 9598TIP3    H128758   4.023   0.292   5.177 -0.3364  0.8852 -2.2712
 9598TIP3    H228759   4.135   0.392   5.157  0.8056 -0.0720 -0.8652
 9599TIP3   OH228760   3.961   0.801   0.255  0.2970 -0.0142 -0.2509
 9599TIP3    H128761   3.897   0.800   0.183 -0.1994 -0.8070  0.1887
 9599TIP3    H228762   3.980   0.709   0.272  0.1103  0.1439  0.8957
 9600TIP3   OH228763   4.680   1.788   2.080 -0.1501  0.1134 -0.2664
 9600TIP3    H128764   4.763   1.836   2.082 -0.2551  0.2761  0.6405
 9600TIP3    H228765   4.696   1.715   2.021  0.5382  0.3347 -0.3627
 9601TIP3   OH228766   0.659   1.998   1.507  0.6848 -0.1584  0.0762
 9601TIP3    H128767   0.647   2.079   1.458  0.8381 -1.0274 -1.4730
 9601TIP3    H228768   0.596   2.003   1.579 -1.2020  0.1988 -1.5220
 9602TIP3   OH228769   4.532   0.627   5.702 -0.1743  0.3984  0.3496
 9602TIP3    H128770   4.588   0.691   5.658  0.9838 -0.0271  1.1582
 9602TIP3    H228771   4.593   0.564   5.741 -1.0039  1.3024  3.4507
 9603TIP3   OH228772   2.678   2.322   1.048  0.2851 -0.3827  0.3022
 9603TIP3    H128773   2.684   2.252   0.982 -1.0867  0.3760 -0.6908
 9603TIP3    H228774   2.763   2.365   1.045  0.7718 -1.3180  0.1457
 9604TIP3   OH228775   6.758   6.655   1.362 -0.2339  0.4993 -0.6551
 9604TIP3    H128776   6.795   6.699   1.285  1.3846 -0.0673 -0.2509
 9604TIP3    H228777   6.816   6.681   1.434 -0.7543 -0.2762  0.0528
 9605TIP3   OH228778   3.475   5.493   0.148  0.2213 -0.2740  0.4483
 9605TIP3    H128779   3.419   5.452   0.082  0.2471  0.3569  0.0216
 9605TIP3    H228780   3.484   5.427   0.216 -0.4634 -0.6421  0.1932
 9606TIP3   OH228781   7.183   3.226   0.641 -0.1766 -0.2092  0.3070
 9606TIP3    H128782   7.109   3.191   0.690 -1.6801 -1.2229 -2.4413
 9606TIP3    H228783   7.165   3.201   0.550  2.0532  2.1103 -0.8938
 9607TIP3   OH228784   1.415   4.671   4.386 -0.0211  0.2902 -0.1151
 9607TIP3    H128785   1.492   4.651   4.334  0.7191  1.6120  0.4301
 9607TIP3    H228786   1.431   4.629   4.470 -0.9172 -1.2792 -0.6751
 9608TIP3   OH228787   4.409   2.251   5.156  0.0195 -0.5430 -0.2790
 9608TIP3    H128788   4.465   2.325   5.131  0.7844 -1.2028 -0.5455
 9608TIP3    H228789   4.398   2.261   5.251 -0.7527  0.4982 -0.4537
 9609TIP3   OH228790   5.046   5.455   4.040 -0.1724 -0.9479 -0.3886
 9609TIP3    H128791   5.132   5.425   4.072  0.1775  0.7516  0.3826
 9609TIP3    H228792   5.066   5.506   3.962 -0.4261 -0.2361  0.0031
 9610TIP3   OH228793   0.781   5.503   4.473 -0.1401  0.0172 -0.2228
 9610TIP3    H128794   0.717   5.556   4.426 -0.0546 -0.1273 -0.5098
 9610TIP3    H228795   0.766   5.414   4.441  2.0824  0.3524 -2.5251
 9611TIP3   OH228796   0.877   2.117   2.511 -0.2192  0.1037 -0.2839
 9611TIP3    H128797   0.823   2.150   2.439 -1.2290  0.9751  0.8159
 9611TIP3    H228798   0.817   2.063   2.563  0.5878 -0.8069 -0.2880
 9612TIP3   OH228799   0.714   0.933   1.804 -0.1402 -0.3672  0.0148
 9612TIP3    H128800   0.730   1.027   1.792  1.4713 -0.5386  0.6956
 9612TIP3    H228801   0.657   0.928   1.881  1.4531 -0.0167  1.2719
 9613TIP3   OH228802   3.031   1.404   1.247 -0.3084 -0.4692  0.7614
 9613TIP3    H128803   3.110   1.392   1.193 -0.7358 -0.7950  0.2017
 9613TIP3    H228804   3.025   1.324   1.299 -1.3376 -1.3320 -0.6076
 9614TIP3   OH228805   5.735   1.225   0.386  0.0255  0.0409  0.5859
 9614TIP3    H128806   5.819   1.221   0.432  0.3166 -1.4357 -0.0450
 9614TIP3    H228807   5.742   1.303   0.331  0.8803  0.0772  0.7292
 9615TIP3   OH228808   1.389   1.677   4.162 -0.4459 -0.2681  0.0023
 9615TIP3    H128809   1.454   1.673   4.231 -0.5309  0.6875  0.1564
 9615TIP3    H228810   1.344   1.760   4.176 -0.3173  0.0608 -1.3263
 9616TIP3   OH228811   3.290   5.060   5.806 -0.0828  0.2051  0.3261
 9616TIP3    H128812   3.374   5.101   5.826 -0.3393 -0.0467  2.1138
 9616TIP3    H228813   3.301   4.969   5.833 -0.8959  0.1545  0.5042
 9617TIP3   OH228814   0.527   2.135   0.552  0.2129  1.0198  0.5414
 9617TIP3    H128815   0.445   2.088   0.567 -0.5445  1.1084 -2.7581
 9617TIP3    H228816   0.584   2.106   0.624 -0.6824 -3.7676 -0.3029
 9618TIP3   OH228817   0.066   3.760   1.810  0.0867 -0.2862  0.0921
 9618TIP3    H128818   0.058   3.722   1.723  1.0175 -1.6533  0.5497
 9618TIP3    H228819  -0.021   3.752   1.849 -0.0674 -0.6758 -0.3284
 9619TIP3   OH228820   5.512   0.166   1.655  0.1234  0.0322 -0.3803
 9619TIP3    H128821   5.453   0.208   1.591 -0.7227  0.0962  0.4207
 9619TIP3    H228822   5.565   0.238   1.688 -1.4006  0.5640  1.0732
 9620TIP3   OH228823   5.336   2.654   0.837  0.1194 -0.4248  0.2153
 9620TIP3    H128824   5.287   2.589   0.787  0.6090 -0.8089  0.2314
 9620TIP3    H228825   5.323   2.629   0.929  0.1588 -0.3919  0.2301
 9621TIP3   OH228826   1.964   1.246   1.586 -0.0127  0.3229 -0.0049
 9621TIP3    H128827   1.903   1.221   1.655 -1.3976 -0.0150 -1.3014
 9621TIP3    H228828   1.918   1.312   1.535  0.4865 -0.2884 -1.3055
 9622TIP3   OH228829   1.308   2.867   5.103  0.0501 -0.3756  0.1333
 9622TIP3    H128830   1.313   2.778   5.069  1.9782 -0.3562  0.2799
 9622TIP3    H228831   1.217   2.876   5.133 -1.1290 -1.1757 -2.7819
 9623TIP3   OH228832   2.100   6.448   4.119  0.6381  0.1009  0.0548
 9623TIP3    H128833   2.019   6.422   4.076  1.1808 -0.7735 -0.4814
 9623TIP3    H228834   2.146   6.366   4.135 -0.1414  0.1831  3.6788
 9624TIP3   OH228835   0.768   0.783   1.151  0.2590 -0.3333  0.3250
 9624TIP3    H128836   0.816   0.863   1.169 -0.4399 -0.3339  2.4306
 9624TIP3    H228837   0.682   0.797   1.190  0.4661 -2.4769  1.7347
 9625TIP3   OH228838   1.103   6.290   2.259 -0.4656  0.1629 -0.1670
 9625TIP3    H128839   1.145   6.373   2.285  0.1594  0.0087 -0.6569
 9625TIP3    H228840   1.064   6.258   2.340 -0.3044  0.7044  0.1374
 9626TIP3   OH228841   0.807   0.309   3.984 -0.2735 -0.0247 -0.2126
 9626TIP3    H128842   0.835   0.220   3.962  0.5164  0.2319 -0.2799
 9626TIP3    H228843   0.887   0.361   3.978 -0.1037  0.1979  2.7112
 9627TIP3   OH228844   5.763   2.179   4.592 -0.0460  0.9807  0.3758
 9627TIP3    H128845   5.681   2.162   4.638 -0.5501  0.2756 -0.7169
 9627TIP3    H228846   5.751   2.264   4.550 -0.2322  0.8673  0.1985
 9628TIP3   OH228847   1.182   4.461   1.403 -0.4314 -0.1340 -0.0100
 9628TIP3    H128848   1.125   4.454   1.327 -0.1284 -0.4506 -0.2134
 9628TIP3    H228849   1.169   4.550   1.434 -1.3801 -0.3456  0.2283
 9629TIP3   OH228850   4.735   0.199   4.844  0.3989  0.2297  0.0318
 9629TIP3    H128851   4.753   0.173   4.753  0.4977 -1.5509  0.5212
 9629TIP3    H228852   4.813   0.247   4.871 -0.4669  2.6963 -1.4305
 9630TIP3   OH228853   4.135   6.076   5.079 -0.0852  0.3563 -0.6396
 9630TIP3    H128854   4.221   6.116   5.092 -0.6479  1.4430 -0.1279
 9630TIP3    H228855   4.127   6.066   4.984  0.5410  0.3771 -0.6976
 9631TIP3   OH228856   0.968   6.252   4.649 -0.2592 -0.5118 -0.2137
 9631TIP3    H128857   0.876   6.238   4.669 -0.1426  0.9136  1.5953
 9631TIP3    H228858   1.013   6.177   4.689 -0.6251 -1.3234 -1.2911
 9632TIP3   OH228859   4.394   4.812   4.265 -0.2325  0.0214 -0.1636
 9632TIP3    H128860   4.489   4.820   4.255  0.1406 -1.0233  2.0461
 9632TIP3    H228861   4.365   4.902   4.285  0.9291 -0.1837  3.1100
 9633TIP3   OH228862   1.044   5.980   1.318  0.3797 -0.5604  0.4937
 9633TIP3    H128863   1.066   6.032   1.241 -0.3168 -1.1493 -0.1130
 9633TIP3    H228864   1.047   5.889   1.288 -0.9786 -0.7553  0.8583
 9634TIP3   OH228865   1.588   3.673   4.071 -0.2256  0.1917 -0.1320
 9634TIP3    H128866   1.625   3.594   4.031 -1.4996 -1.7161  2.2100
 9634TIP3    H228867   1.613   3.744   4.011  2.6886 -1.6448 -1.3280
 9635TIP3   OH228868   6.734   2.896   4.496 -0.3816  0.2444  0.0970
 9635TIP3    H128869   6.797   2.966   4.510 -0.0757  0.0830 -0.4528
 9635TIP3    H228870   6.728   2.887   4.401 -1.8215  0.7928  0.0990
 9636TIP3   OH228871   5.405   3.648   0.831 -0.2534 -0.2601 -0.6970
 9636TIP3    H128872   5.318   3.674   0.802 -0.8895  2.0055  2.6910
 9636TIP3    H228873   5.393   3.559   0.866 -1.6193  0.4724  0.8707
 9637TIP3   OH228874   2.539   3.084   5.574 -0.1546  0.0377 -1.2187
 9637TIP3    H128875   2.452   3.068   5.537 -0.1833  0.1564 -1.2041
 9637TIP3    H228876   2.521   3.124   5.659 -0.0848  2.7226 -2.3837
 9638TIP3   OH228877   4.538   0.398   1.936  0.1912 -0.2247  0.2881
 9638TIP3    H128878   4.590   0.441   1.868  0.9778 -1.7273 -0.1077
 9638TIP3    H228879   4.460   0.367   1.890 -0.8604  1.5755  0.7763
 9639TIP3   OH228880   1.950   0.520   3.731 -0.6273 -0.4863  0.0462
 9639TIP3    H128881   1.858   0.549   3.731 -0.7632 -0.4849  3.3482
 9639TIP3    H228882   1.996   0.589   3.780  1.0308 -0.8551 -0.9241
 9640TIP3   OH228883   4.742   2.808   3.750 -0.0150 -0.2080 -0.3597
 9640TIP3    H128884   4.691   2.888   3.745  0.0390 -0.1917 -0.6490
 9640TIP3    H228885   4.828   2.836   3.782  0.1887 -0.0654 -1.0175
 9641TIP3   OH228886   5.510   5.636   2.283 -0.1494 -0.3516  0.3576
 9641TIP3    H128887   5.497   5.578   2.358 -0.3789 -0.7293  0.0333
 9641TIP3    H228888   5.543   5.718   2.321  0.4692 -0.7909  0.7910
 9642TIP3   OH228889   6.666   1.019   5.823 -0.0559 -0.2150 -0.6790
 9642TIP3    H128890   6.652   1.054   5.735  0.2247  0.4306 -0.4765
 9642TIP3    H228891   6.760   1.003   5.828  0.2497  1.5031  0.1019
 9643TIP3   OH228892   5.981   3.933   2.879 -0.1227 -0.0272  0.5653
 9643TIP3    H128893   5.936   3.853   2.906 -1.1994 -0.1183 -1.3561
 9643TIP3    H228894   5.917   3.981   2.826  0.7796  1.7218  0.9681
 9644TIP3   OH228895   0.939   4.747   3.335  0.3533  0.1479 -0.3523
 9644TIP3    H128896   0.869   4.787   3.284 -0.2454 -0.2599  0.1476
 9644TIP3    H228897   0.974   4.678   3.278 -0.0410 -0.0394 -0.3654
 9645TIP3   OH228898   3.771   3.589   2.097  0.3858  0.0082  0.4983
 9645TIP3    H128899   3.681   3.565   2.075 -0.3367  1.7613  1.2973
 9645TIP3    H228900   3.803   3.516   2.151 -0.2468 -1.0166 -0.4657
 9646TIP3   OH228901   2.120   0.950   0.984  0.6311 -0.3519 -0.8871
 9646TIP3    H128902   2.099   1.030   0.935  1.0796  1.4190  1.6333
 9646TIP3    H228903   2.193   0.974   1.040 -0.0833 -2.1237  0.9418
 9647TIP3   OH228904   5.451   5.108   5.385 -0.2472  0.0431 -0.5403
 9647TIP3    H128905   5.372   5.095   5.438 -0.1705  1.8603  0.1004
 9647TIP3    H228906   5.506   5.032   5.405 -1.6390 -1.0450 -0.6821
 9648TIP3   OH228907   4.446   2.554   2.730 -0.0678 -0.1282 -0.3273
 9648TIP3    H128908   4.410   2.596   2.808 -0.4337 -0.0622 -0.5298
 9648TIP3    H228909   4.490   2.476   2.764 -2.2120 -1.3923 -0.2494
 9649TIP3   OH228910   6.686   6.602   4.399  0.1912  0.1302  0.0951
 9649TIP3    H128911   6.676   6.571   4.309  0.3712  0.2231  0.0418
 9649TIP3    H228912   6.644   6.534   4.452  3.1244 -1.7821  0.2199
 9650TIP3   OH228913   3.013   4.058   1.833 -0.3879  0.1998 -0.7127
 9650TIP3    H128914   3.099   4.047   1.793  0.1139  0.5999  0.2349
 9650TIP3    H228915   2.988   3.970   1.861 -0.2003  0.1144 -0.8161
 9651TIP3   OH228916   6.465   4.266   4.847  0.0066 -0.2992  0.1110
 9651TIP3    H128917   6.538   4.248   4.788 -0.7985 -0.2455 -0.9376
 9651TIP3    H228918   6.506   4.280   4.933  1.2721  0.2971 -0.5635
 9652TIP3   OH228919   2.620   1.391   0.871  0.6376  0.6537 -0.1935
 9652TIP3    H128920   2.686   1.358   0.810  0.9151 -3.2477  1.8749
 9652TIP3    H228921   2.555   1.320   0.877 -1.7795  2.7723  0.7266
 9653TIP3   OH228922   4.892   5.758   1.416  0.6745  0.2858 -0.2083
 9653TIP3    H128923   4.982   5.751   1.384  0.1122 -1.3167 -1.6280
 9653TIP3    H228924   4.852   5.824   1.360  0.8317  0.6398  0.0944
 9654TIP3   OH228925   4.551   4.295  -0.032  0.5312  0.3658 -0.2464
 9654TIP3    H128926   4.645   4.290  -0.015  0.8538  1.9593 -1.3545
 9654TIP3    H228927   4.510   4.277   0.053  1.9192  2.8334  1.0759
 9655TIP3   OH228928   1.469   3.195   1.792 -0.0145 -0.6572  0.1289
 9655TIP3    H128929   1.497   3.119   1.844 -0.1239 -0.6987  0.1270
 9655TIP3    H228930   1.459   3.161   1.703  2.8411 -0.0287 -0.5456
 9656TIP3   OH228931   4.036   0.951   4.309  0.6334 -0.0220  0.2809
 9656TIP3    H128932   4.033   0.907   4.224  0.7310  0.2844  0.1175
 9656TIP3    H228933   3.944   0.967   4.330  0.6479  2.9488 -1.3819
 9657TIP3   OH228934   3.707   3.784   0.710 -0.4733  0.6046 -0.7947
 9657TIP3    H128935   3.654   3.842   0.656 -0.5611  0.0760 -1.2880
 9657TIP3    H228936   3.756   3.731   0.648 -1.5121 -0.8941 -0.4088
 9658TIP3   OH228937   4.301   1.197   2.434  0.2289 -0.0997 -0.3064
 9658TIP3    H128938   4.376   1.197   2.494 -1.5565 -1.6211  2.0922
 9658TIP3    H228939   4.303   1.283   2.393  1.8154  0.8419  1.6004
 9659TIP3   OH228940   1.079   3.960   0.506  0.0757 -0.8486  0.3726
 9659TIP3    H128941   1.094   3.979   0.599 -0.1071 -1.6191  0.5641
 9659TIP3    H228942   1.075   3.865   0.501 -0.7161 -0.7905 -0.3014
 9660TIP3   OH228943   0.044   1.231   5.338 -0.7502  0.0848  0.2719
 9660TIP3    H128944  -0.026   1.171   5.314 -0.4247  0.0045 -0.4764
 9660TIP3    H228945   0.035   1.305   5.278  1.0629 -0.8465 -1.2341
 9661TIP3   OH228946   3.532   0.733   1.188  0.6722 -0.0728  0.3910
 9661TIP3    H128947   3.526   0.683   1.270 -0.6662 -0.9460 -0.2220
 9661TIP3    H228948   3.559   0.669   1.123 -1.4937 -0.1436 -0.4947
 9662TIP3   OH228949   2.438   6.321   0.310  0.4825 -0.1269 -0.2013
 9662TIP3    H128950   2.462   6.375   0.386 -0.6003 -0.3599  0.3211
 9662TIP3    H228951   2.349   6.291   0.329  1.0067 -2.0136 -0.5346
 9663TIP3   OH228952   6.458   4.381   3.302 -0.1688  0.0385 -0.6859
 9663TIP3    H128953   6.462   4.314   3.234  0.1434 -0.3125 -0.3250
 9663TIP3    H228954   6.512   4.347   3.373 -0.7199  0.2705 -0.1432
 9664TIP3   OH228955   4.381   3.397   0.554 -0.1119  0.0162  0.4437
 9664TIP3    H128956   4.401   3.327   0.491 -0.6695  0.4707 -0.2604
 9664TIP3    H228957   4.298   3.370   0.594 -0.7051  0.6044 -0.3515
 9665TIP3   OH228958   5.909   4.545   2.909  0.6096  0.7446 -0.4676
 9665TIP3    H128959   5.833   4.553   2.852 -0.4273 -1.1019  0.5376
 9665TIP3    H228960   5.969   4.488   2.861  0.7648  1.0859 -0.6824
 9666TIP3   OH228961   5.916   3.948   5.360  0.1804 -0.5475  0.0709
 9666TIP3    H128962   5.916   4.036   5.397 -2.4145  0.1406 -1.3433
 9666TIP3    H228963   5.995   3.945   5.305  0.8085  0.5317  0.8881
 9667TIP3   OH228964   6.092   6.448   5.660  0.1338 -0.0582  0.4663
 9667TIP3    H128965   6.093   6.393   5.581 -0.5088 -0.1455  0.5169
 9667TIP3    H228966   6.145   6.399   5.723  0.1265 -0.2938  0.2917
 9668TIP3   OH228967   5.948   2.691   3.269  0.2572  0.5953  0.1047
 9668TIP3    H128968   5.946   2.665   3.361  0.7581 -0.4910 -0.1784
 9668TIP3    H228969   6.020   2.754   3.263  2.7796 -2.1587 -0.2234
 9669TIP3   OH228970   6.675   4.422   0.143 -0.7549  0.3071 -0.3053
 9669TIP3    H128971   6.727   4.502   0.139 -0.4561  0.1411  0.1014
 9669TIP3    H228972   6.683   4.383   0.056  2.0499 -1.0946  0.4376
 9670TIP3   OH228973   6.465   4.976   3.386 -0.3149 -0.1567 -0.0435
 9670TIP3    H128974   6.466   5.068   3.414  0.3060 -0.3320  0.5231
 9670TIP3    H228975   6.374   4.960   3.361 -0.9920 -0.0575  2.1496
 9671TIP3   OH228976   6.471   2.833   3.406 -0.1572  0.1697 -0.5442
 9671TIP3    H128977   6.444   2.742   3.419 -2.9100  0.7863 -1.3643
 9671TIP3    H228978   6.458   2.848   3.312 -0.3447  1.5907 -0.3015
 9672TIP3   OH228979   6.787   3.631   4.975 -0.2390 -0.1711  0.4436
 9672TIP3    H128980   6.815   3.701   5.034 -1.0907 -0.4544  1.2043
 9672TIP3    H228981   6.857   3.625   4.910  0.5551  0.3850  1.2275
 9673TIP3   OH228982   1.447   2.878   1.959  0.2540 -0.2434 -0.2821
 9673TIP3    H128983   1.503   2.830   2.019  0.2038 -0.2883 -0.2706
 9673TIP3    H228984   1.441   2.966   1.996 -0.4199 -0.4892  0.2103
 9674TIP3   OH228985   0.684   5.175   2.296  0.0483  0.3032  0.3071
 9674TIP3    H128986   0.594   5.152   2.322 -0.5820  1.7371 -0.5308
 9674TIP3    H228987   0.700   5.260   2.337  2.6613 -1.7320  4.0935
 9675TIP3   OH228988   1.839   5.996   4.447 -0.0990  0.2904  0.6730
 9675TIP3    H128989   1.852   6.073   4.393  1.7858  0.0856  0.7440
 9675TIP3    H228990   1.795   5.933   4.390  1.2512  0.3127 -0.4419
 9676TIP3   OH228991   4.909   3.215   0.801 -0.0266 -0.5554 -0.0596
 9676TIP3    H128992   4.958   3.295   0.779 -1.4656  0.9065  1.7858
 9676TIP3    H228993   4.966   3.168   0.862 -0.2700  0.4283  0.9555
 9677TIP3   OH228994   6.080   5.588   2.086  0.1679 -0.3606 -0.6832
 9677TIP3    H128995   6.138   5.630   2.149  0.1158 -1.1800 -0.0790
 9677TIP3    H228996   6.001   5.642   2.086  0.8085  0.6011 -1.3022
 9678TIP3   OH228997   4.336   0.012   4.878  0.0317 -0.3066  0.3288
 9678TIP3    H128998   4.398  -0.055   4.907 -0.5221 -0.8314  0.3108
 9678TIP3    H228999   4.386   0.094   4.881  0.8699 -0.7927 -0.1744
 9679TIP3   OH229000   6.014   0.105   0.446  0.1088  0.2219 -0.5945
 9679TIP3    H129001   6.041   0.055   0.522  0.1843 -0.3415 -0.9913
 9679TIP3    H229002   5.958   0.174   0.482  0.6946  0.3847  0.0440
 9680TIP3   OH229003   7.164   5.685   2.721 -0.1260  0.2679 -0.4893
 9680TIP3    H129004   7.207   5.684   2.635  0.9895  2.1243  0.0056
 9680TIP3    H229005   7.071   5.681   2.700 -0.0046  2.8483 -1.9754
 9681TIP3   OH229006   6.547   4.245   1.228 -0.8290  0.1225  0.2862
 9681TIP3    H129007   6.554   4.281   1.139 -0.1624 -1.0284 -0.1507
 9681TIP3    H229008   6.581   4.314   1.285 -0.9966  0.7652 -0.3836
 9682TIP3   OH229009   0.463   1.888   1.203  0.2132 -0.0432  0.3891
 9682TIP3    H129010   0.413   1.905   1.283  0.3959  3.1591 -0.0481
 9682TIP3    H229011   0.554   1.900   1.230  0.1854  3.8907 -0.6941
 9683TIP3   OH229012   0.458   3.133   3.743  0.0677  0.3572 -0.1446
 9683TIP3    H129013   0.533   3.150   3.686  0.2799  0.1026  0.0561
 9683TIP3    H229014   0.464   3.040   3.765 -0.8156  0.1193 -0.8522
 9684TIP3   OH229015   1.017   6.590   4.968  0.5344 -0.1984 -0.0715
 9684TIP3    H129016   0.985   6.544   5.045  1.8877 -0.7186  0.2064
 9684TIP3    H229017   0.967   6.672   4.966 -0.8209 -0.9792  0.2889
 9685TIP3   OH229018   4.252   1.985   4.049  0.6500 -0.1941  0.4471
 9685TIP3    H129019   4.192   1.916   4.076 -1.2483  0.9259 -0.6957
 9685TIP3    H229020   4.217   2.017   3.966  2.0955  1.4062  0.3880
 9686TIP3   OH229021   1.622   0.459   5.376 -0.0217 -0.0430  0.2043
 9686TIP3    H129022   1.559   0.509   5.427 -1.6762 -1.5389 -0.2818
 9686TIP3    H229023   1.661   0.398   5.439 -0.8140 -0.7197  0.0577
 9687TIP3   OH229024   6.691   2.156   4.449  0.6772 -0.2849 -0.5032
 9687TIP3    H129025   6.684   2.091   4.519  1.2358 -0.9975 -1.0873
 9687TIP3    H229026   6.733   2.109   4.377  1.7192  0.9241 -0.7146
 9688TIP3   OH229027   3.900   6.534   0.268  0.5141  0.0640  0.0466
 9688TIP3    H129028   3.831   6.581   0.220 -2.2328  0.3093  3.8087
 9688TIP3    H229029   3.958   6.603   0.301  0.6257  0.1545 -0.3327
 9689TIP3   OH229030   4.485   1.090   4.579 -0.6418  0.2052 -0.4963
 9689TIP3    H129031   4.493   1.137   4.496  1.6462  0.3815 -0.2434
 9689TIP3    H229032   4.491   1.159   4.646  0.3704 -0.1753 -0.1712
 9690TIP3   OH229033   3.559   5.308   2.477 -0.0675  0.3569  0.6647
 9690TIP3    H129034   3.577   5.214   2.470  0.8380  0.5389  0.5268
 9690TIP3    H229035   3.471   5.318   2.441  0.1131 -0.3397  0.0159
 9691TIP3   OH229036   4.512   0.567   4.607  0.4812  0.1049 -0.6732
 9691TIP3    H129037   4.430   0.527   4.635 -0.0042  1.1337 -0.5863
 9691TIP3    H229038   4.488   0.655   4.579  1.6156  0.5566 -0.2826
 9692TIP3   OH229039   4.761   2.682   5.825  0.0951 -0.1376  0.2467
 9692TIP3    H129040   4.779   2.708   5.735  0.1063  3.0658  1.0608
 9692TIP3    H229041   4.748   2.764   5.872  1.9679 -1.5303  3.5809
 9693TIP3   OH229042   4.229   3.990   5.789  0.4965 -0.7107 -0.8791
 9693TIP3    H129043   4.286   3.976   5.864  1.0689 -1.2343 -1.4012
 9693TIP3    H229044   4.283   3.969   5.713  0.2694  0.8510 -1.5152
 9694TIP3   OH229045   0.905   1.895   2.976 -0.6784  0.3466  0.2152
 9694TIP3    H129046   0.833   1.832   2.964 -0.5359  0.2695 -0.2360
 9694TIP3    H229047   0.925   1.890   3.070  0.6855 -1.7694 -0.1175
 9695TIP3   OH229048   0.797   3.178   3.038  0.8643 -0.1619  0.6641
 9695TIP3    H129049   0.878   3.217   3.072 -0.0314  0.7624  1.8116
 9695TIP3    H229050   0.775   3.232   2.962  0.2891  0.8182  1.5158
 9696TIP3   OH229051   6.494   3.188   2.821 -0.3293 -0.5058 -0.0515
 9696TIP3    H129052   6.565   3.127   2.806  0.3057 -0.3923  2.1422
 9696TIP3    H229053   6.499   3.209   2.914 -2.3847  0.5785 -0.1126
 9697TIP3   OH229054   1.885   4.269   4.050  0.0180 -0.3612 -0.0292
 9697TIP3    H129055   1.949   4.339   4.037  1.1690 -0.8162  2.6107
 9697TIP3    H229056   1.911   4.228   4.133 -3.0448 -1.2746  0.5915
 9698TIP3   OH229057   2.410   2.955   0.555  0.3538  0.0593  0.8341
 9698TIP3    H129058   2.454   2.917   0.631  0.1641 -2.0615 -0.0564
 9698TIP3    H229059   2.346   2.889   0.529 -1.4142  1.8563  0.3664
 9699TIP3   OH229060   2.035   1.635   3.814 -0.8749 -0.8666 -0.2777
 9699TIP3    H129061   2.037   1.709   3.874  1.7628 -0.2998 -0.9252
 9699TIP3    H229062   2.115   1.586   3.835  0.3637 -0.4308 -3.4613
 9700TIP3   OH229063   3.726   2.414   1.513 -0.3059 -0.3067  0.6232
 9700TIP3    H129064   3.659   2.349   1.536 -1.7851  1.0812  0.4155
 9700TIP3    H229065   3.700   2.446   1.427  1.8355 -1.2094 -0.4040
 9701TIP3   OH229066   3.185   4.310   0.659  0.1606 -0.0054 -0.3877
 9701TIP3    H129067   3.110   4.256   0.685 -0.4869 -0.6800 -3.2965
 9701TIP3    H229068   3.184   4.384   0.720 -1.1541 -1.4061  1.3903
 9702TIP3   OH229069   6.126   2.053   2.305 -0.3678 -0.2991 -0.3931
 9702TIP3    H129070   6.136   1.972   2.355 -1.5120  0.4881  1.2112
 9702TIP3    H229071   6.204   2.104   2.326 -0.4868 -0.2797  0.0182
 9703TIP3   OH229072   1.164   2.375   4.087  0.0910 -0.6759 -0.0899
 9703TIP3    H129073   1.217   2.454   4.095  0.4029 -0.8801 -0.1033
 9703TIP3    H229074   1.120   2.366   4.171 -0.6531  0.0080 -0.3954
 9704TIP3   OH229075   3.665   3.159   2.372 -0.5102 -1.0340  0.8043
 9704TIP3    H129076   3.760   3.154   2.379 -0.3942 -0.6580 -0.3286
 9704TIP3    H229077   3.634   3.071   2.396  0.2509 -1.7395 -0.6887
 9705TIP3   OH229078   4.975   0.359   4.869  0.0197 -0.2335  0.3795
 9705TIP3    H129079   4.989   0.399   4.784  1.3354 -4.2984 -1.5313
 9705TIP3    H229080   5.058   0.318   4.891 -1.0145 -1.3940  2.4245
 9706TIP3   OH229081   5.631   0.071   2.921  0.3549  0.2294 -0.1102
 9706TIP3    H129082   5.709   0.023   2.947 -0.1460  0.1635  1.4036
 9706TIP3    H229083   5.559   0.026   2.967 -1.0033 -1.2774 -3.3234
 9707TIP3   OH229084   6.650   0.148   0.439  0.0878  0.2596 -0.1848
 9707TIP3    H129085   6.676   0.222   0.494 -2.1016  0.0053  1.3325
 9707TIP3    H229086   6.661   0.180   0.349  2.5020  1.1484  0.3662
 9708TIP3   OH229087   4.149   0.468   1.684 -0.6573  0.6569  0.4657
 9708TIP3    H129088   4.104   0.529   1.626  0.1175  0.6202 -0.1952
 9708TIP3    H229089   4.241   0.474   1.658  0.0934  2.2486  3.1313
 9709TIP3   OH229090   3.247   3.203   5.417  0.4607  0.5652  0.4454
 9709TIP3    H129091   3.249   3.298   5.414  0.8868  0.5461 -1.3578
 9709TIP3    H229092   3.330   3.178   5.457  0.9252  0.9568 -0.2477
 9710TIP3   OH229093   0.565   4.625   2.340  0.4840 -0.0669  0.1053
 9710TIP3    H129094   0.527   4.537   2.337 -0.8601  0.4989 -2.2470
 9710TIP3    H229095   0.657   4.613   2.316  0.2806 -0.8252 -0.3081
 9711TIP3   OH229096   5.079   5.754   4.779 -0.4607 -0.4619  0.2056
 9711TIP3    H129097   5.067   5.678   4.836 -0.3536  1.4074  2.9010
 9711TIP3    H229098   5.166   5.786   4.799 -0.6231  0.5705 -0.6492
 9712TIP3   OH229099   4.963   4.949   1.447  0.2678  0.6220  0.1034
 9712TIP3    H129100   4.975   5.026   1.501 -0.2350 -1.0900  2.8285
 9712TIP3    H229101   4.930   4.882   1.507  2.4474 -2.2983 -1.6981
 9713TIP3   OH229102   4.667   4.175   2.115 -0.2774 -0.1576 -0.5060
 9713TIP3    H129103   4.647   4.175   2.209 -0.8096  0.1948 -0.6162
 9713TIP3    H229104   4.762   4.172   2.111 -0.1957  1.0001  0.0641
 9714TIP3   OH229105   5.914   5.894   0.498  0.2744 -0.8456 -0.1392
 9714TIP3    H129106   6.005   5.881   0.473  0.1838 -1.4512 -0.1636
 9714TIP3    H229107   5.902   5.989   0.495  0.1979 -0.8516 -2.6686
 9715TIP3   OH229108   4.497   5.801   3.851 -0.6151 -0.1540 -0.4104
 9715TIP3    H129109   4.412   5.761   3.831  0.9530 -2.4491 -3.3015
 9715TIP3    H229110   4.543   5.734   3.902  0.2925  0.0179 -0.9781
 9716TIP3   OH229111   2.172   3.331   3.508 -0.3035  0.2420 -0.0184
 9716TIP3    H129112   2.143   3.375   3.588  0.0283 -0.3974  0.4590
 9716TIP3    H229113   2.128   3.379   3.437 -1.3323  0.2419  0.6005
 9717TIP3   OH229114   6.853   0.669   5.099 -0.9303  0.1248  0.2637
 9717TIP3    H129115   6.776   0.721   5.075 -0.1796  0.2225 -2.1828
 9717TIP3    H229116   6.891   0.715   5.174 -0.9042  2.5196 -1.1261
 9718TIP3   OH229117   6.350   4.530   2.755 -0.0705  0.3677 -0.0119
 9718TIP3    H129118   6.320   4.439   2.748 -1.1991  0.6075  1.3289
 9718TIP3    H229119   6.294   4.568   2.822 -0.6888  2.4949 -1.6245
 9719TIP3   OH229120   4.372   6.486   3.344 -0.0559 -0.1974 -0.5731
 9719TIP3    H129121   4.465   6.467   3.346  0.3788  1.5484  2.6403
 9719TIP3    H229122   4.366   6.580   3.327 -1.1111 -0.0282  0.5324
 9720TIP3   OH229123   1.613   1.338   4.204  0.3211  0.2653  0.2125
 9720TIP3    H129124   1.595   1.365   4.114  2.4153  1.7116  0.1442
 9720TIP3    H229125   1.531   1.302   4.236 -1.3700  2.5641 -1.2770
 9721TIP3   OH229126   0.427   5.149   0.688 -0.2541 -0.5405  0.2497
 9721TIP3    H129127   0.382   5.158   0.772 -0.2408 -0.4288  0.2441
 9721TIP3    H229128   0.518   5.132   0.711  0.2399  1.7963  0.2612
 9722TIP3   OH229129   6.157   5.482   3.159  0.4245  0.1555  0.3511
 9722TIP3    H129130   6.116   5.396   3.168 -0.6218  0.3443 -2.0961
 9722TIP3    H229131   6.165   5.514   3.249 -0.0526 -2.0622  1.2429
 9723TIP3   OH229132   4.767   4.067   3.735 -0.3942 -0.5637  0.0926
 9723TIP3    H129133   4.811   3.988   3.766  0.6858 -0.1133 -0.2592
 9723TIP3    H229134   4.674   4.049   3.748 -0.2368 -2.3141 -0.9190
 9724TIP3   OH229135   5.340   4.376   2.038  0.0918  0.0056  0.1944
 9724TIP3    H129136   5.346   4.285   2.011  1.3516 -0.1422  0.9078
 9724TIP3    H229137   5.403   4.422   1.983  0.4866  0.2003  0.7958
 9725TIP3   OH229138   5.272   0.351   5.310 -0.1743 -0.1941  0.0725
 9725TIP3    H129139   5.234   0.266   5.289  1.4046 -0.8011 -0.4570
 9725TIP3    H229140   5.238   0.410   5.244 -1.0820 -0.4573  0.2931
 9726TIP3   OH229141   1.348   6.342   0.095 -0.0925 -0.1216 -0.3621
 9726TIP3    H129142   1.306   6.329   0.180  2.0847 -2.1041  0.4953
 9726TIP3    H229143   1.405   6.418   0.107 -0.7517  0.4021 -0.4750
 9727TIP3   OH229144   6.806   6.272   3.244 -0.1996  0.1969  0.2105
 9727TIP3    H129145   6.814   6.358   3.285 -0.4450  0.0978  0.4662
 9727TIP3    H229146   6.712   6.257   3.237 -0.1677  0.4279 -0.8367
 9728TIP3   OH229147   0.503   1.417   3.508 -0.0262  0.1549 -0.1235
 9728TIP3    H129148   0.477   1.400   3.418 -1.0143 -0.3699  0.2358
 9728TIP3    H229149   0.424   1.453   3.549  0.3168  0.1107  0.6003
 9729TIP3   OH229150   1.098   0.144   0.895  0.1212  0.0520 -0.4327
 9729TIP3    H129151   1.097   0.237   0.916 -0.3284 -0.4568  2.0945
 9729TIP3    H229152   1.157   0.136   0.820 -0.4770  2.4451 -1.2180
 9730TIP3   OH229153   4.746   2.867   5.106  0.2563 -0.0461 -0.3186
 9730TIP3    H129154   4.809   2.800   5.131  0.4895 -0.2332 -1.3382
 9730TIP3    H229155   4.790   2.916   5.036 -0.4951  0.1948 -0.6317
 9731TIP3   OH229156   3.065   5.670   3.816 -0.0295 -0.7739 -0.2987
 9731TIP3    H129157   3.044   5.748   3.764 -0.9358  0.0331  1.1853
 9731TIP3    H229158   2.997   5.667   3.883  0.9046 -1.9490  0.6541
 9732TIP3   OH229159   6.192   1.257   0.798  0.5095 -0.4400  0.5803
 9732TIP3    H129160   6.102   1.276   0.822 -0.0386 -0.7916 -1.1128
 9732TIP3    H229161   6.217   1.185   0.856 -0.6875 -1.0995  0.3095
 9733TIP3   OH229162   3.099   3.070   1.650  0.2571 -0.4329 -0.3693
 9733TIP3    H129163   3.174   3.097   1.703 -0.9372 -0.6790  1.5568
 9733TIP3    H229164   3.023   3.100   1.700 -0.9575  0.7362 -2.7677
 9734TIP3   OH229165   0.469   2.154   3.552 -0.1566 -0.1163 -0.2448
 9734TIP3    H129166   0.422   2.081   3.514 -1.3752  0.7619 -0.4767
 9734TIP3    H229167   0.490   2.211   3.478 -1.1933  0.8477  0.1664
 9735TIP3   OH229168   4.939   2.990   1.445 -0.0075 -0.2432 -0.7398
 9735TIP3    H129169   4.863   2.953   1.488  1.4493 -3.2141 -0.4307
 9735TIP3    H229170   4.981   3.045   1.512 -2.1448  2.0681 -1.1534
 9736TIP3   OH229171   4.472   5.197   3.017  0.6290  0.1814  0.6165
 9736TIP3    H129172   4.409   5.265   3.040  0.5050  0.2625  0.0567
 9736TIP3    H229173   4.549   5.216   3.071 -0.5031 -1.0686  2.7749
 9737TIP3   OH229174   1.518   1.983   4.335  0.7544  0.2001 -0.1568
 9737TIP3    H129175   1.431   2.017   4.316  0.9022 -0.0382 -1.3610
 9737TIP3    H229176   1.518   1.968   4.430 -0.7073 -0.3307 -0.2167
 9738TIP3   OH229177   5.585   6.136   5.097  0.0397  0.3075  0.2393
 9738TIP3    H129178   5.659   6.195   5.088 -0.4483  0.7531 -1.1238
 9738TIP3    H229179   5.509   6.194   5.108 -0.5557  0.0238 -1.9031
 9739TIP3   OH229180   0.334   5.669   3.420  0.1511  0.2740  0.3546
 9739TIP3    H129181   0.259   5.727   3.434 -0.3674 -0.0837 -0.8123
 9739TIP3    H229182   0.333   5.611   3.496 -1.9197 -0.9405 -0.5074
 9740TIP3   OH229183   7.095   2.883   1.049  0.2583 -0.1183 -0.2496
 9740TIP3    H129184   7.165   2.822   1.026 -1.1720 -2.4672  1.1346
 9740TIP3    H229185   7.033   2.877   0.976 -0.2085 -0.9461  0.1883
 9741TIP3   OH229186   0.036   0.455   2.450 -0.0519  0.2300  0.0854
 9741TIP3    H129187   0.035   0.551   2.447 -1.4859  0.2277 -0.7402
 9741TIP3    H229188   0.006   0.428   2.363  0.0523 -0.9701  0.4030
 9742TIP3   OH229189   5.574   4.743   2.605  0.4970  0.4104  0.1569
 9742TIP3    H129190   5.492   4.733   2.652  0.4331 -2.6168 -0.4251
 9742TIP3    H229191   5.636   4.688   2.652  2.2251  2.5137  0.4869
 9743TIP3   OH229192   3.372   1.657   3.886  0.1514  0.0577  0.2612
 9743TIP3    H129193   3.287   1.644   3.928 -0.0072  0.6728  0.1419
 9743TIP3    H229194   3.352   1.668   3.793  0.4363 -0.5517  0.1181
 9744TIP3   OH229195   6.835   1.154   0.207 -0.0712  0.8054 -0.0869
 9744TIP3    H129196   6.757   1.188   0.252 -0.3206  0.5527 -0.3284
 9744TIP3    H229197   6.905   1.162   0.272 -0.5068  0.0867  0.4898
 9745TIP3   OH229198   5.830   4.413   2.278  0.2955  0.8124 -0.1076
 9745TIP3    H129199   5.773   4.359   2.334  2.0034 -0.1483  0.7993
 9745TIP3    H229200   5.787   4.412   2.193 -0.5129 -0.7919  0.2672
 9746TIP3   OH229201   3.711   2.481   2.154 -0.5240  0.1311  0.4757
 9746TIP3    H129202   3.799   2.519   2.154 -0.1065 -0.7891  0.1961
 9746TIP3    H229203   3.655   2.549   2.117  0.5759 -0.3340 -2.2521
 9747TIP3   OH229204   2.331   6.509   5.486 -0.3090  0.3136 -0.2854
 9747TIP3    H129205   2.406   6.535   5.434  0.8462 -2.0827  0.0458
 9747TIP3    H229206   2.275   6.460   5.425 -0.7594  0.6186 -0.1237
 9748TIP3   OH229207   2.508   2.162   5.869 -0.1091 -0.5900  0.1376
 9748TIP3    H129208   2.502   2.074   5.906  0.1067 -0.1954  1.1255
 9748TIP3    H229209   2.602   2.181   5.867 -0.1365 -0.4755 -0.3230
 9749TIP3   OH229210   6.794   2.781   5.575 -0.0219  0.3157  0.8953
 9749TIP3    H129211   6.786   2.832   5.655  0.3980  1.9404 -0.0644
 9749TIP3    H229212   6.867   2.821   5.528 -0.0456 -0.8132 -0.1675
   7.20541   6.79334   5.88319   0.00000   0.00000  -2.40181   0.00000  -2.40181  -3.39667
