        88  EXT
         1         1  GLY       N              -3.3780000000      -14.2610000000      -20.3230000000  PROA      1              97.7100000000
         2         1  GLY       CA             -3.7770000000      -12.9290000000      -19.8960000000  PROA      1              98.0000000000
         3         1  GLY       C              -2.8010000000      -12.2980000000      -18.9210000000  PROA      1              98.2400000000
         4         1  GLY       O              -1.9080000000      -12.9730000000      -18.4040000000  PROA      1              97.9600000000
         5         2  PRO       N              -2.8100000000      -11.0090000000      -18.5410000000  PROA      2              98.4500000000
         6         2  PRO       CA             -1.9710000000      -10.3660000000      -17.5260000000  PROA      2              98.4700000000
         7         2  PRO       C              -2.2120000000      -10.9200000000      -16.1240000000  PROA      2              98.5300000000
         8         2  PRO       CB             -2.3840000000       -8.8940000000      -17.6100000000  PROA      2              98.3100000000
         9         2  PRO       O              -3.2730000000      -11.4900000000      -15.8550000000  PROA      2              98.4200000000
        10         2  PRO       CG             -3.1450000000       -8.7830000000      -18.8920000000  PROA      2              96.9700000000
        11         2  PRO       CD             -3.5110000000      -10.1650000000      -19.3500000000  PROA      2              94.7500000000
        12         3  GLY       N              -1.1490000000      -10.8040000000      -15.3190000000  PROA      3              98.4100000000
        13         3  GLY       CA             -1.2630000000      -11.2310000000      -13.9340000000  PROA      3              98.3800000000
        14         3  GLY       C              -2.2330000000      -10.3890000000      -13.1270000000  PROA      3              98.5700000000
        15         3  GLY       O              -2.6720000000       -9.3310000000      -13.5820000000  PROA      3              98.4800000000
        16         4  ASP       N              -2.6250000000      -11.0010000000      -12.0000000000  PROA      4              98.1100000000
        17         4  ASP       CA             -3.4360000000      -10.2270000000      -11.0650000000  PROA      4              98.1000000000
        18         4  ASP       C              -2.6840000000       -8.9900000000      -10.5800000000  PROA      4              98.3100000000
        19         4  ASP       CB             -3.8530000000      -11.0900000000       -9.8730000000  PROA      4              97.9200000000
        20         4  ASP       O              -1.4610000000       -9.0200000000      -10.4300000000  PROA      4              98.1800000000
        21         4  ASP       CG             -4.8500000000      -12.1740000000      -10.2450000000  PROA      4              96.3100000000
        22         4  ASP       OD1            -5.5570000000      -12.0280000000      -11.2660000000  PROA      4              95.6800000000
        23         4  ASP       OD2            -4.9320000000      -13.1810000000       -9.5100000000  PROA      4              95.2300000000
        24         5  PRO       N              -3.2370000000       -7.9770000000      -10.3020000000  PROA      5              98.3100000000
        25         5  PRO       CA             -2.5550000000       -6.8330000000       -9.6920000000  PROA      5              98.3000000000
        26         5  PRO       C              -1.8870000000       -7.1840000000       -8.3650000000  PROA      5              98.4900000000
        27         5  PRO       CB             -3.6820000000       -5.8190000000       -9.4850000000  PROA      5              98.1900000000
        28         5  PRO       O              -2.2850000000       -8.1480000000       -7.7050000000  PROA      5              98.4400000000
        29         5  PRO       CG             -4.8710000000       -6.4260000000      -10.1580000000  PROA      5              97.3700000000
        30         5  PRO       CD             -4.5720000000       -7.8700000000      -10.4420000000  PROA      5              97.0200000000
        31         6  GLY       N              -0.8610000000       -6.3490000000       -8.1570000000  PROA      6              98.2000000000
        32         6  GLY       CA             -0.1980000000       -6.5280000000       -6.8750000000  PROA      6              98.1600000000
        33         6  GLY       C              -1.0960000000       -6.2230000000       -5.6910000000  PROA      6              98.4500000000
        34         6  GLY       O              -2.1600000000       -5.6220000000       -5.8510000000  PROA      6              98.4000000000
        35         7  SER       N              -0.6330000000       -6.6080000000       -4.5710000000  PROA      7              98.3700000000
        36         7  SER       CA             -1.3750000000       -6.2990000000       -3.3530000000  PROA      7              98.3300000000
        37         7  SER       C              -1.3140000000       -4.8090000000       -3.0320000000  PROA      7              98.5600000000
        38         7  SER       CB             -0.8310000000       -7.1060000000       -2.1730000000  PROA      7              98.0800000000
        39         7  SER       O              -0.4240000000       -4.1020000000       -3.5080000000  PROA      7              98.5100000000
        40         7  SER       OG             -0.6370000000       -8.4610000000       -2.5380000000  PROA      7              96.0500000000
        41         8  ASP       N              -2.2150000000       -4.4920000000       -2.1780000000  PROA      8              98.4000000000
        42         8  ASP       CA             -2.1680000000       -3.1160000000       -1.6930000000  PROA      8              98.3700000000
        43         8  ASP       C              -0.9070000000       -2.8680000000       -0.8680000000  PROA      8              98.5400000000
        44         8  ASP       CB             -3.4120000000       -2.7980000000       -0.8610000000  PROA      8              98.0600000000
        45         8  ASP       O              -0.3740000000       -3.7900000000       -0.2470000000  PROA      8              98.4600000000
        46         8  ASP       CG             -4.6860000000       -2.7640000000       -1.6880000000  PROA      8              94.9000000000
        47         8  ASP       OD1            -4.6040000000       -2.7950000000       -2.9350000000  PROA      8              93.5500000000
        48         8  ASP       OD2            -5.7800000000       -2.7030000000       -1.0880000000  PROA      8              92.0900000000
        49         9  GLY       N              -0.4630000000       -1.5530000000       -0.8940000000  PROA      9              98.0600000000
        50         9  GLY       CA              0.6880000000       -1.1930000000       -0.0810000000  PROA      9              98.0000000000
        51         9  GLY       C               0.4130000000       -1.2670000000        1.4090000000  PROA      9              98.2900000000
        52         9  GLY       O              -0.7380000000       -1.4140000000        1.8270000000  PROA      9              98.2100000000
        53        10  SER       N               1.4780000000       -1.0680000000        2.0980000000  PROA      10             98.3100000000
        54        10  SER       CA              1.3400000000       -1.0090000000        3.5490000000  PROA      10             98.2700000000
        55        10  SER       C               0.6200000000        0.2630000000        3.9850000000  PROA      10             98.5200000000
        56        10  SER       CB              2.7110000000       -1.0850000000        4.2220000000  PROA      10             98.0400000000
        57        10  SER       O               0.6700000000        1.2800000000        3.2890000000  PROA      10             98.4800000000
        58        10  SER       OG              3.4230000000       -2.2300000000        3.7850000000  PROA      10             95.6200000000
        59        11  GLY       N              -0.2110000000        0.2170000000        5.0140000000  PROA      11             98.1200000000
        60        11  GLY       CA             -0.8770000000        1.3990000000        5.5370000000  PROA      11             98.0500000000
        61        11  GLY       C               0.0870000000        2.4210000000        6.1120000000  PROA      11             98.2900000000
        62        11  GLY       O               1.2960000000        2.1870000000        6.1510000000  PROA      11             98.1900000000
        63        12  PRO       N              -0.2120000000        3.4600000000        6.4690000000  PROA      12             98.5200000000
        64        12  PRO       CA              0.6040000000        4.4980000000        7.1030000000  PROA      12             98.5500000000
        65        12  PRO       C               1.0620000000        4.1140000000        8.5080000000  PROA      12             98.7100000000
        66        12  PRO       CB             -0.3340000000        5.7070000000        7.1450000000  PROA      12             98.4500000000
        67        12  PRO       O               0.4410000000        3.2640000000        9.1520000000  PROA      12             98.6900000000
        68        12  PRO       CG             -1.7100000000        5.1250000000        7.0890000000  PROA      12             97.3700000000
        69        12  PRO       CD             -1.6190000000        3.7400000000        6.5160000000  PROA      12             96.5200000000
        70        13  GLY       N               2.1370000000        4.6040000000        8.9870000000  PROA      13             98.4400000000
        71        13  GLY       CA              2.6340000000        4.3980000000       10.3380000000  PROA      13             98.4600000000
        72        13  GLY       C               1.7230000000        4.9790000000       11.4030000000  PROA      13             98.6600000000
        73        13  GLY       O               0.8310000000        5.7730000000       11.0990000000  PROA      13             98.6500000000
        74        14  ASP       N               1.7250000000        4.6960000000       12.5010000000  PROA      14             98.5500000000
        75        14  ASP       CA              1.0040000000        5.2230000000       13.6560000000  PROA      14             98.5300000000
        76        14  ASP       C               1.4350000000        6.6550000000       13.9660000000  PROA      14             98.6600000000
        77        14  ASP       CB              1.2250000000        4.3320000000       14.8790000000  PROA      14             98.3700000000
        78        14  ASP       O               2.5960000000        7.0170000000       13.7670000000  PROA      14             98.6100000000
        79        14  ASP       CG              0.5610000000        2.9720000000       14.7500000000  PROA      14             97.2800000000
        80        14  ASP       OD1            -0.4340000000        2.8480000000       14.0030000000  PROA      14             96.5600000000
        81        14  ASP       OD2             1.0340000000        2.0170000000       15.4040000000  PROA      14             95.8200000000
        82        15  PRO       N               0.4190000000        7.7220000000       14.0600000000  PROA      15             98.3900000000
        83        15  PRO       CA              0.7260000000        9.1130000000       14.4030000000  PROA      15             98.2400000000
        84        15  PRO       C               1.5340000000        9.2380000000       15.6930000000  PROA      15             98.2800000000
        85        15  PRO       CB             -0.6560000000        9.7510000000       14.5590000000  PROA      15             98.0900000000
        86        15  PRO       O               1.5520000000        8.3110000000       16.5060000000  PROA      15             98.0100000000
        87        15  PRO       CG             -1.6000000000        8.7770000000       13.9320000000  PROA      15             97.1800000000
        88        15  PRO       CD             -0.9480000000        7.4240000000       13.9150000000  PROA      15             97.0200000000
