Title
19942
    1ASP      N    1   1.118   1.027   3.147  0.3429 -0.4141 -0.1561
    1ASP    HT1    2   1.069   1.117   3.165 -2.5441 -2.2737  2.0367
    1ASP    HT2    3   1.060   0.956   3.195  0.5365  0.6871  1.8093
    1ASP    HT3    4   1.106   1.013   3.045 -0.6085 -0.0374 -0.1074
    1ASP     CA    5   1.267   1.029   3.190  0.3791  0.2537  0.1729
    1ASP     HA    6   1.283   1.076   3.286  1.6700 -0.7902  0.5065
    1ASP     CB    7   1.325   0.878   3.183 -0.1570  0.3969 -0.4469
    1ASP    HB1    8   1.433   0.869   3.208 -0.3887 -0.9355  0.1767
    1ASP    HB2    9   1.324   0.834   3.081  0.1709 -0.6462 -0.0200
    1ASP     CG   10   1.263   0.782   3.286  0.2359 -0.9173  0.6918
    1ASP    OD1   11   1.161   0.825   3.345 -0.1891 -0.1454  0.3130
    1ASP    OD2   12   1.311   0.670   3.309  0.1805  0.7794  0.0929
    1ASP      C   13   1.344   1.126   3.095 -0.6480  0.4592 -0.1507
    1ASP      O   14   1.294   1.242   3.077 -0.5229  0.6100 -0.0288
    2ALA      N   15   1.464   1.087   3.035  0.1252  0.0089 -0.1162
    2ALA     HN   16   1.501   0.996   3.050  0.0441 -0.0018  0.0171
    2ALA     CA   17   1.520   1.167   2.926  0.3889 -0.0604  0.0412
    2ALA     HA   18   1.535   1.262   2.975 -0.7516 -0.0503  0.3860
    2ALA     CB   19   1.658   1.115   2.878 -0.5833 -0.0413 -0.5127
    2ALA    HB1   20   1.735   1.109   2.959 -1.5009 -0.5781  0.3497
    2ALA    HB2   21   1.706   1.172   2.796  2.8093 -2.3807 -0.3639
    2ALA    HB3   22   1.638   1.011   2.845 -1.6862 -0.7232  2.0241
    2ALA      C   23   1.429   1.194   2.804 -0.0850  0.0921 -0.2304
    2ALA      O   24   1.342   1.114   2.765 -0.1043 -0.4291 -0.5871
    3ASP      N   25   1.442   1.316   2.750  0.3912  0.6729 -0.3292
    3ASP     HN   26   1.482   1.380   2.816  0.8072  0.3421 -0.2606
    3ASP     CA   27   1.396   1.361   2.619  0.3048 -0.4237 -0.3373
    3ASP     HA   28   1.288   1.356   2.617  0.1509  1.8676 -1.3675
    3ASP     CB   29   1.443   1.510   2.583  0.1711  0.0814 -0.7028
    3ASP    HB1   30   1.540   1.514   2.528  1.2634  0.8734  1.1533
    3ASP    HB2   31   1.451   1.563   2.680  0.4364 -1.8290  0.3731
    3ASP     CG   32   1.343   1.569   2.491 -0.3972  0.4108 -0.5567
    3ASP    OD1   33   1.368   1.677   2.434  1.1942 -0.2811  0.1410
    3ASP    OD2   34   1.237   1.509   2.455 -0.0989 -0.1498 -0.4228
    3ASP      C   35   1.438   1.263   2.512 -0.3096  0.6871 -0.2120
    3ASP      O   36   1.540   1.190   2.523 -0.1703 -1.0071  0.7305
    4GLY      N   37   1.345   1.244   2.418  0.1113 -0.1802  0.8481
    4GLY     HN   38   1.255   1.286   2.429  0.6282  0.8609  1.3303
    4GLY     CA   39   1.373   1.180   2.293  0.4011  0.1700 -0.1870
    4GLY    HA1   40   1.281   1.183   2.237  0.2162 -0.9702  0.0489
    4GLY    HA2   41   1.407   1.079   2.311 -0.9392  0.1008  2.2747
    4GLY      C   42   1.470   1.250   2.204 -0.3062  0.2604  0.6063
    4GLY      O   43   1.507   1.365   2.228 -0.3829  0.2411  0.1865
    5PRO      N   44   1.509   1.175   2.099  0.7849 -0.2642  0.4302
    5PRO     CD   45   1.449   1.050   2.057 -0.4594  1.5370 -0.1820
    5PRO    HD1   46   1.340   1.037   2.069 -0.1604  0.2746  1.6376
    5PRO    HD2   47   1.505   0.973   2.115  1.6310  3.9040  1.1601
    5PRO     CA   48   1.622   1.210   2.012 -0.3046 -0.2542  0.1124
    5PRO     HA   49   1.712   1.218   2.071  0.8250  1.5829 -1.7149
    5PRO     CB   50   1.620   1.105   1.895  0.3115 -0.8570 -0.5732
    5PRO    HB1   51   1.692   1.025   1.923  0.0959 -1.2382 -1.0859
    5PRO    HB2   52   1.648   1.136   1.793 -0.3019  0.8640 -0.2534
    5PRO     CG   53   1.482   1.040   1.905  0.4409 -0.3357  0.4553
    5PRO    HG1   54   1.406   1.108   1.860 -1.2429 -0.3755  3.0189
    5PRO    HG2   55   1.471   0.941   1.855 -2.5708 -0.4386  1.1330
    5PRO      C   56   1.614   1.354   1.946  0.5728 -0.2627 -0.8324
    5PRO      O   57   1.500   1.406   1.927  0.0612 -0.3976 -0.9773
    6GLY      N   58   1.733   1.409   1.914  0.1739  0.6383  0.3715
    6GLY     HN   59   1.814   1.355   1.935 -0.9305 -0.8786  0.8485
    6GLY     CA   60   1.752   1.525   1.823 -0.1951 -0.0318  0.2872
    6GLY    HA1   61   1.852   1.564   1.834 -0.1476 -0.7424  3.3315
    6GLY    HA2   62   1.679   1.601   1.847 -0.6748 -1.2829  3.1606
    6GLY      C   63   1.728   1.490   1.678  0.4253  0.8743 -0.1766
    6GLY      O   64   1.700   1.378   1.631  0.2916 -0.0481 -0.2504
    7ASP      N   65   1.757   1.582   1.582  0.4236 -0.0048 -0.3885
    7ASP     HN   66   1.794   1.669   1.614  1.7931 -0.9948  0.8613
    7ASP     CA   67   1.751   1.562   1.436 -0.2861  0.5227 -0.3875
    7ASP     HA   68   1.665   1.503   1.410 -1.7359  2.8079 -1.0611
    7ASP     CB   69   1.745   1.706   1.376  1.0103  0.3843  0.1248
    7ASP    HB1   70   1.835   1.762   1.412  0.0510  0.8375  1.9150
    7ASP    HB2   71   1.651   1.753   1.412  1.1731  1.0463 -0.2993
    7ASP     CG   72   1.760   1.730   1.223 -0.2033  0.0887  0.0172
    7ASP    OD1   73   1.750   1.845   1.175  0.0411  0.7625 -1.1685
    7ASP    OD2   74   1.792   1.633   1.148 -0.3529 -0.2565 -0.0075
    7ASP      C   75   1.882   1.482   1.406 -0.3425 -0.3285 -0.1411
    7ASP      O   76   1.990   1.531   1.450 -0.1543 -0.1967 -0.9137
    8PRO      N   77   1.896   1.375   1.324 -0.0976  0.6334  0.2660
    8PRO     CD   78   1.790   1.309   1.254  0.2147  0.0891  0.0715
    8PRO    HD1   79   1.709   1.381   1.229 -0.6306 -1.1687 -0.9172
    8PRO    HD2   80   1.739   1.239   1.325 -0.1989  0.6836  0.3745
    8PRO     CA   81   2.022   1.300   1.308  0.3850  0.0480  0.5714
    8PRO     HA   82   2.070   1.286   1.404  2.6092 -1.3198 -0.6485
    8PRO     CB   83   1.973   1.173   1.232 -0.4039  0.1502  0.5054
    8PRO    HB1   84   1.930   1.099   1.303 -1.2811 -1.2590 -1.4090
    8PRO    HB2   85   2.050   1.122   1.169 -1.4401 -0.6585 -0.1430
    8PRO     CG   86   1.849   1.214   1.155 -0.7276  0.0649 -0.0473
    8PRO    HG1   87   1.869   1.270   1.062 -1.6574 -0.0714 -0.3368
    8PRO    HG2   88   1.777   1.134   1.127 -1.7112  0.5123  1.1157
    8PRO      C   89   2.134   1.368   1.228  0.4408 -0.7077 -0.0499
    8PRO      O   90   2.236   1.306   1.211 -0.2587 -0.3839 -1.0359
    9ASP      N   91   2.118   1.496   1.186 -0.2961 -0.2753 -0.2888
    9ASP     HN   92   2.034   1.549   1.196 -1.1997 -1.2122 -2.3709
    9ASP     CA   93   2.230   1.569   1.138  0.6420  0.1132 -0.1816
    9ASP     HA   94   2.301   1.519   1.073  1.3459  1.7530 -0.7485
    9ASP     CB   95   2.176   1.698   1.060  0.0013  0.0195 -0.3314
    9ASP    HB1   96   2.259   1.753   1.010 -0.5303  1.2020  0.0520
    9ASP    HB2   97   2.122   1.763   1.132  0.3425 -0.1049  0.0412
    9ASP     CG   98   2.072   1.666   0.959  0.4425 -1.5261  0.0403
    9ASP    OD1   99   1.976   1.744   0.947 -0.2483  0.1288 -0.3222
    9ASP    OD2  100   2.098   1.576   0.874  0.0236  0.0408 -0.2528
    9ASP      C  101   2.314   1.619   1.258 -0.3983  0.4542 -0.2116
    9ASP      O  102   2.435   1.637   1.246  0.0872 -0.0743  0.2128
   10ALA      N  103   2.247   1.644   1.364  0.0370  0.1976 -1.5351
   10ALA     HN  104   2.152   1.617   1.373 -0.3310  1.5391 -1.0744
   10ALA     CA  105   2.301   1.714   1.484  0.5604 -0.2557 -1.0002
   10ALA     HA  106   2.342   1.808   1.453  1.3827 -0.9672 -2.1233
   10ALA     CB  107   2.190   1.727   1.592 -0.0912  0.6320  0.3533
   10ALA    HB1  108   2.097   1.774   1.553  0.2235  2.4174  1.6077
   10ALA    HB2  109   2.218   1.796   1.674 -3.4635 -1.4351  3.5141
   10ALA    HB3  110   2.164   1.628   1.633  0.0954  0.0719 -0.8300
   10ALA      C  111   2.419   1.636   1.549 -0.4573 -0.2880 -0.0041
   10ALA      O  112   2.419   1.518   1.581 -0.6006  0.4635 -0.5645
   11GLY      N  113   2.533   1.707   1.565 -0.6696 -0.9374 -0.1982
   11GLY     HN  114   2.533   1.802   1.535 -0.1484 -1.3349 -1.4883
   11GLY     CA  115   2.653   1.655   1.634  0.0749  0.3272  1.2378
   11GLY    HA1  116   2.736   1.716   1.601 -0.4304  1.2775  1.6888
   11GLY    HA2  117   2.669   1.550   1.611 -1.6844  0.5149 -1.2341
   11GLY      C  118   2.645   1.685   1.780  0.0595 -0.4408 -0.3113
   11GLY    OT1  119   2.647   1.805   1.817  0.7877  0.0555  0.5284
   11GLY    OT2  120   2.633   1.589   1.864 -0.3507  0.1863  0.0510
   12LIT    LIT  121   4.343   3.468   2.516 -0.4979 -0.7091 -0.1227
   13LIT    LIT  122   0.439   5.319   0.128 -0.3553  0.0965 -1.2017
   14LIT    LIT  123   0.010   3.446   3.830 -1.7462  0.2093  0.6093
   15LIT    LIT  124   3.953   4.507   3.298 -0.4010 -0.5394  0.1297
   16LIT    LIT  125   1.743   5.576   0.586  0.3183 -0.4026 -0.3148
   17LIT    LIT  126   2.326   3.783   5.042  1.0121 -0.1270  0.2800
   18LIT    LIT  127   2.957   2.515   1.544  0.3591  0.4235  0.9180
   19LIT    LIT  128   1.809   1.765   1.010  0.2105  0.3259 -0.4259
   20LIT    LIT  129   5.506   4.847   1.742 -0.0923 -0.3901 -0.3052
   21LIT    LIT  130   3.299   1.289   2.689  0.3549 -0.1452 -0.0422
   22LIT    LIT  131   2.167   2.716   4.138  0.7259  0.2723 -0.1606
   23LIT    LIT  132   0.133   4.430   4.706 -0.7052 -0.0388 -0.9535
   24LIT    LIT  133   2.516   3.194   4.238 -0.2105  1.1325 -0.4427
   25LIT    LIT  134   4.678   2.303   1.845  0.8100  0.4135  0.2607
   26LIT    LIT  135   4.824   0.904   2.670 -1.2426 -0.5137 -0.8214
   27LIT    LIT  136   1.894   1.420   2.433 -0.2899  0.1910  0.1062
   28LIT    LIT  137   1.300   5.426   1.951 -0.6347 -0.0418  1.2632
   29LIT    LIT  138   5.358   5.214   4.557 -0.0606  0.4758 -0.6036
   30LIT    LIT  139   1.248   1.603   2.291 -0.1878  0.2237  0.4444
   31LIT    LIT  140   4.982   4.326   2.648 -0.2971 -0.2687  0.0879
   32LIT    LIT  141   0.936   3.071   1.247 -0.4422 -0.1691  0.2167
   33LIT    LIT  142   2.153   4.304   4.508  0.7949  0.0664  0.3402
   34CLA    CLA  143   3.231   4.526   2.485 -0.0756 -0.5596 -0.3528
   35CLA    CLA  144   5.178   1.994   4.281 -0.5788  0.0654 -0.0253
   36CLA    CLA  145   2.887   4.175   4.719 -0.0295  0.1064 -0.5532
   37CLA    CLA  146   4.508   0.063   2.065 -0.2293  0.1799  0.2289
   38CLA    CLA  147   4.701   4.549   4.143 -0.2122  0.3817 -0.3520
   39CLA    CLA  148   5.463   5.729   4.974 -0.0782 -0.1309 -0.0835
   40CLA    CLA  149   3.475   1.572   5.130  0.5713  0.1770 -0.2137
   41CLA    CLA  150   5.301   0.474   0.953 -0.0849  0.1303 -0.0875
   42CLA    CLA  151   2.285   4.282   4.308  0.5419  0.5072  0.1389
   43CLA    CLA  152   1.344   3.793   0.256 -0.0721 -0.6468 -0.0415
   44CLA    CLA  153   2.368   2.984   3.829 -0.1787 -0.2754 -0.0119
   45CLA    CLA  154   1.512   5.516   1.904  0.1614  0.0395 -0.4790
   46CLA    CLA  155   4.526   3.411   2.043 -0.5699 -0.1329 -0.0144
   47CLA    CLA  156   1.062   0.980   0.599 -0.0950  0.4437  0.2340
   48CLA    CLA  157   5.037   3.559   1.483  0.3355  0.1106 -0.1923
   49CLA    CLA  158   0.629   2.572   2.984  0.0423 -0.2130 -0.0074
   50CLA    CLA  159   3.298   0.071   2.337  0.0807  0.1095 -0.3789
   51CLA    CLA  160   2.522   5.091   0.993  0.4437 -0.2513  0.0305
   52TIP3   OH2  161   1.524   3.821   1.243  0.8488 -0.3536  0.5507
   52TIP3    H1  162   1.548   3.808   1.335  0.2448 -1.0486  0.6210
   52TIP3    H2  163   1.597   3.782   1.194  0.4947 -1.3170  0.7548
   53TIP3   OH2  164   0.709   2.134   3.411 -0.0166  0.0982  0.3217
   53TIP3    H1  165   0.657   2.081   3.470 -0.2422 -1.5081 -1.2513
   53TIP3    H2  166   0.647   2.195   3.371 -0.4030 -0.7305 -0.3542
   54TIP3   OH2  167   2.372   5.206   3.261 -0.0662  0.4831 -0.6634
   54TIP3    H1  168   2.383   5.119   3.222  1.2771  0.7572 -0.9816
   54TIP3    H2  169   2.356   5.263   3.186  0.7021  0.7388 -0.6451
   55TIP3   OH2  170   4.568   1.193   0.753 -0.6586  0.0586  0.2934
   55TIP3    H1  171   4.657   1.215   0.780  0.0961 -0.5820 -1.5260
   55TIP3    H2  172   4.529   1.277   0.728 -0.6208  0.3456  1.1436
   56TIP3   OH2  173   3.113   4.407   0.630 -0.4380  0.4607 -0.2665
   56TIP3    H1  174   3.197   4.451   0.615  0.3898 -1.0502 -0.2244
   56TIP3    H2  175   3.073   4.403   0.543 -0.0543  0.4121 -0.4474
   57TIP3   OH2  176   1.541   0.690   4.747  0.0521 -0.0419 -0.4722
   57TIP3    H1  177   1.530   0.632   4.823 -2.3372  0.5677 -0.2776
   57TIP3    H2  178   1.566   0.631   4.676 -2.9448 -1.5206 -0.4452
   58TIP3   OH2  179   5.287   2.307   4.563 -0.8361  0.4509  0.1793
   58TIP3    H1  180   5.221   2.376   4.568  0.2942  1.6968 -1.1829
   58TIP3    H2  181   5.354   2.341   4.504 -0.7719 -2.3056 -1.5216
   59TIP3   OH2  182   5.679   5.388   1.057  0.1074 -0.1501 -0.2729
   59TIP3    H1  183   5.592   5.428   1.059  0.6230  1.0093  0.1037
   59TIP3    H2  184   5.729   5.438   1.122  1.4871  0.2538 -1.5960
   60TIP3   OH2  185   4.186   1.969   2.098  0.3916  0.1114 -0.2565
   60TIP3    H1  186   4.186   1.881   2.059  0.6341 -0.2673  0.5761
   60TIP3    H2  187   4.216   1.955   2.188 -0.2145  0.9593  0.0860
   61TIP3   OH2  188   1.298   4.709   3.034  0.3509  0.9969 -0.3997
   61TIP3    H1  189   1.226   4.701   2.971  0.0098 -2.8533  0.2227
   61TIP3    H2  190   1.259   4.681   3.117  1.9727  1.3536  0.5211
   62TIP3   OH2  191   3.179   5.450   1.383  0.5276  0.1424  0.3844
   62TIP3    H1  192   3.093   5.424   1.352  1.7874 -1.7795 -1.7418
   62TIP3    H2  193   3.196   5.394   1.459  0.4593 -0.4656 -0.0459
   63TIP3   OH2  194   3.882   5.098   2.030  0.8195 -0.2230 -0.1579
   63TIP3    H1  195   3.805   5.070   2.079  1.9697 -0.6480  1.4934
   63TIP3    H2  196   3.867   5.191   2.013 -0.3595 -0.4562 -0.5045
   64TIP3   OH2  197   0.227   3.465   2.232 -0.3733 -0.2443  0.7518
   64TIP3    H1  198   0.287   3.392   2.248 -0.0443 -0.1658 -0.0383
   64TIP3    H2  199   0.275   3.542   2.261  0.5163 -0.0177 -1.1405
   65TIP3   OH2  200   1.545   3.107   4.042  0.6427 -0.0506 -0.3609
   65TIP3    H1  201   1.619   3.153   4.003  0.2465  0.3105 -0.6874
   65TIP3    H2  202   1.530   3.152   4.125 -0.4018  1.1009 -1.1381
   66TIP3   OH2  203   2.321   5.860   4.961  0.1762  0.3701  0.4677
   66TIP3    H1  204   2.271   5.901   4.891  0.4463  0.8147  0.5390
   66TIP3    H2  205   2.406   5.903   4.960  0.3557  0.0318  0.7415
   67TIP3   OH2  206   6.348   4.790   0.366 -0.2420 -0.5583  0.0975
   67TIP3    H1  207   6.337   4.786   0.461 -2.3882  1.5614  0.0514
   67TIP3    H2  208   6.283   4.729   0.332 -0.1985 -0.5357 -0.0270
   68TIP3   OH2  209   0.759   4.496   4.851  0.0615 -0.0685 -0.2501
   68TIP3    H1  210   0.804   4.412   4.853  0.1910  0.0164  0.7485
   68TIP3    H2  211   0.825   4.558   4.820  0.8409  0.1575  1.7328
   69TIP3   OH2  212   5.996   4.461   0.085  0.3431 -0.0729 -0.1307
   69TIP3    H1  213   5.925   4.416   0.040  0.2066 -0.1942  0.1989
   69TIP3    H2  214   6.076   4.419   0.052  0.2744  0.1899 -0.6392
   70TIP3   OH2  215   0.820   5.452   1.527 -0.1910  0.2298  0.6507
   70TIP3    H1  216   0.815   5.357   1.527 -1.7085  0.2641  1.4355
   70TIP3    H2  217   0.904   5.472   1.567  0.5369 -0.7679 -0.3403
   71TIP3   OH2  218   4.827   0.713   1.676 -0.1787  0.2280 -0.0925
   71TIP3    H1  219   4.850   0.620   1.674 -0.8919  0.0459 -1.2256
   71TIP3    H2  220   4.735   0.715   1.649 -0.2309  1.2587  0.1051
   72TIP3   OH2  221   6.229   5.291   1.105  0.0999 -0.8464 -0.2280
   72TIP3    H1  222   6.229   5.202   1.142  2.0211 -0.3918  0.9899
   72TIP3    H2  223   6.322   5.313   1.096 -0.3252  1.3400  0.2561
   73TIP3   OH2  224   4.078  -0.005   1.640  0.0383 -0.1138  0.2982
   73TIP3    H1  225   4.041   0.083   1.645  1.5236  0.6765 -1.2620
   73TIP3    H2  226   4.163   0.002   1.684 -0.2340 -1.0305  0.9989
   74TIP3   OH2  227   1.478   1.065   1.140  1.1084 -0.3298  0.4974
   74TIP3    H1  228   1.446   1.010   1.069  1.1481  1.2343 -0.7708
   74TIP3    H2  229   1.480   1.007   1.216 -2.2447 -1.1894  0.0774
   75TIP3   OH2  230   0.951   4.391   2.355  0.1347 -0.3270  0.2024
   75TIP3    H1  231   0.961   4.415   2.447  1.0596  0.9919 -0.2142
   75TIP3    H2  232   1.041   4.377   2.324  0.0147  1.1480 -0.9501
   76TIP3   OH2  233   0.736   5.116   4.690 -0.2564 -0.2413  0.3167
   76TIP3    H1  234   0.642   5.105   4.707 -0.2781  1.9729  2.0558
   76TIP3    H2  235   0.777   5.109   4.776  1.3116 -1.8975 -0.5069
   77TIP3   OH2  236   4.944   2.576   4.905 -0.0474 -0.7794  0.7255
   77TIP3    H1  237   4.930   2.623   4.987  1.2465  3.0254 -0.9924
   77TIP3    H2  238   5.033   2.541   4.913 -0.4865 -1.7631  1.4777
   78TIP3   OH2  239   1.557   5.086   1.055 -0.0670  0.6200 -0.6209
   78TIP3    H1  240   1.520   5.001   1.031  1.0652 -0.1107  0.1608
   78TIP3    H2  241   1.630   5.098   0.994  0.7511  0.2919  0.2800
   79TIP3   OH2  242   3.118   5.537   4.426 -0.7780 -0.3325 -0.4446
   79TIP3    H1  243   3.105   5.626   4.458  0.6245 -0.6634  1.2297
   79TIP3    H2  244   3.095   5.541   4.333  0.1661  2.0153 -0.6515
   80TIP3   OH2  245   2.917   2.094   0.719  0.6472  0.4757 -0.0036
   80TIP3    H1  246   3.006   2.119   0.697  0.9615  0.1115  0.7843
   80TIP3    H2  247   2.881   2.057   0.639  0.8765  1.5052 -0.5916
   81TIP3   OH2  248   4.560   2.148   4.060  0.7852 -0.1215  0.7281
   81TIP3    H1  249   4.555   2.054   4.081  1.7646 -0.2364  0.4954
   81TIP3    H2  250   4.653   2.167   4.059  0.8043  0.1141 -2.4491
   82TIP3   OH2  251   2.524   2.139   0.249  0.0961 -0.0230  0.6791
   82TIP3    H1  252   2.476   2.068   0.208  1.2010 -1.1217  1.2323
   82TIP3    H2  253   2.497   2.136   0.341 -1.4238  1.6294  0.3428
   83TIP3   OH2  254   2.027   1.062   4.404 -0.7507  0.0896 -0.0602
   83TIP3    H1  255   2.026   1.108   4.320 -0.6465  1.6907  0.7710
   83TIP3    H2  256   2.005   1.129   4.468 -0.9182 -1.1213  1.1924
   84TIP3   OH2  257   1.088   0.266   2.210 -0.0332  0.3307  0.0636
   84TIP3    H1  258   1.000   0.229   2.207  0.9092 -2.1038  0.7310
   84TIP3    H2  259   1.124   0.250   2.122  0.0916  0.4511  0.0913
   85TIP3   OH2  260   5.349   1.561   4.696 -0.4139  0.5663  0.5059
   85TIP3    H1  261   5.325   1.546   4.788 -2.3018 -0.9103 -0.1640
   85TIP3    H2  262   5.293   1.634   4.669  0.7795  1.5954  0.7330
   86TIP3   OH2  263   0.324   1.830   0.323  0.1332  0.0386 -0.3473
   86TIP3    H1  264   0.351   1.852   0.412  1.5419  0.2609 -0.7993
   86TIP3    H2  265   0.360   1.743   0.306  1.0865  0.5679 -1.1605
   87TIP3   OH2  266   4.576   4.748   0.695  0.4585  0.0614 -0.5719
   87TIP3    H1  267   4.561   4.762   0.789 -0.8472  1.6710 -0.9735
   87TIP3    H2  268   4.671   4.760   0.684  1.1511 -3.0822  0.9409
   88TIP3   OH2  269   0.083   0.500   0.967  0.5945 -0.7439  0.1697
   88TIP3    H1  270  -0.003   0.542   0.963  1.4322  1.0047 -0.3144
   88TIP3    H2  271   0.091   0.456   0.883  0.2455 -0.7552  0.1390
   89TIP3   OH2  272   1.976   0.738   3.120 -0.5020 -0.5188  0.7580
   89TIP3    H1  273   1.902   0.681   3.143 -0.0019 -0.6575  2.1010
   89TIP3    H2  274   2.054   0.684   3.134 -0.1194 -0.3345 -0.5332
   90TIP3   OH2  275   2.178   4.682   0.316  0.1311 -0.4118  0.3735
   90TIP3    H1  276   2.192   4.627   0.393  1.2427  1.3245  1.4614
   90TIP3    H2  277   2.240   4.754   0.325 -1.6364  1.3694 -0.6997
   91TIP3   OH2  278   3.834   4.882   2.842 -0.4811  0.1385  0.2540
   91TIP3    H1  279   3.752   4.924   2.867  0.1692  0.6167  1.6465
   91TIP3    H2  280   3.900   4.922   2.898  0.7369 -0.1749 -0.8966
   92TIP3   OH2  281   0.974   1.058   3.850  0.1892  0.2461 -0.2404
   92TIP3    H1  282   1.034   1.119   3.805 -0.5527 -0.5807 -2.4980
   92TIP3    H2  283   0.909   1.115   3.892  0.2280  1.0638 -1.2388
   93TIP3   OH2  284   1.712   2.592   4.020  0.7568 -0.6182 -0.3800
   93TIP3    H1  285   1.773   2.606   3.948 -1.1655  1.2069 -1.7743
   93TIP3    H2  286   1.663   2.514   3.994  1.4269 -1.1722 -0.0122
   94TIP3   OH2  287   1.277   2.530   1.828 -0.1694  0.1219  0.6211
   94TIP3    H1  288   1.367   2.557   1.848  0.1357 -1.4302  1.5338
   94TIP3    H2  289   1.222   2.597   1.869  0.5540 -0.3284  2.4325
   95TIP3   OH2  290   0.797   2.780   5.025  0.2996 -0.2118  0.0802
   95TIP3    H1  291   0.774   2.872   5.014  0.5995 -0.1475 -0.0025
   95TIP3    H2  292   0.852   2.759   4.949 -0.7660 -0.7886 -0.5538
   96TIP3   OH2  293   5.298   4.163   3.451 -0.2148 -0.0780 -0.2039
   96TIP3    H1  294   5.347   4.242   3.431 -1.0085  1.0769  2.0191
   96TIP3    H2  295   5.328   4.137   3.538 -0.8450 -1.5360 -0.3870
   97TIP3   OH2  296   6.216   3.829   0.708  0.3153 -0.0884 -0.4491
   97TIP3    H1  297   6.170   3.913   0.696 -1.7087 -1.0590  0.0333
   97TIP3    H2  298   6.181   3.773   0.639  0.6546 -0.9380  0.0631
   98TIP3   OH2  299   3.895   0.330   0.689 -0.4146 -0.0004 -0.0208
   98TIP3    H1  300   3.910   0.261   0.754  1.0480  0.7241  0.4348
   98TIP3    H2  301   3.817   0.301   0.642  0.1181 -1.9369  0.2068
   99TIP3   OH2  302   2.526   4.471   2.238 -0.1785 -0.0319  0.1334
   99TIP3    H1  303   2.515   4.527   2.161 -1.5456 -2.0728 -1.2513
   99TIP3    H2  304   2.441   4.474   2.282  0.1767  0.0383  0.8287
  100TIP3   OH2  305   6.066   3.897   3.523  0.3839  0.2802 -0.0884
  100TIP3    H1  306   6.100   3.986   3.532  2.0860 -0.2565 -0.7984
  100TIP3    H2  307   6.107   3.848   3.594 -1.2858  0.2288  0.8919
  101TIP3   OH2  308   4.720   4.650   2.609 -0.4730 -0.0753 -0.6608
  101TIP3    H1  309   4.634   4.691   2.618 -0.1180  0.5775 -0.1549
  101TIP3    H2  310   4.750   4.676   2.521 -1.0799 -0.8834 -1.1183
  102TIP3   OH2  311   3.938   2.914   2.037 -0.0392 -0.7787  0.0569
  102TIP3    H1  312   4.017   2.966   2.044 -0.4223  0.1770 -1.9407
  102TIP3    H2  313   3.910   2.924   1.946 -2.9608 -0.3468  0.8892
  103TIP3   OH2  314   0.798   3.247   4.189  0.1793  0.7314  0.2840
  103TIP3    H1  315   0.852   3.196   4.127 -1.2991  1.6140 -1.8537
  103TIP3    H2  316   0.861   3.304   4.234  1.4021 -0.4592  0.1482
  104TIP3   OH2  317   1.736   2.589   0.989 -0.2815 -0.2760  0.9367
  104TIP3    H1  318   1.741   2.501   0.950  0.0685 -0.8286  2.1765
  104TIP3    H2  319   1.717   2.646   0.915  1.2363 -1.1651 -0.2185
  105TIP3   OH2  320   1.835   0.185   1.037  0.1718  0.5895  0.2500
  105TIP3    H1  321   1.786   0.169   1.118 -1.1609 -1.3736 -0.8640
  105TIP3    H2  322   1.865   0.276   1.045 -1.9177  1.2134  1.9331
  106TIP3   OH2  323   5.267   4.990   0.648 -0.1837  0.0119  0.0346
  106TIP3    H1  324   5.332   4.942   0.700 -0.3418  0.1433  0.3605
  106TIP3    H2  325   5.219   4.922   0.601  0.7491 -0.0371 -0.8807
  107TIP3   OH2  326   5.507   4.347   1.942  0.0475  0.4483  0.3314
  107TIP3    H1  327   5.569   4.287   1.900 -0.1308 -0.0098  0.7117
  107TIP3    H2  328   5.429   4.344   1.886  0.3463  0.9749 -0.1113
  108TIP3   OH2  329   3.037   0.983   1.812  0.5824  0.8676  0.0495
  108TIP3    H1  330   3.076   0.900   1.786 -0.8589 -0.6238  2.3049
  108TIP3    H2  331   3.006   1.021   1.730 -1.1315 -2.1304 -0.8411
  109TIP3   OH2  332   5.677   4.451   4.517 -0.1232 -0.4299 -0.5489
  109TIP3    H1  333   5.628   4.368   4.515 -0.7301 -0.0945 -0.0867
  109TIP3    H2  334   5.644   4.500   4.441 -1.8553  0.5165  0.7252
  110TIP3   OH2  335   3.881   4.201   1.438 -0.2557  0.0435  0.8898
  110TIP3    H1  336   3.905   4.135   1.503  1.2532  0.4996  0.8295
  110TIP3    H2  337   3.884   4.155   1.354 -1.2183 -0.2935  1.0237
  111TIP3   OH2  338   0.537   1.860   4.354 -0.7313  0.3939 -0.5400
  111TIP3    H1  339   0.484   1.879   4.431 -1.0826 -0.3564 -0.5904
  111TIP3    H2  340   0.580   1.944   4.334  0.7958  0.2036  1.5387
  112TIP3   OH2  341   6.193   3.027   2.238 -0.7593  0.2939  0.3452
  112TIP3    H1  342   6.156   2.940   2.249 -0.5163 -0.0083 -1.0267
  112TIP3    H2  343   6.269   3.028   2.296 -1.6398  0.1773  1.5646
  113TIP3   OH2  344   4.910   1.994   3.901 -0.7245 -0.1541 -0.4465
  113TIP3    H1  345   4.850   2.025   3.833  1.1647  0.3446 -2.0023
  113TIP3    H2  346   4.896   2.054   3.975 -1.0162  0.9774 -1.3821
  114TIP3   OH2  347   2.459   5.445   2.216  0.4168  0.2718 -0.0548
  114TIP3    H1  348   2.524   5.500   2.172 -0.5586  0.9686 -0.6758
  114TIP3    H2  349   2.510   5.377   2.259  1.4388 -0.6468 -2.5586
  115TIP3   OH2  350   0.312   4.641   5.139 -0.3147 -0.2458 -0.6234
  115TIP3    H1  351   0.349   4.553   5.134  0.2613 -0.0323 -0.2316
  115TIP3    H2  352   0.382   4.694   5.177 -1.4505 -0.0857  1.3810
  116TIP3   OH2  353   0.656   0.872   2.378  0.1863 -0.3002 -0.3545
  116TIP3    H1  354   0.635   0.833   2.293 -1.5037 -1.1321  0.3878
  116TIP3    H2  355   0.751   0.871   2.383  0.2657 -1.7149 -1.5799
  117TIP3   OH2  356   5.999   5.584   1.007 -0.6442 -0.9521 -0.4926
  117TIP3    H1  357   5.955   5.612   0.927 -2.5565  0.7735  1.0272
  117TIP3    H2  358   6.092   5.596   0.989 -1.0963  0.6656 -2.0412
  118TIP3   OH2  359   2.390   4.109   3.084 -0.3786 -0.4339  0.0599
  118TIP3    H1  360   2.368   4.017   3.073 -1.0013 -0.4363  1.1141
  118TIP3    H2  361   2.329   4.140   3.152  1.2812  0.2032  1.3167
  119TIP3   OH2  362   3.217   0.942   0.614 -0.9291 -0.5368  0.7362
  119TIP3    H1  363   3.206   0.891   0.694  0.3053 -0.9122  0.6982
  119TIP3    H2  364   3.292   0.901   0.570 -1.0285  0.2195 -0.1706
  120TIP3   OH2  365   0.658   1.018   2.899  0.1725 -0.8053  0.3453
  120TIP3    H1  366   0.729   1.077   2.925 -1.0960  0.6692  0.5756
  120TIP3    H2  367   0.690   0.976   2.819  1.1143  0.1733  0.1884
  121TIP3   OH2  368   4.812   1.585   4.611  0.5834  0.0429 -0.3264
  121TIP3    H1  369   4.809   1.680   4.599 -0.5398  0.0041 -0.5268
  121TIP3    H2  370   4.901   1.567   4.641  0.7534  1.1804 -0.0963
  122TIP3   OH2  371   1.292   3.447   4.735  0.1213  0.0845 -0.2520
  122TIP3    H1  372   1.347   3.382   4.777  0.1623 -0.0079 -0.4480
  122TIP3    H2  373   1.202   3.419   4.755  0.0801 -1.1265 -1.9403
  123TIP3   OH2  374   1.839   5.344   4.283 -0.3219  0.3951  0.3481
  123TIP3    H1  375   1.870   5.279   4.347 -0.9635 -0.5792 -0.3114
  123TIP3    H2  376   1.810   5.292   4.209  0.6273  1.5203 -0.8597
  124TIP3   OH2  377   4.941   3.724   3.683  0.2866  0.9171 -0.3190
  124TIP3    H1  378   4.992   3.646   3.662  0.0170  0.8233 -0.6389
  124TIP3    H2  379   4.853   3.691   3.700  0.4289  1.0178  0.7262
  125TIP3   OH2  380   3.043   1.371   0.485  0.6090 -0.2186  0.0378
  125TIP3    H1  381   3.008   1.348   0.399 -1.3830  0.5093  0.6027
  125TIP3    H2  382   3.092   1.452   0.470 -0.5550  0.4497 -0.2616
  126TIP3   OH2  383   3.725   1.909   4.921 -0.1109 -0.5979  0.7333
  126TIP3    H1  384   3.650   1.890   4.977 -0.8176  0.2912  0.1123
  126TIP3    H2  385   3.745   1.826   4.878 -0.4443 -0.9442  1.2438
  127TIP3   OH2  386   0.874   2.809   3.092  0.2442 -0.8840 -0.2501
  127TIP3    H1  387   0.890   2.795   3.185 -0.5323  0.4118  0.1023
  127TIP3    H2  388   0.868   2.720   3.055  0.0363 -1.4261  1.0187
  128TIP3   OH2  389   5.501   1.150   3.066 -0.5500  0.5293 -0.4444
  128TIP3    H1  390   5.513   1.204   3.145 -0.0961 -0.3136  0.0792
  128TIP3    H2  391   5.468   1.066   3.099  1.9994 -0.7316 -0.8375
  129TIP3   OH2  392   1.815   2.596   4.836 -0.7519 -0.0107  0.7242
  129TIP3    H1  393   1.798   2.565   4.925  0.7234 -1.1694  0.6567
  129TIP3    H2  394   1.856   2.521   4.792 -0.8467  0.7487 -0.7308
  130TIP3   OH2  395   1.892   2.100   0.966  0.2077 -0.2433 -0.1345
  130TIP3    H1  396   1.911   2.104   0.872 -0.2145  2.4237 -0.1755
  130TIP3    H2  397   1.977   2.109   1.008  0.2512 -0.0337 -0.2653
  131TIP3   OH2  398   1.895   4.242   0.986  0.1660 -0.1105  0.1539
  131TIP3    H1  399   1.806   4.212   0.965  0.9210 -1.7091 -0.9583
  131TIP3    H2  400   1.909   4.317   0.929 -0.3850 -0.0069  0.1532
  132TIP3   OH2  401   1.868   0.934   4.955 -0.4942  0.0898 -0.1641
  132TIP3    H1  402   1.774   0.943   4.974 -0.2946  0.3292  0.7701
  132TIP3    H2  403   1.885   0.840   4.959 -0.0838  0.1995  2.9449
  133TIP3   OH2  404   6.346   2.513   3.906  0.5668  0.0620  0.6141
  133TIP3    H1  405   6.295   2.552   3.977 -0.0156  1.2120 -0.4127
  133TIP3    H2  406   6.285   2.508   3.832  1.2487 -0.8372  0.0921
  134TIP3   OH2  407   4.402   0.368   2.792 -0.3141 -0.0218 -0.2258
  134TIP3    H1  408   4.339   0.439   2.806  0.5689  1.0655 -1.5032
  134TIP3    H2  409   4.349   0.288   2.796 -1.2916  0.6615  1.4566
  135TIP3   OH2  410   1.508   2.620   4.803  0.0674 -0.1820  0.6117
  135TIP3    H1  411   1.483   2.710   4.823 -0.6657 -0.5481  1.4370
  135TIP3    H2  412   1.590   2.607   4.851 -0.4789 -0.3323  1.5268
  136TIP3   OH2  413   1.580   0.766   3.989 -0.1841 -0.0412 -0.0192
  136TIP3    H1  414   1.511   0.729   3.935  1.4032 -1.2504 -1.3422
  136TIP3    H2  415   1.654   0.706   3.977  1.2117  1.3900  1.0387
  137TIP3   OH2  416   1.638   2.097   0.954 -0.0074 -0.2353  0.0036
  137TIP3    H1  417   1.734   2.104   0.951 -0.0988  1.5009  0.3655
  137TIP3    H2  418   1.619   2.080   1.047  0.0010 -2.2323 -0.3134
  138TIP3   OH2  419   1.041   1.398   4.926  0.4809  1.1931 -0.0024
  138TIP3    H1  420   1.078   1.484   4.945 -0.4753  1.4937  0.6048
  138TIP3    H2  421   0.987   1.412   4.847  1.3965  0.8275 -0.7093
  139TIP3   OH2  422   6.132   1.655   1.839 -0.1463  0.3268 -0.4347
  139TIP3    H1  423   6.200   1.702   1.791  0.5111 -0.2225 -0.0503
  139TIP3    H2  424   6.056   1.713   1.835  0.3480  0.9599 -0.8380
  140TIP3   OH2  425   2.975   0.463   0.146 -0.5403 -0.5022  0.4804
  140TIP3    H1  426   2.976   0.470   0.050  1.1707 -0.0097  0.4948
  140TIP3    H2  427   2.894   0.507   0.172 -0.8073 -0.2240 -0.7182
  141TIP3   OH2  428   2.196   2.129   1.805 -0.1509 -0.0848  0.2400
  141TIP3    H1  429   2.275   2.115   1.856  0.0303  1.1798  0.3260
  141TIP3    H2  430   2.220   2.195   1.740 -0.5276 -1.2444 -1.1610
  142TIP3   OH2  431   5.565   2.295   4.932  0.1200  0.5245 -0.2418
  142TIP3    H1  432   5.645   2.279   4.882  0.7803 -1.3888  1.2968
  142TIP3    H2  433   5.495   2.261   4.876  0.4283  1.5251 -1.2735
  143TIP3   OH2  434   2.053   1.170   4.175  0.4081  0.7384 -0.2603
  143TIP3    H1  435   1.975   1.214   4.140  0.4069  1.8881  1.0827
  143TIP3    H2  436   2.126   1.216   4.134  0.3882  0.1953 -0.9076
  144TIP3   OH2  437   1.382   2.461   2.852  0.2425  0.2475  0.1581
  144TIP3    H1  438   1.395   2.556   2.856  0.4434  0.2047  3.6541
  144TIP3    H2  439   1.289   2.448   2.872 -0.1765 -0.2933 -1.9474
  145TIP3   OH2  440   0.216   4.084   1.900 -0.3395  0.6748  0.6380
  145TIP3    H1  441   0.185   4.060   1.987 -0.5121  2.0079  0.9499
  145TIP3    H2  442   0.259   4.004   1.868  0.3370  0.3819  2.2074
  146TIP3   OH2  443   0.745   2.185   0.264  0.0415 -0.1199  0.3268
  146TIP3    H1  444   0.686   2.136   0.320 -0.9604 -0.8365 -1.2697
  146TIP3    H2  445   0.689   2.248   0.219  0.8769  0.6826  0.3842
  147TIP3   OH2  446   3.264   2.049   2.174  0.5051 -0.2488  0.0866
  147TIP3    H1  447   3.270   2.038   2.079 -0.8156 -0.7515  0.0278
  147TIP3    H2  448   3.235   2.140   2.186  0.4129 -0.2656 -0.0083
  148TIP3   OH2  449   0.778   5.590   4.362 -0.2408  0.0127 -0.7445
  148TIP3    H1  450   0.714   5.520   4.373 -2.4894  1.9298 -0.7729
  148TIP3    H2  451   0.770   5.643   4.442  1.1816  0.4456 -0.8535
  149TIP3   OH2  452   5.188   3.557   0.264  0.0089 -0.2651  0.6130
  149TIP3    H1  453   5.209   3.466   0.242  0.6624 -0.3720  1.6317
  149TIP3    H2  454   5.209   3.565   0.357 -2.1519  0.3255  1.1058
  150TIP3   OH2  455   0.942   4.143   0.110 -0.2008  0.4956 -0.1629
  150TIP3    H1  456   1.031   4.129   0.142  0.5363  1.7202 -1.5666
  150TIP3    H2  457   0.924   4.068   0.054 -0.5963 -0.4300  1.1461
  151TIP3   OH2  458   5.898   4.521   0.652  0.1028 -0.5116 -0.3497
  151TIP3    H1  459   5.880   4.614   0.665 -0.6636 -0.4520 -1.6791
  151TIP3    H2  460   5.980   4.506   0.700 -0.9827  0.2699  1.8938
  152TIP3   OH2  461   5.543   4.604   4.325 -0.0540 -0.7601  0.2695
  152TIP3    H1  462   5.514   4.695   4.314 -0.0845 -0.8246 -0.1603
  152TIP3    H2  463   5.604   4.589   4.254  1.4017 -0.4840  1.4099
  153TIP3   OH2  464   2.305   0.697   3.501  0.2754  0.1950 -0.0309
  153TIP3    H1  465   2.293   0.610   3.539 -2.3295  0.4439 -0.1345
  153TIP3    H2  466   2.365   0.683   3.427  0.6415 -1.3238  0.5306
  154TIP3   OH2  467   3.227   4.353   4.567 -0.1678 -0.2045  0.4603
  154TIP3    H1  468   3.179   4.435   4.553 -1.0490 -0.7823 -0.0234
  154TIP3    H2  469   3.198   4.296   4.496 -0.0534 -1.1455  1.1480
  155TIP3   OH2  470   3.108   3.280   0.154  0.0095  0.2752 -0.2376
  155TIP3    H1  471   3.126   3.362   0.199  0.3272 -0.0158  0.1788
  155TIP3    H2  472   3.173   3.219   0.189 -1.1268 -0.5334  0.5264
  156TIP3   OH2  473   5.916   5.606   4.348  0.4132  0.0907  0.2772
  156TIP3    H1  474   5.856   5.678   4.324 -2.6248 -2.5517 -0.8282
  156TIP3    H2  475   5.951   5.576   4.264 -1.0334 -1.7593  0.2644
  157TIP3   OH2  476   3.658   2.064   0.802  0.4930 -0.1978 -0.3211
  157TIP3    H1  477   3.589   2.129   0.785  1.5528  0.9637 -0.3284
  157TIP3    H2  478   3.643   1.996   0.737 -1.3499 -0.5503  0.4244
  158TIP3   OH2  479   5.187   1.004   4.291  0.4108 -0.0993  0.5928
  158TIP3    H1  480   5.261   1.003   4.352  0.0965 -0.0288  0.9781
  158TIP3    H2  481   5.224   1.038   4.209  0.4207  1.6944  1.2929
  159TIP3   OH2  482   4.024   2.888   1.407  0.2492 -0.2223  0.1092
  159TIP3    H1  483   4.087   2.816   1.411 -0.4523 -1.2013 -3.0167
  159TIP3    H2  484   4.013   2.904   1.313 -1.8492  1.9998  0.6412
  160TIP3   OH2  485   5.267   3.576   0.549  0.1541 -0.0817 -0.3181
  160TIP3    H1  486   5.334   3.522   0.590 -0.3805 -0.5325 -0.0059
  160TIP3    H2  487   5.205   3.595   0.620 -0.4626 -0.3582 -0.7626
  161TIP3   OH2  488   4.684   5.003   3.916  0.0287 -0.2605  0.0358
  161TIP3    H1  489   4.752   5.034   3.976 -0.5804  0.8849  0.1495
  161TIP3    H2  490   4.643   4.929   3.962 -0.0983  0.2892  0.8217
  162TIP3   OH2  491   3.236   2.596   2.550  0.2840  0.5597  0.6117
  162TIP3    H1  492   3.167   2.576   2.486 -0.0099 -2.2510  1.6415
  162TIP3    H2  493   3.223   2.530   2.619  3.8048  0.1217  1.0045
  163TIP3   OH2  494   2.371   0.355   4.338  0.0434 -0.1084 -0.1175
  163TIP3    H1  495   2.351   0.334   4.429  0.5884  1.2929  0.3529
  163TIP3    H2  496   2.401   0.446   4.340 -1.0085  0.3329 -1.8485
  164TIP3   OH2  497   1.526   5.005   1.770 -0.7075 -0.4891  0.4082
  164TIP3    H1  498   1.589   4.971   1.834 -0.8884 -3.3268 -0.7774
  164TIP3    H2  499   1.451   5.033   1.822  0.9302  1.7230  1.7390
  165TIP3   OH2  500   5.010   1.153   1.787 -0.7753 -0.1954  0.1229
  165TIP3    H1  501   5.039   1.230   1.739  1.5195 -0.0955  1.4923
  165TIP3    H2  502   4.996   1.086   1.721 -0.4083  0.6913 -0.8704
  166TIP3   OH2  503   2.594   4.077   2.750  0.0072  0.0319  0.1399
  166TIP3    H1  504   2.646   4.085   2.670 -2.0380 -0.8635 -1.3752
  166TIP3    H2  505   2.576   4.168   2.775 -0.0402  0.3294 -0.9214
  167TIP3   OH2  506   4.241   5.591   4.888 -0.0253 -0.2685 -0.1003
  167TIP3    H1  507   4.200   5.540   4.818  1.8539 -1.2934 -0.5220
  167TIP3    H2  508   4.269   5.672   4.846  1.4093 -1.0231 -0.6972
  168TIP3   OH2  509   1.685   5.771   2.755  0.4124  0.1869 -0.2447
  168TIP3    H1  510   1.627   5.718   2.810  0.5399 -0.6336 -0.8708
  168TIP3    H2  511   1.692   5.722   2.673 -0.4637  1.7976 -1.3385
  169TIP3   OH2  512   0.824   3.613   0.511 -0.7271  0.2872 -0.3761
  169TIP3    H1  513   0.833   3.706   0.490  0.1222  0.4755  0.6959
  169TIP3    H2  514   0.739   3.607   0.556 -1.1051  0.4135 -1.0653
  170TIP3   OH2  515   5.733   4.589   1.297 -0.0785 -0.4097  0.4968
  170TIP3    H1  516   5.767   4.503   1.275 -2.2205 -1.3316  0.5248
  170TIP3    H2  517   5.676   4.611   1.223  1.5404  1.6975 -0.2360
  171TIP3   OH2  518   1.691   4.117   2.104  0.0890  0.8338 -0.3656
  171TIP3    H1  519   1.658   4.186   2.161 -0.3941  1.4669 -1.3796
  171TIP3    H2  520   1.756   4.072   2.156 -0.2418  1.4824  0.6347
  172TIP3   OH2  521   5.207   0.681   4.773  0.0060 -0.5281 -0.1036
  172TIP3    H1  522   5.249   0.720   4.697 -1.0522 -1.6101 -1.2756
  172TIP3    H2  523   5.164   0.754   4.817  0.7056  0.1181 -0.4711
  173TIP3   OH2  524   5.245   5.594   4.473 -0.2894 -0.4642 -0.5672
  173TIP3    H1  525   5.198   5.630   4.398  0.6196  0.9082 -0.5038
  173TIP3    H2  526   5.307   5.662   4.498  1.8637 -2.2283 -0.7400
  174TIP3   OH2  527   5.062   3.248   4.078 -0.7976  0.5299 -0.0901
  174TIP3    H1  528   5.124   3.287   4.139 -1.2956  0.7922  0.2517
  174TIP3    H2  529   5.046   3.317   4.013 -1.7517  0.9400  0.5681
  175TIP3   OH2  530   1.337   5.927   3.182  0.3437 -0.6113 -0.4471
  175TIP3    H1  531   1.322   5.940   3.088  0.5707  1.2715 -0.2713
  175TIP3    H2  532   1.252   5.944   3.223  0.5129 -0.2432 -0.2379
  176TIP3   OH2  533   6.251   0.984   0.854  0.1272 -0.5448  0.5212
  176TIP3    H1  534   6.176   0.931   0.880  0.0853 -0.6117  0.2681
  176TIP3    H2  535   6.326   0.926   0.862  0.0598 -0.6895  0.0841
  177TIP3   OH2  536   3.125   3.130   4.997  0.0452 -0.0808 -0.5723
  177TIP3    H1  537   3.036   3.116   4.964 -0.1621 -0.9866  0.3161
  177TIP3    H2  538   3.167   3.185   4.931 -1.1070  0.1739 -1.1099
  178TIP3   OH2  539   5.696   5.087   0.482 -0.5264  0.1465 -0.0063
  178TIP3    H1  540   5.621   5.032   0.463  0.8112 -1.4897 -0.7835
  178TIP3    H2  541   5.746   5.090   0.400  0.6046  0.6270  0.6691
  179TIP3   OH2  542   2.095   2.293   0.199 -0.0968  0.8997 -0.2159
  179TIP3    H1  543   2.183   2.328   0.187  0.1590  0.6356  0.8112
  179TIP3    H2  544   2.094   2.212   0.148 -0.4972  2.0275 -2.1015
  180TIP3   OH2  545   0.035   0.395   4.030 -0.5429  0.5371  0.5774
  180TIP3    H1  546   0.060   0.473   3.981  0.0681  0.6915  1.1260
  180TIP3    H2  547  -0.061   0.401   4.037 -0.5372  1.0315  0.2805
  181TIP3   OH2  548   3.655   5.976   4.278 -0.4460 -0.1890 -0.1267
  181TIP3    H1  549   3.673   5.978   4.373 -2.2300  0.9805  0.2236
  181TIP3    H2  550   3.578   5.920   4.270 -0.3045 -0.2746 -0.9005
  182TIP3   OH2  551   2.934   2.609   4.766  0.0749  0.3933  0.1151
  182TIP3    H1  552   2.955   2.632   4.856 -0.9694  0.7513  0.2825
  182TIP3    H2  553   2.867   2.540   4.774 -1.4809  1.7822 -0.3464
  183TIP3   OH2  554   3.039   0.278   2.623  0.3724 -0.0021  0.6495
  183TIP3    H1  555   3.020   0.248   2.712  0.1226 -3.1303 -0.3480
  183TIP3    H2  556   2.982   0.225   2.568  1.8273  0.5661 -1.5040
  184TIP3   OH2  557   5.565   5.422   2.974 -0.3281 -1.0353 -0.2989
  184TIP3    H1  558   5.640   5.478   2.989 -0.7696 -0.5212  0.0083
  184TIP3    H2  559   5.496   5.480   2.941 -0.5332 -1.5309 -0.7776
  185TIP3   OH2  560   6.074   2.634   3.347  0.4544 -0.1173  0.0794
  185TIP3    H1  561   6.140   2.703   3.348  0.1104  0.2179 -0.0331
  185TIP3    H2  562   6.119   2.557   3.382  0.8706  0.1349  0.1060
  186TIP3   OH2  563   2.733   5.620   3.086 -0.0439  0.1287  0.2358
  186TIP3    H1  564   2.744   5.555   3.155 -0.5323 -0.5125 -0.2842
  186TIP3    H2  565   2.658   5.672   3.114 -0.3160 -0.2067  0.1200
  187TIP3   OH2  566   1.523   1.687   4.383 -0.1178 -0.0040  0.1417
  187TIP3    H1  567   1.599   1.643   4.421  1.0176  0.8358 -1.0592
  187TIP3    H2  568   1.477   1.619   4.334  0.0152 -0.4646  0.6557
  188TIP3   OH2  569   3.972   4.831   1.011 -0.4791 -0.6641 -0.0855
  188TIP3    H1  570   3.952   4.839   0.918 -1.6628 -0.9280  0.1323
  188TIP3    H2  571   3.936   4.910   1.051  0.1973 -0.4566  0.1372
  189TIP3   OH2  572   5.689   5.016   3.176 -0.3726  0.0111  0.0791
  189TIP3    H1  573   5.637   4.975   3.107  0.3735 -1.4025  0.3162
  189TIP3    H2  574   5.683   4.957   3.250  2.5463 -0.9139 -0.2792
  190TIP3   OH2  575   4.092   1.208   4.793  0.0464  0.9721 -0.4387
  190TIP3    H1  576   4.139   1.234   4.872 -2.3001  0.8503  1.0952
  190TIP3    H2  577   4.067   1.117   4.808  0.3243  0.6504 -1.7442
  191TIP3   OH2  578   5.427   2.960   1.826 -0.1270 -0.1021 -0.0941
  191TIP3    H1  579   5.464   3.040   1.863  1.0140 -0.2576 -0.8458
  191TIP3    H2  580   5.487   2.936   1.755 -1.2698 -0.7910 -0.8711
  192TIP3   OH2  581   3.905   3.950   2.132 -0.2834 -0.5721 -0.3078
  192TIP3    H1  582   3.996   3.953   2.163 -0.2644  0.1185 -0.4112
  192TIP3    H2  583   3.911   3.923   2.041 -0.2254 -1.0660 -0.1610
  193TIP3   OH2  584   5.071   5.615   0.418 -0.0135  0.7698 -0.3713
  193TIP3    H1  585   5.125   5.536   0.425  1.1008  1.5487 -0.0285
  193TIP3    H2  586   4.982   5.581   0.402  0.3755 -0.5646  0.1280
  194TIP3   OH2  587   3.348   4.705   4.083  0.0548  0.3830  0.0973
  194TIP3    H1  588   3.363   4.767   4.155  0.5921  1.0528 -0.5721
  194TIP3    H2  589   3.257   4.677   4.094 -0.0530  0.9305  0.6855
  195TIP3   OH2  590   1.655   0.695   1.856 -0.0976 -0.2408  0.8824
  195TIP3    H1  591   1.656   0.601   1.840 -3.3191 -0.1095 -0.9000
  195TIP3    H2  592   1.589   0.707   1.924 -1.5073  0.7980 -0.5692
  196TIP3   OH2  593   2.185   5.798   3.440 -0.3214  0.1080 -0.0992
  196TIP3    H1  594   2.236   5.725   3.475 -0.3265 -0.4559 -1.2460
  196TIP3    H2  595   2.251   5.861   3.410 -0.3182  0.3436  0.3858
  197TIP3   OH2  596   6.013   4.825   1.155 -0.2208  0.6633 -0.0232
  197TIP3    H1  597   6.001   4.826   1.250  3.6681  2.7771  0.6676
  197TIP3    H2  598   5.956   4.895   1.123 -0.0735  1.2808  1.0289
  198TIP3   OH2  599   4.884   3.011   2.899 -0.4205  0.2697  0.1126
  198TIP3    H1  600   4.793   2.984   2.899 -0.5148  0.5450  0.9226
  198TIP3    H2  601   4.885   3.094   2.852 -0.6038  0.3158  0.1901
  199TIP3   OH2  602   1.519   5.190   2.963 -0.2122 -0.4508  0.2288
  199TIP3    H1  603   1.505   5.095   2.966 -0.4691 -0.3819  1.9262
  199TIP3    H2  604   1.433   5.228   2.980  0.4749  0.0305  3.0006
  200TIP3   OH2  605   0.912   0.587   4.630 -0.0342  0.0919  0.1232
  200TIP3    H1  606   0.970   0.525   4.673  0.4290 -1.0505 -2.0047
  200TIP3    H2  607   0.826   0.547   4.636  0.2134 -0.6399 -0.9693
  201TIP3   OH2  608   1.179   5.562   1.863 -0.0494  0.1651  0.0243
  201TIP3    H1  609   1.148   5.549   1.773 -0.8212 -1.4835  0.4824
  201TIP3    H2  610   1.129   5.637   1.895  1.0398  1.4840 -1.2480
  202TIP3   OH2  611   6.001   2.164   2.969  0.1582  0.1466  0.1912
  202TIP3    H1  612   5.933   2.101   2.944  0.2655  0.4869 -1.0167
  202TIP3    H2  613   6.036   2.196   2.886  1.6510  0.1521  0.7979
  203TIP3   OH2  614   0.861   4.200   3.013 -0.2719 -0.3018 -0.0234
  203TIP3    H1  615   0.858   4.154   2.929  2.8861 -1.6436  0.4564
  203TIP3    H2  616   0.831   4.135   3.076 -1.5723  0.3529  0.0759
  204TIP3   OH2  617   4.708   5.807   1.785  0.0813  0.7162 -0.2524
  204TIP3    H1  618   4.632   5.762   1.750  0.2278  0.0331  0.2716
  204TIP3    H2  619   4.680   5.898   1.795 -0.4347  0.6126 -0.7084
  205TIP3   OH2  620   2.249   4.824   3.377 -0.3304 -0.2006 -0.5811
  205TIP3    H1  621   2.183   4.833   3.446 -0.3545  0.4968 -0.6920
  205TIP3    H2  622   2.228   4.893   3.314 -0.0948 -0.6075 -1.1118
  206TIP3   OH2  623   2.058   4.150   0.199 -0.5403 -0.0291 -0.1988
  206TIP3    H1  624   1.985   4.164   0.139 -1.1089 -0.7442  0.2962
  206TIP3    H2  625   2.063   4.231   0.251 -0.7521  0.1572 -0.4700
  207TIP3   OH2  626   3.323   2.536   1.230 -0.5095 -0.0406  0.1391
  207TIP3    H1  627   3.348   2.501   1.145 -0.1072  3.6609 -1.4793
  207TIP3    H2  628   3.246   2.486   1.255 -0.5949 -1.3160 -2.3535
  208TIP3   OH2  629   4.525   1.715   0.850 -0.1300  0.0145 -0.0290
  208TIP3    H1  630   4.576   1.794   0.870  0.9775 -0.7048  0.0426
  208TIP3    H2  631   4.434   1.743   0.860  0.2548  0.3570  3.6427
  209TIP3   OH2  632   6.308   1.904   4.850  0.0141 -0.3740  0.1085
  209TIP3    H1  633   6.233   1.845   4.854 -1.6869  1.4804 -1.8018
  209TIP3    H2  634   6.276   1.980   4.802  2.7272  1.1625  0.5247
  210TIP3   OH2  635   3.812   3.151   4.147  0.2513 -0.7303 -0.4154
  210TIP3    H1  636   3.815   3.152   4.052 -0.8477  0.0194 -0.4585
  210TIP3    H2  637   3.773   3.235   4.171  1.2138 -0.5817  0.7281
  211TIP3   OH2  638   3.724   5.664   4.222 -0.2462  0.1694  0.0046
  211TIP3    H1  639   3.736   5.620   4.137 -0.8671  0.3515 -0.1834
  211TIP3    H2  640   3.639   5.707   4.215 -0.7073 -0.5263  1.0287
  212TIP3   OH2  641  -0.017   4.080   3.211  0.0911 -0.9374 -0.1834
  212TIP3    H1  642   0.015   4.157   3.258 -2.4148 -0.1133  0.2909
  212TIP3    H2  643   0.034   4.079   3.130  1.3074  0.2462  0.5289
  213TIP3   OH2  644   2.635   4.191   4.500  0.8926  0.3060 -0.6607
  213TIP3    H1  645   2.590   4.272   4.522  1.9580  1.1376 -1.4233
  213TIP3    H2  646   2.726   4.207   4.523  0.8628 -1.3052  0.7517
  214TIP3   OH2  647   0.968   4.795   0.497 -0.0624  0.0466  0.0041
  214TIP3    H1  648   0.921   4.874   0.525 -0.9701 -0.5248  0.1405
  214TIP3    H2  649   1.049   4.827   0.458 -0.1136  1.0108  0.6732
  215TIP3   OH2  650   2.168   4.815   1.380 -0.1562  0.0120 -0.6454
  215TIP3    H1  651   2.139   4.845   1.294  1.0952 -0.4009 -1.2480
  215TIP3    H2  652   2.196   4.894   1.426 -1.9984  0.3906 -0.1169
  216TIP3   OH2  653   2.414   2.410   0.853  0.2630  0.4085  0.8619
  216TIP3    H1  654   2.371   2.438   0.772  0.3701  0.7710  0.9326
  216TIP3    H2  655   2.420   2.315   0.845  0.1914  0.4364  0.4838
  217TIP3   OH2  656   2.898   0.168   3.988 -0.1849 -0.1871 -0.8968
  217TIP3    H1  657   2.874   0.178   3.896 -0.1930 -0.9821 -0.9832
  217TIP3    H2  658   2.817   0.141   4.031  0.2718 -1.8199 -1.0060
  218TIP3   OH2  659   5.892   5.167   3.067 -0.2688  0.5535 -0.4575
  218TIP3    H1  660   5.855   5.141   2.983 -0.4701 -0.7221  0.0020
  218TIP3    H2  661   5.839   5.121   3.132  0.5095  0.7210  0.3209
  219TIP3   OH2  662   4.644   4.437   4.764  0.1686 -0.0680 -0.7848
  219TIP3    H1  663   4.595   4.509   4.725  1.5396  0.1772 -2.1516
  219TIP3    H2  664   4.650   4.372   4.695  1.2740 -0.3169 -0.4670
  220TIP3   OH2  665   0.007   0.701   0.232 -0.4064 -0.4879  0.4086
  220TIP3    H1  666  -0.020   0.609   0.236  1.8720 -1.1872  1.0611
  220TIP3    H2  667   0.072   0.710   0.301  0.8165  1.1291 -0.8665
  221TIP3   OH2  668   6.235   1.183   2.955  0.4052  0.2970  0.7267
  221TIP3    H1  669   6.166   1.225   3.006  0.1852  1.6319 -0.6223
  221TIP3    H2  670   6.214   1.202   2.864  1.9356 -0.2195  0.2216
  222TIP3   OH2  671   0.339   2.527   1.971 -0.3508  0.1304 -0.4210
  222TIP3    H1  672   0.273   2.506   1.904 -0.6497 -1.0382  0.2173
  222TIP3    H2  673   0.389   2.446   1.982  0.0214  0.4641  0.4109
  223TIP3   OH2  674   4.233   1.621   2.271 -0.3183  0.1381  0.0068
  223TIP3    H1  675   4.255   1.714   2.267 -1.1898  0.3606  0.1761
  223TIP3    H2  676   4.195   1.602   2.185 -0.2884 -0.0254  0.0292
  224TIP3   OH2  677   0.439   3.491   1.978  0.3230  0.1278  0.5032
  224TIP3    H1  678   0.463   3.490   1.885 -0.3097  1.1484  0.3144
  224TIP3    H2  679   0.448   3.400   2.006 -2.0482 -0.7242 -1.2181
  225TIP3   OH2  680   4.267   1.330   3.553  0.3527 -0.2490 -0.4684
  225TIP3    H1  681   4.302   1.413   3.585  1.5227 -0.4663 -1.1400
  225TIP3    H2  682   4.177   1.329   3.584  0.5275  0.9543  0.1439
  226TIP3   OH2  683   0.905   4.336   1.935  0.8250  0.3282 -0.1845
  226TIP3    H1  684   0.903   4.408   1.871  0.1708 -1.4650 -2.3110
  226TIP3    H2  685   0.996   4.308   1.936  1.1285  1.2557  0.8164
  227TIP3   OH2  686   0.888   0.621   3.406  0.0310 -0.2131  0.0902
  227TIP3    H1  687   0.945   0.659   3.473 -1.2484 -0.3028  1.2693
  227TIP3    H2  688   0.815   0.583   3.455 -1.6041  0.8374 -1.4066
  228TIP3   OH2  689   5.798   2.144   1.541 -0.3312 -0.1068  0.7128
  228TIP3    H1  690   5.831   2.083   1.475 -2.0988 -1.0902  0.6813
  228TIP3    H2  691   5.703   2.139   1.533 -0.5887  3.5284 -0.0495
  229TIP3   OH2  692   2.987   1.939   1.546 -0.5193  0.8035 -0.4425
  229TIP3    H1  693   2.971   2.004   1.477  3.0550 -0.4517 -2.7479
  229TIP3    H2  694   2.989   1.855   1.500  1.9019 -0.0975  1.1006
  230TIP3   OH2  695   0.034   1.858   0.770 -0.4451 -0.7364 -0.6275
  230TIP3    H1  696   0.025   1.837   0.863 -1.2183 -2.0857 -0.9705
  230TIP3    H2  697   0.119   1.902   0.763 -0.3736 -0.6369  0.7055
  231TIP3   OH2  698   3.810   2.151   0.279 -0.1132  0.1636 -0.3021
  231TIP3    H1  699   3.779   2.079   0.224  2.3261 -2.6844  1.6974
  231TIP3    H2  700   3.886   2.185   0.232 -0.2488  0.2672 -0.4466
  232TIP3   OH2  701   2.226   4.374   1.429  0.0786  0.1004 -0.2362
  232TIP3    H1  702   2.176   4.336   1.501  0.0805  0.1236 -0.2223
  232TIP3    H2  703   2.161   4.418   1.374  0.1940  1.0643  0.3660
  233TIP3   OH2  704   6.131   2.328   2.224 -0.9679 -0.1201  0.1369
  233TIP3    H1  705   6.118   2.391   2.153  1.3361 -1.0671 -1.2425
  233TIP3    H2  706   6.226   2.318   2.229 -1.0951 -0.6040  2.9479
  234TIP3   OH2  707   3.056   1.507   1.791 -0.1662 -0.0816  0.4932
  234TIP3    H1  708   3.112   1.530   1.716 -1.8423  0.7548 -0.5461
  234TIP3    H2  709   3.050   1.588   1.841 -0.8619 -0.0152  0.3085
  235TIP3   OH2  710   5.144   1.568   3.817  0.4360  0.3961 -0.4441
  235TIP3    H1  711   5.080   1.617   3.869  0.1375  1.7361 -2.0149
  235TIP3    H2  712   5.229   1.601   3.847  0.3299  0.0952  0.2083
  236TIP3   OH2  713   3.040   0.932   4.955  0.2058  0.4796  0.4438
  236TIP3    H1  714   2.984   0.981   4.895  1.1403  2.2429  0.9079
  236TIP3    H2  715   3.125   0.929   4.911  0.5608  0.6576  1.1039
  237TIP3   OH2  716   6.163   3.562   3.317 -0.0598  0.0485 -1.4046
  237TIP3    H1  717   6.098   3.565   3.388 -0.6552 -0.1772 -1.9310
  237TIP3    H2  718   6.168   3.652   3.286  1.1404  0.4165 -0.2683
  238TIP3   OH2  719   0.230   5.537   0.989  0.3019  0.5264  0.2720
  238TIP3    H1  720   0.285   5.587   1.049  1.7522  0.4434 -0.9099
  238TIP3    H2  721   0.182   5.603   0.939 -0.3763  0.6114  1.0113
  239TIP3   OH2  722   0.615   5.175   0.780 -0.1707 -0.1450 -0.4773
  239TIP3    H1  723   0.628   5.206   0.690  1.2705  0.3443 -0.1217
  239TIP3    H2  724   0.581   5.252   0.827 -0.1720 -0.1798 -0.4202
  240TIP3   OH2  725   3.001   3.527   1.725  0.1208 -0.7439  0.1390
  240TIP3    H1  726   2.968   3.441   1.751  1.1130 -1.4411 -0.8014
  240TIP3    H2  727   3.096   3.520   1.735  0.3692 -0.3802 -1.6975
  241TIP3   OH2  728   5.937   0.027   3.702 -0.0989  0.4778  0.3750
  241TIP3    H1  729   5.977   0.081   3.770  1.1061  1.5897 -1.1644
  241TIP3    H2  730   5.970   0.062   3.620 -0.8068 -1.3947 -0.7787
  242TIP3   OH2  731   3.930   4.674   1.373 -0.2045 -0.3708 -0.7265
  242TIP3    H1  732   3.838   4.689   1.395 -0.4798 -0.8100 -1.5614
  242TIP3    H2  733   3.978   4.720   1.442 -1.0432 -1.4630  0.6490
  243TIP3   OH2  734   0.544   5.243   1.547 -0.0777  0.0639  0.3573
  243TIP3    H1  735   0.528   5.148   1.550  1.5750 -0.2853 -0.4860
  243TIP3    H2  736   0.514   5.269   1.461 -1.3295  0.4999  0.9047
  244TIP3   OH2  737   4.470   0.028   4.072  0.0956  0.2193 -0.2636
  244TIP3    H1  738   4.537  -0.037   4.052 -0.7817 -0.3986 -1.2878
  244TIP3    H2  739   4.516   0.095   4.123  1.0394 -1.1533  0.7630
  245TIP3   OH2  740   0.230   5.323   0.166  0.0569  0.5265  0.4438
  245TIP3    H1  741   0.235   5.418   0.168  0.7657  0.4926  0.4135
  245TIP3    H2  742   0.168   5.304   0.096 -2.4941  1.0169  2.4154
  246TIP3   OH2  743   3.579   0.207   4.185  0.0332 -0.5546  0.1038
  246TIP3    H1  744   3.532   0.188   4.266 -0.3634  0.6320  0.1676
  246TIP3    H2  745   3.655   0.149   4.187  1.0140  0.7089  2.1993
  247TIP3   OH2  746   3.121   0.723   2.826 -0.3874 -0.0484  0.1861
  247TIP3    H1  747   3.055   0.739   2.759  1.9541  0.9120 -2.0854
  247TIP3    H2  748   3.112   0.630   2.848 -1.3838 -0.3291 -1.2911
  248TIP3   OH2  749   5.379   2.822   2.258 -0.0755 -0.3966 -0.1575
  248TIP3    H1  750   5.393   2.830   2.352  2.1610 -1.5429 -0.3265
  248TIP3    H2  751   5.326   2.743   2.248 -1.0141  0.1787  0.1569
  249TIP3   OH2  752   4.211   5.011   2.078  0.0560 -0.4712 -0.1570
  249TIP3    H1  753   4.181   4.952   2.009  0.0859 -1.3090  0.5337
  249TIP3    H2  754   4.180   4.972   2.160  0.4296  0.2483  0.3518
  250TIP3   OH2  755   1.497   4.284   2.509 -0.2980 -0.1524 -0.1067
  250TIP3    H1  756   1.526   4.370   2.540  0.3676 -0.4394  0.0773
  250TIP3    H2  757   1.517   4.224   2.581 -1.0719 -0.4105 -0.1016
  251TIP3   OH2  758   1.630   0.816   0.622  0.5562 -0.5446 -0.1505
  251TIP3    H1  759   1.590   0.804   0.536  1.4730 -4.0326 -0.2450
  251TIP3    H2  760   1.722   0.833   0.603  0.3480  0.9981  0.1492
  252TIP3   OH2  761   1.835   4.173   1.518  0.2233 -0.2736 -0.3436
  252TIP3    H1  762   1.833   4.168   1.422 -0.6032 -0.9783 -0.2973
  252TIP3    H2  763   1.926   4.195   1.538  0.3627  0.0767 -1.2965
  253TIP3   OH2  764  -0.020   5.048   3.133 -0.4210  0.1150 -0.4668
  253TIP3    H1  765   0.036   5.104   3.186 -0.5040 -0.3311  0.1135
  253TIP3    H2  766   0.011   4.959   3.152 -0.6182 -0.0642 -0.9752
  254TIP3   OH2  767   3.203   3.482   4.644 -0.4991  0.6685  0.0763
  254TIP3    H1  768   3.281   3.487   4.589 -1.4536  0.9429 -1.3158
  254TIP3    H2  769   3.175   3.573   4.655 -1.6497  0.4774 -1.0199
  255TIP3   OH2  770   0.549   4.127   2.207  0.4385  0.0065 -0.4401
  255TIP3    H1  771   0.483   4.180   2.252  0.5431  0.4874 -0.8475
  255TIP3    H2  772   0.581   4.183   2.137  0.0294 -0.8539 -1.3473
  256TIP3   OH2  773   4.836   0.199   2.862 -0.2595  0.1521  0.2970
  256TIP3    H1  774   4.929   0.185   2.881 -0.3952 -1.2163  0.0287
  256TIP3    H2  775   4.795   0.209   2.948 -0.0448 -0.5305  0.4863
  257TIP3   OH2  776   5.270   3.306   4.333 -0.3074 -0.0907  0.0548
  257TIP3    H1  777   5.325   3.373   4.374  1.4345 -1.2404 -0.3175
  257TIP3    H2  778   5.237   3.254   4.407  1.6743 -1.2936  0.1417
  258TIP3   OH2  779   4.204   2.860   0.962  0.1498  0.1000 -0.1551
  258TIP3    H1  780   4.223   2.917   0.887 -0.3158  0.1067 -0.2726
  258TIP3    H2  781   4.139   2.909   1.012  2.2333  1.2658  1.6156
  259TIP3   OH2  782   6.061   0.338   5.150  0.1580 -0.5790  0.3067
  259TIP3    H1  783   6.003   0.320   5.077  1.1888 -0.5958 -0.5306
  259TIP3    H2  784   6.035   0.275   5.218 -2.1151  0.7152  0.7411
  260TIP3   OH2  785   1.920   4.103   2.299  0.0342 -0.1353  0.2749
  260TIP3    H1  786   1.919   4.078   2.392 -2.3005 -0.0897  0.3204
  260TIP3    H2  787   2.012   4.094   2.273  0.2881 -3.1411  1.7788
  261TIP3   OH2  788   2.032   0.305   2.417  0.4266  0.1961  0.2205
  261TIP3    H1  789   2.030   0.399   2.402 -2.0646  0.1243 -0.2969
  261TIP3    H2  790   2.051   0.296   2.510 -2.9330  1.4308  1.1609
  262TIP3   OH2  791   2.844   5.037   4.094  0.6255 -0.0738 -0.1627
  262TIP3    H1  792   2.872   5.098   4.026 -0.7895  0.8201  0.0136
  262TIP3    H2  793   2.769   5.080   4.136  0.2775 -1.4476  0.7096
  263TIP3   OH2  794   4.959   5.720   1.156  0.2277  0.1873  0.6444
  263TIP3    H1  795   5.037   5.678   1.119 -1.1508 -0.7378 -1.3922
  263TIP3    H2  796   4.954   5.687   1.245  1.7176 -0.3351  0.5652
  264TIP3   OH2  797   2.003   0.000   2.059 -0.2731 -0.6404 -0.0867
  264TIP3    H1  798   2.060   0.054   2.114 -2.0482 -0.1851  1.3889
  264TIP3    H2  799   1.927   0.056   2.041 -0.7379 -1.5796 -1.1546
  265TIP3   OH2  800   3.504   4.454   4.822  0.2660  0.0687 -0.2579
  265TIP3    H1  801   3.481   4.440   4.914  0.0348 -0.1916 -0.3548
  265TIP3    H2  802   3.438   4.517   4.791  0.3952  0.2213 -0.2238
  266TIP3   OH2  803   4.658   3.380   2.937  0.6002  0.8448  0.5341
  266TIP3    H1  804   4.585   3.433   2.906 -0.8756 -0.5216  1.5182
  266TIP3    H2  805   4.617   3.299   2.969  2.6744 -0.5736 -0.1903
  267TIP3   OH2  806   2.698   4.967   3.793 -0.0208  0.2274  0.4344
  267TIP3    H1  807   2.754   5.002   3.862 -0.3170  1.4639  0.0827
  267TIP3    H2  808   2.634   4.912   3.839  0.8606 -0.3971  0.9321
  268TIP3   OH2  809   2.915   3.968   4.977 -0.2858  0.2055 -0.1054
  268TIP3    H1  810   2.921   4.013   4.893  0.1368 -1.3839 -0.9515
  268TIP3    H2  811   2.822   3.975   5.001 -0.2891  1.2258 -0.3570
  269TIP3   OH2  812   1.727   0.243   4.652  0.2491  0.3974 -0.7089
  269TIP3    H1  813   1.686   0.163   4.619  1.1127 -0.0356 -0.7778
  269TIP3    H2  814   1.707   0.243   4.746 -1.3592  1.1070 -1.0277
  270TIP3   OH2  815   4.167   1.694   0.321  0.1020  0.5043 -0.0253
  270TIP3    H1  816   4.247   1.711   0.271 -0.8582  0.5649 -1.5913
  270TIP3    H2  817   4.177   1.746   0.400  2.2005 -0.5147  0.4649
  271TIP3   OH2  818   3.692   5.666   2.317  0.1785 -0.4527 -0.8513
  271TIP3    H1  819   3.676   5.756   2.290 -0.5077 -0.9800 -2.2993
  271TIP3    H2  820   3.622   5.646   2.379  1.0617  0.3839  0.4621
  272TIP3   OH2  821   3.759   4.827   4.646 -0.2704  0.0443  0.2195
  272TIP3    H1  822   3.852   4.818   4.670  0.0916 -0.4434 -1.2947
  272TIP3    H2  823   3.737   4.745   4.603 -0.7570  1.0360 -1.4998
  273TIP3   OH2  824   4.301   1.819   3.487 -0.5191 -0.1438 -0.2521
  273TIP3    H1  825   4.386   1.859   3.472  0.0930 -0.7837  1.2706
  273TIP3    H2  826   4.320   1.741   3.539 -2.0292 -0.3086  0.1120
  274TIP3   OH2  827   5.420   0.703   3.767  0.4837  0.2098  0.1342
  274TIP3    H1  828   5.440   0.681   3.858 -0.2783 -0.2770  0.1948
  274TIP3    H2  829   5.394   0.795   3.770  3.1158  1.0528 -0.0333
  275TIP3   OH2  830   2.835   3.355   0.176 -0.7424 -0.9062  0.6546
  275TIP3    H1  831   2.858   3.447   0.162 -1.5878 -0.8695 -0.7987
  275TIP3    H2  832   2.912   3.306   0.149 -0.7317 -0.6470  0.1957
  276TIP3   OH2  833   5.383   1.285   3.894 -0.5506 -0.7065  0.3180
  276TIP3    H1  834   5.329   1.221   3.942 -0.6995  0.5858  1.9930
  276TIP3    H2  835   5.393   1.357   3.956  0.7034  0.3283 -1.0455
  277TIP3   OH2  836   3.635   1.460   1.362  0.1916  0.0209  0.1353
  277TIP3    H1  837   3.577   1.454   1.286 -1.8419  0.7101  1.5648
  277TIP3    H2  838   3.723   1.459   1.324 -0.7485  0.9697 -2.2712
  278TIP3   OH2  839   6.256   4.881   3.548  0.0889 -0.3915 -0.0756
  278TIP3    H1  840   6.167   4.870   3.514 -0.3866  0.3637  0.9165
  278TIP3    H2  841   6.301   4.800   3.521 -0.5352 -0.2667 -1.6293
  279TIP3   OH2  842   2.271   4.866   2.229 -0.0333 -0.0916  0.2602
  279TIP3    H1  843   2.337   4.844   2.295 -1.9715 -0.8161  2.0505
  279TIP3    H2  844   2.248   4.782   2.189  1.3429  0.3728 -1.6583
  280TIP3   OH2  845   4.471   0.488   1.362  0.0555  0.0631 -0.7138
  280TIP3    H1  846   4.564   0.470   1.377 -0.5103 -1.5134  1.2974
  280TIP3    H2  847   4.451   0.444   1.279  1.0316  0.2249 -1.0468
  281TIP3   OH2  848   0.531   4.562   3.873 -1.1515  0.1396  0.1719
  281TIP3    H1  849   0.452   4.508   3.878  0.0436 -1.8305 -0.6205
  281TIP3    H2  850   0.590   4.524   3.938 -0.8236  1.5568  0.7398
  282TIP3   OH2  851   6.249   4.996   2.397  0.1289 -0.9303  0.3636
  282TIP3    H1  852   6.248   5.027   2.487  2.2137 -1.8762  0.7708
  282TIP3    H2  853   6.156   4.991   2.372 -0.4382  0.8359  1.8903
  283TIP3   OH2  854   2.932   5.278   4.577 -0.9709 -0.3064 -0.2126
  283TIP3    H1  855   3.003   5.333   4.543  1.0291 -2.4846  0.1547
  283TIP3    H2  856   2.866   5.340   4.609  0.8391  1.8335 -0.3841
  284TIP3   OH2  857   2.804   0.879   5.078  0.2893  0.1358  0.5317
  284TIP3    H1  858   2.892   0.890   5.042  0.3281  0.0421  0.5958
  284TIP3    H2  859   2.800   0.787   5.104 -0.5920 -0.4627 -1.5114
  285TIP3   OH2  860   2.579   1.869   0.700  0.6235  0.0215 -0.0856
  285TIP3    H1  861   2.486   1.854   0.716  0.1058  0.9903 -1.9320
  285TIP3    H2  862   2.610   1.787   0.661  0.3768 -0.0483 -0.1365
  286TIP3   OH2  863   2.170   1.679   3.883 -0.2493 -0.5131 -0.0149
  286TIP3    H1  864   2.130   1.668   3.796  1.1302 -1.2498 -0.5797
  286TIP3    H2  865   2.208   1.767   3.881  0.6466 -0.8937 -0.5514
  287TIP3   OH2  866   1.358   1.501   3.150 -0.5786  0.0298  0.2242
  287TIP3    H1  867   1.309   1.446   3.088 -0.7780  2.0373 -1.5068
  287TIP3    H2  868   1.336   1.591   3.125 -0.4475  0.9497  3.0846
  288TIP3   OH2  869   3.614   5.836   3.753 -0.3091 -0.1065  0.0915
  288TIP3    H1  870   3.681   5.903   3.740  0.1946 -0.0627  2.4588
  288TIP3    H2  871   3.538   5.867   3.704  0.3320  1.5241  0.0747
  289TIP3   OH2  872   2.604   5.194   1.490  0.2815 -0.2097  0.1538
  289TIP3    H1  873   2.631   5.138   1.563 -0.8491  0.0011  0.7658
  289TIP3    H2  874   2.638   5.281   1.513 -0.9153  0.0747  0.9690
  290TIP3   OH2  875   1.119   0.955   2.889 -0.0276  0.3616 -0.4256
  290TIP3    H1  876   1.050   0.935   2.826 -0.9442  0.1830  0.6142
  290TIP3    H2  877   1.199   0.957   2.836 -0.6339 -0.7544 -1.4501
  291TIP3   OH2  878   0.992   0.836   4.540  0.2734 -0.1444 -1.1887
  291TIP3    H1  879   0.921   0.900   4.527  0.9559  1.3890  1.6519
  291TIP3    H2  880   0.951   0.765   4.590  0.7225  1.0226  0.9884
  292TIP3   OH2  881   4.964   1.777   1.192 -0.4190  0.4144  0.5216
  292TIP3    H1  882   5.034   1.720   1.223 -0.7171 -0.0750  0.2946
  292TIP3    H2  883   4.907   1.789   1.268  1.1120  2.7194  1.4336
  293TIP3   OH2  884   4.673   1.202   0.018  0.1484 -0.3894 -0.9786
  293TIP3    H1  885   4.746   1.160  -0.028 -0.0581 -0.2475 -1.4397
  293TIP3    H2  886   4.705   1.289   0.040  0.0328 -0.2317 -1.4151
  294TIP3   OH2  887   0.996   0.220   0.325 -0.8332 -0.2658 -0.4119
  294TIP3    H1  888   0.954   0.134   0.319 -1.6032  0.0447  0.3289
  294TIP3    H2  889   0.969   0.266   0.245 -1.4356 -0.2831 -0.2252
  295TIP3   OH2  890   0.657   1.769   2.636 -0.0598  0.1307  0.5050
  295TIP3    H1  891   0.697   1.756   2.722  1.2033 -1.1949 -0.2380
  295TIP3    H2  892   0.593   1.699   2.629 -0.9934  0.9339  0.8039
  296TIP3   OH2  893   2.155   2.961   2.898  0.0178  0.2098  0.2266
  296TIP3    H1  894   2.238   3.008   2.901  0.2364 -0.0656 -0.9999
  296TIP3    H2  895   2.162   2.896   2.967 -0.6952  2.5520  2.6873
  297TIP3   OH2  896   2.659   1.650   4.332  0.0875 -0.0761  0.1364
  297TIP3    H1  897   2.693   1.715   4.392  0.0631  0.5133 -0.4704
  297TIP3    H2  898   2.596   1.599   4.383  1.7396 -1.1024  1.2409
  298TIP3   OH2  899   4.483   5.557   0.036 -0.0743  0.0768  0.2071
  298TIP3    H1  900   4.436   5.630   0.078 -1.0209 -0.1049 -0.4975
  298TIP3    H2  901   4.519   5.595  -0.044  1.7239  0.4207  1.1327
  299TIP3   OH2  902   4.104   5.101   1.642 -0.0229 -0.4084  0.4152
  299TIP3    H1  903   4.123   5.195   1.649 -1.8850 -0.1169  2.3098
  299TIP3    H2  904   4.030   5.096   1.582  0.2620 -0.7181  0.0823
  300TIP3   OH2  905   5.910   1.572   1.603  0.0176  0.1740 -0.0782
  300TIP3    H1  906   5.823   1.545   1.576 -0.1970 -0.8712  1.5055
  300TIP3    H2  907   5.967   1.548   1.529 -0.7508 -1.0670 -0.2894
  301TIP3   OH2  908   3.952   0.723   2.127 -0.5228 -0.1273 -0.4035
  301TIP3    H1  909   3.878   0.730   2.187 -0.5285  1.9705 -0.5647
  301TIP3    H2  910   3.925   0.772   2.050  0.4268 -0.6910 -1.1146
  302TIP3   OH2  911   2.086   2.797   4.651 -0.0203  0.6729  0.1612
  302TIP3    H1  912   2.135   2.872   4.618  1.1640 -0.5200 -0.9622
  302TIP3    H2  913   2.076   2.813   4.744  1.5034  1.5193  0.2060
  303TIP3   OH2  914   2.625   5.513   2.862  0.1501  0.5714  0.2243
  303TIP3    H1  915   2.658   5.556   2.941 -0.1101 -0.6713  1.0415
  303TIP3    H2  916   2.668   5.559   2.790  0.7661  1.4182  1.1065
  304TIP3   OH2  917   2.591   4.168   0.737  0.1954  0.2950  0.1181
  304TIP3    H1  918   2.628   4.256   0.750  1.9270 -0.4097  0.2696
  304TIP3    H2  919   2.583   4.160   0.642 -1.2657  1.0839  0.1412
  305TIP3   OH2  920   6.171   3.773   3.765  0.3274 -0.4698 -0.1385
  305TIP3    H1  921   6.206   3.685   3.752 -0.9175 -1.0402  0.2013
  305TIP3    H2  922   6.199   3.798   3.853 -0.4943 -1.1248  0.3295
  306TIP3   OH2  923   1.423   1.077   3.859  0.6655 -0.3245 -0.1596
  306TIP3    H1  924   1.410   1.053   3.951  3.3324 -0.2239  0.2996
  306TIP3    H2  925   1.409   0.995   3.811  0.0843 -0.5592  0.3900
  307TIP3   OH2  926   3.219   1.985   4.183 -0.0570 -0.3859  0.0048
  307TIP3    H1  927   3.124   1.994   4.181  0.1036  1.8096 -0.0881
  307TIP3    H2  928   3.246   1.987   4.091  0.1236 -0.5241  0.0528
  308TIP3   OH2  929   5.102   3.571   2.617 -0.0483 -0.2434 -0.0806
  308TIP3    H1  930   5.144   3.603   2.697  2.3585  0.4725 -1.5231
  308TIP3    H2  931   5.134   3.481   2.608 -1.3964 -0.7982  0.4211
  309TIP3   OH2  932   4.546   0.614   2.474 -0.2067  0.5805  0.3974
  309TIP3    H1  933   4.576   0.565   2.398 -0.9622  0.4359  0.1817
  309TIP3    H2  934   4.494   0.552   2.525  0.7906  0.5077  1.3551
  310TIP3   OH2  935   3.827   2.636   4.949  0.2914  0.1654  0.1037
  310TIP3    H1  936   3.868   2.605   5.030 -0.0347  1.1125  0.6440
  310TIP3    H2  937   3.813   2.557   4.898  1.5800 -0.3302  0.4654
  311TIP3   OH2  938   4.991   4.184   3.886  0.4218 -0.1215  0.0211
  311TIP3    H1  939   4.921   4.249   3.883  0.7613  0.3083  0.8312
  311TIP3    H2  940   4.991   4.144   3.800 -1.0235 -0.3494  0.1060
  312TIP3   OH2  941   1.122   1.616   2.823 -0.4620 -0.3878  0.2720
  312TIP3    H1  942   1.058   1.619   2.752 -0.4134 -2.4351  0.0716
  312TIP3    H2  943   1.203   1.650   2.785 -0.4449 -1.4295 -0.6887
  313TIP3   OH2  944   5.797   4.216   0.199  0.0541 -0.2404  0.0374
  313TIP3    H1  945   5.765   4.141   0.249  0.1060 -1.3081 -1.4895
  313TIP3    H2  946   5.772   4.292   0.252 -2.6922 -1.1400  0.2041
  314TIP3   OH2  947   2.232   2.257   2.939  0.5333 -0.0718  0.0300
  314TIP3    H1  948   2.310   2.202   2.946  0.4273 -0.3161 -0.6980
  314TIP3    H2  949   2.240   2.300   2.854 -0.7218 -1.0243 -0.5961
  315TIP3   OH2  950   4.309   4.720   0.685  0.4814 -0.5243 -0.1596
  315TIP3    H1  951   4.278   4.647   0.739 -1.1617  1.6831  2.1092
  315TIP3    H2  952   4.404   4.719   0.696  0.3019 -1.0034  1.6846
  316TIP3   OH2  953   5.855   0.960   4.619 -0.6441  0.2706 -0.1497
  316TIP3    H1  954   5.804   0.899   4.566 -1.6511 -1.2372  2.3920
  316TIP3    H2  955   5.918   0.905   4.665  0.5682  1.6043 -0.1432
  317TIP3   OH2  956   4.159   3.332   2.846 -0.9055  0.5898  0.3131
  317TIP3    H1  957   4.133   3.286   2.926 -1.8797  1.2798  0.4023
  317TIP3    H2  958   4.217   3.270   2.801 -1.6219 -0.4455  0.7662
  318TIP3   OH2  959   5.967   4.290   0.479 -0.0380 -0.0145  0.0213
  318TIP3    H1  960   5.969   4.371   0.530  1.2577 -0.0255  0.0259
  318TIP3    H2  961   5.923   4.313   0.397 -0.0709  0.5713  0.2018
  319TIP3   OH2  962   0.515   3.397   1.722  0.5648  0.7375  0.4295
  319TIP3    H1  963   0.487   3.308   1.742 -2.7883  1.0268 -2.1465
  319TIP3    H2  964   0.577   3.388   1.650  1.3913  0.4842  1.1495
  320TIP3   OH2  965   5.151   5.750   4.904 -0.5711 -0.6934  0.1760
  320TIP3    H1  966   5.146   5.843   4.884 -1.0199 -0.8731 -0.5509
  320TIP3    H2  967   5.245   5.731   4.906 -0.4742 -0.1880  0.5195
  321TIP3   OH2  968   5.296   1.648   4.066 -0.0255  0.3390 -0.0328
  321TIP3    H1  969   5.233   1.714   4.038 -0.4896 -0.5271 -1.1665
  321TIP3    H2  970   5.363   1.649   3.998  0.9502  0.9255  0.9209
  322TIP3   OH2  971   3.059   2.298   1.911  0.1893 -0.2211  0.1774
  322TIP3    H1  972   3.005   2.244   1.854 -1.9852  1.0248  0.9342
  322TIP3    H2  973   3.145   2.300   1.868 -0.6946 -1.2588 -1.7618
  323TIP3   OH2  974   2.593   4.845   0.106 -0.2994 -0.3885  0.1766
  323TIP3    H1  975   2.671   4.874   0.058  0.8939 -2.5240  0.6822
  323TIP3    H2  976   2.623   4.836   0.197 -1.2030 -0.9724  0.4292
  324TIP3   OH2  977   3.489   0.629   3.417 -0.8177 -0.0943 -0.0256
  324TIP3    H1  978   3.477   0.553   3.359  1.0733  1.3933 -2.5626
  324TIP3    H2  979   3.569   0.671   3.385 -1.4870  2.6818  1.6459
  325TIP3   OH2  980   4.866   4.137   0.703 -0.2105 -0.1312 -0.4558
  325TIP3    H1  981   4.867   4.224   0.663  2.7729  0.0187 -0.3289
  325TIP3    H2  982   4.915   4.149   0.785  1.9965 -2.2355 -1.3597
  326TIP3   OH2  983   0.845   2.226   0.891  0.0652 -0.1717  0.2664
  326TIP3    H1  984   0.922   2.191   0.848 -0.4016 -2.7142  1.3185
  326TIP3    H2  985   0.817   2.299   0.836  3.8843  1.6969  0.5260
  327TIP3   OH2  986   4.827   4.395   0.864  0.4543  0.0566 -0.3354
  327TIP3    H1  987   4.832   4.484   0.898  0.3026 -0.5765  1.4642
  327TIP3    H2  988   4.888   4.345   0.917  0.6979 -0.8897 -1.4562
  328TIP3   OH2  989   5.835   5.405   1.681 -0.3213  0.7362  0.6965
  328TIP3    H1  990   5.900   5.426   1.748 -0.1536  0.0620  0.7491
  328TIP3    H2  991   5.872   5.439   1.600 -0.1545  0.8357  0.8135
  329TIP3   OH2  992   1.108   5.455   2.831  0.0302 -0.3779 -0.1419
  329TIP3    H1  993   1.036   5.485   2.777  0.2612 -1.5429 -1.1509
  329TIP3    H2  994   1.180   5.439   2.769  2.2864  3.6508  1.0920
  330TIP3   OH2  995   3.937   3.946   2.543 -0.5701 -0.6628  0.6228
  330TIP3    H1  996   3.995   3.903   2.605  2.3262  1.3766 -0.4736
  330TIP3    H2  997   3.994   3.979   2.474 -3.0653  1.2540 -0.7228
  331TIP3   OH2  998   0.148   0.654   1.203 -0.2687 -0.0007 -0.0372
  331TIP3    H1  999   0.153   0.595   1.127 -1.1028 -0.2682  0.1043
  331TIP3    H2 1000   0.110   0.600   1.272  0.9630  0.0954  0.7357
  332TIP3   OH2 1001   2.490   5.456   0.031 -0.2374  0.1761 -0.2441
  332TIP3    H1 1002   2.541   5.409   0.097  0.6106 -1.0489 -1.7056
  332TIP3    H2 1003   2.432   5.389  -0.006 -1.6677  1.1537  0.1395
  333TIP3   OH2 1004   4.636   2.336   2.024  0.2225  0.1003 -0.2977
  333TIP3    H1 1005   4.578   2.288   2.083  2.6126 -1.2538  1.0609
  333TIP3    H2 1006   4.661   2.414   2.073  0.3184  0.1935 -0.4931
  334TIP3   OH2 1007   4.984   2.673   2.287 -0.1603  0.1289 -0.1803
  334TIP3    H1 1008   4.986   2.716   2.202 -1.6654  0.4803 -0.0719
  334TIP3    H2 1009   4.916   2.720   2.336 -2.3719 -2.6863 -0.2743
  335TIP3   OH2 1010   4.252   1.366   4.958 -0.2080  0.3863 -0.5832
  335TIP3    H1 1011   4.305   1.330   5.029 -0.2360 -0.4065 -0.9602
  335TIP3    H2 1012   4.308   1.359   4.880 -1.1256 -1.2024 -1.1421
  336TIP3   OH2 1013   0.235   2.270   4.758  0.2811 -0.2753  0.2576
  336TIP3    H1 1014   0.276   2.327   4.824 -2.8613  0.0060  2.1944
  336TIP3    H2 1015   0.244   2.182   4.794  0.0121 -0.3154  0.2263
  337TIP3   OH2 1016   5.944   2.593   2.401 -0.2315  0.7417 -0.0370
  337TIP3    H1 1017   5.904   2.563   2.482  3.2745 -2.3389  0.8310
  337TIP3    H2 1018   5.891   2.554   2.332 -0.1348 -1.3396  0.9807
  338TIP3   OH2 1019   0.173   1.707   3.512  0.3920 -0.5117  0.1043
  338TIP3    H1 1020   0.137   1.730   3.597 -0.5223  0.7109 -0.5689
  338TIP3    H2 1021   0.108   1.740   3.449  1.0133 -1.4316 -1.0616
  339TIP3   OH2 1022   4.786   3.180   1.133  0.4512  0.4483  0.2232
  339TIP3    H1 1023   4.728   3.193   1.207  0.8929  0.4494  0.5760
  339TIP3    H2 1024   4.729   3.155   1.061  0.0891 -0.2337  0.7415
  340TIP3   OH2 1025   1.950   3.362   3.366 -0.0507  0.1979  0.4538
  340TIP3    H1 1026   2.011   3.375   3.439  0.3819 -0.4620  0.2200
  340TIP3    H2 1027   1.864   3.384   3.403  0.4241  2.1837  0.4971
  341TIP3   OH2 1028  -0.008   0.540   4.440 -0.4946  0.5586  0.1703
  341TIP3    H1 1029   0.061   0.604   4.420 -2.8342  2.9796 -0.7477
  341TIP3    H2 1030   0.004   0.519   4.532  1.3495  0.9868  0.0726
  342TIP3   OH2 1031   4.273   3.319   0.235 -0.1193 -0.2466 -0.3064
  342TIP3    H1 1032   4.245   3.297   0.324 -0.5064  1.6435  0.0809
  342TIP3    H2 1033   4.366   3.297   0.232 -0.1945 -0.6816  0.4446
  343TIP3   OH2 1034   3.439   4.860   2.056  0.0035 -0.5409  0.1677
  343TIP3    H1 1035   3.410   4.807   2.130  2.7116 -1.7463  0.4929
  343TIP3    H2 1036   3.379   4.837   1.985 -1.6288 -0.6051  1.4991
  344TIP3   OH2 1037   0.802   4.345   0.221 -0.2485  0.1285  0.3562
  344TIP3    H1 1038   0.837   4.269   0.176  0.2946  0.4238  0.2699
  344TIP3    H2 1039   0.875   4.380   0.272 -0.5057  0.5528  0.4493
  345TIP3   OH2 1040   3.669   0.833   1.380  0.2955 -0.4106 -0.2006
  345TIP3    H1 1041   3.710   0.886   1.312 -0.6537  1.7437  0.8278
  345TIP3    H2 1042   3.713   0.859   1.461 -0.6292 -0.7308  0.4212
  346TIP3   OH2 1043   0.652   1.444   4.189  0.7916 -0.0809 -0.3049
  346TIP3    H1 1044   0.683   1.354   4.198 -2.2696 -1.2548 -0.3982
  346TIP3    H2 1045   0.646   1.458   4.094  1.7335  0.4455 -0.3014
  347TIP3   OH2 1046   4.926   3.733   5.201  0.3711  0.0140 -0.8363
  347TIP3    H1 1047   4.890   3.662   5.148  0.9738  0.3506 -1.7271
  347TIP3    H2 1048   5.019   3.732   5.181  0.7979 -0.4548  0.9625
  348TIP3   OH2 1049   0.726   0.798   4.829  0.9202  0.5584 -0.6004
  348TIP3    H1 1050   0.799   0.741   4.852 -1.2267 -2.0393  0.3113
  348TIP3    H2 1051   0.743   0.879   4.878  1.3080 -1.3609  2.7772
  349TIP3   OH2 1052   0.852   3.869   1.903 -0.7084 -0.0407 -0.0254
  349TIP3    H1 1053   0.876   3.789   1.951 -0.2083 -0.6292 -1.2022
  349TIP3    H2 1054   0.861   3.939   1.967  1.5025 -0.5921  0.3506
  350TIP3   OH2 1055   0.990   0.392   1.597  0.3896  0.0275 -1.1249
  350TIP3    H1 1056   0.969   0.409   1.505 -1.4038  0.4471 -0.6859
  350TIP3    H2 1057   0.924   0.441   1.646 -0.0224 -1.8669  0.3511
  351TIP3   OH2 1058   1.426   3.849   2.220 -0.1508  0.2315 -0.3851
  351TIP3    H1 1059   1.510   3.805   2.238 -0.1810  0.7177  0.9986
  351TIP3    H2 1060   1.411   3.904   2.296 -0.3278  2.3572 -1.8780
  352TIP3   OH2 1061   5.203   4.133   1.591 -0.2679 -0.3787 -0.4375
  352TIP3    H1 1062   5.149   4.080   1.533  0.2460 -0.1182 -1.1630
  352TIP3    H2 1063   5.226   4.074   1.664 -0.7455 -0.7656 -0.6011
  353TIP3   OH2 1064   6.293   0.899   2.660  0.6881 -0.4092 -0.1087
  353TIP3    H1 1065   6.231   0.841   2.616 -1.0801  0.9879  0.4170
  353TIP3    H2 1066   6.305   0.859   2.747 -2.4580  1.1221  1.2013
  354TIP3   OH2 1067   2.884   3.458   3.166 -0.2240  0.0309  0.0209
  354TIP3    H1 1068   2.921   3.486   3.249 -1.0099 -0.7174  0.6433
  354TIP3    H2 1069   2.834   3.534   3.135  1.1851  0.7882 -0.4694
  355TIP3   OH2 1070   0.204   1.012   2.670 -0.0248 -0.3526 -0.2802
  355TIP3    H1 1071   0.117   0.974   2.659 -0.9121  1.3066  0.6678
  355TIP3    H2 1072   0.256   0.942   2.711 -1.4298 -0.7471  0.8815
  356TIP3   OH2 1073   2.347   0.888   2.377 -0.3121 -0.5497  0.0356
  356TIP3    H1 1074   2.350   0.908   2.284  1.7782  0.2703  0.2368
  356TIP3    H2 1075   2.418   0.825   2.390  0.4576  0.5503  1.3210
  357TIP3   OH2 1076   6.292   1.111   3.507  0.1697  0.3561 -0.1116
  357TIP3    H1 1077   6.282   1.204   3.529 -3.4220 -0.3202  1.8220
  357TIP3    H2 1078   6.203   1.080   3.492  1.0795 -3.1429  0.8304
  358TIP3   OH2 1079   4.849   2.684   1.611  0.4173 -0.3196  0.2657
  358TIP3    H1 1080   4.848   2.692   1.515 -0.2114  0.3327  0.3163
  358TIP3    H2 1081   4.930   2.637   1.630 -0.4482 -2.3021 -0.7076
  359TIP3   OH2 1082   2.780   2.531   3.458  0.0004  0.3363 -0.0391
  359TIP3    H1 1083   2.793   2.624   3.475  1.8498  0.1112 -0.0056
  359TIP3    H2 1084   2.868   2.493   3.464 -0.7824 -1.5088  0.5064
  360TIP3   OH2 1085   3.611   0.452   4.077 -0.0832  0.1906  0.2219
  360TIP3    H1 1086   3.678   0.481   4.139 -0.6543  1.2317  0.3699
  360TIP3    H2 1087   3.592   0.362   4.102  0.5388  0.2194  0.8127
  361TIP3   OH2 1088   5.164   3.504   3.122 -0.6431 -0.5158  0.3051
  361TIP3    H1 1089   5.071   3.489   3.106 -0.9074  1.4427 -0.2212
  361TIP3    H2 1090   5.167   3.582   3.178  0.6534 -1.2372  1.3034
  362TIP3   OH2 1091   5.168   0.189   0.192  0.3016  0.1121  0.3636
  362TIP3    H1 1092   5.146   0.097   0.173  1.4068 -0.2121  0.5707
  362TIP3    H2 1093   5.091   0.238   0.164 -0.3960 -0.9000  0.4479
  363TIP3   OH2 1094   4.604   1.889   1.872  0.1143 -0.0768 -0.1938
  363TIP3    H1 1095   4.523   1.871   1.919  1.1259  0.5905  1.9284
  363TIP3    H2 1096   4.665   1.919   1.939  2.3616 -1.2228 -1.5972
  364TIP3   OH2 1097   1.084   4.157   1.671  0.1738  0.1055 -0.3318
  364TIP3    H1 1098   1.148   4.131   1.738  1.2436  0.9141 -1.0085
  364TIP3    H2 1099   1.097   4.094   1.600 -0.7564 -0.5700  0.0737
  365TIP3   OH2 1100   5.596   4.929   1.598  0.0762  0.3829 -0.2906
  365TIP3    H1 1101   5.650   5.005   1.618 -0.2656  0.1135  1.9553
  365TIP3    H2 1102   5.630   4.896   1.515  0.3526  2.8308 -1.2164
  366TIP3   OH2 1103   0.376   1.953   2.898 -0.8012 -0.3143 -0.6510
  366TIP3    H1 1104   0.345   2.026   2.953 -0.7988 -1.0302  0.3302
  366TIP3    H2 1105   0.448   1.990   2.847 -0.6917  0.3298 -0.0424
  367TIP3   OH2 1106   2.302   0.242   1.716 -0.1326 -0.1148 -0.6643
  367TIP3    H1 1107   2.219   0.198   1.730 -0.0743 -0.1427 -0.3872
  367TIP3    H2 1108   2.292   0.288   1.632  0.0159 -1.1261 -1.2462
  368TIP3   OH2 1109   0.383   1.166   3.648  0.4261  0.7075 -0.0954
  368TIP3    H1 1110   0.462   1.211   3.619 -0.2911  1.5706 -0.7805
  368TIP3    H2 1111   0.324   1.236   3.674 -0.1457  0.0812  0.3165
  369TIP3   OH2 1112   4.241   2.412   0.506  0.0541  1.0306 -0.2658
  369TIP3    H1 1113   4.187   2.469   0.451 -0.9567 -0.1542 -0.5376
  369TIP3    H2 1114   4.331   2.438   0.486 -0.3567  1.9437 -1.0125
  370TIP3   OH2 1115   0.924   2.021   3.282  0.2929 -0.5634  0.1140
  370TIP3    H1 1116   0.917   2.058   3.194  0.5543  1.4887  0.8980
  370TIP3    H2 1117   0.854   2.065   3.332  1.3087 -0.3011  1.3491
  371TIP3   OH2 1118   1.217   2.319   1.124  0.0967 -0.0739 -0.5112
  371TIP3    H1 1119   1.159   2.392   1.103  1.2556  0.7197 -1.0181
  371TIP3    H2 1120   1.159   2.255   1.167 -1.0891  0.8008 -0.7422
  372TIP3   OH2 1121   3.987   1.820   4.820 -0.1494  0.5451  0.0103
  372TIP3    H1 1122   3.928   1.877   4.869  1.3936  0.7060  1.8152
  372TIP3    H2 1123   4.042   1.780   4.887 -1.5412 -3.6608 -1.0743
  373TIP3   OH2 1124   3.906   4.933   0.532  0.3563 -0.7007 -0.1091
  373TIP3    H1 1125   3.870   4.868   0.592 -0.2580 -0.3403 -0.0834
  373TIP3    H2 1126   3.924   5.009   0.587 -1.1922  0.0094 -0.5355
  374TIP3   OH2 1127   0.275   5.416   2.380  0.2108 -0.2561 -0.0805
  374TIP3    H1 1128   0.367   5.399   2.362  0.4540  0.3411  0.5428
  374TIP3    H2 1129   0.233   5.414   2.294  0.4138 -2.6227 -0.1887
  375TIP3   OH2 1130   0.599   1.236   4.530 -0.6929  0.2168  0.0877
  375TIP3    H1 1131   0.564   1.307   4.477 -0.1357  0.8633  0.5614
  375TIP3    H2 1132   0.555   1.244   4.615 -0.3160  0.2654  0.2812
  376TIP3   OH2 1133   1.980   4.170   1.885 -0.3980  0.8231  0.1645
  376TIP3    H1 1134   1.959   4.225   1.961  0.4008 -0.9418  1.7769
  376TIP3    H2 1135   1.999   4.084   1.923  0.7327  0.0338 -2.0018
  377TIP3   OH2 1136   2.394   2.161   3.548  0.2914 -0.8203  0.0200
  377TIP3    H1 1137   2.477   2.113   3.553  0.1216 -1.0055  2.0311
  377TIP3    H2 1138   2.406   2.235   3.607 -0.4365  0.0406 -0.9012
  378TIP3   OH2 1139   6.278   5.670   1.089  0.4626  0.1063 -0.1325
  378TIP3    H1 1140   6.355   5.676   1.145  1.3127  0.1525 -1.2910
  378TIP3    H2 1141   6.293   5.733   1.019  0.2866 -1.2187 -1.4299
  379TIP3   OH2 1142   1.771   5.921   0.596  0.7268  0.0988 -0.0627
  379TIP3    H1 1143   1.851   5.882   0.631  0.0767 -1.0520  0.1593
  379TIP3    H2 1144   1.742   5.982   0.664  1.5651  0.7650 -0.2773
  380TIP3   OH2 1145   0.886   4.284   4.191 -0.3066  0.3294  0.2054
  380TIP3    H1 1146   0.900   4.226   4.266 -0.9919 -1.3099 -0.8745
  380TIP3    H2 1147   0.969   4.329   4.179  0.5141 -1.0308  0.6070
  381TIP3   OH2 1148   5.545   1.085   4.170 -0.1674 -0.0046 -0.4627
  381TIP3    H1 1149   5.613   1.023   4.196 -1.8928 -2.1596 -0.8024
  381TIP3    H2 1150   5.592   1.167   4.156  2.3203 -1.3234 -0.4569
  382TIP3   OH2 1151   2.716   4.047   3.067 -0.0006  0.9058  0.6962
  382TIP3    H1 1152   2.722   3.999   3.150 -0.3486  0.0090  0.2094
  382TIP3    H2 1153   2.631   4.091   3.072  0.2118  1.2972  1.0327
  383TIP3   OH2 1154   3.191   4.161   4.794 -0.3997  0.4654 -0.1149
  383TIP3    H1 1155   3.232   4.225   4.737 -1.1235 -0.7265 -2.0739
  383TIP3    H2 1156   3.104   4.148   4.757 -0.9056 -0.3689  1.2746
  384TIP3   OH2 1157   3.862   1.904   1.760 -0.3764 -0.0662 -0.0949
  384TIP3    H1 1158   3.805   1.913   1.683 -0.6038 -0.9933 -0.0541
  384TIP3    H2 1159   3.803   1.876   1.830 -0.4095  2.0871  0.7935
  385TIP3   OH2 1160   2.915   5.456   0.465  0.4113 -0.4508  0.0236
  385TIP3    H1 1161   2.962   5.381   0.502 -0.2407 -0.8519  0.0625
  385TIP3    H2 1162   2.889   5.508   0.541  0.8865 -0.1582 -0.0047
  386TIP3   OH2 1163   1.725   5.425   3.188 -0.0607 -0.1157  1.1870
  386TIP3    H1 1164   1.682   5.464   3.112  1.0070 -1.6506 -0.3013
  386TIP3    H2 1165   1.759   5.499   3.237  0.1145  0.9169 -0.4140
  387TIP3   OH2 1166   3.187   0.480   2.917 -0.3756 -0.0166  0.2089
  387TIP3    H1 1167   3.257   0.478   2.982 -0.1990  0.8100  0.0613
  387TIP3    H2 1168   3.232   0.477   2.832 -0.6019 -1.0544  0.1110
  388TIP3   OH2 1169   4.576   3.872   1.809 -0.3992 -0.0084 -0.1277
  388TIP3    H1 1170   4.548   3.940   1.748 -0.4124  0.6108  0.5614
  388TIP3    H2 1171   4.578   3.792   1.756 -2.9080  0.0101 -0.3780
  389TIP3   OH2 1172   2.924   2.462   1.009  0.3909  0.0138 -0.0066
  389TIP3    H1 1173   2.843   2.499   0.973  0.3455  0.2171  0.3026
  389TIP3    H2 1174   2.991   2.486   0.945  0.5330  1.4676  0.6345
  390TIP3   OH2 1175   6.169   0.276   2.824  0.4493 -0.3605 -0.6649
  390TIP3    H1 1176   6.145   0.341   2.891  0.8514  0.2920 -1.1461
  390TIP3    H2 1177   6.171   0.193   2.872 -0.9404 -0.1680 -0.2256
  391TIP3   OH2 1178   0.515   5.157   0.258  0.2271  0.2351  0.1233
  391TIP3    H1 1179   0.443   5.109   0.299  0.7081 -1.3248 -0.8042
  391TIP3    H2 1180   0.594   5.117   0.292  0.6455  0.4346 -0.6040
  392TIP3   OH2 1181   3.127   4.583   3.796  0.5682 -0.4651  0.4395
  392TIP3    H1 1182   3.131   4.620   3.884  1.1121 -2.0898  1.1231
  392TIP3    H2 1183   3.041   4.610   3.763  0.1764 -0.2088  1.6262
  393TIP3   OH2 1184   4.702   1.203   3.378 -0.3657  0.2586  0.1207
  393TIP3    H1 1185   4.680   1.285   3.334  0.8163  1.0802  0.9937
  393TIP3    H2 1186   4.628   1.186   3.437 -0.6092  0.6958 -0.0601
  394TIP3   OH2 1187   2.880   4.281   3.153  0.3678 -0.8196 -0.6867
  394TIP3    H1 1188   2.951   4.249   3.209  0.1182 -1.0928 -0.5248
  394TIP3    H2 1189   2.825   4.204   3.137 -0.7825 -0.2775  0.5055
  395TIP3   OH2 1190   5.019   5.307   4.361 -0.3179 -0.3278  0.3476
  395TIP3    H1 1191   4.988   5.269   4.443 -2.1273 -2.5445 -1.2158
  395TIP3    H2 1192   4.957   5.377   4.343 -0.9296 -0.9159  0.1094
  396TIP3   OH2 1193   1.913   4.320   2.117  0.4643 -0.2147  0.4147
  396TIP3    H1 1194   1.897   4.305   2.210 -1.3823 -0.5000  0.1069
  396TIP3    H2 1195   1.908   4.415   2.106 -0.5185 -0.2537  0.4422
  397TIP3   OH2 1196   5.884   4.928   1.869 -0.0384 -0.1242 -0.2248
  397TIP3    H1 1197   5.854   4.966   1.952  2.2632 -0.3762  0.7904
  397TIP3    H2 1198   5.974   4.902   1.885 -0.6234 -3.6614 -1.6580
  398TIP3   OH2 1199   5.740   3.401   0.840 -0.3258 -0.0435 -0.2409
  398TIP3    H1 1200   5.774   3.344   0.771  0.1088 -2.4690  1.8257
  398TIP3    H2 1201   5.656   3.362   0.863  0.4933 -0.6255  1.9844
  399TIP3   OH2 1202   0.317   3.342   2.818  0.3390  0.1706  0.3997
  399TIP3    H1 1203   0.237   3.381   2.784 -0.2537  0.0321  1.5952
  399TIP3    H2 1204   0.375   3.336   2.742 -0.6387  0.6222 -0.3999
  400TIP3   OH2 1205   4.970   4.848   1.623  0.2147  0.2260 -0.5056
  400TIP3    H1 1206   5.006   4.869   1.537  0.7428  1.7000  0.0405
  400TIP3    H2 1207   4.877   4.836   1.609  0.3575  0.0790 -1.3473
  401TIP3   OH2 1208   3.436   0.185   3.356  0.2275  0.1462 -0.0572
  401TIP3    H1 1209   3.345   0.184   3.384  0.5342 -0.2429  0.9787
  401TIP3    H2 1210   3.460   0.093   3.347 -0.1748  0.2183 -2.8151
  402TIP3   OH2 1211   1.495   4.737   3.368 -0.3788  0.4478 -0.5655
  402TIP3    H1 1212   1.543   4.800   3.423  0.3415 -0.0929 -0.5608
  402TIP3    H2 1213   1.552   4.723   3.292 -0.3447 -0.5090 -0.3720
  403TIP3   OH2 1214   2.009   0.893   0.020 -0.4205  0.2943 -0.0551
  403TIP3    H1 1215   2.039   0.978   0.054 -1.0762  0.7360 -0.5411
  403TIP3    H2 1216   2.015   0.834   0.094  1.5269  0.3754 -0.0849
  404TIP3   OH2 1217   0.225   0.397   0.539  0.4520 -0.6350  0.1856
  404TIP3    H1 1218   0.217   0.432   0.451  0.0364  0.2985  0.5794
  404TIP3    H2 1219   0.311   0.356   0.542  1.3640  1.1815 -0.0212
  405TIP3   OH2 1220   5.774   4.571   3.335  0.1679  0.0206  0.3799
  405TIP3    H1 1221   5.725   4.653   3.334 -1.4565 -0.9109 -1.1130
  405TIP3    H2 1222   5.811   4.564   3.247  1.9632  0.0526  1.0842
  406TIP3   OH2 1223   1.179   4.642   2.577 -0.5409  0.0337 -0.0439
  406TIP3    H1 1224   1.183   4.675   2.667  0.3264 -0.2657  0.0377
  406TIP3    H2 1225   1.269   4.650   2.545 -0.3480 -1.9739 -0.1065
  407TIP3   OH2 1226   2.209   3.029   1.460  0.1882 -0.4301 -0.3424
  407TIP3    H1 1227   2.164   3.059   1.539  1.7467 -0.7737  0.7149
  407TIP3    H2 1228   2.157   2.954   1.430 -1.4315  0.7727 -0.7097
  408TIP3   OH2 1229   3.615   1.443   2.487  0.3040 -0.0636 -0.2277
  408TIP3    H1 1230   3.614   1.512   2.421 -1.9046 -0.4635 -0.6981
  408TIP3    H2 1231   3.669   1.478   2.558  2.8054  0.3421 -2.2177
  409TIP3   OH2 1232   5.273   1.419   2.924 -0.3363 -0.4592 -0.2875
  409TIP3    H1 1233   5.229   1.334   2.927  1.4597 -1.4077  0.7158
  409TIP3    H2 1234   5.232   1.469   2.995 -0.8777 -0.7554 -0.3862
  410TIP3   OH2 1235   0.520   0.069   2.917  0.0443 -0.4955  0.5363
  410TIP3    H1 1236   0.480   0.120   2.988 -0.7642 -1.8189  1.0829
  410TIP3    H2 1237   0.463  -0.007   2.908  0.4005 -0.6014 -1.2361
  411TIP3   OH2 1238   5.569   4.742   3.585 -0.2686 -0.3250  0.2661
  411TIP3    H1 1239   5.473   4.736   3.583 -0.2941 -0.7098  1.5822
  411TIP3    H2 1240   5.593   4.717   3.675  1.0938 -0.5994 -0.1456
  412TIP3   OH2 1241   0.716   2.782   3.532  0.1491 -0.3571 -0.3065
  412TIP3    H1 1242   0.684   2.782   3.622 -0.0386 -0.7373 -0.3711
  412TIP3    H2 1243   0.678   2.703   3.493  1.1370 -0.8127 -0.3978
  413TIP3   OH2 1244   1.491   2.372   1.125  0.4726  0.0054 -0.2733
  413TIP3    H1 1245   1.411   2.320   1.125  0.6136 -0.2094 -0.3351
  413TIP3    H2 1246   1.542   2.337   1.199  0.4554  0.2246 -0.1559
  414TIP3   OH2 1247   3.091   3.260   1.354 -0.4177 -0.4006  0.1489
  414TIP3    H1 1248   3.005   3.301   1.347 -0.1176  0.0302 -1.2017
  414TIP3    H2 1249   3.078   3.171   1.323  0.4511  0.8886 -4.8740
  415TIP3   OH2 1250   4.102   3.817   0.582  0.2264 -0.2236 -0.1084
  415TIP3    H1 1251   4.141   3.841   0.498 -1.4435  3.4178 -0.0330
  415TIP3    H2 1252   4.177   3.804   0.640  1.3783  0.1995 -1.4428
  416TIP3   OH2 1253   4.540   3.505   0.381 -0.0433 -0.2686 -0.0502
  416TIP3    H1 1254   4.518   3.512   0.288  1.0197  0.8263 -0.2371
  416TIP3    H2 1255   4.558   3.595   0.408 -0.1971 -0.5931  1.1933
  417TIP3   OH2 1256   0.513   5.792   3.342  0.2823  0.3093 -0.3073
  417TIP3    H1 1257   0.601   5.758   3.357 -0.2638 -0.8650  0.3853
  417TIP3    H2 1258   0.487   5.756   3.258  0.3268  0.3525 -0.3393
  418TIP3   OH2 1259   4.941   1.713   5.112  0.3610  0.6718 -0.0606
  418TIP3    H1 1260   4.851   1.700   5.143  1.0122 -0.2859  1.5734
  418TIP3    H2 1261   4.938   1.691   5.019 -0.4277 -3.0246  0.6814
  419TIP3   OH2 1262   3.095   4.679   3.193  0.5134  0.1446  0.0530
  419TIP3    H1 1263   3.107   4.635   3.277 -0.9251 -0.8490 -0.2238
  419TIP3    H2 1264   3.031   4.748   3.212 -0.3606 -0.5382 -0.3523
  420TIP3   OH2 1265   2.583   4.606   3.174 -0.5972  0.1191 -0.6032
  420TIP3    H1 1266   2.562   4.670   3.242 -0.2233  1.2751 -1.5652
  420TIP3    H2 1267   2.578   4.521   3.220 -0.0227  0.8867  0.9495
  421TIP3   OH2 1268   5.873   2.105   1.810  0.1495  0.2503 -0.0742
  421TIP3    H1 1269   5.961   2.120   1.776  0.7774 -1.1130  0.8574
  421TIP3    H2 1270   5.814   2.133   1.740  1.3024  1.6685 -0.5008
  422TIP3   OH2 1271   3.796   5.683   1.759  0.1780 -0.0815  1.0207
  422TIP3    H1 1272   3.718   5.646   1.799 -1.5770  0.2227 -1.8812
  422TIP3    H2 1273   3.767   5.765   1.720  1.8772 -0.0681 -0.3297
  423TIP3   OH2 1274   0.687   0.488   1.293 -0.2257 -0.3892  0.1670
  423TIP3    H1 1275   0.658   0.402   1.261  2.1140 -1.6418  1.1474
  423TIP3    H2 1276   0.629   0.508   1.366 -0.9843 -0.9952 -0.2595
  424TIP3   OH2 1277   4.464   4.041   2.936  0.4170  0.1794  0.5913
  424TIP3    H1 1278   4.519   4.031   2.858 -1.1922  0.1310 -0.5830
  424TIP3    H2 1279   4.489   4.127   2.971  1.1478  0.2143  0.0232
  425TIP3   OH2 1280   5.686   4.127   1.061 -0.1334  0.1255 -0.0939
  425TIP3    H1 1281   5.718   4.215   1.042  2.4967 -0.3631  1.6732
  425TIP3    H2 1282   5.691   4.081   0.977  2.6040  0.5048 -0.2209
  426TIP3   OH2 1283   3.744   3.353   0.631 -0.1950  0.2663  0.5189
  426TIP3    H1 1284   3.803   3.289   0.593  0.0360 -0.0575  1.3848
  426TIP3    H2 1285   3.685   3.302   0.686  0.0893  0.7963  1.3406
  427TIP3   OH2 1286   3.237   0.235   3.875  0.1035  0.9715  0.0792
  427TIP3    H1 1287   3.315   0.262   3.827 -0.0087  1.5756  0.2347
  427TIP3    H2 1288   3.202   0.316   3.913 -0.6731  0.7243 -0.0915
  428TIP3   OH2 1289   1.535   0.013   1.091  0.0201 -0.0431  0.0268
  428TIP3    H1 1290   1.576   0.100   1.088 -1.8532  0.8540 -2.4158
  428TIP3    H2 1291   1.507   0.003   1.182 -0.0224  2.0673  0.2961
  429TIP3   OH2 1292   5.474   4.944   0.402 -0.0522  0.2206  0.4433
  429TIP3    H1 1293   5.422   4.866   0.423 -0.4432  0.5899  0.8738
  429TIP3    H2 1294   5.428   5.015   0.446  0.5411  0.6309  0.4025
  430TIP3   OH2 1295   3.896   4.323   4.477 -0.5877  0.2277 -0.7423
  430TIP3    H1 1296   3.954   4.261   4.432  1.0485  1.6838 -0.7452
  430TIP3    H2 1297   3.918   4.408   4.439 -2.9382  0.8452 -0.9083
  431TIP3   OH2 1298   1.917   2.126   1.715  0.1513  0.5464 -0.0452
  431TIP3    H1 1299   1.857   2.167   1.778  0.4499 -2.2736  2.2753
  431TIP3    H2 1300   2.001   2.168   1.731 -0.0176  0.6262  0.6643
  432TIP3   OH2 1301   4.188   3.966   1.198 -0.2969 -0.1368  0.4282
  432TIP3    H1 1302   4.283   3.965   1.196 -0.2984 -0.4135 -1.3597
  432TIP3    H2 1303   4.163   3.874   1.206 -0.4534  0.0411  2.5563
  433TIP3   OH2 1304   4.940   2.027   0.732  0.8711  0.1699  0.5393
  433TIP3    H1 1305   4.992   2.068   0.801  2.0545 -0.6147  0.1528
  433TIP3    H2 1306   4.986   2.051   0.651  0.2966 -0.0691  0.1351
  434TIP3   OH2 1307   1.627   3.587   2.346 -0.1253 -0.3613 -0.0686
  434TIP3    H1 1308   1.684   3.597   2.269 -0.1194 -1.1959 -0.1833
  434TIP3    H2 1309   1.648   3.662   2.401 -0.2401  0.3369 -0.9530
  435TIP3   OH2 1310   2.628   3.104   4.846  0.1466 -0.1292 -0.2212
  435TIP3    H1 1311   2.661   3.150   4.768 -0.4718 -0.6822 -0.8252
  435TIP3    H2 1312   2.546   3.065   4.817 -1.3630  1.6505  1.3672
  436TIP3   OH2 1313   3.697   3.836   0.811 -0.1747  0.5229 -0.6732
  436TIP3    H1 1314   3.720   3.916   0.764  0.8991 -0.0714 -1.1978
  436TIP3    H2 1315   3.685   3.770   0.742 -0.2194  0.0355 -0.2047
  437TIP3   OH2 1316   3.113   2.204   0.995 -0.0186  0.2284  0.9911
  437TIP3    H1 1317   3.041   2.146   0.970 -0.8918  1.5790  0.2548
  437TIP3    H2 1318   3.096   2.285   0.947  2.2446  0.4444  0.4470
  438TIP3   OH2 1319   1.061   0.585   4.016 -0.7376  0.1601 -0.3923
  438TIP3    H1 1320   1.057   0.636   3.936  1.1058  0.4268 -0.3468
  438TIP3    H2 1321   1.110   0.640   4.077 -2.2033  0.0107  0.9792
  439TIP3   OH2 1322   4.288   0.975   1.161  0.3744 -0.5775  0.8688
  439TIP3    H1 1323   4.246   1.059   1.142  1.9970  0.0571 -0.1289
  439TIP3    H2 1324   4.231   0.934   1.225 -2.4989 -0.3965 -1.3860
  440TIP3   OH2 1325   0.557   5.400   4.409  0.9035 -0.0880 -0.3583
  440TIP3    H1 1326   0.470   5.430   4.385  0.8973 -0.0970 -0.3469
  440TIP3    H2 1327   0.563   5.418   4.503  1.0758  0.3175 -0.4450
  441TIP3   OH2 1328   3.161   3.746   3.000  0.1268 -0.7123 -0.5547
  441TIP3    H1 1329   3.087   3.800   2.972  0.1644 -0.7857 -0.7998
  441TIP3    H2 1330   3.161   3.753   3.095  1.2758  1.2206 -0.6538
  442TIP3   OH2 1331   5.173   5.165   0.125  0.3390  0.2485  0.7321
  442TIP3    H1 1332   5.083   5.178   0.094  0.7851  0.0172 -0.7008
  442TIP3    H2 1333   5.163   5.107   0.201 -0.6304 -1.1284 -0.3839
  443TIP3   OH2 1334   2.333   2.965   0.376 -0.6460  0.7863 -0.5053
  443TIP3    H1 1335   2.406   2.972   0.438 -1.1698 -2.3257  0.6294
  443TIP3    H2 1336   2.254   2.973   0.430 -1.1236  0.4943 -1.1489
  444TIP3   OH2 1337   5.669   0.809   2.751 -0.0018  0.3291 -0.0767
  444TIP3    H1 1338   5.700   0.895   2.724  1.1452  0.5125  1.6464
  444TIP3    H2 1339   5.734   0.779   2.815 -1.7444 -0.6750  1.3107
  445TIP3   OH2 1340   2.178   3.608   3.671  0.7138  0.1887  0.1159
  445TIP3    H1 1341   2.178   3.557   3.590  1.6218  1.3280 -0.6323
  445TIP3    H2 1342   2.258   3.660   3.668 -0.8246  2.7812  0.1054
  446TIP3   OH2 1343   4.033   1.792   3.466 -0.1074  0.2759 -0.3170
  446TIP3    H1 1344   4.125   1.812   3.485  0.2907 -0.6025 -1.2581
  446TIP3    H2 1345   4.012   1.718   3.523 -0.3143  0.6410  0.0852
  447TIP3   OH2 1346   2.294   2.916   2.276  0.4562 -0.5393  0.0600
  447TIP3    H1 1347   2.375   2.960   2.248  1.3132 -1.8910  0.2751
  447TIP3    H2 1348   2.325   2.843   2.330 -0.9840 -0.4169  1.0896
  448TIP3   OH2 1349   2.221   5.140   1.393 -0.5016 -0.3002  0.1948
  448TIP3    H1 1350   2.162   5.209   1.425  0.2117  0.8848 -0.9786
  448TIP3    H2 1351   2.288   5.186   1.343 -1.4260 -2.0304 -2.8574
  449TIP3   OH2 1352   1.240   0.692   2.888  0.3898 -0.2775  0.1236
  449TIP3    H1 1353   1.240   0.710   2.794  0.0699 -2.9417 -0.4623
  449TIP3    H2 1354   1.150   0.665   2.907  1.2375 -3.1120  0.4173
  450TIP3   OH2 1355   0.393   4.075   0.555  0.5845 -0.5073  0.4089
  450TIP3    H1 1356   0.436   3.999   0.593  0.3321 -0.5283  0.6586
  450TIP3    H2 1357   0.393   4.140   0.626  1.8094  0.1356 -0.1390
  451TIP3   OH2 1358   2.114   5.232   2.385 -0.7012  0.2991 -0.0409
  451TIP3    H1 1359   2.095   5.156   2.331 -1.4845  0.5291 -0.1078
  451TIP3    H2 1360   2.033   5.248   2.433 -0.8710  1.6322 -0.7124
  452TIP3   OH2 1361   5.037   0.113   3.702  0.7979 -0.0924 -0.3588
  452TIP3    H1 1362   5.006   0.185   3.757  0.0122 -0.7876  0.1234
  452TIP3    H2 1363   5.025   0.145   3.612  1.3959  0.7559 -0.1496
  453TIP3   OH2 1364   4.520   4.134   2.249  0.1652 -0.1400  0.3057
  453TIP3    H1 1365   4.499   4.042   2.263 -0.8180  0.3266  2.2660
  453TIP3    H2 1366   4.498   4.150   2.157  0.1533 -1.7905 -0.0116
  454TIP3   OH2 1367   1.284   3.324   3.739 -0.1339  0.2806  0.2607
  454TIP3    H1 1368   1.205   3.299   3.690 -0.4117  0.4542  0.6230
  454TIP3    H2 1369   1.253   3.344   3.827  0.3258  0.2812  0.4242
  455TIP3   OH2 1370   2.705   4.595   3.556  0.3015 -0.6296 -0.1506
  455TIP3    H1 1371   2.750   4.566   3.476  1.2653  1.6254 -0.5036
  455TIP3    H2 1372   2.617   4.620   3.526  0.0425 -1.5165 -0.1499
  456TIP3   OH2 1373   1.079   5.117   2.880  0.3742  0.2163 -0.3146
  456TIP3    H1 1374   1.019   5.172   2.831  1.4544  2.2515  0.5355
  456TIP3    H2 1375   1.152   5.174   2.903  1.7136 -1.6475  0.3914
  457TIP3   OH2 1376   4.880   0.818   1.930 -0.4460 -0.4432 -1.0825
  457TIP3    H1 1377   4.976   0.822   1.934 -0.4403 -0.0522 -1.5989
  457TIP3    H2 1378   4.861   0.758   1.859 -0.5879 -1.5356 -0.1420
  458TIP3   OH2 1379   4.657   4.567   1.929 -0.9400  0.2887 -0.1878
  458TIP3    H1 1380   4.708   4.487   1.941 -0.8001  0.2426 -1.0762
  458TIP3    H2 1381   4.591   4.563   1.999  1.0656  1.0265  1.8926
  459TIP3   OH2 1382   5.387   1.914  -0.015 -0.1587  0.0466 -0.4024
  459TIP3    H1 1383   5.469   1.877   0.017  0.6102  1.9073 -0.0720
  459TIP3    H2 1384   5.319   1.867   0.034  0.8270  0.1594  1.1479
  460TIP3   OH2 1385   0.415   0.241   0.214  0.2330  0.5694 -0.3570
  460TIP3    H1 1386   0.498   0.224   0.258  0.3331 -2.3142 -1.4279
  460TIP3    H2 1387   0.430   0.212   0.124 -1.5989  1.0533 -0.8577
  461TIP3   OH2 1388   2.871   4.063   0.359  0.0891 -0.1230 -0.0094
  461TIP3    H1 1389   2.804   4.128   0.339  1.9095  1.4079 -1.5703
  461TIP3    H2 1390   2.912   4.096   0.439  1.4225  1.1004 -1.1366
  462TIP3   OH2 1391   1.565   3.970   4.629 -0.0413  0.1280 -0.3122
  462TIP3    H1 1392   1.517   3.942   4.707 -0.1831 -0.1657 -0.5004
  462TIP3    H2 1393   1.496   3.987   4.564  0.0591  0.6467 -0.2882
  463TIP3   OH2 1394   2.679   3.443   2.732 -0.3530 -0.3101  0.1433
  463TIP3    H1 1395   2.724   3.379   2.677  0.0271 -1.4994  1.7524
  463TIP3    H2 1396   2.745   3.469   2.796 -0.5470  1.6207 -0.3796
  464TIP3   OH2 1397   4.368   0.761   0.956  0.2735 -0.2251 -0.3390
  464TIP3    H1 1398   4.449   0.794   0.917 -0.4130  1.2423 -0.5595
  464TIP3    H2 1399   4.324   0.838   0.990 -0.6042 -1.1191  0.6306
  465TIP3   OH2 1400   5.948   0.038   1.828 -0.0747 -0.1878 -0.4402
  465TIP3    H1 1401   5.860   0.003   1.815  0.0847 -1.2161  1.0441
  465TIP3    H2 1402   5.988  -0.019   1.893  1.7126  0.2467 -1.0758
  466TIP3   OH2 1403   3.770   1.812   4.385 -0.0442 -0.7071  0.4916
  466TIP3    H1 1404   3.773   1.903   4.416 -0.5375 -0.5688  0.1366
  466TIP3    H2 1405   3.791   1.760   4.463  0.6548 -0.2793  0.6086
  467TIP3   OH2 1406   1.234   1.241   0.827 -0.1357  0.4818 -0.6581
  467TIP3    H1 1407   1.285   1.194   0.761  0.5835  0.5870 -0.2003
  467TIP3    H2 1408   1.294   1.310   0.858 -0.2172  0.0569  0.5302
  468TIP3   OH2 1409   5.313   2.409   2.884 -0.5161 -0.3009  0.6559
  468TIP3    H1 1410   5.283   2.478   2.825  1.8185  1.4328  1.3046
  468TIP3    H2 1411   5.291   2.442   2.972 -0.6885 -1.0932  0.9175
  469TIP3   OH2 1412   3.358   2.636   3.354 -0.1727 -0.3519 -0.2150
  469TIP3    H1 1413   3.312   2.585   3.287 -0.8298 -0.8223  0.5802
  469TIP3    H2 1414   3.432   2.581   3.380 -1.0118 -1.0320  0.8081
  470TIP3   OH2 1415   4.011   0.663   2.915 -0.3733 -0.3868  0.2644
  470TIP3    H1 1416   3.969   0.604   2.978  0.8848 -2.3279 -0.6133
  470TIP3    H2 1417   3.969   0.748   2.929 -2.6198 -1.5848  1.2793
  471TIP3   OH2 1418   0.597   3.624   0.702 -0.0611  0.0696  0.2289
  471TIP3    H1 1419   0.554   3.586   0.779 -0.6775  1.0624  0.3862
  471TIP3    H2 1420   0.624   3.711   0.731 -2.3382  1.3919 -1.3145
  472TIP3   OH2 1421   0.614   0.251   4.803 -0.1860 -0.0646 -0.0949
  472TIP3    H1 1422   0.650   0.304   4.731 -1.0922 -0.0400 -0.5501
  472TIP3    H2 1423   0.599   0.165   4.764  0.8636 -0.5413  0.5257
  473TIP3   OH2 1424   6.316   1.817   3.099  0.5004  0.2216  0.2381
  473TIP3    H1 1425   6.319   1.910   3.077 -0.0445  0.2351  0.2051
  473TIP3    H2 1426   6.225   1.792   3.082  0.5284 -0.1996  0.7055
  474TIP3   OH2 1427   4.682   0.703   0.137 -0.4422  0.4495 -0.3599
  474TIP3    H1 1428   4.652   0.673   0.051  0.9421 -0.9496 -0.4123
  474TIP3    H2 1429   4.612   0.760   0.168 -1.9342 -0.6221 -1.5353
  475TIP3   OH2 1430   3.859   5.279   4.287 -0.0035 -0.3842  0.1528
  475TIP3    H1 1431   3.869   5.192   4.325 -2.5714  0.6215  3.7276
  475TIP3    H2 1432   3.795   5.267   4.216 -0.7057 -1.3994  0.9258
  476TIP3   OH2 1433   1.014   5.471   4.991  0.1244  0.3725  0.3219
  476TIP3    H1 1434   0.988   5.478   4.899 -0.2861  0.6510  0.4580
  476TIP3    H2 1435   1.099   5.515   4.996 -0.2687  1.1528  0.2513
  477TIP3   OH2 1436   6.198   4.077   2.495 -0.4071 -0.0655  0.1127
  477TIP3    H1 1437   6.293   4.066   2.493 -0.4974 -0.7198 -0.9937
  477TIP3    H2 1438   6.167   4.042   2.412 -1.4725  1.6219 -0.2644
  478TIP3   OH2 1439   6.056   4.759  -0.004  0.3141  0.2030 -0.1753
  478TIP3    H1 1440   6.013   4.710   0.067 -0.1149  0.9989  0.1238
  478TIP3    H2 1441   6.092   4.691  -0.061  0.8445 -0.4527  0.9087
  479TIP3   OH2 1442   4.436   4.138   4.277 -0.1077  0.1527 -0.3946
  479TIP3    H1 1443   4.488   4.060   4.254 -0.3709 -0.1962  0.1625
  479TIP3    H2 1444   4.355   4.102   4.313 -0.3367  0.6906 -0.3775
  480TIP3   OH2 1445   5.878   5.252   2.298  0.5819 -0.1036  0.2182
  480TIP3    H1 1446   5.947   5.195   2.263  0.8709  0.5151 -0.2409
  480TIP3    H2 1447   5.802   5.196   2.306  1.2095 -0.8679  0.9729
  481TIP3   OH2 1448   1.956   3.643   2.987  0.1831 -0.2956  0.3807
  481TIP3    H1 1449   1.913   3.674   2.907 -0.3585 -1.0654  0.3495
  481TIP3    H2 1450   1.970   3.721   3.040 -1.7237 -0.0583  0.5949
  482TIP3   OH2 1451   4.283   5.412   2.529  0.4541 -0.0664 -0.1927
  482TIP3    H1 1452   4.234   5.438   2.451 -0.3359 -2.4530 -0.5999
  482TIP3    H2 1453   4.222   5.356   2.577  1.7397 -0.5847  0.8929
  483TIP3   OH2 1454   0.821   2.927   1.294  0.4912 -0.4217  0.0204
  483TIP3    H1 1455   0.820   2.868   1.219 -0.2036  1.1669 -1.2864
  483TIP3    H2 1456   0.751   2.895   1.351  0.3076 -1.0055 -0.5268
  484TIP3   OH2 1457   5.514   3.520   3.847 -0.2781  0.3010 -0.2662
  484TIP3    H1 1458   5.457   3.459   3.801 -1.3123  1.3721 -0.4649
  484TIP3    H2 1459   5.547   3.470   3.922 -0.2335 -0.8149 -1.0040
  485TIP3   OH2 1460   1.553   3.537   4.665 -0.3496 -0.2203  0.0989
  485TIP3    H1 1461   1.462   3.508   4.676  0.1493 -1.1178  2.4176
  485TIP3    H2 1462   1.595   3.463   4.620 -0.4747 -0.4040  0.2769
  486TIP3   OH2 1463   4.602   4.899   1.438 -0.2030  0.1061  0.5659
  486TIP3    H1 1464   4.642   4.814   1.454 -0.0768  0.5071  2.8283
  486TIP3    H2 1465   4.511   4.889   1.468 -1.0076  0.0656 -1.6751
  487TIP3   OH2 1466   3.779   0.049   2.854 -0.1588  0.4224  0.2564
  487TIP3    H1 1467   3.685   0.067   2.856 -0.0102  1.2679  0.0143
  487TIP3    H2 1468   3.785  -0.045   2.837 -0.9762 -0.0774  2.4259
  488TIP3   OH2 1469   2.017   5.047   5.085 -0.4176 -0.2729 -0.6415
  488TIP3    H1 1470   1.935   5.095   5.096  0.5211  1.3498 -0.4606
  488TIP3    H2 1471   2.007   4.969   5.141 -1.5308  0.2866 -0.0274
  489TIP3   OH2 1472   2.303   3.501   0.703 -0.4049 -0.5812 -0.0451
  489TIP3    H1 1473   2.338   3.581   0.663 -0.2509 -0.3686  0.5140
  489TIP3    H2 1474   2.211   3.520   0.719  0.1003  0.3327  2.1541
  490TIP3   OH2 1475   4.283   2.261   0.731  0.1678 -0.2551  0.1872
  490TIP3    H1 1476   4.243   2.283   0.648  0.0813 -0.1373  0.2600
  490TIP3    H2 1477   4.370   2.229   0.708 -0.3545 -1.5529 -0.0543
  491TIP3   OH2 1478   3.304   2.598   0.455  0.0839  0.0713  0.1317
  491TIP3    H1 1479   3.212   2.593   0.428  0.7467 -2.0375 -2.1212
  491TIP3    H2 1480   3.309   2.545   0.534 -0.5423 -0.3727 -0.1132
  492TIP3   OH2 1481   2.432   0.462   0.056  0.0570  0.2710  0.2168
  492TIP3    H1 1482   2.425   0.479   0.150  0.8285  2.5117 -0.0499
  492TIP3    H2 1483   2.392   0.539   0.015  2.6109  0.9769 -1.2167
  493TIP3   OH2 1484   5.582   4.506   1.499 -0.8248  0.4286  0.3854
  493TIP3    H1 1485   5.647   4.547   1.442 -0.8023  0.1298  0.1931
  493TIP3    H2 1486   5.596   4.546   1.585  0.0246 -0.0675  0.4928
  494TIP3   OH2 1487   4.142   4.681   0.470  0.1166 -0.2900  0.4624
  494TIP3    H1 1488   4.210   4.691   0.536 -0.2695  0.7150  0.7314
  494TIP3    H2 1489   4.061   4.670   0.521 -0.6435  3.3636  0.3065
  495TIP3   OH2 1490   1.309   5.226   5.175  0.4441  0.2049  0.4133
  495TIP3    H1 1491   1.272   5.295   5.121  0.4905  1.8208  2.3123
  495TIP3    H2 1492   1.254   5.149   5.158 -0.5401  1.1072 -0.6454
  496TIP3   OH2 1493   6.268   4.139   1.035  0.5882  0.2052  0.7198
  496TIP3    H1 1494   6.180   4.101   1.030  0.7812 -0.6192  2.7341
  496TIP3    H2 1495   6.323   4.080   0.985  0.3310 -0.4324  1.1770
  497TIP3   OH2 1496   4.544   1.964   3.188  0.2625 -0.3287 -0.5613
  497TIP3    H1 1497   4.632   2.002   3.181  0.5263 -0.9961 -0.9473
  497TIP3    H2 1498   4.529   1.924   3.102  0.0365 -1.1993 -0.1197
  498TIP3   OH2 1499   4.437   5.619   2.652  0.1454 -0.3847  0.0657
  498TIP3    H1 1500   4.393   5.575   2.580 -1.4630  0.5412  0.4386
  498TIP3    H2 1501   4.387   5.595   2.730 -0.0795  1.1401  0.4289
  499TIP3   OH2 1502   3.942   2.840   4.804 -0.2630 -0.1675  0.2167
  499TIP3    H1 1503   3.928   2.771   4.869  3.4141 -0.2990  1.0511
  499TIP3    H2 1504   3.905   2.919   4.845 -2.6349 -1.1522  0.1335
  500TIP3   OH2 1505   6.034   5.413   0.660  0.4570 -0.4625  0.6012
  500TIP3    H1 1506   5.981   5.430   0.582  0.7765 -1.7775  0.0689
  500TIP3    H2 1507   5.982   5.350   0.711 -0.2294  1.1523  2.0021
  501TIP3   OH2 1508   2.709   4.514   1.515 -0.1417  0.0467 -0.5087
  501TIP3    H1 1509   2.753   4.542   1.595  0.0490  2.1819 -1.2907
  501TIP3    H2 1510   2.626   4.561   1.516  0.5723  1.4466 -2.3325
  502TIP3   OH2 1511   4.494   2.964   0.329 -0.0900 -0.5836  0.1064
  502TIP3    H1 1512   4.555   2.995   0.396  1.2356  0.0179 -1.3175
  502TIP3    H2 1513   4.443   2.895   0.372  0.3516  0.1419  1.8603
  503TIP3   OH2 1514   6.101   0.839   5.083  0.5987 -0.0721  0.3171
  503TIP3    H1 1515   6.189   0.839   5.047  0.2061  0.5062 -0.6923
  503TIP3    H2 1516   6.064   0.755   5.057  0.4432  0.1916 -0.3234
  504TIP3   OH2 1517   2.858   0.746   0.875  0.2653 -0.2706  0.0467
  504TIP3    H1 1518   2.826   0.707   0.956 -0.1219  0.8285  0.4423
  504TIP3    H2 1519   2.779   0.765   0.824  0.5021 -0.8754 -0.5500
  505TIP3   OH2 1520   1.662   5.079   4.779 -0.2744 -0.0059 -0.1454
  505TIP3    H1 1521   1.730   5.143   4.801 -1.1560  0.1976  2.3030
  505TIP3    H2 1522   1.667   5.014   4.849  0.1972 -2.3812 -2.2481
  506TIP3   OH2 1523   1.824   0.110   0.501 -0.1586  0.1924 -0.0603
  506TIP3    H1 1524   1.833   0.183   0.440  0.7162  0.4101  0.3145
  506TIP3    H2 1525   1.835   0.150   0.587 -1.9326 -0.0156  0.3114
  507TIP3   OH2 1526   1.282   2.051   1.972 -0.3068  0.3645 -0.0772
  507TIP3    H1 1527   1.334   2.115   2.021 -0.5463  0.5956 -0.1178
  507TIP3    H2 1528   1.240   2.103   1.903 -1.7730  0.4734  0.8587
  508TIP3   OH2 1529   3.741   5.932   4.542 -1.0808 -0.1308  0.4479
  508TIP3    H1 1530   3.663   5.877   4.543 -1.0741 -0.2295  2.9961
  508TIP3    H2 1531   3.813   5.873   4.563 -0.1896 -0.0862 -2.0708
  509TIP3   OH2 1532   5.695   3.217   1.197  0.0308  0.0388 -0.0080
  509TIP3    H1 1533   5.641   3.248   1.123  0.2671  0.1936 -0.1184
  509TIP3    H2 1534   5.657   3.133   1.220  0.4538 -0.3957 -0.8368
  510TIP3   OH2 1535   3.315   0.926   2.760 -0.3065  0.2209  0.2080
  510TIP3    H1 1536   3.389   0.938   2.820  2.1082 -0.6029 -2.4047
  510TIP3    H2 1537   3.260   0.861   2.804 -0.1507  1.6553  2.7176
  511TIP3   OH2 1538   0.745   2.076   2.161 -0.2564 -0.0546  0.1699
  511TIP3    H1 1539   0.812   2.137   2.191  1.5533 -1.4403 -0.7473
  511TIP3    H2 1540   0.726   2.022   2.237 -2.0723  1.7319  1.0615
  512TIP3   OH2 1541   0.455   0.300   0.564  0.0241 -0.1673  0.6314
  512TIP3    H1 1542   0.533   0.348   0.592  0.2088 -0.2447  0.2473
  512TIP3    H2 1543   0.467   0.211   0.597  1.1736 -0.7994 -1.3439
  513TIP3   OH2 1544   0.035   0.772   1.486  0.1274  0.3269 -0.2150
  513TIP3    H1 1545  -0.026   0.726   1.429  2.6551 -2.2950 -1.0538
  513TIP3    H2 1546   0.009   0.864   1.480 -3.0525 -0.5210 -1.2296
  514TIP3   OH2 1547   0.659   4.458   2.569  0.3327 -0.2258  0.7363
  514TIP3    H1 1548   0.637   4.478   2.478 -2.6044 -0.3231  1.3189
  514TIP3    H2 1549   0.685   4.366   2.568  1.1691 -0.0027 -0.0794
  515TIP3   OH2 1550   0.760   0.293   3.471 -0.0290  0.5888  0.2554
  515TIP3    H1 1551   0.733   0.344   3.547 -0.4005  0.1149  0.4488
  515TIP3    H2 1552   0.678   0.265   3.430  0.1521  1.3158 -0.6632
  516TIP3   OH2 1553   5.022   2.907   0.921 -0.2708  0.0560 -0.1838
  516TIP3    H1 1554   4.940   2.937   0.960  0.3047  1.9272 -0.3393
  516TIP3    H2 1555   5.081   2.896   0.995 -0.1162  0.5337 -0.2334
  517TIP3   OH2 1556   2.994   3.050   1.640 -0.5502  0.2820  0.3402
  517TIP3    H1 1557   2.948   3.003   1.709 -1.1515 -0.5592 -0.6049
  517TIP3    H2 1558   2.925   3.081   1.582 -0.0066 -0.0452 -0.5039
  518TIP3   OH2 1559   4.705   3.959   4.010 -0.4840 -0.3211  0.0478
  518TIP3    H1 1560   4.623   3.915   4.032 -0.5245 -0.6117 -0.6547
  518TIP3    H2 1561   4.687   4.006   3.929 -0.8713  2.2662  1.5278
  519TIP3   OH2 1562   0.938   4.045   0.759  0.2680  0.1718 -0.5422
  519TIP3    H1 1563   0.963   4.120   0.706 -1.1931  0.7720 -0.4322
  519TIP3    H2 1564   0.843   4.054   0.770  0.4211 -0.3670  1.5235
  520TIP3   OH2 1565   1.840   3.265   5.144  0.1776 -0.0945  0.5536
  520TIP3    H1 1566   1.857   3.186   5.195  0.1869 -1.8331 -1.9317
  520TIP3    H2 1567   1.744   3.274   5.145  0.2647  0.8508  2.1731
  521TIP3   OH2 1568   1.379   4.032   4.427 -0.6717  1.0367  0.3072
  521TIP3    H1 1569   1.336   4.042   4.342  1.0669  1.8210 -0.5226
  521TIP3    H2 1570   1.451   4.094   4.425 -0.1327  0.5258  2.0784
  522TIP3   OH2 1571   3.211   2.568   3.119 -0.3595 -0.3473  0.4522
  522TIP3    H1 1572   3.169   2.651   3.097 -0.5764 -0.8455 -1.1882
  522TIP3    H2 1573   3.139   2.506   3.130 -0.1629 -0.5226  0.7754
  523TIP3   OH2 1574   4.164   3.818   2.656 -0.0527 -0.3436 -0.4420
  523TIP3    H1 1575   4.199   3.905   2.640 -1.2973  0.1613 -0.5607
  523TIP3    H2 1576   4.234   3.771   2.700 -0.1975  1.5063  1.9282
  524TIP3   OH2 1577   2.431   2.408   3.939  0.0308  0.1340 -0.2106
  524TIP3    H1 1578   2.498   2.366   3.887  0.4113  0.7832 -0.2472
  524TIP3    H2 1579   2.363   2.341   3.950 -0.4138  0.2162 -2.1633
  525TIP3   OH2 1580   5.943   0.836   2.152  0.1385 -0.0210 -0.7642
  525TIP3    H1 1581   5.850   0.851   2.134  0.0630  0.3706 -0.0827
  525TIP3    H2 1582   5.985   0.843   2.067 -0.1013  2.5176 -0.7361
  526TIP3   OH2 1583   1.570   0.270   2.436 -0.4260  0.0432  0.3004
  526TIP3    H1 1584   1.517   0.313   2.368  1.2858  2.1615  0.1934
  526TIP3    H2 1585   1.645   0.235   2.388  1.1122  2.0868  1.0668
  527TIP3   OH2 1586   2.572   0.505   3.736  0.0738  0.3068  0.2671
  527TIP3    H1 1587   2.548   0.479   3.825 -1.0432 -0.0944 -0.1335
  527TIP3    H2 1588   2.549   0.598   3.732 -0.4897  0.1711  0.2094
  528TIP3   OH2 1589   3.437   1.446   1.164  0.2421 -0.0117 -0.4943
  528TIP3    H1 1590   3.361   1.477   1.114  0.7967  0.5675 -0.9958
  528TIP3    H2 1591   3.429   1.351   1.162 -1.3058  0.0548  0.7802
  529TIP3   OH2 1592   1.962   5.858   0.800  0.2702 -0.3717  0.1993
  529TIP3    H1 1593   2.052   5.876   0.773 -0.1451  0.5190 -0.6838
  529TIP3    H2 1594   1.941   5.928   0.862 -0.0362 -0.1515 -0.1449
  530TIP3   OH2 1595   4.532   5.539   3.993  0.0429  0.3433  0.4147
  530TIP3    H1 1596   4.537   5.515   4.086  0.7677  0.6266  0.4591
  530TIP3    H2 1597   4.494   5.627   3.993 -3.1553 -0.9082  0.2189
  531TIP3   OH2 1598   1.325   2.494   1.519 -0.1755  0.3617 -0.0030
  531TIP3    H1 1599   1.295   2.512   1.608 -2.4376 -0.3497 -0.5468
  531TIP3    H2 1600   1.311   2.400   1.507 -1.0449  0.6379 -1.4588
  532TIP3   OH2 1601   2.875   5.894   4.199  0.3685 -0.2092  0.5648
  532TIP3    H1 1602   2.901   5.982   4.225  0.1487 -0.0991  0.4144
  532TIP3    H2 1603   2.843   5.904   4.109 -2.1087  0.0409  1.3842
  533TIP3   OH2 1604   5.002   3.105   2.029 -0.2764  0.4392 -0.1489
  533TIP3    H1 1605   4.964   3.029   2.074 -1.1610  1.0384  0.1542
  533TIP3    H2 1606   5.095   3.101   2.049 -0.4766  0.0185  0.7576
  534TIP3   OH2 1607   5.664   3.240   2.602  0.0125  0.8176 -0.1689
  534TIP3    H1 1608   5.749   3.197   2.601  0.4605  1.6628  0.3930
  534TIP3    H2 1609   5.670   3.309   2.536  0.3588  1.9380  0.9841
  535TIP3   OH2 1610   1.242   5.255   1.887 -0.0795 -0.0727 -0.1704
  535TIP3    H1 1611   1.212   5.249   1.796  1.6063  0.2039 -0.7762
  535TIP3    H2 1612   1.261   5.165   1.912  0.7359 -0.0287 -0.5763
  536TIP3   OH2 1613   4.332   1.065   0.855 -0.1268 -0.0992 -0.1906
  536TIP3    H1 1614   4.333   1.126   0.928  0.1739 -0.9430  0.5294
  536TIP3    H2 1615   4.408   1.089   0.802 -0.4389  0.6205 -0.3282
  537TIP3   OH2 1616   0.139   1.497   1.897  0.3083 -0.9998  0.1625
  537TIP3    H1 1617   0.091   1.526   1.974  0.6667 -0.0236  0.0294
  537TIP3    H2 1618   0.177   1.413   1.922  0.6970 -0.5387  1.1705
  538TIP3   OH2 1619   4.041   2.270   4.475 -0.0351  0.5285 -0.4238
  538TIP3    H1 1620   4.082   2.325   4.408 -1.0413  1.9801  0.1163
  538TIP3    H2 1621   4.086   2.295   4.556 -1.1213  1.2710 -0.0248
  539TIP3   OH2 1622   2.283   1.480   2.962 -0.2959 -0.3762 -0.4460
  539TIP3    H1 1623   2.300   1.385   2.964 -0.2926 -0.4790 -2.7200
  539TIP3    H2 1624   2.252   1.500   3.050  0.6601 -2.2994  0.4117
  540TIP3   OH2 1625   1.313   3.824   4.082  0.7647 -0.4517  0.3016
  540TIP3    H1 1626   1.309   3.778   3.999 -0.9084 -2.1416  1.2435
  540TIP3    H2 1627   1.221   3.835   4.108  0.9814  3.6004  0.1129
  541TIP3   OH2 1628   1.985   5.323   3.193 -0.2047 -0.1312  0.0580
  541TIP3    H1 1629   1.913   5.378   3.162  0.0366  0.8883  1.2086
  541TIP3    H2 1630   1.951   5.283   3.273  0.7363  0.9884  1.0635
  542TIP3   OH2 1631   3.380   5.845   3.583  0.3506 -0.0261  0.3360
  542TIP3    H1 1632   3.304   5.890   3.620  0.6028  0.3943  0.3541
  542TIP3    H2 1633   3.346   5.798   3.507 -0.3279 -1.4917  1.4949
  543TIP3   OH2 1634   2.586   5.105   4.232 -0.2916  0.2081  0.3392
  543TIP3    H1 1635   2.632   5.159   4.296  0.0875 -0.7363  0.8888
  543TIP3    H2 1636   2.522   5.056   4.283 -0.4839 -0.0243 -0.1166
  544TIP3   OH2 1637   6.067   5.783   2.697 -0.0227 -0.3055  0.1891
  544TIP3    H1 1638   5.974   5.797   2.682  0.1572  0.2029 -0.5305
  544TIP3    H2 1639   6.098   5.738   2.619  0.2204 -1.0346  0.6965
  545TIP3   OH2 1640   0.493   0.996   4.375  0.0377  0.1213 -0.3880
  545TIP3    H1 1641   0.523   0.923   4.321  0.3254 -0.3151  0.3459
  545TIP3    H2 1642   0.528   0.977   4.462 -0.6492  0.6687  0.0161
  546TIP3   OH2 1643   2.913   1.679   4.112  0.3545 -0.1492 -0.4763
  546TIP3    H1 1644   2.901   1.588   4.083 -0.3319 -0.2928  0.2372
  546TIP3    H2 1645   2.954   1.672   4.198 -1.5060  0.1382  0.4751
  547TIP3   OH2 1646   4.282   3.583   1.877  0.5910  0.1918  0.3966
  547TIP3    H1 1647   4.272   3.626   1.962  1.0763  2.2549 -0.5357
  547TIP3    H2 1648   4.370   3.543   1.881 -0.2009 -1.5879  1.5831
  548TIP3   OH2 1649   1.910   3.212   3.658  0.1084  0.2734 -0.0939
  548TIP3    H1 1650   1.886   3.119   3.660 -1.3338  0.6229  1.1717
  548TIP3    H2 1651   1.981   3.219   3.722  0.1965  0.0308 -0.1652
  549TIP3   OH2 1652   0.079   0.577   2.619  0.5780  0.1993 -0.2779
  549TIP3    H1 1653   0.040   0.604   2.702  0.8481  1.1488 -0.4516
  549TIP3    H2 1654   0.075   0.482   2.621 -0.5052  0.2432  0.3006
  550TIP3   OH2 1655   4.834   0.690   3.780  0.1255  0.6007  0.4198
  550TIP3    H1 1656   4.847   0.600   3.750  0.0685  0.3458  1.1288
  550TIP3    H2 1657   4.833   0.742   3.700 -0.2651 -0.0805 -0.0384
  551TIP3   OH2 1658   5.386   0.689   3.003 -0.5200 -0.1870  0.1734
  551TIP3    H1 1659   5.399   0.690   2.909  1.1621  0.6350  0.3841
  551TIP3    H2 1660   5.437   0.613   3.033  1.2890  1.1393  0.6635
  552TIP3   OH2 1661   0.036   1.374   2.227  0.0867  0.2100  0.0849
  552TIP3    H1 1662   0.071   1.323   2.154  1.4622  0.7341  0.3615
  552TIP3    H2 1663   0.081   1.339   2.304 -0.7908  0.1768  0.5927
  553TIP3   OH2 1664   5.576   3.836   4.537  0.4793 -0.3003  0.7768
  553TIP3    H1 1665   5.557   3.917   4.491  3.1053 -0.6151 -1.0475
  553TIP3    H2 1666   5.547   3.767   4.477  1.9380 -0.7030  0.5037
  554TIP3   OH2 1667   0.227   2.420   3.049 -0.0622 -0.6339 -0.6863
  554TIP3    H1 1668   0.230   2.495   3.109 -2.2923 -0.6441 -0.4689
  554TIP3    H2 1669   0.196   2.457   2.966  1.8449 -0.8286 -1.5320
  555TIP3   OH2 1670   4.419   2.586   3.780 -0.2177  0.2119  0.4630
  555TIP3    H1 1671   4.336   2.600   3.825 -0.6273  0.7901 -0.4511
  555TIP3    H2 1672   4.483   2.576   3.850 -1.0495 -0.2327  1.1780
  556TIP3   OH2 1673   0.816   4.992   5.048 -0.1290  0.4814  0.2024
  556TIP3    H1 1674   0.857   5.065   5.001  0.0194 -0.2638 -0.8806
  556TIP3    H2 1675   0.818   5.018   5.140 -1.3801  2.4854 -0.2634
  557TIP3   OH2 1676   3.049   2.754   2.829 -0.0705  0.2382 -0.1455
  557TIP3    H1 1677   3.011   2.777   2.913  1.6059 -1.5178  1.1736
  557TIP3    H2 1678   3.116   2.819   2.813  0.6107 -0.2668  0.6259
  558TIP3   OH2 1679   3.752   1.573   4.971 -0.0957 -0.3421  0.6701
  558TIP3    H1 1680   3.762   1.593   5.064 -0.6574 -0.5221  0.7713
  558TIP3    H2 1681   3.657   1.566   4.958 -0.0959  0.8166 -0.1500
  559TIP3   OH2 1682   2.373   5.728   3.717  0.0344  0.4261  0.3700
  559TIP3    H1 1683   2.293   5.707   3.764 -1.4116 -2.0315 -2.7697
  559TIP3    H2 1684   2.371   5.823   3.707 -1.7093  0.5663  1.6135
  560TIP3   OH2 1685   5.539   4.642   1.768  0.1030 -0.0282  0.1863
  560TIP3    H1 1686   5.470   4.650   1.834  0.8924 -1.8394  1.3141
  560TIP3    H2 1687   5.572   4.553   1.779  0.0487 -0.5518 -2.9343
  561TIP3   OH2 1688   2.384   2.903   3.518  0.4134  0.0997 -0.4415
  561TIP3    H1 1689   2.353   2.814   3.503  0.8426 -0.0794 -0.2819
  561TIP3    H2 1690   2.384   2.912   3.613  0.1531  0.3487 -0.4644
  562TIP3   OH2 1691   3.088   5.381   1.848  0.4590  0.0509 -0.1442
  562TIP3    H1 1692   3.086   5.467   1.807  1.7591  1.4118  2.4504
  562TIP3    H2 1693   3.171   5.378   1.895 -0.7821 -1.5021  2.1367
  563TIP3   OH2 1694   3.795   2.643   4.641  0.5971  0.4350  0.2221
  563TIP3    H1 1695   3.840   2.680   4.718  0.1057  0.6773  0.3941
  563TIP3    H2 1696   3.703   2.640   4.667 -0.0118  3.0389 -1.3303
  564TIP3   OH2 1697   5.591   2.770   1.615  0.5714 -0.6880 -0.6590
  564TIP3    H1 1698   5.671   2.821   1.600  0.8772 -0.8707  0.3093
  564TIP3    H2 1699   5.603   2.731   1.702 -1.8366  1.7309  0.9173
  565TIP3   OH2 1700   2.703   5.922   5.062  0.3657  0.0303 -0.3786
  565TIP3    H1 1701   2.700   5.829   5.083 -1.0555 -0.0205 -0.6524
  565TIP3    H2 1702   2.620   5.956   5.095 -0.3518  0.6468 -2.6329
  566TIP3   OH2 1703   0.499   0.588   1.732  0.4430 -0.0585 -0.1809
  566TIP3    H1 1704   0.412   0.580   1.692  0.5229 -3.2532  0.0959
  566TIP3    H2 1705   0.558   0.545   1.670  1.1775 -1.4689  1.4229
  567TIP3   OH2 1706   1.300   3.224   0.385  0.4133 -1.0073  0.4185
  567TIP3    H1 1707   1.228   3.265   0.337  0.0464 -4.3578 -2.3090
  567TIP3    H2 1708   1.375   3.231   0.325  0.4580 -3.5856  0.0573
  568TIP3   OH2 1709   4.003   4.771   4.733 -0.2978  0.5173  0.2647
  568TIP3    H1 1710   4.052   4.708   4.680  2.1199  2.5137 -0.0993
  568TIP3    H2 1711   4.071   4.819   4.782 -2.1143  1.8557  1.6310
  569TIP3   OH2 1712   2.066   0.998   1.946  0.2532  0.4707  0.0594
  569TIP3    H1 1713   2.005   0.925   1.955  1.7097 -0.7396  0.6475
  569TIP3    H2 1714   2.097   1.014   2.035  1.0380  0.8151 -0.2641
  570TIP3   OH2 1715   4.110   2.305   2.855  0.0372  0.7825  0.0060
  570TIP3    H1 1716   4.060   2.252   2.793 -0.3979  1.1669  0.0157
  570TIP3    H2 1717   4.043   2.354   2.903  0.4613  1.9031 -0.5201
  571TIP3   OH2 1718   3.278   2.910   2.827  0.4515 -0.0427  0.0930
  571TIP3    H1 1719   3.332   2.918   2.749  0.3297 -0.2073 -0.0071
  571TIP3    H2 1720   3.339   2.887   2.897  0.6734  0.7781  0.1917
  572TIP3   OH2 1721   0.516   0.384   2.573  0.6432  0.2057 -0.4718
  572TIP3    H1 1722   0.597   0.364   2.527  0.4785 -0.2923 -0.5527
  572TIP3    H2 1723   0.530   0.471   2.610  1.3152  0.0174 -0.2641
  573TIP3   OH2 1724   4.969   3.216   4.619  0.4346 -0.0894  0.2744
  573TIP3    H1 1725   4.898   3.153   4.606  1.5582 -1.5313  0.7923
  573TIP3    H2 1726   4.939   3.295   4.576 -0.7267 -1.2128 -1.0864
  574TIP3   OH2 1727   5.208   0.758   0.944  0.1113 -0.9993 -0.1657
  574TIP3    H1 1728   5.250   0.672   0.942 -0.0270 -1.0880  0.6448
  574TIP3    H2 1729   5.222   0.789   1.033  0.1725 -0.1728 -0.4570
  575TIP3   OH2 1730   2.756   3.832   3.746  0.3331 -0.1932  0.4415
  575TIP3    H1 1731   2.840   3.844   3.788  0.8278 -0.1763 -0.5115
  575TIP3    H2 1732   2.709   3.770   3.802  0.1018  1.4441  2.1500
  576TIP3   OH2 1733   1.332   4.999   1.976 -0.5386  1.0376 -0.3308
  576TIP3    H1 1734   1.258   4.944   2.004 -1.6406  2.5173 -0.2134
  576TIP3    H2 1735   1.382   5.015   2.056 -1.5113  2.0684  0.1017
  577TIP3   OH2 1736   4.006   3.444   4.137 -0.2547  0.3196  0.2239
  577TIP3    H1 1737   3.992   3.401   4.053 -0.0521 -0.3415  0.5282
  577TIP3    H2 1738   4.100   3.438   4.152 -0.2681  0.5851  0.4272
  578TIP3   OH2 1739   5.532   0.887   0.907  0.2984 -0.4374 -0.1792
  578TIP3    H1 1740   5.454   0.939   0.890  0.9565  0.7405  0.3183
  578TIP3    H2 1741   5.547   0.895   1.001  1.7779  0.4781 -0.4681
  579TIP3   OH2 1742   2.535   3.383   4.271 -0.1908  0.3416  0.3389
  579TIP3    H1 1743   2.482   3.425   4.339 -0.8618 -0.9249  0.6299
  579TIP3    H2 1744   2.593   3.453   4.239 -0.4247  1.1591  1.6324
  580TIP3   OH2 1745   4.724   0.764   4.968  0.5287 -0.0905 -0.4788
  580TIP3    H1 1746   4.760   0.799   5.049  0.8628 -2.0628  0.2753
  580TIP3    H2 1747   4.629   0.767   4.980  0.5792 -1.5362  0.5672
  581TIP3   OH2 1748   2.944   0.816   4.052 -0.4275  0.0413 -0.2132
  581TIP3    H1 1749   3.026   0.862   4.031 -0.1382 -0.6963 -0.7200
  581TIP3    H2 1750   2.965   0.763   4.128 -0.7931  0.7978  0.4398
  582TIP3   OH2 1751   2.473   2.637   3.197  0.3512  0.0895  0.0519
  582TIP3    H1 1752   2.556   2.675   3.227  0.5826  0.9216 -1.5371
  582TIP3    H2 1753   2.484   2.543   3.209  1.3694  0.2223  0.2667
  583TIP3   OH2 1754   1.597   5.900   3.494  0.2979  0.0644 -0.6708
  583TIP3    H1 1755   1.669   5.910   3.556 -0.0760 -2.6119  0.3348
  583TIP3    H2 1756   1.628   5.835   3.431  0.1821  1.8049 -2.6544
  584TIP3   OH2 1757   0.039   4.803   4.823  0.4885 -0.1241 -0.3007
  584TIP3    H1 1758  -0.051   4.836   4.823  0.4258 -0.2879 -0.6419
  584TIP3    H2 1759   0.043   4.743   4.897  0.3552 -0.0128 -0.2030
  585TIP3   OH2 1760   6.154   5.062   2.639 -0.1505 -0.2353 -0.0912
  585TIP3    H1 1761   6.125   4.995   2.701 -0.8834 -0.8296 -1.0484
  585TIP3    H2 1762   6.074   5.109   2.615  0.1066 -0.0927 -0.6850
  586TIP3   OH2 1763   0.022   5.328   4.986 -0.0534 -0.3074 -0.0175
  586TIP3    H1 1764   0.045   5.238   4.964  0.0613 -0.4646  0.7014
  586TIP3    H2 1765   0.103   5.377   4.970  0.3043 -0.5738  0.8881
  587TIP3   OH2 1766   4.143   2.950   5.089  0.2621 -0.6443  0.5335
  587TIP3    H1 1767   4.063   2.996   5.064  0.5148 -0.8768 -0.8217
  587TIP3    H2 1768   4.119   2.901   5.168 -0.9126 -0.6430  0.2038
  588TIP3   OH2 1769   3.775   3.649   3.354  0.3849 -0.5132  0.0832
  588TIP3    H1 1770   3.750   3.719   3.293  0.0541 -1.4126 -0.8631
  588TIP3    H2 1771   3.805   3.694   3.432 -0.7619  0.6731 -0.1284
  589TIP3   OH2 1772   5.756   1.135   2.905  0.4137  0.1798  0.3164
  589TIP3    H1 1773   5.821   1.147   2.974 -0.0157 -1.0954  0.9777
  589TIP3    H2 1774   5.673   1.127   2.952  0.0079  0.0501 -0.4075
  590TIP3   OH2 1775   5.590   5.929   1.620 -0.6108 -0.0514 -0.1940
  590TIP3    H1 1776   5.598   5.842   1.659  2.0547  0.5632  0.8665
  590TIP3    H2 1777   5.576   5.912   1.527  0.7509 -1.6648 -0.1621
  591TIP3   OH2 1778   0.278   3.871   4.491  0.0750  0.3627 -0.2444
  591TIP3    H1 1779   0.281   3.947   4.550 -1.5566  1.1758 -1.1550
  591TIP3    H2 1780   0.356   3.820   4.514  1.5954  2.6367 -0.0498
  592TIP3   OH2 1781   4.572   1.895   4.182 -0.1932  0.6035  0.5153
  592TIP3    H1 1782   4.640   1.846   4.227 -1.0834  0.3198  1.6112
  592TIP3    H2 1783   4.494   1.885   4.238 -1.5006 -0.1863 -1.3440
  593TIP3   OH2 1784   2.829   3.146   5.133  0.4760 -0.3034 -0.6949
  593TIP3    H1 1785   2.797   3.187   5.053  0.2024 -1.9843 -1.4916
  593TIP3    H2 1786   2.872   3.217   5.181  1.3745  0.5928 -2.7063
  594TIP3   OH2 1787   4.327   1.994   1.868 -0.1847 -0.3222  0.5526
  594TIP3    H1 1788   4.249   2.026   1.823  0.2491  0.2142  0.1656
  594TIP3    H2 1789   4.312   2.015   1.961 -0.0215  0.8110  0.3403
  595TIP3   OH2 1790   6.064   5.533   4.114  0.5178 -0.6649  0.2480
  595TIP3    H1 1791   5.972   5.533   4.087  0.5168  2.7866 -0.1975
  595TIP3    H2 1792   6.102   5.457   4.069 -2.1967 -2.7419  1.1573
  596TIP3   OH2 1793   1.149   0.705   2.538 -0.3057 -0.1116 -0.1726
  596TIP3    H1 1794   1.085   0.689   2.469 -0.2572  0.0953 -0.2661
  596TIP3    H2 1795   1.158   0.621   2.583 -2.6052  0.4322  1.5161
  597TIP3   OH2 1796   2.177   0.187   2.216 -0.1841  0.0503 -0.5411
  597TIP3    H1 1797   2.227   0.247   2.162  0.5493 -0.0638 -0.0025
  597TIP3    H2 1798   2.140   0.242   2.285  1.9721 -0.3251  1.0212
  598TIP3   OH2 1799   5.581   2.130   0.926 -0.1570  0.0590  0.0261
  598TIP3    H1 1800   5.498   2.113   0.881 -0.3287  0.0365  0.3492
  598TIP3    H2 1801   5.647   2.086   0.871 -0.4999 -0.9972  0.4227
  599TIP3   OH2 1802   6.195   3.968   2.207 -0.2452  0.2996 -0.2314
  599TIP3    H1 1803   6.267   3.962   2.144  0.8365 -0.7709  1.0291
  599TIP3    H2 1804   6.185   3.879   2.240  0.0462  1.0100  1.9435
  600TIP3   OH2 1805   2.875   3.232   2.290  0.7352 -0.4499 -0.0315
  600TIP3    H1 1806   2.885   3.274   2.205  3.2921 -1.2045 -0.1837
  600TIP3    H2 1807   2.834   3.148   2.271 -0.7416  0.2785 -0.2006
  601TIP3   OH2 1808   3.493   5.187   0.247  0.0921 -0.1841  0.0746
  601TIP3    H1 1809   3.445   5.105   0.239 -1.3284  0.4421  1.6462
  601TIP3    H2 1810   3.578   5.161   0.283  0.8871 -1.2591 -2.3835
  602TIP3   OH2 1811   2.012   2.049   2.026 -0.4175 -0.0844 -0.2683
  602TIP3    H1 1812   2.051   2.087   2.105  0.1184  0.4004 -0.7569
  602TIP3    H2 1813   2.072   2.074   1.956  0.0565 -1.9800 -0.5914
  603TIP3   OH2 1814   2.388   5.316   0.629 -0.4006 -0.1168  0.2582
  603TIP3    H1 1815   2.441   5.245   0.593 -1.4682 -0.8297  0.0443
  603TIP3    H2 1816   2.395   5.305   0.724  1.4451  1.0375  0.3149
  604TIP3   OH2 1817   1.810   2.961   3.374 -0.0034  0.4243 -0.2819
  604TIP3    H1 1818   1.887   3.011   3.348  0.7647 -0.2896  0.5807
  604TIP3    H2 1819   1.804   2.972   3.469  0.8166 -1.9456  0.1172
  605TIP3   OH2 1820   3.246   2.116   3.229  0.8108  0.4177 -0.4256
  605TIP3    H1 1821   3.331   2.159   3.231  0.6263  0.7510  1.0820
  605TIP3    H2 1822   3.210   2.127   3.317 -0.6744  0.0360 -0.9411
  606TIP3   OH2 1823   5.320   2.599   1.930  0.1220  0.6371 -0.2324
  606TIP3    H1 1824   5.276   2.677   1.896  0.3499  0.7357 -0.3076
  606TIP3    H2 1825   5.288   2.591   2.020 -0.5216  0.3458 -0.4796
  607TIP3   OH2 1826   4.555   1.993   0.442 -0.0442 -0.2008 -0.0710
  607TIP3    H1 1827   4.641   2.034   0.438 -0.3130  0.3167 -0.9386
  607TIP3    H2 1828   4.572   1.899   0.433  0.4355 -0.1009 -0.2362
  608TIP3   OH2 1829   4.610   3.138   2.262 -0.1349  0.2670 -0.4657
  608TIP3    H1 1830   4.609   3.068   2.197  0.3387  0.9750 -1.2454
  608TIP3    H2 1831   4.565   3.211   2.220 -0.5865  0.4600  0.3263
  609TIP3   OH2 1832   0.463   2.070   3.563  0.3902  0.0304 -0.2010
  609TIP3    H1 1833   0.400   2.077   3.635 -1.4823 -1.7392 -1.5370
  609TIP3    H2 1834   0.440   2.142   3.504  1.0079  0.6340  0.2816
  610TIP3   OH2 1835   6.045   5.028   5.011  0.2476  0.9369  0.4408
  610TIP3    H1 1836   6.072   5.001   5.099 -1.0134  1.3605  0.9887
  610TIP3    H2 1837   6.034   5.123   5.018  0.4210  1.0138 -0.2643
  611TIP3   OH2 1838   6.108   2.527   0.723 -0.1030 -0.2535  0.5114
  611TIP3    H1 1839   6.186   2.541   0.777  1.1323 -2.1232 -0.6704
  611TIP3    H2 1840   6.140   2.484   0.644 -2.3946 -1.5645  0.1920
  612TIP3   OH2 1841   1.067   3.306   1.841 -0.0894  0.6017 -0.4385
  612TIP3    H1 1842   1.110   3.231   1.883 -0.7424 -0.4226 -1.5089
  612TIP3    H2 1843   1.097   3.382   1.891  1.3869 -0.2595  0.0800
  613TIP3   OH2 1844   1.676   3.817   4.100 -0.0599 -0.3050  0.4813
  613TIP3    H1 1845   1.594   3.836   4.053  0.2635 -1.2161 -0.4750
  613TIP3    H2 1846   1.678   3.722   4.107  2.1375 -0.4906 -1.7581
  614TIP3   OH2 1847   3.268   1.206   1.898 -0.2623 -0.2304  0.0064
  614TIP3    H1 1848   3.316   1.259   1.835  0.5214 -0.3669  0.4655
  614TIP3    H2 1849   3.181   1.244   1.900 -0.4331 -0.4923 -1.4664
  615TIP3   OH2 1850   6.095   4.721   1.967 -0.0353 -0.3406  0.3453
  615TIP3    H1 1851   6.044   4.692   2.043 -0.7598  0.3724  0.1358
  615TIP3    H2 1852   6.075   4.657   1.899 -0.5862 -0.1108  0.2902
  616TIP3   OH2 1853   3.539   3.577   5.193  0.5121  0.4104  0.0115
  616TIP3    H1 1854   3.621   3.567   5.145 -0.2725 -0.7688 -1.1207
  616TIP3    H2 1855   3.495   3.651   5.150  1.5063  1.9586  1.4765
  617TIP3   OH2 1856   1.833   3.641   0.548 -0.1445 -0.4177  0.4840
  617TIP3    H1 1857   1.762   3.608   0.603 -0.3361  1.2601  1.2957
  617TIP3    H2 1858   1.853   3.728   0.583  1.6997 -0.4697 -0.2930
  618TIP3   OH2 1859   3.460   4.356   1.210 -0.0024 -0.1378 -0.0634
  618TIP3    H1 1860   3.490   4.276   1.254 -0.1171 -0.6803 -0.9344
  618TIP3    H2 1861   3.515   4.363   1.132  0.3556  0.9327  0.2669
  619TIP3   OH2 1862   5.673   2.428   3.532 -0.3687 -0.0475  0.2466
  619TIP3    H1 1863   5.647   2.518   3.514 -1.5069 -0.3572  0.2683
  619TIP3    H2 1864   5.749   2.412   3.475 -0.6960  0.6435 -0.3910
  620TIP3   OH2 1865   5.388   5.809   0.158  0.1928 -0.0252 -0.1610
  620TIP3    H1 1866   5.420   5.879   0.215 -0.1798  0.2084 -0.2322
  620TIP3    H2 1867   5.408   5.728   0.205  0.5603  0.1332 -0.0439
  621TIP3   OH2 1868   5.530   3.168   2.946 -0.3766 -0.1993  0.1299
  621TIP3    H1 1869   5.481   3.097   2.987 -0.8251 -0.7792 -1.3577
  621TIP3    H2 1870   5.609   3.127   2.911 -0.0736  0.2562  0.2671
  622TIP3   OH2 1871   3.449   5.228   1.380 -0.0423  0.0020 -0.3243
  622TIP3    H1 1872   3.512   5.173   1.333  0.7215  0.9675 -0.4517
  622TIP3    H2 1873   3.367   5.214   1.334  0.6873  0.9499 -2.0103
  623TIP3   OH2 1874   0.806   3.191   1.180 -0.1424  0.6428 -0.9443
  623TIP3    H1 1875   0.743   3.238   1.235  0.9589  1.5691 -0.4439
  623TIP3    H2 1876   0.771   3.199   1.091 -0.0249  2.3581 -0.8621
  624TIP3   OH2 1877   4.909   0.489   4.173 -0.0748  0.0624  0.2771
  624TIP3    H1 1878   4.864   0.571   4.195 -0.5367 -0.0189 -0.3438
  624TIP3    H2 1879   4.860   0.454   4.100  0.3512 -0.5887  0.2978
  625TIP3   OH2 1880   3.112   1.852   3.768 -0.1211 -0.2373  0.1696
  625TIP3    H1 1881   3.018   1.863   3.782 -0.1398  0.5399 -0.4822
  625TIP3    H2 1882   3.125   1.758   3.761 -1.0123 -0.3098 -0.7423
  626TIP3   OH2 1883   2.096   5.187   2.969  0.3578 -0.5550  0.0924
  626TIP3    H1 1884   2.075   5.266   3.018  1.3045 -0.7492  0.8445
  626TIP3    H2 1885   2.015   5.137   2.967  0.1877 -0.3359  1.0826
  627TIP3   OH2 1886   3.829   5.385   1.989 -0.9402 -0.3219 -0.4965
  627TIP3    H1 1887   3.913   5.428   1.972 -0.6437 -1.2472 -1.4981
  627TIP3    H2 1888   3.773   5.413   1.917 -1.2288 -0.3984 -0.3044
  628TIP3   OH2 1889   2.685   0.215   3.806 -0.1133  0.7784 -0.4623
  628TIP3    H1 1890   2.719   0.262   3.731 -1.5858 -0.9841 -2.3404
  628TIP3    H2 1891   2.622   0.153   3.770 -1.0441 -0.0258  2.2485
  629TIP3   OH2 1892   2.719   0.738   1.670 -0.1143 -0.1248 -0.2592
  629TIP3    H1 1893   2.651   0.805   1.671 -0.1033 -0.1164  0.4535
  629TIP3    H2 1894   2.779   0.763   1.740 -0.0257 -0.7879 -0.0914
  630TIP3   OH2 1895   3.232   0.369   1.841  0.4775 -0.3319  0.0452
  630TIP3    H1 1896   3.238   0.309   1.915  2.5319  0.3958  0.5278
  630TIP3    H2 1897   3.311   0.353   1.790  0.4080  1.0403 -0.5477
  631TIP3   OH2 1898   4.103   1.134   0.307 -0.1008 -0.2963  0.0649
  631TIP3    H1 1899   4.107   1.227   0.283 -0.8576 -0.1525  0.4569
  631TIP3    H2 1900   4.034   1.098   0.252 -0.7952 -0.2999  0.9063
  632TIP3   OH2 1901   5.909   5.103   4.155 -0.1187  0.3707  0.5411
  632TIP3    H1 1902   5.997   5.074   4.131 -0.4947  0.9843 -1.7828
  632TIP3    H2 1903   5.923   5.153   4.236  1.4779 -0.5032  0.8584
  633TIP3   OH2 1904   5.922   1.815   1.913  0.1173  0.0935 -0.3708
  633TIP3    H1 1905   5.917   1.909   1.897 -0.6495 -0.2904 -2.6655
  633TIP3    H2 1906   5.909   1.807   2.008 -2.7833  2.1098 -0.4665
  634TIP3   OH2 1907   6.150   3.092   3.550 -0.4318  0.3657  0.2306
  634TIP3    H1 1908   6.242   3.066   3.561  0.0988  1.1206 -1.8881
  634TIP3    H2 1909   6.117   3.103   3.639  1.0976 -1.3281  1.0843
  635TIP3   OH2 1910   2.091   4.661   4.343  0.3265 -0.0801  0.1589
  635TIP3    H1 1911   2.054   4.594   4.287  4.0990 -2.6779  0.4309
  635TIP3    H2 1912   2.099   4.738   4.287  0.5146 -1.4356 -1.7487
  636TIP3   OH2 1913   0.316   4.345   3.568 -0.0780 -0.2486  0.4888
  636TIP3    H1 1914   0.399   4.391   3.583  1.2748 -2.3514 -0.0851
  636TIP3    H2 1915   0.304   4.349   3.473  0.7811 -2.1384  0.2527
  637TIP3   OH2 1916   2.801   5.496   2.404 -0.0570  0.1060 -0.7760
  637TIP3    H1 1917   2.792   5.524   2.313 -2.1486 -0.7784 -0.9016
  637TIP3    H2 1918   2.750   5.415   2.410  0.7300 -0.3233  0.9949
  638TIP3   OH2 1919   2.932   4.481   2.993  0.1026  0.2077 -0.2866
  638TIP3    H1 1920   2.977   4.542   3.051  0.6044  1.7327 -2.1751
  638TIP3    H2 1921   2.933   4.398   3.040  0.5842  1.3232  1.8051
  639TIP3   OH2 1922   5.750   2.781   0.706 -0.3229 -0.2117 -0.1736
  639TIP3    H1 1923   5.689   2.740   0.645  0.2806 -2.8955  0.9087
  639TIP3    H2 1924   5.831   2.790   0.657 -0.0458 -1.7008 -0.0203
  640TIP3   OH2 1925   5.571   1.463   0.885  0.2601  0.1637 -0.2107
  640TIP3    H1 1926   5.506   1.418   0.830  0.4204 -0.6986  0.2931
  640TIP3    H2 1927   5.527   1.475   0.969 -0.1713  1.9427 -0.6306
  641TIP3   OH2 1928   4.420   5.038   0.857  0.8127  0.2315 -0.5464
  641TIP3    H1 1929   4.459   5.125   0.848  0.9809  0.0511 -1.6884
  641TIP3    H2 1930   4.495   4.980   0.875  0.4582  0.6415  3.0518
  642TIP3   OH2 1931   4.567   2.162   1.125 -0.2627 -0.0543  0.0008
  642TIP3    H1 1932   4.552   2.249   1.087 -1.6822  0.2871  1.2269
  642TIP3    H2 1933   4.570   2.177   1.219 -0.3779 -1.3217  0.2263
  643TIP3   OH2 1934   4.589   3.111   4.865  0.1450  0.4378 -0.2475
  643TIP3    H1 1935   4.617   3.197   4.833  0.2197 -0.1031 -1.6872
  643TIP3    H2 1936   4.508   3.129   4.914  0.7792  1.4612  0.4821
  644TIP3   OH2 1937   4.254   2.766   4.887 -0.1101  0.0582  0.4757
  644TIP3    H1 1938   4.222   2.845   4.929 -1.2199 -1.0531  1.8065
  644TIP3    H2 1939   4.227   2.695   4.945 -0.0734 -1.3934 -1.2065
  645TIP3   OH2 1940   1.057   2.758   2.389  0.7911  0.4218  0.2138
  645TIP3    H1 1941   1.031   2.846   2.364 -0.4021  1.1204  3.4375
  645TIP3    H2 1942   0.979   2.705   2.376  0.9812  0.2048 -0.0628
  646TIP3   OH2 1943   3.877   0.200   4.123  0.3191 -0.2891 -0.4376
  646TIP3    H1 1944   3.815   0.211   4.051 -0.3372 -0.6008  0.0734
  646TIP3    H2 1945   3.878   0.105   4.139 -1.6272 -0.0304  1.7513
  647TIP3   OH2 1946   4.447   2.130   2.447 -0.0904  0.1972  0.0767
  647TIP3    H1 1947   4.522   2.171   2.491 -0.7628  1.4874  0.0818
  647TIP3    H2 1948   4.424   2.056   2.502  0.9490 -0.0019  0.2686
  648TIP3   OH2 1949   1.745   0.942   4.563 -0.5276  0.3539  0.4732
  648TIP3    H1 1950   1.813   0.939   4.631 -0.2802  0.5628  0.2405
  648TIP3    H2 1951   1.733   0.851   4.537  1.2776  0.5012 -1.0550
  649TIP3   OH2 1952   2.032   5.341   1.433 -0.9146 -0.2366 -0.1259
  649TIP3    H1 1953   1.968   5.372   1.498 -1.6834  0.1887 -1.0660
  649TIP3    H2 1954   2.098   5.411   1.429 -0.3667 -0.6803  0.8540
  650TIP3   OH2 1955   3.117   2.379   4.074  0.0156  0.0362 -0.0259
  650TIP3    H1 1956   3.173   2.399   4.148  1.1108  1.0776 -1.0844
  650TIP3    H2 1957   3.170   2.323   4.018 -0.6500 -0.4130 -0.2256
  651TIP3   OH2 1958   2.780   5.506   4.600 -0.7785 -0.1210 -0.0837
  651TIP3    H1 1959   2.771   5.583   4.655  0.0803 -0.5926  0.7555
  651TIP3    H2 1960   2.714   5.517   4.531  1.0822  2.6864 -1.6058
  652TIP3   OH2 1961   0.992   3.155   1.414  0.0047 -0.3138  0.1380
  652TIP3    H1 1962   0.954   3.205   1.487  1.1838 -0.7980  1.1247
  652TIP3    H2 1963   1.086   3.164   1.425  0.2165 -1.2290 -0.7540
  653TIP3   OH2 1964   2.545   3.668   4.591  0.7397 -0.1170  0.1729
  653TIP3    H1 1965   2.637   3.652   4.615  0.2541 -1.9867  0.9247
  653TIP3    H2 1966   2.547   3.753   4.546  3.0367 -0.7241 -1.0331
  654TIP3   OH2 1967   1.799   3.387   2.437  0.9584  0.2250 -0.3067
  654TIP3    H1 1968   1.725   3.439   2.406 -0.6903 -1.6845  0.1896
  654TIP3    H2 1969   1.784   3.378   2.531  2.4693  0.7153  0.0164
  655TIP3   OH2 1970   1.203   4.374   2.207  0.1002  0.8749 -0.2147
  655TIP3    H1 1971   1.283   4.427   2.216  0.8562 -0.0001 -1.4415
  655TIP3    H2 1972   1.181   4.380   2.114 -0.1501 -0.4299 -0.2618
  656TIP3   OH2 1973   5.550   5.897   4.706  0.0038 -0.6852  0.5859
  656TIP3    H1 1974   5.509   5.845   4.636 -1.4117  0.5023  0.4751
  656TIP3    H2 1975   5.515   5.859   4.787 -1.6638  0.5225  0.4829
  657TIP3   OH2 1976   0.628   3.243   4.850 -0.3401  0.1412  0.1195
  657TIP3    H1 1977   0.552   3.196   4.886 -0.3053 -0.1794 -0.2279
  657TIP3    H2 1978   0.629   3.220   4.757 -0.0419  0.4523  0.0449
  658TIP3   OH2 1979   5.555   5.920   0.921 -0.3102  0.1899  0.4207
  658TIP3    H1 1980   5.626   5.955   0.974 -0.7654  1.0291  0.5022
  658TIP3    H2 1981   5.476   5.942   0.970 -0.5825 -2.1893  1.1745
  659TIP3   OH2 1982   1.703   0.348   4.923 -0.5969  0.2923 -0.5610
  659TIP3    H1 1983   1.619   0.395   4.921 -0.5607  0.3441 -1.1059
  659TIP3    H2 1984   1.767   0.414   4.950 -0.9404 -0.1047  1.3355
  660TIP3   OH2 1985   5.747   1.196   1.770  0.1214  0.2399 -0.4590
  660TIP3    H1 1986   5.709   1.155   1.847 -0.0653 -1.2824 -1.3239
  660TIP3    H2 1987   5.800   1.269   1.805 -0.0077 -0.3698  1.0777
  661TIP3   OH2 1988   4.588   3.782   3.179  0.1268 -0.3629 -0.1616
  661TIP3    H1 1989   4.683   3.791   3.185  0.1375 -1.2798  3.1010
  661TIP3    H2 1990   4.557   3.869   3.155  1.7098  0.3296  0.1822
  662TIP3   OH2 1991   4.685   3.687   4.503  0.1396 -0.1995  0.3351
  662TIP3    H1 1992   4.647   3.761   4.549 -0.6985 -0.5561  0.2245
  662TIP3    H2 1993   4.746   3.726   4.440  0.8105  0.3203  1.2755
  663TIP3   OH2 1994   1.771   0.610   3.816  0.1549 -0.4245  0.8882
  663TIP3    H1 1995   1.850   0.586   3.864  0.6116 -0.2367  0.2356
  663TIP3    H2 1996   1.761   0.541   3.750  0.5238  0.2623  0.1080
  664TIP3   OH2 1997   0.534   4.844   4.605 -0.0660  0.2945 -0.0417
  664TIP3    H1 1998   0.486   4.891   4.537 -2.7815 -2.8912 -0.6038
  664TIP3    H2 1999   0.468   4.821   4.670  1.3479 -1.4618  0.8868
  665TIP3   OH2 2000   6.181   0.311   0.853 -0.1194  0.1785 -0.4931
  665TIP3    H1 2001   6.160   0.239   0.912  1.4722  1.7698  2.2842
  665TIP3    H2 2002   6.098   0.356   0.838 -0.5304 -0.0077  1.0288
  666TIP3   OH2 2003   4.862   1.028   0.396 -0.6068  0.1089 -0.0381
  666TIP3    H1 2004   4.797   1.023   0.326 -0.4561  0.6594 -0.2239
  666TIP3    H2 2005   4.813   1.013   0.476 -0.6723 -1.2199 -0.3010
  667TIP3   OH2 2006   4.213   2.952   2.046  0.0722  0.5767  0.3990
  667TIP3    H1 2007   4.288   2.916   2.093 -0.3396 -0.6697  0.1304
  667TIP3    H2 2008   4.221   2.917   1.957 -0.0896  1.5474 -0.0221
  668TIP3   OH2 2009   5.227   3.718   5.153  0.1217  0.3059 -0.2911
  668TIP3    H1 2010   5.243   3.760   5.068  0.5803 -0.4929 -0.6128
  668TIP3    H2 2011   5.288   3.644   5.155  0.5435  0.6705  1.0019
  669TIP3   OH2 2012   4.318   3.105   4.615 -0.1739 -0.0339 -0.2312
  669TIP3    H1 2013   4.359   3.024   4.645 -0.9943 -0.5432 -0.4510
  669TIP3    H2 2014   4.265   3.134   4.690 -0.0533  0.1795 -0.2278
  670TIP3   OH2 2015   5.462   3.394   1.550 -0.2270 -0.2058 -0.4827
  670TIP3    H1 2016   5.506   3.465   1.504 -1.3421  1.0370  0.2997
  670TIP3    H2 2017   5.395   3.437   1.603 -0.6381 -1.8026  0.3729
  671TIP3   OH2 2018   0.793   0.658   4.346  0.3042 -0.0052 -0.0349
  671TIP3    H1 2019   0.767   0.568   4.323  1.0225 -0.2076 -0.0901
  671TIP3    H2 2020   0.851   0.647   4.422 -0.4329  0.5006  0.6054
  672TIP3   OH2 2021   0.831   0.874   0.390 -0.3829  1.0573  0.2426
  672TIP3    H1 2022   0.905   0.887   0.448  1.0486  0.0656 -1.2753
  672TIP3    H2 2023   0.845   0.935   0.318 -0.4278  0.1171 -0.5908
  673TIP3   OH2 2024   0.189   1.802   1.995 -0.1185 -0.1319 -0.5701
  673TIP3    H1 2025   0.147   1.727   2.037 -0.0020  0.3777  0.4758
  673TIP3    H2 2026   0.278   1.803   2.031  0.5839 -0.7389 -2.1739
  674TIP3   OH2 2027   2.582   3.934   3.453  0.1732  0.1443 -0.3091
  674TIP3    H1 2028   2.636   4.009   3.478  0.9384 -0.0861 -1.2089
  674TIP3    H2 2029   2.619   3.905   3.370 -1.0868 -0.2815 -0.7372
  675TIP3   OH2 2030   3.574   2.007   1.804 -0.7737  0.1539 -0.0454
  675TIP3    H1 2031   3.598   2.007   1.712 -0.6607  1.6658 -0.0452
  675TIP3    H2 2032   3.490   2.054   1.807 -1.1974 -0.6106  0.5290
  676TIP3   OH2 2033   5.548   4.952   1.900 -0.1642 -0.1216  0.1793
  676TIP3    H1 2034   5.504   4.982   1.979 -0.4235 -0.9807  0.3684
  676TIP3    H2 2035   5.641   4.954   1.921 -0.1310  1.1768 -0.0375
  677TIP3   OH2 2036   2.804   2.833   0.648 -0.1708  0.0605 -0.1187
  677TIP3    H1 2037   2.822   2.920   0.684 -1.8356  0.9419 -1.3187
  677TIP3    H2 2038   2.717   2.811   0.682 -0.5877 -0.2729 -1.3733
  678TIP3   OH2 2039   5.733   5.987   3.874  0.0271  0.4240  0.0147
  678TIP3    H1 2040   5.728   6.001   3.968  2.6987 -1.3901  0.5598
  678TIP3    H2 2041   5.689   5.903   3.860 -1.2372  1.1586 -0.5496
  679TIP3   OH2 2042   2.744   1.130   4.377 -0.4907  0.2011 -0.1506
  679TIP3    H1 2043   2.678   1.102   4.441 -0.3972 -0.6315 -0.4008
  679TIP3    H2 2044   2.795   1.197   4.422  0.0742 -0.9192  0.9429
  680TIP3   OH2 2045   5.810   4.798   0.621 -0.0728  0.8845 -0.6637
  680TIP3    H1 2046   5.865   4.830   0.692 -0.2140 -1.4583  0.6048
  680TIP3    H2 2047   5.733   4.855   0.622 -0.3175  0.5868  1.4418
  681TIP3   OH2 2048   3.340   0.033   4.124  0.1289 -0.3257 -0.2537
  681TIP3    H1 2049   3.351   0.126   4.143 -0.3084 -0.4909  0.9166
  681TIP3    H2 2050   3.364   0.024   4.032  1.6516  0.6865  0.0082
  682TIP3   OH2 2051   1.427   1.254   3.511 -0.1963 -0.1831  0.7064
  682TIP3    H1 2052   1.431   1.160   3.497 -1.7006 -0.1483 -0.1650
  682TIP3    H2 2053   1.482   1.269   3.588  1.2186 -1.5622  0.0190
  683TIP3   OH2 2054   5.391   2.323   0.572 -0.4431  0.3077 -0.2307
  683TIP3    H1 2055   5.311   2.330   0.625  0.8421  2.2139  1.6770
  683TIP3    H2 2056   5.446   2.395   0.604  2.3168 -1.3436 -0.9640
  684TIP3   OH2 2057   3.064   1.844   4.873 -0.7582  0.8541 -0.1396
  684TIP3    H1 2058   3.058   1.875   4.963  0.7644 -0.8085  0.6072
  684TIP3    H2 2059   3.149   1.875   4.843  0.8807 -2.3283  0.6723
  685TIP3   OH2 2060   4.176   1.691   2.619  0.3917 -0.5108  0.1589
  685TIP3    H1 2061   4.085   1.659   2.623  1.2205 -3.0463  0.3254
  685TIP3    H2 2062   4.224   1.621   2.575  2.3955  0.5239  0.6107
  686TIP3   OH2 2063   4.478   4.287   4.562  0.3631  0.1565  0.2257
  686TIP3    H1 2064   4.557   4.322   4.520  0.9223 -1.3936 -0.0594
  686TIP3    H2 2065   4.407   4.338   4.523  0.9444 -0.5484 -1.9069
  687TIP3   OH2 2066   0.355   2.615   4.072 -0.2863 -0.2852  0.0351
  687TIP3    H1 2067   0.415   2.683   4.040  0.1015 -0.4374  0.4178
  687TIP3    H2 2068   0.319   2.650   4.153 -2.1791  0.6028 -1.1253
  688TIP3   OH2 2069   0.859   2.927   1.013  0.1291  0.3224  0.5702
  688TIP3    H1 2070   0.875   3.007   0.961  0.5435  0.0788  0.3141
  688TIP3    H2 2071   0.931   2.869   0.989  1.5660  0.9680  2.9980
  689TIP3   OH2 2072   0.060   3.334   2.616 -0.3937 -0.2965 -0.2433
  689TIP3    H1 2073   0.124   3.312   2.549  0.4944  1.2078  0.0725
  689TIP3    H2 2074  -0.025   3.317   2.575  0.1615 -1.2139 -1.0567
  690TIP3   OH2 2075   2.381   1.226   2.303 -0.2301 -0.1932  0.1451
  690TIP3    H1 2076   2.476   1.219   2.308 -0.2450 -0.1977  0.5028
  690TIP3    H2 2077   2.351   1.137   2.286 -0.2626 -0.5589  1.8486
  691TIP3   OH2 2078   4.890   2.928   4.047  0.0186 -0.0127  0.3771
  691TIP3    H1 2079   4.883   2.847   4.097  2.0439  0.2169  1.1110
  691TIP3    H2 2080   4.872   2.997   4.111  1.9535  0.2495  0.6971
  692TIP3   OH2 2081   4.316   3.680   3.246  0.1454 -0.1868 -0.2629
  692TIP3    H1 2082   4.297   3.769   3.217 -0.6265 -0.5340 -0.8595
  692TIP3    H2 2083   4.411   3.677   3.251  0.1416  1.3311  1.9216
  693TIP3   OH2 2084   2.535   5.713   0.042  0.0385  0.0180 -0.1240
  693TIP3    H1 2085   2.578   5.732   0.126  0.6196 -0.3265 -0.3362
  693TIP3    H2 2086   2.509   5.622   0.048 -1.7822  0.5431  0.4710
  694TIP3   OH2 2087   1.924   3.499   4.795 -0.0426 -0.2723  0.1760
  694TIP3    H1 2088   1.877   3.564   4.744  0.2356 -0.3417 -0.1810
  694TIP3    H2 2089   1.885   3.502   4.882 -0.8837 -0.5240 -0.1902
  695TIP3   OH2 2090   3.802   2.241   4.034  0.1057  0.5456  0.2087
  695TIP3    H1 2091   3.870   2.300   4.065  0.7628 -0.5744  0.9996
  695TIP3    H2 2092   3.732   2.298   4.003  2.1673  1.8069 -2.5772
  696TIP3   OH2 2093   5.919   3.122   4.450 -0.1543  0.3144  0.0376
  696TIP3    H1 2094   5.945   3.202   4.404 -1.2027 -0.0385 -1.2354
  696TIP3    H2 2095   5.940   3.051   4.389 -1.2138 -0.2016  0.2431
  697TIP3   OH2 2096   1.329   0.024   2.428 -0.7558  0.2503  0.0389
  697TIP3    H1 2097   1.320   0.085   2.356 -1.7273 -0.7272 -0.6998
  697TIP3    H2 2098   1.289  -0.057   2.396  0.6775 -0.8457  0.9005
  698TIP3   OH2 2099   3.390   2.846   4.968 -0.7907 -0.2651 -0.4190
  698TIP3    H1 2100   3.327   2.866   5.037 -1.3581 -1.5523 -0.5351
  698TIP3    H2 2101   3.390   2.751   4.963  0.9840 -0.2893 -0.6051
  699TIP3   OH2 2102   0.364   3.210   1.103  0.1509 -0.5224 -0.0245
  699TIP3    H1 2103   0.411   3.194   1.184 -1.6206  0.4592  1.2786
  699TIP3    H2 2104   0.409   3.157   1.037  2.3132 -0.4795  1.3443
  700TIP3   OH2 2105   2.078   4.952   0.479  0.7027 -0.2091  0.1872
  700TIP3    H1 2106   2.138   5.026   0.485  0.2411  0.3588 -1.6007
  700TIP3    H2 2107   1.993   4.988   0.506  0.1951  0.3267 -1.9817
  701TIP3   OH2 2108   5.087   4.050   1.279  0.4848 -0.2507 -0.2589
  701TIP3    H1 2109   5.073   3.976   1.338  1.1595 -1.9198 -2.0735
  701TIP3    H2 2110   5.182   4.055   1.269  0.3578 -0.5958 -1.8678
  702TIP3   OH2 2111   0.371   1.291   1.210 -0.0486 -0.4637  0.0602
  702TIP3    H1 2112   0.359   1.287   1.305 -0.4517 -0.6385  0.0027
  702TIP3    H2 2113   0.466   1.286   1.198  0.3025  2.7598  0.6231
  703TIP3   OH2 2114   5.616   3.230   3.984 -0.1242 -0.6399  0.4995
  703TIP3    H1 2115   5.679   3.168   3.947  1.6958  1.0760  0.5456
  703TIP3    H2 2116   5.533   3.209   3.941  1.1778 -0.9447 -2.0402
  704TIP3   OH2 2117   6.241   3.512   3.678 -0.5079 -0.1588  0.9014
  704TIP3    H1 2118   6.290   3.560   3.611  1.0544  1.0925  2.8273
  704TIP3    H2 2119   6.150   3.519   3.651  0.0535  0.3185 -1.0473
  705TIP3   OH2 2120   4.298   0.221   3.512  0.5137  0.2483  0.0799
  705TIP3    H1 2121   4.350   0.141   3.517  1.3094  0.7078 -0.5267
  705TIP3    H2 2122   4.238   0.206   3.439 -0.2376 -0.2947  0.7984
  706TIP3   OH2 2123   3.521   2.313   3.906 -0.2641  0.1973  0.3970
  706TIP3    H1 2124   3.445   2.262   3.880  1.5780 -3.9404  2.3239
  706TIP3    H2 2125   3.522   2.307   4.002  2.8774 -0.6109  0.3961
  707TIP3   OH2 2126   6.242   5.594   0.588 -0.1048  0.3150 -0.2684
  707TIP3    H1 2127   6.198   5.673   0.619 -1.0857  0.4715 -1.9492
  707TIP3    H2 2128   6.184   5.523   0.612 -0.4966  0.3705 -0.9989
  708TIP3   OH2 2129   3.049   3.260   1.809  0.1103 -0.2754 -0.1962
  708TIP3    H1 2130   3.046   3.201   1.734 -0.1079 -0.2890 -0.1752
  708TIP3    H2 2131   3.135   3.243   1.848  0.2830 -0.1698 -0.5219
  709TIP3   OH2 2132   1.667   5.940   4.099 -0.2624  0.0781 -0.1558
  709TIP3    H1 2133   1.689   5.861   4.148 -0.7925 -0.4999 -0.8093
  709TIP3    H2 2134   1.607   5.909   4.031 -1.3535  1.2280  0.2527
  710TIP3   OH2 2135   0.639   3.725   4.263 -0.1576 -0.8087 -0.2242
  710TIP3    H1 2136   0.619   3.631   4.272 -2.1075 -0.3522  0.7360
  710TIP3    H2 2137   0.669   3.752   4.350 -0.4779 -0.3527 -0.2527
  711TIP3   OH2 2138   3.678   3.580   2.842 -0.0871  0.9066 -0.0200
  711TIP3    H1 2139   3.722   3.637   2.780 -0.0326  0.9315  0.0420
  711TIP3    H2 2140   3.746   3.519   2.871 -0.4149  0.0532 -0.9765
  712TIP3   OH2 2141   2.817   4.059   1.181 -0.9619 -0.1741  0.0031
  712TIP3    H1 2142   2.756   4.133   1.182 -0.9579 -0.1567 -0.9168
  712TIP3    H2 2143   2.823   4.033   1.090  0.7567  0.1040 -0.0002
  713TIP3   OH2 2144   4.960   3.832   3.956  0.4378 -0.0458 -0.0206
  713TIP3    H1 2145   4.871   3.866   3.962  0.3621  0.0229 -1.1807
  713TIP3    H2 2146   4.969   3.806   3.864  1.2347 -1.1107  0.3400
  714TIP3   OH2 2147   3.995   2.046   0.692  0.1822  0.0550  0.1270
  714TIP3    H1 2148   4.043   2.081   0.766  0.0448 -1.9632  1.2349
  714TIP3    H2 2149   3.987   2.120   0.631  1.5256  1.3733  1.4775
  715TIP3   OH2 2150   6.189   2.062   4.631  0.2353  0.1452  0.3841
  715TIP3    H1 2151   6.098   2.045   4.654  0.1863 -0.1511 -0.0027
  715TIP3    H2 2152   6.217   1.982   4.585  0.8724 -0.0123  1.0334
  716TIP3   OH2 2153   3.524   5.692   3.138 -0.0906  0.3063 -0.1767
  716TIP3    H1 2154   3.510   5.767   3.080  0.6175  0.1962 -0.4962
  716TIP3    H2 2155   3.578   5.727   3.209 -0.5204  0.3159  0.1459
  717TIP3   OH2 2156   4.314   1.568   3.116 -0.2281  0.8234  0.3042
  717TIP3    H1 2157   4.254   1.617   3.172 -1.2533 -0.5475  0.4589
  717TIP3    H2 2158   4.258   1.524   3.053  0.6560 -0.0149  0.0712
  718TIP3   OH2 2159   1.960   3.577   4.387  0.3114  0.0004 -0.0360
  718TIP3    H1 2160   2.015   3.610   4.317  0.1399  1.7832  0.6254
  718TIP3    H2 2161   1.919   3.655   4.425 -0.0957 -0.9662  1.6228
  719TIP3   OH2 2162   5.516   1.250   3.311  0.0150  0.4692  0.7521
  719TIP3    H1 2163   5.431   1.293   3.314 -0.5647 -0.5753 -0.0310
  719TIP3    H2 2164   5.534   1.224   3.401 -2.1669 -2.4092  0.4835
  720TIP3   OH2 2165   1.326   5.352   3.823 -0.2272 -0.2077  0.0634
  720TIP3    H1 2166   1.234   5.353   3.849 -0.0625  0.0747  0.6569
  720TIP3    H2 2167   1.324   5.345   3.727 -0.8223 -2.6286  0.2043
  721TIP3   OH2 2168   2.166   5.198   0.493  0.0973 -0.3437  0.2673
  721TIP3    H1 2169   2.173   5.252   0.414 -0.7008 -0.4649  0.1102
  721TIP3    H2 2170   2.243   5.222   0.545 -0.3446  1.0752  0.2879
  722TIP3   OH2 2171   2.898   5.546   2.121  0.1044 -0.3314 -0.1534
  722TIP3    H1 2172   2.961   5.487   2.162  1.5986  0.7367 -0.8275
  722TIP3    H2 2173   2.951   5.618   2.086 -1.7073  1.8477  1.3044
  723TIP3   OH2 2174   6.106   1.268   3.248  0.1104  0.2883  0.2480
  723TIP3    H1 2175   6.200   1.285   3.257  0.1342  0.4494 -0.2856
  723TIP3    H2 2176   6.067   1.310   3.325  0.5082 -0.1026  0.6736
  724TIP3   OH2 2177   0.842   3.135   3.937 -0.2336 -0.1869 -0.2168
  724TIP3    H1 2178   0.848   3.228   3.918  0.0141 -0.2725 -0.5578
  724TIP3    H2 2179   0.906   3.094   3.879  0.9637 -0.3912  1.1840
  725TIP3   OH2 2180   4.688   0.872   2.234 -0.1803 -0.4221  0.2163
  725TIP3    H1 2181   4.756   0.939   2.245 -0.2411 -0.3547  0.1844
  725TIP3    H2 2182   4.615   0.919   2.194  0.1412 -0.7211 -0.7580
  726TIP3   OH2 2183   2.985   0.257   2.890  0.8602 -0.0333 -0.2859
  726TIP3    H1 2184   2.909   0.265   2.947  1.6413 -1.3393  1.0210
  726TIP3    H2 2185   3.038   0.334   2.910  1.8459 -1.1848  1.9965
  727TIP3   OH2 2186   4.937   0.489   3.616 -0.0544 -0.1441  0.1097
  727TIP3    H1 2187   4.901   0.526   3.535  0.7877  0.3442 -0.0513
  727TIP3    H2 2188   4.916   0.396   3.612 -0.9358  0.0570 -0.1691
  728TIP3   OH2 2189   1.196   4.079   4.212 -0.2647  0.2794 -0.3989
  728TIP3    H1 2190   1.169   4.127   4.291 -1.3342 -1.1686  0.1684
  728TIP3    H2 2191   1.186   4.142   4.141  0.3705  1.5163  0.5612
  729TIP3   OH2 2192   5.165   0.734   4.153 -0.3287  0.6247  0.4469
  729TIP3    H1 2193   5.162   0.816   4.203  0.3342  0.9329  0.0060
  729TIP3    H2 2194   5.102   0.747   4.083  0.5091  1.1815 -0.2233
  730TIP3   OH2 2195   2.392   5.507   1.662  0.2732  0.3433  0.1325
  730TIP3    H1 2196   2.432   5.421   1.654  0.9524  0.3985  2.2068
  730TIP3    H2 2197   2.465   5.568   1.658  0.1221  0.6235  1.1859
  731TIP3   OH2 2198   2.413   0.579   0.417 -0.0806  0.0083 -0.4963
  731TIP3    H1 2199   2.411   0.674   0.423 -2.5065 -0.0448  0.9640
  731TIP3    H2 2200   2.481   0.553   0.480 -0.9785  0.7373  0.8211
  732TIP3   OH2 2201   5.386   0.323   3.141  0.1436 -0.3961  0.4873
  732TIP3    H1 2202   5.368   0.375   3.220  0.1288 -0.3148  0.4297
  732TIP3    H2 2203   5.365   0.233   3.168 -0.8152 -0.2480  0.2841
  733TIP3   OH2 2204   2.024   5.709   3.222  0.1584 -0.2955  0.4918
  733TIP3    H1 2205   1.969   5.788   3.219  1.2492  0.4686 -2.0691
  733TIP3    H2 2206   2.086   5.726   3.293  0.7208  1.4747 -0.3479
  734TIP3   OH2 2207   2.264   0.721   1.612 -0.0069 -0.5922 -0.1957
  734TIP3    H1 2208   2.204   0.795   1.619 -1.9597 -2.0413 -0.7671
  734TIP3    H2 2209   2.273   0.688   1.702  1.2062  0.5175  0.1304
  735TIP3   OH2 2210   6.246   1.290   2.700 -0.3569  0.2320  0.2516
  735TIP3    H1 2211   6.202   1.259   2.621  1.5244 -1.5416 -0.2171
  735TIP3    H2 2212   6.310   1.354   2.669  1.5139 -1.6488  0.0218
  736TIP3   OH2 2213   3.895   3.996   0.598  0.3241  0.3443 -0.2857
  736TIP3    H1 2214   3.967   3.942   0.564  0.6570 -0.4110  1.4986
  736TIP3    H2 2215   3.932   4.037   0.677 -0.5367  1.6827 -0.5563
  737TIP3   OH2 2216   1.177   4.914   0.382  0.1306  0.2412  0.1755
  737TIP3    H1 2217   1.177   4.981   0.450 -1.3554  0.8600 -0.3842
  737TIP3    H2 2218   1.192   4.961   0.301  0.6029 -0.3197 -0.0709
  738TIP3   OH2 2219   4.868   2.162   4.110  0.3992  0.0191  0.1407
  738TIP3    H1 2220   4.960   2.145   4.129  0.2046 -0.8108  0.3649
  738TIP3    H2 2221   4.829   2.182   4.195  0.5349  1.2226 -0.0603
  739TIP3   OH2 2222   4.357   1.171   3.201 -0.2517 -0.0607 -0.4739
  739TIP3    H1 2223   4.338   1.077   3.196 -0.8150 -0.0108  0.5301
  739TIP3    H2 2224   4.286   1.213   3.154 -0.2122 -0.1196 -0.5855
  740TIP3   OH2 2225   3.698   4.246   2.615  0.4242  0.2062 -0.1464
  740TIP3    H1 2226   3.604   4.263   2.607  0.1302 -0.1612  1.9391
  740TIP3    H2 2227   3.708   4.152   2.600  0.5254  0.2977 -0.6889
  741TIP3   OH2 2228   6.063   4.354   2.755 -0.5626  0.3344  0.1843
  741TIP3    H1 2229   6.130   4.405   2.710 -0.4510 -0.9601 -1.2069
  741TIP3    H2 2230   5.995   4.340   2.689 -0.6727 -1.1220  0.5689
  742TIP3   OH2 2231   0.015   3.816   0.417 -0.4419  0.4902 -0.0254
  742TIP3    H1 2232   0.054   3.745   0.467 -0.9559  0.4390  0.3105
  742TIP3    H2 2233   0.033   3.895   0.468  0.9379  0.7411 -0.8585
  743TIP3   OH2 2234   1.880   5.373   0.949 -0.5769 -0.3350 -0.1519
  743TIP3    H1 2235   1.854   5.369   1.041  0.1564  1.5421  0.1798
  743TIP3    H2 2236   1.827   5.444   0.912 -0.7522 -0.9692 -1.1518
  744TIP3   OH2 2237   5.485   3.840   0.413 -0.6023 -0.0620  0.3443
  744TIP3    H1 2238   5.469   3.773   0.479 -0.5201 -0.1382  0.2879
  744TIP3    H2 2239   5.477   3.795   0.330 -0.0562 -0.1176  0.3146
  745TIP3   OH2 2240   5.698   1.611   3.133  0.2794 -0.3396  0.0166
  745TIP3    H1 2241   5.641   1.566   3.071  0.8812 -0.0096 -0.7876
  745TIP3    H2 2242   5.703   1.701   3.101  0.0795  0.0009  0.9105
  746TIP3   OH2 2243   5.702   4.519   2.529  0.2089 -0.1860  0.2312
  746TIP3    H1 2244   5.752   4.580   2.582 -1.3189  1.9373 -0.6411
  746TIP3    H2 2245   5.766   4.480   2.470  1.0416  1.6801 -0.1568
  747TIP3   OH2 2246   4.010   3.314   5.109  0.2613 -0.2650  0.0673
  747TIP3    H1 2247   3.977   3.355   5.029  0.6697  1.0422  0.5405
  747TIP3    H2 2248   4.100   3.347   5.117  2.0819 -4.1611 -1.5178
  748TIP3   OH2 2249   3.419   0.876   1.683  0.2743  0.3246 -0.0423
  748TIP3    H1 2250   3.343   0.831   1.719  0.0065  0.9074  0.1459
  748TIP3    H2 2251   3.448   0.934   1.754 -0.4378  1.7143 -0.8431
  749TIP3   OH2 2252   5.455   2.348   1.809 -0.1416  0.0286  0.1938
  749TIP3    H1 2253   5.415   2.435   1.812  0.8578  0.4804  1.0739
  749TIP3    H2 2254   5.418   2.307   1.731  0.2093  1.6623 -0.8689
  750TIP3   OH2 2255   2.632   1.649   4.618  0.0496 -0.1041  0.0056
  750TIP3    H1 2256   2.651   1.563   4.655  0.2071 -0.3107 -0.5520
  750TIP3    H2 2257   2.701   1.706   4.653 -0.5301 -0.0051  1.0454
  751TIP3   OH2 2258   4.068   4.422   2.410 -0.4267 -0.5419 -0.6740
  751TIP3    H1 2259   4.137   4.420   2.344  1.2775 -0.9486  1.0245
  751TIP3    H2 2260   4.062   4.331   2.440 -1.0004 -0.3211 -0.1110
  752TIP3   OH2 2261   3.223   5.501   3.804 -0.1937  0.3043  0.0630
  752TIP3    H1 2262   3.217   5.592   3.832 -1.6351  0.3643 -0.3601
  752TIP3    H2 2263   3.182   5.499   3.718  0.2336 -0.6640 -0.1339
  753TIP3   OH2 2264   0.426   3.359   3.882  0.1882 -0.3105  0.7147
  753TIP3    H1 2265   0.481   3.344   3.959  1.7093 -1.4433 -0.5256
  753TIP3    H2 2266   0.477   3.418   3.827 -0.4953 -0.1943  0.1847
  754TIP3   OH2 2267   3.861   4.871   3.587  0.0368  0.6029  0.6392
  754TIP3    H1 2268   3.929   4.925   3.547 -0.5093  1.0211  0.2518
  754TIP3    H2 2269   3.891   4.855   3.676  1.0587  0.0440  0.2156
  755TIP3   OH2 2270   6.326   3.892   1.483  0.2490  0.4277  0.4587
  755TIP3    H1 2271   6.246   3.882   1.432  0.4755 -1.2806  0.3546
  755TIP3    H2 2272   6.391   3.921   1.420  0.3511 -0.9646 -0.1257
  756TIP3   OH2 2273   3.748   4.439   0.185  0.5366 -0.7530 -0.1927
  756TIP3    H1 2274   3.812   4.490   0.136  0.8491  0.3601  1.3160
  756TIP3    H2 2275   3.679   4.502   0.207  0.7148 -1.0634  1.3256
  757TIP3   OH2 2276   4.563   4.811   4.065  0.2487 -0.6872  0.5126
  757TIP3    H1 2277   4.604   4.724   4.070 -0.8652 -1.1607  2.6714
  757TIP3    H2 2278   4.558   4.840   4.156  0.1184  1.4465 -0.1232
  758TIP3   OH2 2279   6.211   3.634   0.889  0.7594  0.3897  0.1279
  758TIP3    H1 2280   6.236   3.701   0.826  0.2453 -0.5692 -1.1450
  758TIP3    H2 2281   6.116   3.630   0.884  0.8414 -1.7968 -1.3714
  759TIP3   OH2 2282   3.906   1.479   1.294 -0.3175  0.6641 -0.0992
  759TIP3    H1 2283   3.951   1.399   1.321  0.2272  1.2686  0.8504
  759TIP3    H2 2284   3.976   1.538   1.266 -0.7246  0.7652 -0.9228
  760TIP3   OH2 2285   5.256   2.462   4.927  0.3698  0.5696 -0.1505
  760TIP3    H1 2286   5.311   2.387   4.907  0.1096  0.2439  0.3321
  760TIP3    H2 2287   5.258   2.469   5.022 -3.1740 -1.6345  0.2739
  761TIP3   OH2 2288   4.727   5.848   1.070  0.0552 -0.2310 -0.0317
  761TIP3    H1 2289   4.811   5.803   1.079  0.2318  0.3346  1.5421
  761TIP3    H2 2290   4.673   5.812   1.140 -0.8267 -0.1721 -0.6679
  762TIP3   OH2 2291   2.166   2.754   1.809  0.3957  0.1190  0.3464
  762TIP3    H1 2292   2.086   2.702   1.800  0.8629 -0.3672 -1.2216
  762TIP3    H2 2293   2.145   2.819   1.876 -0.9264 -0.7053  0.7685
  763TIP3   OH2 2294   6.208   5.781   1.889 -0.2909  0.0030 -0.0277
  763TIP3    H1 2295   6.222   5.870   1.923 -0.0349 -0.7693  2.0503
  763TIP3    H2 2296   6.164   5.735   1.961  1.1508 -2.0317 -0.3621
  764TIP3   OH2 2297   5.300   4.330   1.784 -0.1144  0.6490 -0.1324
  764TIP3    H1 2298   5.323   4.415   1.745  5.4245 -1.2348 -1.8962
  764TIP3    H2 2299   5.267   4.278   1.711  1.9458 -0.2716 -0.4793
  765TIP3   OH2 2300   4.046   4.943   2.274 -0.2513 -0.4676 -0.4977
  765TIP3    H1 2301   4.043   5.005   2.348  1.4224  0.0550 -0.8198
  765TIP3    H2 2302   3.957   4.946   2.237 -0.2904  1.5934 -0.3629
  766TIP3   OH2 2303   1.235   4.796   3.300  0.1722  0.1679 -0.0574
  766TIP3    H1 2304   1.320   4.773   3.337  0.2518  0.0412 -0.3243
  766TIP3    H2 2305   1.248   4.883   3.263 -0.1173  0.6454  0.9140
  767TIP3   OH2 2306   3.679   4.659   5.094 -0.5653  0.3163 -0.1172
  767TIP3    H1 2307   3.748   4.701   5.145 -0.7889 -0.9127  1.2535
  767TIP3    H2 2308   3.716   4.648   5.007  0.9901 -0.3618  0.6040
  768TIP3   OH2 2309   4.125   0.831   0.006 -0.3213  0.0095  0.6693
  768TIP3    H1 2310   4.193   0.886  -0.033  0.6173 -1.3829  0.2573
  768TIP3    H2 2311   4.174   0.768   0.060 -1.4337  0.3118  2.0745
  769TIP3   OH2 2312   0.807   5.262   4.428 -0.0026  0.1152  0.0539
  769TIP3    H1 2313   0.754   5.230   4.501 -1.9373 -1.4339 -1.8669
  769TIP3    H2 2314   0.748   5.319   4.379  0.0272 -1.5537 -2.0859
  770TIP3   OH2 2315   4.460   3.928   1.280  0.3949 -0.4584 -0.0256
  770TIP3    H1 2316   4.463   3.841   1.319 -0.5388 -0.4110  0.1675
  770TIP3    H2 2317   4.529   3.927   1.213  0.9190 -1.0740  0.5134
  771TIP3   OH2 2318   5.941   1.439   1.350 -0.2985 -0.0698 -0.1836
  771TIP3    H1 2319   6.022   1.389   1.334 -0.6814 -0.3727 -1.3259
  771TIP3    H2 2320   5.948   1.514   1.291 -0.1514  0.7566  0.8618
  772TIP3   OH2 2321   0.492   5.997   0.277  0.1340 -0.1986 -0.5341
  772TIP3    H1 2322   0.510   5.916   0.326  2.0614  0.1478 -0.5907
  772TIP3    H2 2323   0.534   5.982   0.192 -0.1719  0.5579 -0.8155
  773TIP3   OH2 2324   0.189   5.309   4.446  0.0501  0.2671 -0.0028
  773TIP3    H1 2325   0.235   5.337   4.367 -0.3831  0.7179 -0.1003
  773TIP3    H2 2326   0.182   5.388   4.500 -2.2017  0.6687 -0.7876
  774TIP3   OH2 2327   5.970   4.432   1.506 -0.5248  0.2584  0.1159
  774TIP3    H1 2328   5.906   4.411   1.574 -0.7334  1.2415  0.2341
  774TIP3    H2 2329   5.931   4.504   1.458  0.2720  0.5327 -0.1317
  775TIP3   OH2 2330   2.871   4.689   2.016  0.6211  0.3376 -0.4104
  775TIP3    H1 2331   2.793   4.702   2.071 -0.0955 -0.1584 -1.2924
  775TIP3    H2 2332   2.920   4.621   2.061  0.4121  0.4539  0.0043
  776TIP3   OH2 2333   2.738   4.524   0.068 -0.3678  0.6913 -0.3982
  776TIP3    H1 2334   2.655   4.495   0.106 -0.3529  1.8701  0.6085
  776TIP3    H2 2335   2.718   4.544  -0.023 -1.3835  1.6778  0.0242
  777TIP3   OH2 2336   2.934   0.793   3.301  0.4578 -0.0920  0.0674
  777TIP3    H1 2337   2.966   0.812   3.213  0.3417 -0.9680 -0.1723
  777TIP3    H2 2338   2.944   0.698   3.310 -0.3816 -0.1315  0.6558
  778TIP3   OH2 2339   4.154   1.473   4.660 -0.1018 -0.2934  0.1018
  778TIP3    H1 2340   4.184   1.431   4.580 -0.7499 -0.0393 -0.2778
  778TIP3    H2 2341   4.118   1.401   4.713 -0.0900 -0.3923 -0.0252
  779TIP3   OH2 2342   2.445   1.919   0.050 -0.0684 -0.2137 -0.2759
  779TIP3    H1 2343   2.401   1.840   0.020  1.1897 -1.9484  2.0747
  779TIP3    H2 2344   2.535   1.911   0.016 -0.6010  1.7374 -2.4263
  780TIP3   OH2 2345   4.058   2.900   4.140  0.0160 -0.1739 -0.0516
  780TIP3    H1 2346   3.988   2.883   4.077  0.0888 -1.0905  0.1092
  780TIP3    H2 2347   4.057   2.824   4.198  1.8045 -0.6750 -0.6328
  781TIP3   OH2 2348   1.430   3.897   1.495  0.0852  0.0731  0.4007
  781TIP3    H1 2349   1.432   3.980   1.543  0.0316  0.1474  0.2755
  781TIP3    H2 2350   1.416   3.831   1.562 -1.1055  0.2712  0.3713
  782TIP3   OH2 2351   2.526   1.110   0.132  0.0202 -0.2748 -0.2259
  782TIP3    H1 2352   2.535   1.017   0.113  1.0169 -0.0147 -1.1294
  782TIP3    H2 2353   2.489   1.113   0.220 -0.7459 -1.5193 -0.4889
  783TIP3   OH2 2354   1.417   2.731   3.839 -0.0289 -0.5331 -0.1293
  783TIP3    H1 2355   1.410   2.651   3.787  0.2582 -0.5125 -0.2017
  783TIP3    H2 2356   1.363   2.715   3.916 -0.2041 -0.6841 -0.2817
  784TIP3   OH2 2357   5.724   3.415   2.423  0.2374  0.3229 -0.8431
  784TIP3    H1 2358   5.789   3.381   2.361  1.8907  0.4338  0.7543
  784TIP3    H2 2359   5.719   3.508   2.403 -1.4630 -0.0945 -2.7012
  785TIP3   OH2 2360   2.837   4.572   1.764  0.1552  0.8867 -0.5058
  785TIP3    H1 2361   2.910   4.509   1.764  0.6278  1.4212 -0.8659
  785TIP3    H2 2362   2.845   4.618   1.847 -0.4789  0.1462 -0.0325
  786TIP3   OH2 2363   2.470   3.715   2.777  0.3119 -0.2527 -0.3159
  786TIP3    H1 2364   2.528   3.646   2.744 -0.1326 -0.7759 -0.0234
  786TIP3    H2 2365   2.391   3.669   2.804  0.0834  0.3517  0.0700
  787TIP3   OH2 2366   3.447   5.107   3.928 -1.0142 -0.1953 -0.1630
  787TIP3    H1 2367   3.448   5.039   3.861 -0.0529  1.2887 -1.7516
  787TIP3    H2 2368   3.354   5.130   3.937 -1.2231 -0.8730 -0.5171
  788TIP3   OH2 2369   3.618   2.673   1.722 -0.0820 -0.0373 -0.1250
  788TIP3    H1 2370   3.664   2.720   1.652 -0.3181  1.2816  0.5706
  788TIP3    H2 2371   3.539   2.640   1.680  1.2917 -2.0822 -1.2636
  789TIP3   OH2 2372   4.275   4.852   4.465 -0.6530  0.1307 -0.2896
  789TIP3    H1 2373   4.198   4.847   4.410 -0.7563  0.4490 -0.1776
  789TIP3    H2 2374   4.349   4.848   4.404 -0.7677  2.1165 -0.6313
  790TIP3   OH2 2375   3.779   1.199   0.492  0.3326  0.0122 -0.1394
  790TIP3    H1 2376   3.735   1.140   0.432 -0.3593 -0.1103  0.4731
  790TIP3    H2 2377   3.786   1.149   0.574  2.3563 -0.2825 -0.4468
  791TIP3   OH2 2378   2.856   5.020   2.618 -0.1886  0.6271  0.0432
  791TIP3    H1 2379   2.904   4.970   2.685 -1.3230  0.9626  1.1619
  791TIP3    H2 2380   2.766   4.988   2.625 -0.1148 -0.2445 -2.2525
  792TIP3   OH2 2381   0.380   4.549   1.784 -0.6501  0.1537  0.2774
  792TIP3    H1 2382   0.410   4.568   1.696  1.2580  0.3151  0.9304
  792TIP3    H2 2383   0.337   4.464   1.777  0.4231 -0.3386 -0.6150
  793TIP3   OH2 2384   0.408   0.216   3.120 -0.2265  0.3601 -0.0562
  793TIP3    H1 2385   0.418   0.172   3.204  1.0885  0.3589 -0.1954
  793TIP3    H2 2386   0.385   0.306   3.142  0.0827  0.3531  0.2971
  794TIP3   OH2 2387   0.938   5.187   0.765 -0.4364 -0.2272  0.0807
  794TIP3    H1 2388   0.989   5.253   0.717  1.4950 -2.0737 -0.5279
  794TIP3    H2 2389   0.910   5.232   0.845 -0.3094  1.6962 -0.8827
  795TIP3   OH2 2390   5.933   2.829   2.638  0.1448  0.1835  0.0002
  795TIP3    H1 2391   5.894   2.743   2.654  2.2944 -0.9724 -0.5421
  795TIP3    H2 2392   6.027   2.811   2.628  0.5275  2.4678 -1.1468
  796TIP3   OH2 2393   0.636   2.053   0.953  0.2230  0.1686  0.2228
  796TIP3    H1 2394   0.699   2.124   0.942 -0.1709  0.2977 -1.4692
  796TIP3    H2 2395   0.567   2.071   0.889 -0.2647 -1.3361  0.2744
  797TIP3   OH2 2396   0.320   1.989   5.123 -0.0034 -0.0517 -0.2144
  797TIP3    H1 2397   0.227   1.977   5.142 -0.1425 -0.0623 -0.8774
  797TIP3    H2 2398   0.365   1.947   5.196 -0.5071 -1.5209 -0.7321
  798TIP3   OH2 2399   5.242   5.337   0.391 -0.0234 -0.7398 -0.2491
  798TIP3    H1 2400   5.213   5.338   0.482  1.0287 -0.7594  0.0975
  798TIP3    H2 2401   5.208   5.254   0.356 -0.1938 -0.8620  0.2008
  799TIP3   OH2 2402   2.040   0.770   3.443 -0.1666  0.2906 -0.5240
  799TIP3    H1 2403   2.002   0.683   3.460  0.4896  0.0534 -0.2347
  799TIP3    H2 2404   2.134   0.756   3.447 -0.0550  1.2153  0.5457
  800TIP3   OH2 2405   3.934   3.993   4.464  0.3251 -0.0086  0.2851
  800TIP3    H1 2406   3.924   3.907   4.507 -0.6953 -0.2960 -0.4975
  800TIP3    H2 2407   3.846   4.030   4.464  1.0439  1.8711  2.2289
  801TIP3   OH2 2408   0.096   3.080   3.645 -0.5272  0.5459  0.2722
  801TIP3    H1 2409   0.097   3.005   3.585 -0.7833 -0.2364  1.2344
  801TIP3    H2 2410   0.179   3.124   3.629  0.3264 -0.8283  0.7893
  802TIP3   OH2 2411   5.976   3.374   3.825  0.5776 -0.4754  0.2223
  802TIP3    H1 2412   5.896   3.426   3.814  0.3025 -1.0787 -0.7220
  802TIP3    H2 2413   6.028   3.424   3.889  1.2503  2.0679 -2.1303
  803TIP3   OH2 2414   3.235   5.754   3.909 -0.6348 -0.4327  0.4218
  803TIP3    H1 2415   3.205   5.786   3.994  1.2672  1.1245  0.5717
  803TIP3    H2 2416   3.215   5.825   3.848 -0.1092 -0.6775 -0.0419
  804TIP3   OH2 2417   3.643   2.207   0.480 -0.3455  0.5157 -0.0737
  804TIP3    H1 2418   3.651   2.299   0.505  2.4693  0.4218 -0.2917
  804TIP3    H2 2419   3.709   2.196   0.411 -1.3961 -1.4262 -0.8198
  805TIP3   OH2 2420   1.105   2.059   1.002 -0.2787  0.8777  0.4307
  805TIP3    H1 2421   1.043   2.114   1.049 -0.7755  0.1707  0.6168
  805TIP3    H2 2422   1.084   2.072   0.910 -0.5798  0.7841  0.4860
  806TIP3   OH2 2423   2.315   5.482   4.123 -0.1074 -0.5120 -0.5035
  806TIP3    H1 2424   2.388   5.500   4.064  0.8602  1.0805  1.0723
  806TIP3    H2 2425   2.327   5.544   4.195 -1.6791 -1.8187  0.9726
  807TIP3   OH2 2426   3.416   3.719   0.591 -0.7108  0.1088 -0.1354
  807TIP3    H1 2427   3.504   3.684   0.575 -1.3447 -1.0739 -1.2469
  807TIP3    H2 2428   3.383   3.670   0.666  0.0391  1.4904  1.1516
  808TIP3   OH2 2429   6.167   1.346   4.381 -0.0907 -0.3050 -0.1238
  808TIP3    H1 2430   6.250   1.299   4.377 -0.6455 -1.4672  1.1032
  808TIP3    H2 2431   6.103   1.279   4.406 -1.0555  0.9329  0.8683
  809TIP3   OH2 2432   5.905   1.722   3.298 -0.2252  0.2463 -0.1933
  809TIP3    H1 2433   5.877   1.656   3.234  2.1617 -0.9149 -0.1248
  809TIP3    H2 2434   5.999   1.731   3.284  0.4695 -0.2487  3.2939
  810TIP3   OH2 2435   2.261   1.427   3.526 -0.1723  0.4339  0.0779
  810TIP3    H1 2436   2.178   1.407   3.481 -0.8937  0.0039  1.5481
  810TIP3    H2 2437   2.328   1.413   3.459 -1.1334 -1.0388 -0.6263
  811TIP3   OH2 2438   5.000   3.677   1.174 -0.1536  0.2413  0.4374
  811TIP3    H1 2439   5.017   3.676   1.268 -0.7226 -0.4909  0.5465
  811TIP3    H2 2440   4.974   3.587   1.154  1.2367  0.0534 -0.6660
  812TIP3   OH2 2441   1.511   1.153   4.309 -0.3479 -0.2647  0.1107
  812TIP3    H1 2442   1.565   1.079   4.280  0.8303  0.6307 -0.0736
  812TIP3    H2 2443   1.433   1.149   4.253  0.2010 -0.7424 -0.6449
  813TIP3   OH2 2444   0.415   3.668   4.620 -0.2593  0.1062 -0.4083
  813TIP3    H1 2445   0.433   3.605   4.689  2.3734  0.2139 -0.9199
  813TIP3    H2 2446   0.332   3.639   4.582  1.4547 -3.9463 -1.5442
  814TIP3   OH2 2447   5.968   0.827   3.082  0.3361  0.3515 -0.0999
  814TIP3    H1 2448   5.888   0.775   3.092  0.5941  0.2898  2.3751
  814TIP3    H2 2449   5.942   0.915   3.108  0.3736  1.0742 -2.3571
  815TIP3   OH2 2450   2.026   1.661   3.416 -0.1465  0.4925  0.3402
  815TIP3    H1 2451   2.000   1.747   3.449  0.6397 -0.3726  3.4584
  815TIP3    H2 2452   1.951   1.605   3.435 -0.4292  0.3057 -1.1770
  816TIP3   OH2 2453   0.388   1.185   5.046  0.4334 -0.3036  0.0145
  816TIP3    H1 2454   0.307   1.137   5.064  0.3532 -0.4192 -0.6323
  816TIP3    H2 2455   0.366   1.277   5.058 -0.1469 -0.2356 -1.4233
  817TIP3   OH2 2456   3.150   4.281   0.364  0.0565  0.1789  0.3276
  817TIP3    H1 2457   3.219   4.343   0.341  0.2836 -0.1906  0.0056
  817TIP3    H2 2458   3.073   4.311   0.316  0.2295  0.0685 -0.0171
  818TIP3   OH2 2459   6.265   5.598   1.650 -0.0569  0.0910  0.1975
  818TIP3    H1 2460   6.342   5.652   1.629  1.1781 -1.0802  1.5478
  818TIP3    H2 2461   6.219   5.648   1.717 -0.4300  0.7291 -0.5136
  819TIP3   OH2 2462   2.555   3.067   0.835 -0.4637 -0.1293  0.4525
  819TIP3    H1 2463   2.597   3.134   0.781 -1.9963  0.0181 -0.5944
  819TIP3    H2 2464   2.583   3.087   0.924  1.4043  0.1554 -0.1529
  820TIP3   OH2 2465   3.945   3.447   3.385 -0.6641  0.3733 -0.1749
  820TIP3    H1 2466   3.863   3.488   3.358 -0.3893  1.1747  0.1631
  820TIP3    H2 2467   3.927   3.353   3.385 -1.3973  0.5103 -0.6884
  821TIP3   OH2 2468   0.377   0.332   4.477  0.4867  0.0340  0.1213
  821TIP3    H1 2469   0.401   0.407   4.532  0.7994  0.1951 -0.2359
  821TIP3    H2 2470   0.444   0.329   4.409  1.0951 -1.2182  0.7398
  822TIP3   OH2 2471   1.582   5.823   3.851  0.1563  0.0444 -0.1461
  822TIP3    H1 2472   1.667   5.793   3.817  0.1172 -0.0115 -0.1947
  822TIP3    H2 2473   1.519   5.761   3.815  0.0845  0.1397 -0.1836
  823TIP3   OH2 2474   1.996   0.483   1.898  0.3715 -0.4817  0.0104
  823TIP3    H1 2475   1.977   0.479   1.804  0.1794  2.3770 -0.1497
  823TIP3    H2 2476   1.931   0.426   1.938 -1.0776  0.0764 -1.4417
  824TIP3   OH2 2477   3.871   4.949   2.547  0.2365 -0.3542  0.2445
  824TIP3    H1 2478   3.879   5.026   2.492 -1.2142 -0.0101  0.4546
  824TIP3    H2 2479   3.854   4.983   2.635 -2.1552 -0.8370  0.0490
  825TIP3   OH2 2480   1.096   3.049   1.148  0.3193  0.1886  0.1621
  825TIP3    H1 2481   1.181   3.009   1.165  1.2972  2.4767  0.9935
  825TIP3    H2 2482   1.106   3.094   1.064 -1.5671 -3.1884 -2.1080
  826TIP3   OH2 2483   5.790   4.654   4.662  0.4310 -0.2433 -0.2129
  826TIP3    H1 2484   5.762   4.623   4.575 -0.3255  1.1974 -0.5125
  826TIP3    H2 2485   5.886   4.646   4.660  0.5718  1.1627 -1.7807
  827TIP3   OH2 2486   3.283   0.662   1.944  0.3375  0.1632 -0.3851
  827TIP3    H1 2487   3.348   0.612   1.993  0.1744  0.4650  0.1374
  827TIP3    H2 2488   3.249   0.600   1.879  0.7749 -0.1425 -0.3244
  828TIP3   OH2 2489   1.924   0.274   4.234  0.1719  0.0686 -0.4485
  828TIP3    H1 2490   1.860   0.344   4.247  0.3763  0.0990  0.4276
  828TIP3    H2 2491   1.927   0.228   4.318  0.6076 -0.5185 -0.7766
  829TIP3   OH2 2492   2.690   1.657   0.569  0.2159  0.6027  0.0893
  829TIP3    H1 2493   2.668   1.646   0.477 -2.6272  2.5652  0.4200
  829TIP3    H2 2494   2.677   1.571   0.608 -0.2278  0.1530 -1.0293
  830TIP3   OH2 2495   4.222   0.277   4.875 -0.1819  0.0352 -0.1386
  830TIP3    H1 2496   4.317   0.263   4.874 -0.4584 -2.8406  1.8947
  830TIP3    H2 2497   4.209   0.342   4.944  0.2802  0.5733 -0.5423
  831TIP3   OH2 2498   0.118   5.151   4.657 -0.3144  0.1521  0.1152
  831TIP3    H1 2499   0.044   5.162   4.598 -1.2873  4.4061  1.7500
  831TIP3    H2 2500   0.180   5.219   4.632  1.9352 -1.6116  0.4807
  832TIP3   OH2 2501   5.221   2.295   0.074  0.6000  0.0744 -0.1489
  832TIP3    H1 2502   5.252   2.332   0.157 -0.7387 -1.3748  1.0601
  832TIP3    H2 2503   5.252   2.356   0.008  4.9651 -0.5805  0.9900
  833TIP3   OH2 2504   3.993   0.864   3.269 -0.0897 -0.0647  0.1722
  833TIP3    H1 2505   4.011   0.952   3.301 -0.8147 -0.0069  0.4432
  833TIP3    H2 2506   4.075   0.817   3.280  0.0106  0.2927  1.0003
  834TIP3   OH2 2507   4.258   2.467   3.600  0.2552  0.0370  0.3862
  834TIP3    H1 2508   4.270   2.387   3.651  1.0233 -0.2062 -0.1663
  834TIP3    H2 2509   4.332   2.522   3.623 -0.2418  0.5784  0.7212
  835TIP3   OH2 2510   3.277   0.539   4.185  0.3263 -0.3652 -0.1750
  835TIP3    H1 2511   3.249   0.540   4.093 -0.5689  1.2271  0.0884
  835TIP3    H2 2512   3.354   0.596   4.187 -0.5295  0.7984  0.3028
  836TIP3   OH2 2513   0.737   1.611   0.405  0.1119 -0.1510 -0.1004
  836TIP3    H1 2514   0.812   1.667   0.387 -0.2956  0.2621 -0.5404
  836TIP3    H2 2515   0.773   1.523   0.411  0.5823  0.0002 -0.6428
  837TIP3   OH2 2516   5.521   3.218   3.424 -0.2056  0.3146 -0.3410
  837TIP3    H1 2517   5.463   3.143   3.407  0.3432 -0.1644 -0.1251
  837TIP3    H2 2518   5.555   3.241   3.337  1.3498 -1.1165 -0.1635
  838TIP3   OH2 2519   3.999   5.882   4.621 -0.2997 -0.2623 -0.1208
  838TIP3    H1 2520   4.004   5.819   4.550  0.6282  1.7815 -1.9727
  838TIP3    H2 2521   4.076   5.863   4.675  0.7182  0.0657 -1.4015
  839TIP3   OH2 2522   2.776   1.014   2.828  0.1476 -0.7108 -0.2768
  839TIP3    H1 2523   2.812   1.082   2.885 -0.9226 -0.0544 -0.3606
  839TIP3    H2 2524   2.729   0.956   2.887  0.6605 -1.1178 -0.2644
  840TIP3   OH2 2525   2.445   0.602   2.845 -0.2206  0.0498  0.3030
  840TIP3    H1 2526   2.405   0.684   2.874  0.0758 -0.5127  2.4732
  840TIP3    H2 2527   2.526   0.630   2.802  0.2673  0.8919  1.6988
  841TIP3   OH2 2528   6.283   4.475   4.719  0.3198  0.0471  0.2826
  841TIP3    H1 2529   6.227   4.465   4.796 -1.1690 -0.0872 -0.7767
  841TIP3    H2 2530   6.228   4.521   4.656  1.6283  0.4541 -0.5931
  842TIP3   OH2 2531   0.281   5.705   3.507 -0.0140 -0.2852 -0.0081
  842TIP3    H1 2532   0.313   5.791   3.536  0.3994 -0.0690 -1.0773
  842TIP3    H2 2533   0.355   5.665   3.461 -0.2649 -1.1415  0.3080
  843TIP3   OH2 2534   3.800   2.464   1.032 -0.1900  0.2318 -0.1832
  843TIP3    H1 2535   3.835   2.387   0.989 -0.3497  0.0122  0.0782
  843TIP3    H2 2536   3.846   2.538   0.991  1.6866 -0.1101  1.1445
  844TIP3   OH2 2537   5.900   2.412   3.383  0.7905  0.2407 -0.6576
  844TIP3    H1 2538   5.929   2.325   3.356  1.8635  0.5372 -0.5211
  844TIP3    H2 2539   5.963   2.472   3.342  0.0808  0.9481 -0.7278
  845TIP3   OH2 2540   0.658   0.231   1.152 -0.4583  0.0382 -0.3959
  845TIP3    H1 2541   0.716   0.255   1.080 -0.9874 -2.3297 -1.6863
  845TIP3    H2 2542   0.682   0.141   1.174 -2.4271 -0.3685  0.2715
  846TIP3   OH2 2543   1.210   0.814   1.573 -0.3723  0.3444  0.0592
  846TIP3    H1 2544   1.242   0.871   1.503 -0.2656 -0.0873 -0.2452
  846TIP3    H2 2545   1.172   0.874   1.638 -1.4538  0.6945 -0.8631
  847TIP3   OH2 2546   6.342   2.033   2.699  0.5018 -0.3224  0.4774
  847TIP3    H1 2547   6.387   1.960   2.656  0.1709  0.1615 -0.7122
  847TIP3    H2 2548   6.255   2.034   2.659  0.9143  1.5125 -0.4608
  848TIP3   OH2 2549   5.580   5.358   3.910 -0.0000 -0.2099  0.0147
  848TIP3    H1 2550   5.487   5.363   3.888 -0.3435  0.8019  1.4819
  848TIP3    H2 2551   5.624   5.412   3.844 -0.5505 -0.0510 -0.2226
  849TIP3   OH2 2552   5.264   1.519   2.610  0.4451  0.1903  0.6731
  849TIP3    H1 2553   5.255   1.607   2.572  1.5332  0.2737  0.5717
  849TIP3    H2 2554   5.177   1.500   2.646 -0.0475  0.9564 -0.0421
  850TIP3   OH2 2555   2.760   4.572   2.330 -0.4680 -0.1406  0.1994
  850TIP3    H1 2556   2.680   4.527   2.301 -1.2320  0.1879  1.7245
  850TIP3    H2 2557   2.760   4.562   2.425  0.5160  1.1965  0.3610
  851TIP3   OH2 2558   4.419   4.190   1.303 -0.2925  0.3970  0.2096
  851TIP3    H1 2559   4.475   4.245   1.247 -2.5052  1.5535 -1.0304
  851TIP3    H2 2560   4.439   4.101   1.276 -0.2516  0.8667 -1.4439
  852TIP3   OH2 2561   0.873   3.446   3.570  0.1620  0.6306 -0.4024
  852TIP3    H1 2562   0.851   3.467   3.479 -3.0647  0.2731  0.1533
  852TIP3    H2 2563   0.942   3.380   3.563 -0.2008  0.3848 -2.6290
  853TIP3   OH2 2564   0.065   1.291   0.693 -0.3546 -0.3344 -0.5348
  853TIP3    H1 2565  -0.004   1.346   0.655 -0.4239  1.3217  1.7316
  853TIP3    H2 2566   0.132   1.353   0.721  0.4767 -1.5980  0.3584
  854TIP3   OH2 2567   4.828   2.185   2.246  0.5430 -0.6261 -0.9125
  854TIP3    H1 2568   4.831   2.107   2.302 -1.2448  0.3149  0.5793
  854TIP3    H2 2569   4.862   2.255   2.301 -2.3989  0.5664 -0.4451
  855TIP3   OH2 2570   4.830   5.803   2.416  0.9704 -0.6808 -0.2616
  855TIP3    H1 2571   4.799   5.860   2.485  2.1829 -1.1523  0.7195
  855TIP3    H2 2572   4.824   5.715   2.452 -0.1391 -1.1329 -1.4646
  856TIP3   OH2 2573   1.181   0.255   2.757 -0.5718  0.4306 -0.3004
  856TIP3    H1 2574   1.248   0.301   2.807 -0.3973  2.2440 -2.0831
  856TIP3    H2 2575   1.202   0.275   2.665 -1.5994 -1.7254 -1.0716
  857TIP3   OH2 2576   0.750   0.114   2.779 -0.1828 -0.0646  0.2362
  857TIP3    H1 2577   0.784   0.203   2.779  1.2324 -0.5569 -1.3908
  857TIP3    H2 2578   0.674   0.117   2.838 -0.5859  2.3491 -0.3127
  858TIP3   OH2 2579   1.025   2.956   2.144 -0.0811  0.2970  0.4181
  858TIP3    H1 2580   0.947   2.900   2.146  0.9051 -1.1437 -0.1638
  858TIP3    H2 2581   1.004   3.024   2.081 -0.1212 -1.2753 -1.3335
  859TIP3   OH2 2582   3.728   2.074   2.520  0.3914  0.0281 -0.6772
  859TIP3    H1 2583   3.762   2.015   2.588  2.0050  0.4195 -1.1134
  859TIP3    H2 2584   3.750   2.031   2.438  0.2015  0.5143 -0.9851
  860TIP3   OH2 2585   4.436   0.008   1.006  0.2206  0.1962 -0.2463
  860TIP3    H1 2586   4.487  -0.065   0.970 -0.8820 -0.4736 -0.4992
  860TIP3    H2 2587   4.421   0.065   0.930  0.2609  0.1979 -0.2533
  861TIP3   OH2 2588   3.293   0.097   1.383  0.2585 -0.5816  0.6275
  861TIP3    H1 2589   3.205   0.068   1.406 -0.3210  0.7194  0.1574
  861TIP3    H2 2590   3.348   0.066   1.455 -1.0284  0.8794  2.3219
  862TIP3   OH2 2591   3.953   2.870   3.884  0.3463  0.4916 -0.1602
  862TIP3    H1 2592   3.917   2.784   3.861  0.8785 -0.6503  2.7391
  862TIP3    H2 2593   3.888   2.932   3.852 -1.1679 -1.1310 -0.4372
  863TIP3   OH2 2594   3.885   3.394   2.888  0.4410 -0.4498 -0.1942
  863TIP3    H1 2595   3.961   3.451   2.895  0.9535 -1.1458  0.0474
  863TIP3    H2 2596   3.914   3.323   2.832  0.6458 -1.7648  1.4877
  864TIP3   OH2 2597   3.036   3.651   0.500 -0.2384 -0.0067  0.0930
  864TIP3    H1 2598   3.068   3.726   0.550 -0.9448  1.6624 -1.8153
  864TIP3    H2 2599   2.970   3.610   0.556 -0.3578  1.2331  0.8826
  865TIP3   OH2 2600   3.232   0.863   2.119 -0.1166 -0.1915 -0.0105
  865TIP3    H1 2601   3.222   0.788   2.061  0.7429 -0.6173  0.3830
  865TIP3    H2 2602   3.153   0.862   2.174 -2.0690  1.4891 -2.5554
  866TIP3   OH2 2603   2.935   4.166   0.881 -0.0524  0.7532  0.0837
  866TIP3    H1 2604   2.943   4.254   0.918 -0.4334  1.5432 -1.6287
  866TIP3    H2 2605   3.001   4.115   0.927  0.6992  2.1250  0.5922
  867TIP3   OH2 2606   3.780   5.726   1.284  0.1803 -0.7673 -0.0618
  867TIP3    H1 2607   3.855   5.681   1.243  1.3208  1.2141 -0.2971
  867TIP3    H2 2608   3.708   5.713   1.222  0.1288 -3.1431  0.3998
  868TIP3   OH2 2609   3.352   4.234   5.015 -0.2421 -0.5988 -0.2856
  868TIP3    H1 2610   3.287   4.203   4.953 -1.0671 -0.0978  0.3044
  868TIP3    H2 2611   3.312   4.311   5.055  0.6502 -0.3780  0.2033
  869TIP3   OH2 2612   5.288   5.361   4.661  0.4823  0.2495 -0.6912
  869TIP3    H1 2613   5.272   5.438   4.607  0.4547  1.4009  0.8699
  869TIP3    H2 2614   5.255   5.386   4.748 -2.1013 -2.5287 -0.7214
  870TIP3   OH2 2615   1.772   3.480   3.664 -0.8434 -0.1769  0.3949
  870TIP3    H1 2616   1.720   3.487   3.584  0.3134  1.4708 -0.2678
  870TIP3    H2 2617   1.814   3.394   3.659  0.4923  0.5338 -1.6308
  871TIP3   OH2 2618   2.653   4.970   3.505 -0.3422 -0.0960 -0.6229
  871TIP3    H1 2619   2.658   4.962   3.600 -0.8822 -0.0299 -0.5867
  871TIP3    H2 2620   2.741   4.947   3.474 -0.0470  0.3054 -0.0837
  872TIP3   OH2 2621   2.467   0.688   1.069 -0.1010  0.1732  0.1424
  872TIP3    H1 2622   2.506   0.637   1.139  1.1477  0.9689  0.0692
  872TIP3    H2 2623   2.447   0.624   1.000  0.0933 -0.4001  0.6136
  873TIP3   OH2 2624   5.052   1.967   3.433 -0.2413  0.2558  0.2401
  873TIP3    H1 2625   5.077   1.875   3.430 -2.7618 -0.5300  1.1661
  873TIP3    H2 2626   5.115   2.010   3.375  0.2870 -2.2012 -1.1686
  874TIP3   OH2 2627   3.936   3.495   0.838 -0.1142  0.4321 -0.3652
  874TIP3    H1 2628   3.876   3.484   0.765  0.3218  2.0801 -1.0037
  874TIP3    H2 2629   3.880   3.516   0.913 -0.5872 -1.5917 -0.0952
  875TIP3   OH2 2630   3.431   0.616   3.680  0.0752 -0.3294  0.4075
  875TIP3    H1 2631   3.371   0.542   3.674 -1.2554  0.7814 -0.7979
  875TIP3    H2 2632   3.467   0.624   3.592 -2.4653  2.4863 -0.5662
  876TIP3   OH2 2633   0.745   5.607   4.959  0.0322 -0.5700  0.0367
  876TIP3    H1 2634   0.809   5.609   5.030  0.8848 -0.0563 -0.7147
  876TIP3    H2 2635   0.798   5.616   4.880 -0.7762 -2.1943 -0.7467
  877TIP3   OH2 2636   0.106   3.288   0.273  0.2866 -0.0824  0.3380
  877TIP3    H1 2637   0.143   3.358   0.326  2.4493  0.7134 -2.0442
  877TIP3    H2 2638   0.162   3.212   0.292 -0.2002 -0.3613  0.6818
  878TIP3   OH2 2639   3.567   4.684   1.256  0.3247 -0.2679  0.0590
  878TIP3    H1 2640   3.605   4.620   1.195  0.1590  1.4561 -1.9424
  878TIP3    H2 2641   3.481   4.648   1.278  1.3552 -2.1522  1.3577
  879TIP3   OH2 2642   1.076   5.375   3.925 -0.2420 -0.7176  0.2002
  879TIP3    H1 2643   1.069   5.429   4.003 -0.6478  0.5458 -0.6743
  879TIP3    H2 2644   0.991   5.381   3.883 -0.0517 -1.4288 -0.3148
  880TIP3   OH2 2645   1.066   4.786   2.103  0.2729 -0.3362 -0.1144
  880TIP3    H1 2646   0.993   4.794   2.042  0.7138  0.7795 -0.5101
  880TIP3    H2 2647   1.029   4.742   2.179 -0.7913  0.1462 -0.3425
  881TIP3   OH2 2648   5.207   2.794   1.413  0.0736 -0.5062  0.6582
  881TIP3    H1 2649   5.233   2.886   1.422 -1.3112 -0.1307  1.1151
  881TIP3    H2 2650   5.279   2.745   1.451  0.7445  0.3973  0.6016
  882TIP3   OH2 2651   0.104   2.450   1.586  0.5831 -0.0055 -0.6768
  882TIP3    H1 2652   0.074   2.512   1.652 -1.1022  0.5103 -1.8527
  882TIP3    H2 2653   0.146   2.380   1.636  2.1722  1.8216  0.7096
  883TIP3   OH2 2654   0.129   0.069   3.044 -0.1463  0.0884 -0.0472
  883TIP3    H1 2655   0.220   0.096   3.035 -0.4891  0.9868 -0.9125
  883TIP3    H2 2656   0.107   0.088   3.135  0.9922 -1.6729  0.6610
  884TIP3   OH2 2657   3.122   1.716   1.990 -0.3380  0.3387 -0.2312
  884TIP3    H1 2658   3.029   1.717   2.014 -0.8548  1.0725 -2.1363
  884TIP3    H2 2659   3.135   1.796   1.940  1.0975 -0.2287 -0.8101
  885TIP3   OH2 2660   1.160   1.768   2.246 -0.1273 -0.3867 -0.0382
  885TIP3    H1 2661   1.086   1.780   2.186 -0.4036 -1.2953  0.1009
  885TIP3    H2 2662   1.193   1.857   2.261 -1.1776  0.0406 -0.1159
  886TIP3   OH2 2663   5.787   5.468   2.037  0.0891 -0.6384  0.1345
  886TIP3    H1 2664   5.759   5.486   2.127 -0.7952 -0.1471 -0.2273
  886TIP3    H2 2665   5.793   5.373   2.032 -0.4424 -0.6968  0.5489
  887TIP3   OH2 2666   1.075   5.812   1.970 -0.4064 -0.4309 -0.3690
  887TIP3    H1 2667   1.031   5.734   2.005  1.7403 -1.0896  1.0643
  887TIP3    H2 2668   1.150   5.825   2.028  1.0712  0.8556 -2.4324
  888TIP3   OH2 2669   2.983   5.624   4.215  0.2351 -0.8071  0.0411
  888TIP3    H1 2670   2.916   5.622   4.283  1.9250  2.3091  2.0346
  888TIP3    H2 2671   2.990   5.716   4.191  0.2690 -1.6733 -3.9635
  889TIP3   OH2 2672   5.753   0.922   4.343  0.5233 -0.2645 -0.0305
  889TIP3    H1 2673   5.828   0.957   4.295  1.0177 -1.4867 -0.1700
  889TIP3    H2 2674   5.782   0.836   4.373 -0.8319 -0.7551 -0.0831
  890TIP3   OH2 2675   1.950   1.925   3.503  0.3843  0.8153 -0.5393
  890TIP3    H1 2676   2.045   1.938   3.502  0.2876  1.9345 -2.7604
  890TIP3    H2 2677   1.915   2.013   3.516 -0.3186  0.7653 -1.9325
  891TIP3   OH2 2678   3.233   2.045   5.153 -0.5081  0.3182 -0.4496
  891TIP3    H1 2679   3.208   1.953   5.165 -0.5032  0.4114  0.2858
  891TIP3    H2 2680   3.181   2.093   5.217 -1.1040  0.9304 -1.3654
  892TIP3   OH2 2681   3.908   1.069   1.818 -0.2976 -0.0365 -0.1389
  892TIP3    H1 2682   3.973   0.999   1.812  1.9801  1.8291  1.2417
  892TIP3    H2 2683   3.864   1.055   1.901  0.1607  0.1604  0.1387
  893TIP3   OH2 2684   2.217   2.596   1.276  0.2700 -0.3398  0.4062
  893TIP3    H1 2685   2.194   2.676   1.323  0.9312 -0.0765  0.2931
  893TIP3    H2 2686   2.246   2.536   1.345  1.0753 -0.0112  0.3704
  894TIP3   OH2 2687   2.555   0.498   1.253 -0.4304  0.1747 -0.8537
  894TIP3    H1 2688   2.612   0.449   1.313 -0.1469  0.9121 -0.5060
  894TIP3    H2 2689   2.467   0.471   1.276 -0.2771 -0.1900 -0.6824
  895TIP3   OH2 2690   2.285   5.270   3.700  0.6842  0.2168  0.2802
  895TIP3    H1 2691   2.319   5.231   3.780 -1.2638 -1.0494  0.5586
  895TIP3    H2 2692   2.350   5.247   3.633  0.2025 -2.6451  0.6605
  896TIP3   OH2 2693   3.374   0.932   0.868  0.2194 -0.1600 -0.2446
  896TIP3    H1 2694   3.451   0.901   0.820  0.7669  0.8268 -0.0448
  896TIP3    H2 2695   3.401   0.929   0.960 -0.0332  0.0384 -0.1639
  897TIP3   OH2 2696   1.932   2.662   2.192 -0.0976  0.3645 -0.8310
  897TIP3    H1 2697   1.996   2.730   2.173  1.0162 -0.8842 -1.7827
  897TIP3    H2 2698   1.970   2.613   2.266  0.0237 -0.3349 -1.3492
  898TIP3   OH2 2699   0.140   3.245   1.962  0.2196 -0.1650 -0.7833
  898TIP3    H1 2700   0.092   3.281   2.037  0.0686 -0.9969 -0.4739
  898TIP3    H2 2701   0.144   3.318   1.899  0.5231  0.6126  0.1072
  899TIP3   OH2 2702   5.880   4.206   5.086  0.1603  0.2789  0.4223
  899TIP3    H1 2703   5.915   4.121   5.058  1.0853  0.5037  0.8607
  899TIP3    H2 2704   5.819   4.230   5.016 -1.1986 -1.3775  0.9532
  900TIP3   OH2 2705   2.021   1.263   3.365 -0.7660  0.1831 -0.3286
  900TIP3    H1 2706   1.949   1.233   3.309 -0.3409 -0.2278 -0.6701
  900TIP3    H2 2707   2.045   1.186   3.417 -0.4194  0.2473 -0.3878
  901TIP3   OH2 2708   6.104   1.746   5.114  0.4237 -0.2397 -0.3009
  901TIP3    H1 2709   6.018   1.720   5.081  0.0692  1.8173 -1.1236
  901TIP3    H2 2710   6.165   1.686   5.070 -0.4876 -1.1006 -0.4309
  902TIP3   OH2 2711   6.285   2.453   3.140 -0.6878 -0.5533 -0.3095
  902TIP3    H1 2712   6.319   2.432   3.054  0.9754 -0.0242  0.1930
  902TIP3    H2 2713   6.315   2.542   3.158 -0.2211 -0.9734  1.1854
  903TIP3   OH2 2714   1.298   4.094   2.111 -0.2032 -0.0563 -0.1460
  903TIP3    H1 2715   1.254   4.153   2.171 -0.3554  0.6729 -0.9620
  903TIP3    H2 2716   1.323   4.019   2.165 -1.0785  0.2069  0.6411
  904TIP3   OH2 2717   0.588   2.267   4.755  0.6877 -0.4215 -0.2652
  904TIP3    H1 2718   0.530   2.284   4.829  0.5326  2.5593 -0.9375
  904TIP3    H2 2719   0.667   2.318   4.774  1.0162 -0.3674 -1.6683
  905TIP3   OH2 2720   5.657   3.144   4.256 -0.0286  0.1259 -0.0568
  905TIP3    H1 2721   5.713   3.067   4.242  1.0836  1.0039 -0.6064
  905TIP3    H2 2722   5.618   3.161   4.170  2.4477  2.2006 -0.8805
  906TIP3   OH2 2723   3.215   5.923   5.034  0.0634 -0.1026 -0.5011
  906TIP3    H1 2724   3.227   5.830   5.054 -2.1805 -0.4492 -0.4619
  906TIP3    H2 2725   3.285   5.967   5.081 -0.2731 -1.5914  1.5295
  907TIP3   OH2 2726   5.639   1.491   4.895 -0.3580  0.1314 -0.4757
  907TIP3    H1 2727   5.681   1.404   4.899 -0.5482  0.0540 -0.2004
  907TIP3    H2 2728   5.546   1.472   4.890 -0.3710  0.3101 -0.9805
  908TIP3   OH2 2729   0.653   5.545   2.291 -0.0220  0.0507 -0.1917
  908TIP3    H1 2730   0.743   5.529   2.318 -0.3108  0.7015  1.2316
  908TIP3    H2 2731   0.631   5.630   2.329 -0.9433  0.3288 -1.2926
  909TIP3   OH2 2732   5.151   1.918   2.791 -0.7498  0.0545  0.4018
  909TIP3    H1 2733   5.135   2.001   2.835 -0.8094  0.4956 -0.4255
  909TIP3    H2 2734   5.211   1.871   2.849 -1.4287  0.2890  1.3139
  910TIP3   OH2 2735   1.288   3.778   4.384  0.3376 -0.3746 -0.0576
  910TIP3    H1 2736   1.269   3.753   4.474 -1.9818  0.1890 -0.3254
  910TIP3    H2 2737   1.331   3.863   4.391 -0.2280 -0.1296  0.5197
  911TIP3   OH2 2738   0.589   2.691   2.497  0.1842 -0.2332  0.2518
  911TIP3    H1 2739   0.507   2.704   2.448  1.4296  3.4468 -1.1920
  911TIP3    H2 2740   0.600   2.772   2.547  2.4526 -1.0468  1.1938
  912TIP3   OH2 2741   2.169   1.922   4.750 -0.3783  0.0499  0.2423
  912TIP3    H1 2742   2.212   1.905   4.834  0.2296  0.0171 -0.0663
  912TIP3    H2 2743   2.150   1.835   4.715  1.6637 -0.0450 -0.7961
  913TIP3   OH2 2744   0.735   4.351   3.664 -0.2465 -0.3047 -0.0771
  913TIP3    H1 2745   0.829   4.332   3.663 -0.1050  0.3189  0.4674
  913TIP3    H2 2746   0.693   4.265   3.663  0.3653 -0.7018  2.3802
  914TIP3   OH2 2747   1.359   4.341   0.670  0.1791  0.2597  0.4223
  914TIP3    H1 2748   1.318   4.409   0.723 -0.8410 -0.1490  0.1723
  914TIP3    H2 2749   1.430   4.387   0.624 -0.4070  1.1292  0.3614
  915TIP3   OH2 2750   2.961   3.864   2.194 -0.0315  0.6887 -0.8086
  915TIP3    H1 2751   2.943   3.900   2.281 -0.7958 -0.8280 -0.2985
  915TIP3    H2 2752   2.962   3.941   2.136 -0.4613  1.6333  0.3852
  916TIP3   OH2 2753   3.461   1.485   0.681  0.2949  0.8091  0.0726
  916TIP3    H1 2754   3.467   1.580   0.688  0.4445  0.7034  1.7087
  916TIP3    H2 2755   3.391   1.460   0.741 -0.5680 -0.0259 -1.2470
  917TIP3   OH2 2756   1.844   1.944   0.540  0.2842 -0.2202  0.1121
  917TIP3    H1 2757   1.929   1.927   0.582  0.7072  0.8261 -0.2876
  917TIP3    H2 2758   1.821   2.032   0.568  0.5805  0.5196 -1.8159
  918TIP3   OH2 2759   5.474   2.011   1.477  0.7575  0.0505 -0.1911
  918TIP3    H1 2760   5.433   1.930   1.508  0.0780  0.1159 -0.8770
  918TIP3    H2 2761   5.528   1.983   1.403 -0.7733  0.4031 -1.5197
  919TIP3   OH2 2762   4.082   5.255   4.510 -1.0694  0.2748  0.8255
  919TIP3    H1 2763   4.165   5.220   4.544 -0.1667  1.1519 -0.3716
  919TIP3    H2 2764   4.017   5.188   4.531  0.6037 -2.3499 -1.5896
  920TIP3   OH2 2765   0.047   1.675   2.379 -0.4303  0.0530 -0.6949
  920TIP3    H1 2766   0.089   1.589   2.387 -0.4825 -0.2195 -2.8895
  920TIP3    H2 2767   0.119   1.738   2.390 -0.4034 -0.2078  0.9837
  921TIP3   OH2 2768   3.568   1.013   2.913 -0.3855 -0.4955 -0.0110
  921TIP3    H1 2769   3.545   1.034   3.004 -1.5504  1.5063 -0.6924
  921TIP3    H2 2770   3.622   0.935   2.919 -0.3365 -0.3475  2.4162
  922TIP3   OH2 2771   2.209   0.575   2.524 -0.0248 -0.0046  0.1663
  922TIP3    H1 2772   2.304   0.581   2.531 -0.2084  1.4688  2.5770
  922TIP3    H2 2773   2.178   0.588   2.613 -2.5346  0.2572 -0.6786
  923TIP3   OH2 2774   4.400   4.798   2.206 -0.3823  0.3593  0.0920
  923TIP3    H1 2775   4.363   4.858   2.141  0.0908  0.5587  0.0013
  923TIP3    H2 2776   4.422   4.719   2.157  1.8560  1.2279 -0.4412
  924TIP3   OH2 2777   1.876   5.448   1.626 -0.4397 -0.4967  0.5852
  924TIP3    H1 2778   1.859   5.377   1.688  0.8516  0.1419  1.7157
  924TIP3    H2 2779   1.859   5.528   1.676  0.1376  0.0245 -0.0286
  925TIP3   OH2 2780   0.488   1.526   3.067  0.4622  0.2639 -0.2694
  925TIP3    H1 2781   0.537   1.469   3.126  0.4855  0.5581 -0.0012
  925TIP3    H2 2782   0.481   1.609   3.115 -0.2072  0.2542 -0.3440
  926TIP3   OH2 2783   3.833   5.097   4.632 -0.0868 -0.3462 -0.1179
  926TIP3    H1 2784   3.830   5.002   4.642 -0.7894 -0.3288 -0.1315
  926TIP3    H2 2785   3.748   5.121   4.594 -0.5463  0.4348  1.3048
  927TIP3   OH2 2786   6.203   4.185   4.757  0.5824 -0.1400 -0.5784
  927TIP3    H1 2787   6.258   4.250   4.713 -0.6325  0.4495 -1.2652
  927TIP3    H2 2788   6.136   4.236   4.802 -1.2793 -0.8800 -2.3154
  928TIP3   OH2 2789   6.064   2.504   2.023 -0.0460 -0.1074  0.4052
  928TIP3    H1 2790   6.106   2.587   2.003  0.1916 -0.3658 -0.1855
  928TIP3    H2 2791   5.972   2.518   2.003  0.3254 -0.6640 -1.9267
  929TIP3   OH2 2792   0.553   1.619   4.596 -0.1292  0.0169  0.3122
  929TIP3    H1 2793   0.492   1.692   4.601 -0.8865 -0.6161  0.5554
  929TIP3    H2 2794   0.506   1.552   4.547  0.2815 -0.5665  0.7009
  930TIP3   OH2 2795   5.331   1.729   2.047 -0.3551  0.1624  0.1880
  930TIP3    H1 2796   5.324   1.684   2.131  0.3880 -2.2566 -0.9306
  930TIP3    H2 2797   5.401   1.793   2.059  0.6031 -0.9998  1.1084
  931TIP3   OH2 2798   4.531   1.329   1.626 -0.2022  0.3788  0.2906
  931TIP3    H1 2799   4.456   1.369   1.669  0.2972  0.3715  1.1887
  931TIP3    H2 2800   4.521   1.235   1.642 -1.2176  0.1334 -1.5644
  932TIP3   OH2 2801   5.243   4.291   5.005 -0.0125 -0.1057 -0.0653
  932TIP3    H1 2802   5.307   4.220   5.012  0.5276 -0.0108 -2.8916
  932TIP3    H2 2803   5.162   4.247   4.979  0.8993  0.3164 -4.3225
  933TIP3   OH2 2804   5.572   1.441   1.201 -0.5566  0.2908  0.0147
  933TIP3    H1 2805   5.648   1.405   1.247 -1.2153  1.6812  2.4142
  933TIP3    H2 2806   5.608   1.515   1.151  0.3923 -2.0311 -2.9910
  934TIP3   OH2 2807   3.762   0.795   2.292  0.4030  0.1523 -0.4110
  934TIP3    H1 2808   3.783   0.879   2.333  1.4808 -0.4160  0.2539
  934TIP3    H2 2809   3.667   0.797   2.280  0.4053  1.4284 -0.3453
  935TIP3   OH2 2810   2.513   3.234   5.075 -0.3484 -0.3220 -0.1623
  935TIP3    H1 2811   2.533   3.194   4.990 -2.2373 -0.6451 -0.5103
  935TIP3    H2 2812   2.575   3.306   5.083  1.1211 -1.4335 -0.9344
  936TIP3   OH2 2813   3.530   5.756   1.129 -0.0419 -0.4069 -0.0365
  936TIP3    H1 2814   3.490   5.834   1.167  1.0189 -0.0186  0.3190
  936TIP3    H2 2815   3.466   5.686   1.145 -1.0798  0.3996 -0.5045
  937TIP3   OH2 2816   0.119   1.176   1.452 -0.1214  0.7731 -0.0216
  937TIP3    H1 2817   0.125   1.268   1.479  1.4260  1.0155 -1.0928
  937TIP3    H2 2818   0.208   1.152   1.427 -0.6676 -0.7599 -0.6280
  938TIP3   OH2 2819   5.877   5.499   0.439 -0.1105 -0.9907 -0.1862
  938TIP3    H1 2820   5.798   5.453   0.409 -0.8484  1.2855 -2.0260
  938TIP3    H2 2821   5.847   5.588   0.458  2.0484  0.0092 -1.1733
  939TIP3   OH2 2822   5.128   2.081   0.943 -0.4459 -0.5260 -0.3460
  939TIP3    H1 2823   5.160   2.100   1.031 -1.6777 -0.5696  0.1372
  939TIP3    H2 2824   5.198   2.031   0.901  0.5394  0.2949  0.2744
  940TIP3   OH2 2825   5.286   4.006   0.563  0.1502  0.1048 -0.6264
  940TIP3    H1 2826   5.219   3.994   0.497  0.3434 -2.7811 -0.4357
  940TIP3    H2 2827   5.368   3.981   0.520  0.2632 -1.9731  0.6245
  941TIP3   OH2 2828   5.165   5.142   1.744 -0.1576 -0.3896 -0.2646
  941TIP3    H1 2829   5.251   5.115   1.711  0.0409 -0.0460 -0.0412
  941TIP3    H2 2830   5.184   5.219   1.797 -0.5170 -0.7256  0.3581
  942TIP3   OH2 2831   4.235   4.929   4.960  0.8455 -0.4159 -0.4862
  942TIP3    H1 2832   4.264   4.953   5.048 -0.2711  0.7399 -0.4057
  942TIP3    H2 2833   4.274   4.995   4.903  0.9463 -0.7223 -0.7787
  943TIP3   OH2 2834   3.453   3.893   2.788 -0.3139  0.1648 -0.1709
  943TIP3    H1 2835   3.539   3.861   2.760  0.7763  1.4548  1.5359
  943TIP3    H2 2836   3.444   3.863   2.878 -1.7542 -0.1010 -0.3795
  944TIP3   OH2 2837   1.477   5.977   1.452 -0.2641  0.0904  0.3177
  944TIP3    H1 2838   1.567   5.976   1.420 -0.8745 -0.0217 -1.4819
  944TIP3    H2 2839   1.486   5.988   1.547  1.6202  0.6774  0.1185
  945TIP3   OH2 2840   1.123   5.718   4.130  0.4927 -0.1540 -0.0721
  945TIP3    H1 2841   1.162   5.739   4.045  2.1615 -0.5605  0.5471
  945TIP3    H2 2842   1.072   5.638   4.115 -0.7862  0.8084 -1.0679
  946TIP3   OH2 2843   2.973   0.151   1.429  0.1491  0.1854 -0.7683
  946TIP3    H1 2844   2.909   0.198   1.376 -2.6615 -3.2665 -0.8458
  946TIP3    H2 2845   2.961   0.185   1.517 -1.1658  0.2396 -0.9537
  947TIP3   OH2 2846   0.819   4.067   3.272  0.3399 -0.4101  0.2321
  947TIP3    H1 2847   0.772   4.148   3.292  1.6063  1.0977 -2.2878
  947TIP3    H2 2848   0.756   3.998   3.288 -1.5641  1.2532  0.2949
  948TIP3   OH2 2849   3.398   1.808   1.356 -0.1832 -0.1330 -0.0816
  948TIP3    H1 2850   3.470   1.842   1.302 -0.3263  0.0717 -0.1450
  948TIP3    H2 2851   3.336   1.772   1.293 -0.1694 -0.2477 -0.0302
  949TIP3   OH2 2852   5.247   0.074   2.061  0.0987 -0.3944  0.3676
  949TIP3    H1 2853   5.193   0.083   1.983  1.0043 -0.1030 -0.2419
  949TIP3    H2 2854   5.185   0.063   2.132 -0.7364 -1.0646 -0.4395
  950TIP3   OH2 2855   1.220   5.020   0.123 -0.2290  0.2825 -0.0386
  950TIP3    H1 2856   1.204   4.937   0.077  0.0929  0.3974 -0.3652
  950TIP3    H2 2857   1.316   5.028   0.124 -0.2427  0.3728  0.4928
  951TIP3   OH2 2858   3.594   0.858   0.716  0.2784  0.0277  0.2511
  951TIP3    H1 2859   3.553   0.875   0.631  0.3683  0.7012  0.3379
  951TIP3    H2 2860   3.610   0.764   0.716 -1.0109 -0.2134  0.0998
  952TIP3   OH2 2861   0.453   5.642   2.626  0.2105 -0.0405  0.4085
  952TIP3    H1 2862   0.524   5.704   2.612  1.0513 -0.9667  0.5134
  952TIP3    H2 2863   0.399   5.650   2.547 -0.3076  1.5873  0.8854
  953TIP3   OH2 2864   1.401   2.434   0.071  0.0717 -0.3890  0.4089
  953TIP3    H1 2865   1.477   2.381   0.047 -1.3108 -1.6789 -1.3461
  953TIP3    H2 2866   1.394   2.422   0.166  0.3080 -2.7705  0.2048
  954TIP3   OH2 2867   4.052   4.132   3.700 -0.3849 -0.3313  0.5756
  954TIP3    H1 2868   4.122   4.185   3.662 -0.6268 -0.8272 -0.6133
  954TIP3    H2 2869   4.091   4.045   3.712 -0.9380 -0.7625 -0.6234
  955TIP3   OH2 2870   6.312   1.247   0.336 -0.6596  1.3779  0.2815
  955TIP3    H1 2871   6.338   1.158   0.316  0.5766  1.9880 -0.9584
  955TIP3    H2 2872   6.222   1.254   0.304  0.1436  1.3373 -2.1870
  956TIP3   OH2 2873   1.366   3.309   3.460  0.1989  0.1301 -0.1764
  956TIP3    H1 2874   1.328   3.223   3.441 -1.8689  0.7915  0.5940
  956TIP3    H2 2875   1.372   3.311   3.556 -0.9435  1.2548 -0.1023
  957TIP3   OH2 2876   5.862   2.486   2.970 -0.6055  0.3075  0.1919
  957TIP3    H1 2877   5.776   2.450   2.952 -0.5503 -0.6467  1.6160
  957TIP3    H2 2878   5.923   2.415   2.949 -0.0008  1.4400 -2.1774
  958TIP3   OH2 2879   5.396   0.901   0.324 -0.4549 -0.6962  0.5939
  958TIP3    H1 2880   5.396   0.979   0.379 -0.0479  0.1968 -0.6323
  958TIP3    H2 2881   5.465   0.845   0.362  0.3793  0.2547  0.5147
  959TIP3   OH2 2882   3.995   3.655   1.642 -0.6646  0.3877  0.2605
  959TIP3    H1 2883   3.988   3.562   1.619  2.6954  0.1015 -0.0354
  959TIP3    H2 2884   4.042   3.656   1.725 -0.7407  1.8418  0.3045
  960TIP3   OH2 2885   5.429   3.540   0.902 -0.0500 -0.4557  0.4460
  960TIP3    H1 2886   5.349   3.585   0.873  0.4920 -0.1958 -0.6883
  960TIP3    H2 2887   5.481   3.609   0.944  0.6866 -0.0291 -1.1029
  961TIP3   OH2 2888   0.198   5.546   4.130 -0.3769  0.0493 -0.2118
  961TIP3    H1 2889   0.265   5.597   4.085 -1.2254  0.6031 -0.8758
  961TIP3    H2 2890   0.212   5.565   4.223  0.6857 -0.2399 -0.2941
  962TIP3   OH2 2891   1.635   4.582   3.978  0.0910 -0.0379  0.3641
  962TIP3    H1 2892   1.710   4.639   3.962  0.1824  0.4328  2.1538
  962TIP3    H2 2893   1.623   4.534   3.897  3.2527 -1.2055  0.4496
  963TIP3   OH2 2894   3.937   3.411   4.463  0.1799 -0.4232  0.1674
  963TIP3    H1 2895   3.935   3.356   4.385 -1.4928  0.1493 -0.2306
  963TIP3    H2 2896   3.922   3.350   4.536  2.3950 -1.0557  0.1464
  964TIP3   OH2 2897   4.024   3.831   3.129 -0.2125  0.0496 -0.1354
  964TIP3    H1 2898   4.103   3.881   3.108 -1.2951  2.1916  0.6774
  964TIP3    H2 2899   4.049   3.740   3.113  2.4431  0.6466  0.1536
  965TIP3   OH2 2900   3.713   1.316   1.944  0.2129 -0.1190  0.3494
  965TIP3    H1 2901   3.780   1.260   1.983  0.6109 -0.5675 -0.9153
  965TIP3    H2 2902   3.653   1.335   2.016  1.3325 -0.2549  1.3541
  966TIP3   OH2 2903   3.581   1.548   4.525 -0.3928  0.1158 -0.1210
  966TIP3    H1 2904   3.629   1.491   4.465 -0.1420 -0.3620  0.5232
  966TIP3    H2 2905   3.629   1.542   4.607 -0.8313  0.6317  0.1781
  967TIP3   OH2 2906   3.026   3.003   4.275 -0.8302 -0.1043 -0.4246
  967TIP3    H1 2907   3.012   2.911   4.299  0.1828 -0.2820 -0.4526
  967TIP3    H2 2908   3.114   3.004   4.239 -0.5655  1.0093  0.2223
  968TIP3   OH2 2909   0.331   1.211   4.310 -0.1467  0.0364 -0.2479
  968TIP3    H1 2910   0.282   1.158   4.247 -0.7875 -1.1863  1.2227
  968TIP3    H2 2911   0.398   1.152   4.345 -1.2050 -0.0352  1.8116
  969TIP3   OH2 2912   2.624   1.572   4.062 -0.3426  0.2636 -0.5433
  969TIP3    H1 2913   2.667   1.586   4.147  0.7966  0.2565 -1.0917
  969TIP3    H2 2914   2.643   1.481   4.041  1.0498  0.7717 -1.6634
  970TIP3   OH2 2915   3.601   4.479   2.017 -0.6442  0.4434  0.1043
  970TIP3    H1 2916   3.590   4.569   2.046 -2.5593  0.1831  0.2813
  970TIP3    H2 2917   3.542   4.428   2.072  0.1405 -0.8929 -0.2372
  971TIP3   OH2 2918   3.288   3.493   2.893 -0.1053  0.0049 -0.0102
  971TIP3    H1 2919   3.248   3.421   2.943  0.9442 -1.3174 -0.9859
  971TIP3    H2 2920   3.256   3.572   2.935 -2.0094 -1.0078  0.5817
  972TIP3   OH2 2921   0.645   5.870   2.973  0.0787  0.0811  0.8689
  972TIP3    H1 2922   0.707   5.874   3.046 -1.5055  1.0928  2.2435
  972TIP3    H2 2923   0.648   5.779   2.944  0.4259 -0.4644  2.5215
  973TIP3   OH2 2924   6.253   0.886   4.194  0.1683 -0.1876 -0.0300
  973TIP3    H1 2925   6.211   0.800   4.199  0.6376 -0.4828 -0.9240
  973TIP3    H2 2926   6.344   0.867   4.171  0.5451  0.4951  0.8501
  974TIP3   OH2 2927   4.329   3.617   4.386 -0.1921  0.0156 -0.7679
  974TIP3    H1 2928   4.301   3.580   4.302  1.6504  2.0226 -2.3607
  974TIP3    H2 2929   4.289   3.704   4.389 -1.1194 -0.4201  1.0077
  975TIP3   OH2 2930   0.690   1.921   1.194  0.3125  0.4738 -0.1855
  975TIP3    H1 2931   0.655   1.974   1.123 -0.5407 -0.4878 -0.5010
  975TIP3    H2 2932   0.614   1.900   1.248  0.0987 -2.6220 -1.5035
  976TIP3   OH2 2933   0.563   1.932   4.932  0.0693 -0.2274  0.1220
  976TIP3    H1 2934   0.625   1.905   4.999  1.4283  2.1181 -0.0760
  976TIP3    H2 2935   0.517   2.006   4.971 -1.9037 -1.2373 -0.1515
  977TIP3   OH2 2936   2.220   3.633   2.862  0.2275  0.4622  0.4806
  977TIP3    H1 2937   2.217   3.559   2.802 -0.7660  1.6515 -0.9925
  977TIP3    H2 2938   2.131   3.640   2.896  0.9505 -0.7643  2.9127
  978TIP3   OH2 2939   6.140   3.876   1.213  0.0455  0.1500 -0.2423
  978TIP3    H1 2940   6.088   3.838   1.285 -0.5517  1.5109  0.0730
  978TIP3    H2 2941   6.082   3.873   1.137  0.1567  0.0262 -0.3224
  979TIP3   OH2 2942   3.779   1.465   0.012  0.2977  0.3257 -0.0730
  979TIP3    H1 2943   3.803   1.384  -0.033 -1.6979  0.1286 -0.9121
  979TIP3    H2 2944   3.767   1.439   0.103 -0.6980 -0.4671 -0.3999
  980TIP3   OH2 2945   3.766   5.507   4.557 -0.0156 -0.0913 -0.0538
  980TIP3    H1 2946   3.823   5.452   4.612  0.9555  0.8989 -0.0254
  980TIP3    H2 2947   3.809   5.508   4.471 -0.1815  0.3727 -0.1364
  981TIP3   OH2 2948   5.828   2.001   2.854  0.5847 -0.0835  0.1560
  981TIP3    H1 2949   5.797   2.072   2.797 -0.5978 -2.5086 -2.4570
  981TIP3    H2 2950   5.813   1.921   2.803  1.2828 -2.3102  3.1783
  982TIP3   OH2 2951   5.077   2.131   3.660 -0.4090 -0.0012 -0.2652
  982TIP3    H1 2952   5.110   2.194   3.597  0.6486  0.1551  0.4128
  982TIP3    H2 2953   5.068   2.050   3.610  1.0917 -0.0640 -0.4866
  983TIP3   OH2 2954   0.850   2.896   2.644  0.5392  0.0456  0.0954
  983TIP3    H1 2955   0.761   2.931   2.643  0.2975 -0.5056  0.9470
  983TIP3    H2 2956   0.893   2.935   2.567 -0.2288  0.8406  0.0586
  984TIP3   OH2 2957   3.163   5.262   1.602 -0.2959  0.1362 -0.1673
  984TIP3    H1 2958   3.123   5.297   1.682 -1.8102 -0.6167 -0.5426
  984TIP3    H2 2959   3.220   5.192   1.633 -0.5764  0.0997  0.2824
  985TIP3   OH2 2960   5.593   0.909   0.028  0.0397  0.0885  0.7063
  985TIP3    H1 2961   5.627   0.851   0.097  1.8151 -0.8800 -0.9045
  985TIP3    H2 2962   5.668   0.962   0.002 -0.1092 -0.7591 -1.6388
  986TIP3   OH2 2963   0.530   1.048   1.332  0.5227  0.0397  0.1038
  986TIP3    H1 2964   0.585   1.100   1.274  1.4131 -1.7769 -0.7496
  986TIP3    H2 2965   0.561   0.959   1.322 -0.6929 -0.6416  1.8182
  987TIP3   OH2 2966   0.760   0.079   4.452  0.3673  0.1544  0.5861
  987TIP3    H1 2967   0.749  -0.015   4.437 -1.9212  0.4793 -0.0375
  987TIP3    H2 2968   0.724   0.121   4.374  2.3745  1.5732  0.3470
  988TIP3   OH2 2969   0.051   4.075   1.257  0.1829 -0.1658 -0.1199
  988TIP3    H1 2970  -0.026   4.083   1.200 -0.7508 -0.7591  1.0174
  988TIP3    H2 2971   0.081   4.165   1.268 -0.3207  0.0731 -0.6048
  989TIP3   OH2 2972   1.957   0.889   2.886 -0.2516 -0.4019  0.5270
  989TIP3    H1 2973   1.874   0.847   2.864 -0.5742  0.0043  0.9365
  989TIP3    H2 2974   1.970   0.870   2.979 -0.2171  0.0823  0.6253
  990TIP3   OH2 2975   4.452   2.251   3.071  0.4149 -0.0726 -0.0278
  990TIP3    H1 2976   4.377   2.192   3.072  0.3662 -0.0211  1.2473
  990TIP3    H2 2977   4.453   2.291   3.158  1.9082 -0.0842  0.0025
  991TIP3   OH2 2978   5.854   5.306   3.333  0.1575  0.0415  0.0068
  991TIP3    H1 2979   5.903   5.380   3.371 -0.1747 -1.1412  3.0278
  991TIP3    H2 2980   5.919   5.237   3.324 -0.0354 -0.0852 -0.4137
  992TIP3   OH2 2981   4.921   4.465   4.790  0.1959 -0.1799  0.6820
  992TIP3    H1 2982   4.965   4.390   4.831 -0.4413 -0.9706 -0.0260
  992TIP3    H2 2983   4.830   4.455   4.815  0.1816  0.6309  0.9576
  993TIP3   OH2 2984   2.169   0.439   0.434  0.0473  0.1907 -0.0872
  993TIP3    H1 2985   2.111   0.465   0.362 -0.1049 -0.5319 -0.2351
  993TIP3    H2 2986   2.242   0.502   0.430 -1.0079  1.5123  0.4984
  994TIP3   OH2 2987   6.251   2.855   0.661 -0.6175  0.0206 -0.4668
  994TIP3    H1 2988   6.299   2.778   0.691 -1.5011 -1.2937 -2.2337
  994TIP3    H2 2989   6.309   2.928   0.680  0.9390 -1.2430 -0.1433
  995TIP3   OH2 2990   6.011   5.954   0.911  0.1903 -0.1643 -0.3305
  995TIP3    H1 2991   5.918   5.943   0.931  0.3835 -1.7341 -0.1747
  995TIP3    H2 2992   6.029   6.045   0.935 -1.2347  0.1010 -0.1211
  996TIP3   OH2 2993   3.237   1.768   3.523 -0.1059 -0.3073  0.5575
  996TIP3    H1 2994   3.202   1.800   3.606  1.4176 -0.5189  1.3290
  996TIP3    H2 2995   3.188   1.688   3.505  0.6908 -1.2253  2.1881
  997TIP3   OH2 2996   6.112   5.852   0.645 -0.5586 -0.1363 -0.1341
  997TIP3    H1 2997   6.053   5.871   0.718  0.8869 -1.7965  1.5658
  997TIP3    H2 2998   6.117   5.935   0.597  1.0814  2.2508  3.6187
  998TIP3   OH2 2999   4.645   3.553   4.017  0.2889 -0.0337 -0.3616
  998TIP3    H1 3000   4.623   3.644   4.036  1.4992  0.3722 -0.8702
  998TIP3    H2 3001   4.625   3.506   4.099  0.1688  0.7644  0.0754
  999TIP3   OH2 3002   5.983   1.110   4.138 -0.4820  0.0975 -0.0594
  999TIP3    H1 3003   5.967   1.131   4.230 -0.6991  1.9584 -0.4721
  999TIP3    H2 3004   6.061   1.056   4.139 -1.4511 -1.3608  1.3219
 1000TIP3   OH2 3005   3.775   5.162   3.518 -0.3758  0.2307  0.1126
 1000TIP3    H1 3006   3.773   5.205   3.603  1.0075 -1.6982  1.2200
 1000TIP3    H2 3007   3.821   5.079   3.535 -0.3301 -0.3440 -2.4540
 1001TIP3   OH2 3008   5.425   0.402   0.628  0.0390 -0.4916 -0.3661
 1001TIP3    H1 3009   5.363   0.386   0.557 -1.9607 -0.3987  1.2779
 1001TIP3    H2 3010   5.407   0.492   0.656 -0.3242 -1.0365  1.2632
 1002TIP3   OH2 3011   5.217   2.631   0.480 -0.3704 -0.0409 -0.2584
 1002TIP3    H1 3012   5.224   2.615   0.574  0.7807 -0.1843 -0.3588
 1002TIP3    H2 3013   5.213   2.726   0.471 -4.3582  0.0348  0.1447
 1003TIP3   OH2 3014   4.742   0.741   2.633 -0.0941 -0.0571  0.8439
 1003TIP3    H1 3015   4.808   0.676   2.608  0.5450  0.6721  0.5969
 1003TIP3    H2 3016   4.658   0.699   2.614  0.3237 -0.6257  0.2339
 1004TIP3   OH2 3017   6.103   1.757   0.701  0.5366  0.0953 -0.5067
 1004TIP3    H1 3018   6.190   1.795   0.706  1.0163 -0.6979 -2.2529
 1004TIP3    H2 3019   6.049   1.826   0.663  0.2895  0.7054  0.8829
 1005TIP3   OH2 3020   1.204   5.545   4.362 -0.3760  0.1463 -0.0271
 1005TIP3    H1 3021   1.265   5.574   4.294 -2.4908  0.5675 -1.8962
 1005TIP3    H2 3022   1.146   5.620   4.375 -0.8060 -0.3968  1.3124
 1006TIP3   OH2 3023   2.015   2.568   5.148  0.2565 -0.0597 -0.1504
 1006TIP3    H1 3024   1.920   2.573   5.148  0.1726 -1.4389  0.5740
 1006TIP3    H2 3025   2.035   2.480   5.179  1.8185  1.1357  2.6205
 1007TIP3   OH2 3026   4.622   3.322   0.918  0.2908  0.5192 -0.0293
 1007TIP3    H1 3027   4.564   3.249   0.936 -0.0069  0.9336  0.7382
 1007TIP3    H2 3028   4.680   3.290   0.848  0.1061 -0.4060  0.2277
 1008TIP3   OH2 3029   2.645   4.994   1.674  0.3636 -0.3729  0.1054
 1008TIP3    H1 3030   2.654   4.928   1.605  1.1832  0.1252 -0.2830
 1008TIP3    H2 3031   2.724   4.982   1.728 -0.2780 -0.7679  0.9702
 1009TIP3   OH2 3032   4.038   3.410   3.681 -0.0582  0.7201  0.4708
 1009TIP3    H1 3033   3.994   3.472   3.739  1.1522  3.0664 -0.9961
 1009TIP3    H2 3034   3.977   3.396   3.609  0.4308  1.8244 -0.1867
 1010TIP3   OH2 3035   2.970   5.435   4.006 -0.4120 -0.5580  0.0156
 1010TIP3    H1 3036   2.981   5.504   4.072  0.0919 -1.2380  0.6500
 1010TIP3    H2 3037   3.043   5.375   4.022 -0.6315 -1.0444 -0.7817
 1011TIP3   OH2 3038   1.601   2.652   1.500  0.0426  0.1916 -0.8187
 1011TIP3    H1 3039   1.637   2.598   1.430  0.5471  1.5364 -1.6475
 1011TIP3    H2 3040   1.564   2.590   1.563  2.2126 -1.1838 -0.8166
 1012TIP3   OH2 3041   4.221   3.740   2.354  0.0059 -0.0790  0.9273
 1012TIP3    H1 3042   4.172   3.727   2.435  1.4605  1.7635  2.1969
 1012TIP3    H2 3043   4.256   3.829   2.360 -0.0560  0.2457 -1.8867
 1013TIP3   OH2 3044   6.211   4.764   1.591  0.0548  0.2153 -1.0426
 1013TIP3    H1 3045   6.182   4.783   1.680  1.3814  1.2445 -0.8000
 1013TIP3    H2 3046   6.225   4.669   1.590  1.4296  0.3551  0.3254
 1014TIP3   OH2 3047   3.133   3.823   3.571  0.9698 -0.4239  0.2100
 1014TIP3    H1 3048   3.176   3.874   3.640  0.6156 -0.3602  0.3887
 1014TIP3    H2 3049   3.044   3.859   3.566  1.5904  1.0013 -1.7484
 1015TIP3   OH2 3050   1.319   4.194   3.374 -0.4456  0.4651 -0.0751
 1015TIP3    H1 3051   1.301   4.239   3.457 -1.2954  1.6591 -0.8795
 1015TIP3    H2 3052   1.233   4.177   3.337 -0.1114 -1.2497 -0.1252
 1016TIP3   OH2 3053   2.078   3.107   3.386  0.6836 -0.2619  0.4806
 1016TIP3    H1 3054   2.171   3.130   3.376  0.6588  1.3150  3.1353
 1016TIP3    H2 3055   2.032   3.190   3.377 -0.6130 -1.1042 -1.3540
 1017TIP3   OH2 3056   0.437   2.802   4.743 -0.0201  0.3744  0.0369
 1017TIP3    H1 3057   0.384   2.729   4.710 -1.3133  1.2401  0.1535
 1017TIP3    H2 3058   0.473   2.769   4.825  1.4180 -0.9915 -1.0651
 1018TIP3   OH2 3059   1.105   2.006   5.009  0.0390 -0.0214  0.2873
 1018TIP3    H1 3060   1.183   1.982   4.959 -0.1957 -0.8762  0.3074
 1018TIP3    H2 3061   1.046   2.045   4.944 -0.4345 -1.5131 -0.2345
 1019TIP3   OH2 3062   4.714   2.849   1.089  0.0638 -0.4281  0.3047
 1019TIP3    H1 3063   4.702   2.755   1.078  0.3276 -0.6844  1.9857
 1019TIP3    H2 3064   4.667   2.870   1.170 -0.9486  1.1117 -0.6217
 1020TIP3   OH2 3065   0.478   4.571   1.517  0.0698 -0.3461 -0.3453
 1020TIP3    H1 3066   0.530   4.499   1.481 -2.6174 -1.1988 -2.9343
 1020TIP3    H2 3067   0.422   4.599   1.444  0.6596  4.1972  0.6197
 1021TIP3   OH2 3068   2.676   1.149   2.301  0.4081 -0.2680  0.1119
 1021TIP3    H1 3069   2.621   1.126   2.227  0.3854  0.0004  0.0443
 1021TIP3    H2 3070   2.694   1.065   2.345 -1.5915 -0.1612  1.2410
 1022TIP3   OH2 3071   0.683   0.773   2.739 -0.1943 -0.2657 -0.1095
 1022TIP3    H1 3072   0.611   0.753   2.679  0.2164 -0.9681 -0.3879
 1022TIP3    H2 3073   0.645   0.764   2.826 -0.6159  0.0452 -0.2607
 1023TIP3   OH2 3074   0.719   2.841   1.908 -0.3233 -0.7183  0.1679
 1023TIP3    H1 3075   0.766   2.765   1.943 -1.8452 -2.0122 -0.4634
 1023TIP3    H2 3076   0.626   2.816   1.915 -0.8594  1.1474  0.0381
 1024TIP3   OH2 3077   3.688   5.132   0.638  0.0215 -0.0444  0.1918
 1024TIP3    H1 3078   3.762   5.188   0.663 -0.1449 -0.2235  1.1555
 1024TIP3    H2 3079   3.611   5.181   0.667 -0.1403 -0.6174  0.7498
 1025TIP3   OH2 3080   2.983   3.310   4.698  0.2949 -0.5257  0.4415
 1025TIP3    H1 3081   3.065   3.359   4.690  0.0809 -0.3127 -0.6374
 1025TIP3    H2 3082   2.992   3.238   4.636 -0.7223  0.0709 -0.4267
 1026TIP3   OH2 3083   5.715   3.572   4.384 -0.0222 -0.4844 -0.1755
 1026TIP3    H1 3084   5.628   3.547   4.416  0.0887 -0.0759  0.4706
 1026TIP3    H2 3085   5.772   3.500   4.411  0.1675  0.0963  1.0504
 1027TIP3   OH2 3086   3.990   2.911   2.344  0.0136  0.1447 -0.1834
 1027TIP3    H1 3087   4.045   2.989   2.340  1.0682 -0.4307  1.9379
 1027TIP3    H2 3088   3.904   2.941   2.314  0.0617  2.4315  1.7115
 1028TIP3   OH2 3089   5.743   4.840   4.219 -0.0994 -0.6994 -0.0745
 1028TIP3    H1 3090   5.795   4.839   4.299  1.0510  1.2767 -0.7290
 1028TIP3    H2 3091   5.714   4.930   4.210 -1.2773 -1.1559 -1.2467
 1029TIP3   OH2 3092   0.916   1.400   0.362 -0.1129 -0.6246 -0.3547
 1029TIP3    H1 3093   0.973   1.381   0.436  0.0801  1.3744  0.0625
 1029TIP3    H2 3094   0.962   1.364   0.286  0.9894 -0.3292  0.1600
 1030TIP3   OH2 3095   2.435   3.152   0.561 -0.0106  0.0400  0.2933
 1030TIP3    H1 3096   2.516   3.179   0.603  0.0091 -0.0539  0.3155
 1030TIP3    H2 3097   2.418   3.220   0.495 -1.1055  1.2871  1.7865
 1031TIP3   OH2 3098   2.458   1.222   4.540 -0.0951 -0.0662 -0.5681
 1031TIP3    H1 3099   2.443   1.127   4.541  1.5670 -0.4685 -3.0596
 1031TIP3    H2 3100   2.468   1.245   4.632 -2.5496 -1.8902  0.2801
 1032TIP3   OH2 3101   6.013   0.931   1.915  0.0255  0.1355  0.0590
 1032TIP3    H1 3102   5.997   1.022   1.940 -2.1870  0.2202 -1.3971
 1032TIP3    H2 3103   6.035   0.935   1.822  0.0313 -0.8096  0.0045
 1033TIP3   OH2 3104   6.342   0.306   2.572 -0.0463 -0.2317  0.6967
 1033TIP3    H1 3105   6.370   0.218   2.546  0.4662 -0.0312  0.5711
 1033TIP3    H2 3106   6.270   0.291   2.634  0.7247 -0.7615  1.4860
 1034TIP3   OH2 3107   5.992   2.981   0.661 -0.3882  0.0604  0.8294
 1034TIP3    H1 3108   6.048   2.904   0.663 -0.5148 -0.1130 -0.6519
 1034TIP3    H2 3109   5.930   2.963   0.590  0.8411  2.3199 -0.9654
 1035TIP3   OH2 3110   0.225   5.420   3.233 -0.3207 -0.1267  0.3236
 1035TIP3    H1 3111   0.278   5.487   3.189  0.7897  0.2624  2.1518
 1035TIP3    H2 3112   0.140   5.463   3.247  0.2164  0.7551  1.0119
 1036TIP3   OH2 3113   1.676   5.606   2.552 -0.0715 -0.2032  0.1793
 1036TIP3    H1 3114   1.652   5.513   2.545  1.6638 -0.8683  2.0674
 1036TIP3    H2 3115   1.671   5.639   2.462 -0.8816 -2.0753 -0.5136
 1037TIP3   OH2 3116   0.376   5.035   0.595  0.4754 -0.7343  0.4709
 1037TIP3    H1 3117   0.328   5.113   0.566 -0.1056 -0.8472  1.0906
 1037TIP3    H2 3118   0.423   5.005   0.517  0.8144  0.3069  0.2574
 1038TIP3   OH2 3119   4.038   2.147   2.350 -0.1924  0.3982  0.8586
 1038TIP3    H1 3120   4.046   2.210   2.278 -1.6933  0.5572  0.7971
 1038TIP3    H2 3121   3.963   2.093   2.327  0.6783 -1.0131  1.2363
 1039TIP3   OH2 3122   1.677   0.851   1.047  0.2175 -0.0185 -0.7436
 1039TIP3    H1 3123   1.721   0.856   1.132  2.1574 -2.6496 -1.4338
 1039TIP3    H2 3124   1.726   0.911   0.990  0.0845  0.3750 -0.4424
 1040TIP3   OH2 3125   0.061   5.037   0.841 -0.4151  0.8166 -0.3038
 1040TIP3    H1 3126   0.098   4.964   0.791  0.5878 -0.3761  2.0432
 1040TIP3    H2 3127   0.137   5.087   0.870 -1.0707  2.7501 -1.6396
 1041TIP3   OH2 3128   2.046   3.152   1.639 -0.7954  0.1396 -0.2952
 1041TIP3    H1 3129   2.082   3.224   1.691 -0.2361 -0.3799  0.0551
 1041TIP3    H2 3130   1.968   3.189   1.597  1.3006  2.0053 -2.8741
 1042TIP3   OH2 3131   4.687   0.091   1.446  0.5504 -0.4042 -0.6512
 1042TIP3    H1 3132   4.605   0.042   1.457  0.7929 -0.4451  1.4379
 1042TIP3    H2 3133   4.727   0.089   1.533  3.0478 -0.8291 -1.7524
 1043TIP3   OH2 3134   5.872   1.947   4.869  0.0866  0.0131 -0.6485
 1043TIP3    H1 3135   5.800   1.894   4.903  0.8867 -0.6682  0.0236
 1043TIP3    H2 3136   5.847   1.967   4.779 -1.3051  0.4592 -0.1766
 1044TIP3   OH2 3137   1.683   4.723   3.186  0.3344  0.0847  0.4788
 1044TIP3    H1 3138   1.719   4.671   3.114 -1.1229  2.0261 -1.8056
 1044TIP3    H2 3139   1.759   4.763   3.228  1.1406 -0.1281 -0.7446
 1045TIP3   OH2 3140   1.670   2.990   1.686 -0.5116  0.6944 -0.6097
 1045TIP3    H1 3141   1.705   2.941   1.761 -0.0394  1.3866 -0.3669
 1045TIP3    H2 3142   1.696   2.938   1.610  1.1813  1.2367 -0.4413
 1046TIP3   OH2 3143   2.836   3.062   0.352  1.0224 -0.8251  0.7167
 1046TIP3    H1 3144   2.766   3.021   0.302 -0.5215  0.3253  1.8251
 1046TIP3    H2 3145   2.792   3.126   0.408  3.1978  1.8880 -0.4288
 1047TIP3   OH2 3146   2.799   2.560   3.121 -0.3405 -0.1932  0.0590
 1047TIP3    H1 3147   2.821   2.546   3.029  0.8530  0.2773  0.2568
 1047TIP3    H2 3148   2.779   2.654   3.126  3.1848  0.6553  0.9130
 1048TIP3   OH2 3149   2.054   0.263   1.375 -0.7217  0.0402 -0.0931
 1048TIP3    H1 3150   2.122   0.285   1.311  1.4868 -0.0266  2.0635
 1048TIP3    H2 3151   2.081   0.177   1.409 -1.7116  0.1608  1.0645
 1049TIP3   OH2 3152   1.612   4.813   2.438  0.0166  0.0913  0.0551
 1049TIP3    H1 3153   1.648   4.900   2.457 -1.3082  0.9152 -1.0243
 1049TIP3    H2 3154   1.668   4.778   2.369 -0.6022  0.9362 -0.8976
 1050TIP3   OH2 3155   1.716   2.106   5.130  0.0514 -0.0145 -0.6563
 1050TIP3    H1 3156   1.710   2.018   5.092 -0.3726 -0.4514  0.4017
 1050TIP3    H2 3157   1.630   2.144   5.116 -1.1629 -1.3102  2.5110
 1051TIP3   OH2 3158   3.609   2.277   1.664  0.1897  0.0144  0.0909
 1051TIP3    H1 3159   3.666   2.353   1.653 -0.7805  0.9664  1.3055
 1051TIP3    H2 3160   3.574   2.260   1.576 -0.1691  1.4688 -0.0759
 1052TIP3   OH2 3161   4.358   5.282   1.475  0.0463  0.1662 -0.4807
 1052TIP3    H1 3162   4.436   5.259   1.525  1.3914 -0.7322 -2.8043
 1052TIP3    H2 3163   4.309   5.342   1.531  1.3482 -0.8649  1.8827
 1053TIP3   OH2 3164   1.061   0.246   1.901 -0.3658 -0.1715 -0.3643
 1053TIP3    H1 3165   1.017   0.283   1.824 -0.8140 -0.3073 -0.1799
 1053TIP3    H2 3166   1.144   0.212   1.868 -1.0411 -1.2525 -1.0232
 1054TIP3   OH2 3167   4.321   3.736   4.708 -0.1925 -0.1401  0.1520
 1054TIP3    H1 3168   4.318   3.644   4.682 -0.7092 -0.0806 -0.0229
 1054TIP3    H2 3169   4.343   3.735   4.801 -0.3648 -0.4486  0.1892
 1055TIP3   OH2 3170   4.428   1.380   1.362  0.2484 -0.1580 -0.3359
 1055TIP3    H1 3171   4.424   1.285   1.351  0.4847 -0.1243 -0.7399
 1055TIP3    H2 3172   4.418   1.394   1.456 -1.7314 -0.4727 -0.4720
 1056TIP3   OH2 3173   3.655   2.252   2.800  0.0424  0.7764 -0.5419
 1056TIP3    H1 3174   3.576   2.305   2.789 -1.7505 -1.8003 -1.2892
 1056TIP3    H2 3175   3.621   2.163   2.811  2.9076 -0.7139 -2.6710
 1057TIP3   OH2 3176   4.556   0.708   0.636 -0.0672  0.0968  0.8030
 1057TIP3    H1 3177   4.513   0.761   0.570  2.5575  0.2010 -0.9512
 1057TIP3    H2 3178   4.595   0.771   0.697 -1.1203  0.0350  1.5566
 1058TIP3   OH2 3179   2.681   5.979   1.698 -0.2214  0.3514 -0.9148
 1058TIP3    H1 3180   2.608   6.033   1.730 -0.3719  0.7206 -1.8429
 1058TIP3    H2 3181   2.719   5.941   1.777 -1.6643 -0.1660 -0.4351
 1059TIP3   OH2 3182   0.098   5.396   1.408  0.5006  0.1544  0.5616
 1059TIP3    H1 3183   0.123   5.313   1.367 -1.2450  0.6382 -1.7152
 1059TIP3    H2 3184   0.011   5.415   1.372  0.2511  2.2874  2.1073
 1060TIP3   OH2 3185   3.663   0.317   4.994 -0.3262  0.0271  0.3352
 1060TIP3    H1 3186   3.601   0.387   4.975  0.0189 -0.1364 -1.6440
 1060TIP3    H2 3187   3.708   0.302   4.911 -0.0613 -2.2210  0.8204
 1061TIP3   OH2 3188   2.884   0.425   3.540 -0.3678  0.3333  0.1571
 1061TIP3    H1 3189   2.889   0.496   3.604  2.2755  0.8432 -0.4857
 1061TIP3    H2 3190   2.868   0.469   3.457  1.7158  0.3167 -0.3141
 1062TIP3   OH2 3191   1.332   2.996   3.919 -0.6755 -0.2421  0.6670
 1062TIP3    H1 3192   1.351   2.921   3.862 -3.4876  0.1287 -0.9807
 1062TIP3    H2 3193   1.418   3.027   3.946  0.7789 -1.6536 -1.8314
 1063TIP3   OH2 3194   3.588   0.609   0.534  0.0256 -0.4272 -0.4603
 1063TIP3    H1 3195   3.586   0.544   0.605  0.0700  1.0063  0.9234
 1063TIP3    H2 3196   3.675   0.599   0.495  0.7762  0.0700  1.0080
 1064TIP3   OH2 3197   3.534   2.324   4.180 -0.1425  0.7740 -0.5457
 1064TIP3    H1 3198   3.595   2.265   4.225  0.0288 -0.9337 -2.8528
 1064TIP3    H2 3199   3.456   2.326   4.236 -1.1114 -3.6434 -1.3889
 1065TIP3   OH2 3200   2.018   5.492   0.353 -0.5129  0.4866  0.2654
 1065TIP3    H1 3201   1.932   5.458   0.329 -0.4662 -1.7429  2.8343
 1065TIP3    H2 3202   2.079   5.451   0.292 -0.9142 -0.8138  0.7205
 1066TIP3   OH2 3203   5.169   3.110   1.427 -0.1847 -0.6273 -0.1534
 1066TIP3    H1 3204   5.131   3.168   1.493 -2.2439 -1.4166 -0.5718
 1066TIP3    H2 3205   5.252   3.081   1.466  1.0569  2.6476 -0.0098
 1067TIP3   OH2 3206   1.415   1.526   4.671 -0.0716 -0.8237  0.0664
 1067TIP3    H1 3207   1.433   1.492   4.583  0.2391 -0.5001 -0.0019
 1067TIP3    H2 3208   1.332   1.572   4.663  0.3742 -0.0617 -0.2720
 1068TIP3   OH2 3209   5.316   1.048   4.043  0.4077  0.1208 -0.0004
 1068TIP3    H1 3210   5.326   1.001   3.960 -0.5602 -1.3354  0.6778
 1068TIP3    H2 3211   5.406   1.060   4.073  0.7367 -0.0695 -0.8623
 1069TIP3   OH2 3212   3.491   2.241   3.275  0.7012 -0.3677  0.3548
 1069TIP3    H1 3213   3.520   2.296   3.348 -0.8988 -1.3358  1.7911
 1069TIP3    H2 3214   3.483   2.302   3.201  1.9005  0.7232  1.0756
 1070TIP3   OH2 3215   3.284   0.814   1.254  0.3133 -0.3861  0.3196
 1070TIP3    H1 3216   3.212   0.867   1.222 -1.2632 -2.0806  0.9093
 1070TIP3    H2 3217   3.328   0.870   1.318 -1.6671  0.0264  1.3856
 1071TIP3   OH2 3218   0.316   5.199   3.072  0.2279 -0.0492 -0.1077
 1071TIP3    H1 3219   0.293   5.279   3.119 -1.8706 -0.7049  0.0812
 1071TIP3    H2 3220   0.238   5.179   3.021  1.2596 -1.1957 -1.2747
 1072TIP3   OH2 3221   2.141   5.352   0.140 -0.2362 -0.3853  0.1008
 1072TIP3    H1 3222   2.117   5.392   0.057 -1.5131 -0.6489  0.3072
 1072TIP3    H2 3223   2.184   5.270   0.116 -0.9128 -0.6291 -0.3123
 1073TIP3   OH2 3224   4.197   2.476   4.027 -0.0386 -0.0392 -0.2106
 1073TIP3    H1 3225   4.128   2.459   3.962  0.6016 -0.4938 -0.7866
 1073TIP3    H2 3226   4.266   2.414   4.005  1.1254  1.3006 -0.4830
 1074TIP3   OH2 3227   1.733   4.889   3.483  0.1563 -0.0626 -0.3841
 1074TIP3    H1 3228   1.758   4.953   3.549 -0.7923  0.3645 -0.4186
 1074TIP3    H2 3229   1.798   4.899   3.414  0.1383  0.7347 -0.2934
 1075TIP3   OH2 3230   3.774   4.919   0.817 -0.2557 -0.7355  0.3992
 1075TIP3    H1 3231   3.740   4.989   0.761 -0.0166 -0.8717  0.0852
 1075TIP3    H2 3232   3.737   4.939   0.904  1.8236  1.2659  0.9185
 1076TIP3   OH2 3233   2.556   4.310   3.202  0.1501 -0.0508 -0.6077
 1076TIP3    H1 3234   2.499   4.247   3.157  2.8430 -2.2674 -1.2081
 1076TIP3    H2 3235   2.538   4.297   3.295 -0.1461 -0.9246 -0.7787
 1077TIP3   OH2 3236   4.734   4.772   1.209  0.1593 -0.2777  0.0891
 1077TIP3    H1 3237   4.711   4.700   1.268  3.8182  0.0700  2.2290
 1077TIP3    H2 3238   4.668   4.839   1.227  0.2064 -0.8247  2.6655
 1078TIP3   OH2 3239   4.241   1.741   3.875 -0.0338 -0.4396  0.2315
 1078TIP3    H1 3240   4.336   1.747   3.878 -0.0878  0.0622  1.6439
 1078TIP3    H2 3241   4.211   1.791   3.951 -1.5196  0.9739 -1.2128
 1079TIP3   OH2 3242   2.427   3.423   1.994 -0.0667  0.3499 -0.0000
 1079TIP3    H1 3243   2.421   3.519   2.000  0.8335  0.4511 -0.5345
 1079TIP3    H2 3244   2.514   3.402   2.027  0.5112 -0.0847 -1.7051
 1080TIP3   OH2 3245   5.447   1.492   4.450  0.2497 -0.2150  0.6097
 1080TIP3    H1 3246   5.402   1.501   4.534  0.1421 -0.9577  0.6374
 1080TIP3    H2 3247   5.538   1.514   4.469  0.1376  0.0636  0.8239
 1081TIP3   OH2 3248   2.717   1.832   0.993 -0.6295  0.6157  0.6835
 1081TIP3    H1 3249   2.635   1.861   1.033 -1.4192  0.9930 -1.1313
 1081TIP3    H2 3250   2.690   1.765   0.930  0.3504  1.2518 -0.4450
 1082TIP3   OH2 3251   5.865   1.629   4.155  1.1331  0.3031 -0.0147
 1082TIP3    H1 3252   5.876   1.724   4.154  1.7155  0.2497 -2.1450
 1082TIP3    H2 3253   5.792   1.613   4.096  0.0657 -0.5189  1.4643
 1083TIP3   OH2 3254   5.193   0.845   3.392  0.0835 -0.2738 -0.0472
 1083TIP3    H1 3255   5.249   0.847   3.314 -0.7445  2.5017 -0.6925
 1083TIP3    H2 3256   5.238   0.899   3.456  0.1427 -1.5165  1.0121
 1084TIP3   OH2 3257   1.082   0.562   3.246  0.3771  0.2105 -0.2438
 1084TIP3    H1 3258   1.003   0.587   3.294 -0.6479  0.3434 -1.9157
 1084TIP3    H2 3259   1.150   0.620   3.279 -0.7500  1.6303 -0.3152
 1085TIP3   OH2 3260   3.670   0.577   0.973  0.0380 -0.6075  0.0123
 1085TIP3    H1 3261   3.732   0.521   1.019  1.1398 -0.5451 -1.3277
 1085TIP3    H2 3262   3.638   0.523   0.901  0.0602  0.0167 -0.4743
 1086TIP3   OH2 3263   4.553   0.787   1.718  0.8753  0.4874  0.7357
 1086TIP3    H1 3264   4.487   0.727   1.683 -0.4679  2.1508  0.2716
 1086TIP3    H2 3265   4.527   0.803   1.808  2.6007 -1.4033  1.6619
 1087TIP3   OH2 3266   5.883   5.114   1.429  0.5374  0.4244 -0.5277
 1087TIP3    H1 3267   5.814   5.132   1.493  1.0656 -0.6970  0.3946
 1087TIP3    H2 3268   5.839   5.118   1.344 -0.9416 -1.3850  0.0862
 1088TIP3   OH2 3269   0.213   0.562   1.615 -0.0640 -0.1566 -0.3642
 1088TIP3    H1 3270   0.196   0.643   1.568  0.8881  1.1667  1.4402
 1088TIP3    H2 3271   0.128   0.519   1.622 -0.5562  0.6055 -1.4581
 1089TIP3   OH2 3272   1.020   0.381   4.189  0.0003  0.0473 -0.0068
 1089TIP3    H1 3273   1.015   0.296   4.145 -0.4108 -1.9845  3.5891
 1089TIP3    H2 3274   1.029   0.444   4.118 -1.0957 -2.8358 -2.9606
 1090TIP3   OH2 3275   1.519   2.087   0.664 -0.0961 -0.2397 -0.0964
 1090TIP3    H1 3276   1.556   2.166   0.623  0.2941  0.1396  0.9391
 1090TIP3    H2 3277   1.521   2.106   0.757  0.0595 -1.5126  0.1762
 1091TIP3   OH2 3278   2.578   0.946   4.252  0.0407 -0.3759 -0.0880
 1091TIP3    H1 3279   2.612   0.869   4.299 -0.0221  0.9286  2.2825
 1091TIP3    H2 3280   2.643   1.015   4.270 -0.6503  0.5152 -0.9216
 1092TIP3   OH2 3281   3.442   3.762   2.504  0.2382  0.0764  0.8522
 1092TIP3    H1 3282   3.504   3.805   2.563 -0.3393 -0.7522  2.0774
 1092TIP3    H2 3283   3.395   3.699   2.558 -0.9654 -0.0547 -0.2831
 1093TIP3   OH2 3284   3.273   2.130   1.325 -0.0618  0.3230  0.9231
 1093TIP3    H1 3285   3.202   2.077   1.286 -1.1454  1.5908  1.0947
 1093TIP3    H2 3286   3.343   2.126   1.260  0.6253 -2.7036  1.6672
 1094TIP3   OH2 3287   0.561   3.865   1.848  0.6635  0.1576  0.1677
 1094TIP3    H1 3288   0.611   3.814   1.911 -1.1595 -1.5394  0.3658
 1094TIP3    H2 3289   0.601   3.846   1.764  2.2232  1.3059  0.6082
 1095TIP3   OH2 3290   1.358   4.748   0.776  0.5880 -0.0140  0.9788
 1095TIP3    H1 3291   1.441   4.758   0.729  2.0055 -0.2666  3.2331
 1095TIP3    H2 3292   1.323   4.837   0.783 -0.2171 -0.0755 -1.3365
 1096TIP3   OH2 3293   5.131   5.363   2.975  0.2905 -0.4889  0.0925
 1096TIP3    H1 3294   5.215   5.399   2.946 -1.0612  2.1111 -0.9411
 1096TIP3    H2 3295   5.067   5.398   2.912 -1.9801  0.1971  2.5994
 1097TIP3   OH2 3296   0.799   4.547   2.200 -0.0518 -0.1407 -0.6443
 1097TIP3    H1 3297   0.857   4.482   2.240 -0.6601  0.1324  0.7185
 1097TIP3    H2 3298   0.831   4.555   2.110  1.5931 -0.4952 -0.1259
 1098TIP3   OH2 3299   5.859   3.926   0.113  0.2613  0.7780 -0.2971
 1098TIP3    H1 3300   5.821   3.952   0.197 -0.4537  3.5766 -1.3812
 1098TIP3    H2 3301   5.784   3.900   0.060  0.3743  1.6467 -0.9048
 1099TIP3   OH2 3302   0.866   3.596   1.791  0.3173 -0.1015 -0.2574
 1099TIP3    H1 3303   0.949   3.634   1.763 -0.0092  0.2046 -0.8251
 1099TIP3    H2 3304   0.828   3.559   1.711 -0.6104  0.7621 -0.2389
 1100TIP3   OH2 3305   1.539   1.566   0.779 -0.2809  0.5885  0.1133
 1100TIP3    H1 3306   1.464   1.575   0.720 -0.7132  3.6374  0.9514
 1100TIP3    H2 3307   1.505   1.515   0.853 -1.0485  0.5490 -0.2559
 1101TIP3   OH2 3308   5.078   4.659   0.099  0.3815 -0.4556 -0.1213
 1101TIP3    H1 3309   5.071   4.566   0.122  1.4340 -0.3444  0.7332
 1101TIP3    H2 3310   5.032   4.705   0.169 -0.2375 -0.3332 -0.6038
 1102TIP3   OH2 3311   4.634   1.001   0.573 -0.2701 -0.3043 -0.8346
 1102TIP3    H1 3312   4.618   1.074   0.633 -1.0471 -0.2288 -1.1242
 1102TIP3    H2 3313   4.585   1.023   0.494  0.2771 -0.6803 -1.2929
 1103TIP3   OH2 3314   4.574   1.806   2.151 -0.2669  0.5415 -0.0452
 1103TIP3    H1 3315   4.514   1.865   2.195 -0.4624 -0.6448  1.3526
 1103TIP3    H2 3316   4.656   1.855   2.146 -1.2845  2.1940 -2.0197
 1104TIP3   OH2 3317   3.874   5.885   2.052 -0.5057  1.1793 -0.1742
 1104TIP3    H1 3318   3.840   5.928   2.131  1.8453  0.2149  1.4729
 1104TIP3    H2 3319   3.852   5.793   2.065 -0.4717  1.0709 -0.8810
 1105TIP3   OH2 3320   0.737   5.618   1.306 -0.3380  0.4269  0.1131
 1105TIP3    H1 3321   0.761   5.702   1.345 -1.0245  1.0495 -0.7660
 1105TIP3    H2 3322   0.754   5.554   1.375  1.0112  1.1734  0.5027
 1106TIP3   OH2 3323   5.932   3.968   2.032  0.6290  0.1283  0.4510
 1106TIP3    H1 3324   5.867   3.932   2.092 -0.1030  0.8119  0.0760
 1106TIP3    H2 3325   6.016   3.939   2.068  0.2100  0.5715  1.8238
 1107TIP3   OH2 3326   2.861   4.139   1.804 -0.5381  0.8620 -0.1432
 1107TIP3    H1 3327   2.913   4.090   1.868 -1.5415  0.8225  0.6663
 1107TIP3    H2 3328   2.921   4.206   1.770  0.9334 -1.0212 -1.4369
 1108TIP3   OH2 3329   0.744   0.395   4.283 -0.2028 -0.6511 -0.5414
 1108TIP3    H1 3330   0.838   0.386   4.268 -0.0345 -0.8348  0.5253
 1108TIP3    H2 3331   0.703   0.335   4.220  0.1521  2.1251 -3.6676
 1109TIP3   OH2 3332   1.048   1.519   0.737  0.3228  0.3165 -0.0716
 1109TIP3    H1 3333   1.035   1.609   0.708  1.5844  1.1709  1.8587
 1109TIP3    H2 3334   1.134   1.518   0.779  0.7317 -2.0107 -0.7855
 1110TIP3   OH2 3335   0.570   5.268   3.931  0.3438  0.5748  0.2446
 1110TIP3    H1 3336   0.477   5.271   3.951 -0.1772  2.7901 -2.0067
 1110TIP3    H2 3337   0.581   5.190   3.876 -0.1208  0.1992  0.6810
 1111TIP3   OH2 3338   0.906   2.740   0.584 -0.1688 -0.2770  0.8639
 1111TIP3    H1 3339   0.904   2.783   0.498  3.3706 -0.0644  0.7258
 1111TIP3    H2 3340   0.816   2.744   0.615 -1.3052  0.9295 -2.2059
 1112TIP3   OH2 3341   3.388   5.986   4.810 -0.6753 -0.0087 -0.2633
 1112TIP3    H1 3342   3.332   5.908   4.815  0.6396 -0.9189  1.6761
 1112TIP3    H2 3343   3.332   6.058   4.839 -1.2753 -0.6458  0.2032
 1113TIP3   OH2 3344   4.827   1.394   2.483 -0.3291  0.3408  0.2928
 1113TIP3    H1 3345   4.799   1.323   2.425 -1.0193 -1.3408  2.5243
 1113TIP3    H2 3346   4.771   1.468   2.459 -1.6214 -0.7524 -0.2185
 1114TIP3   OH2 3347   4.230   0.327   4.127  0.6099  0.0558 -0.5555
 1114TIP3    H1 3348   4.317   0.310   4.164  0.2803 -0.0825  0.1572
 1114TIP3    H2 3349   4.189   0.387   4.189 -0.0336 -0.3636 -0.5722
 1115TIP3   OH2 3350   4.408   3.047   5.151 -0.4949 -0.0267  0.0838
 1115TIP3    H1 3351   4.320   3.068   5.119 -0.3431 -0.4815 -0.6472
 1115TIP3    H2 3352   4.394   2.991   5.227 -0.8400  0.3283  0.2875
 1116TIP3   OH2 3353   5.920   2.918   3.506  0.0909  0.1169 -0.2931
 1116TIP3    H1 3354   5.948   2.936   3.416 -1.2450 -2.7754 -1.4233
 1116TIP3    H2 3355   5.991   2.952   3.560  0.7314  2.3932 -2.3605
 1117TIP3   OH2 3356   2.173   3.467   1.354 -0.1021 -0.2116 -0.9382
 1117TIP3    H1 3357   2.129   3.385   1.333 -1.1068  0.2354 -0.6024
 1117TIP3    H2 3358   2.195   3.505   1.269 -2.3425  0.6109 -1.2157
 1118TIP3   OH2 3359   1.598   4.756   0.613  0.0151  0.3148  0.0055
 1118TIP3    H1 3360   1.677   4.809   0.601 -0.5215  0.9533 -0.8199
 1118TIP3    H2 3361   1.556   4.757   0.527 -0.3602 -0.9001  0.1602
 1119TIP3   OH2 3362   6.065   2.289   2.699  0.0349  0.6165  0.0203
 1119TIP3    H1 3363   5.971   2.272   2.687  0.3703 -0.6746 -0.9618
 1119TIP3    H2 3364   6.087   2.351   2.630 -0.0008  0.5746 -0.0288
 1120TIP3   OH2 3365   3.337   4.958   0.709  0.4492  0.4945  0.7814
 1120TIP3    H1 3366   3.257   4.932   0.663  2.4891 -1.6920 -1.8993
 1120TIP3    H2 3367   3.345   5.052   0.693 -0.3118  0.2744 -1.0969
 1121TIP3   OH2 3368   4.988   4.761   3.283 -0.3910 -0.3666  0.4913
 1121TIP3    H1 3369   5.010   4.690   3.343 -1.6124 -1.5472 -0.4180
 1121TIP3    H2 3370   4.904   4.794   3.314 -1.2282 -1.2450 -0.7600
 1122TIP3   OH2 3371   5.476   3.047   2.670 -0.2294 -0.7839 -1.1070
 1122TIP3    H1 3372   5.516   3.131   2.689  0.9660 -0.7894 -3.2872
 1122TIP3    H2 3373   5.542   2.982   2.694 -0.9549 -1.0975  0.1047
 1123TIP3   OH2 3374   2.159   1.728   0.271 -0.0978 -0.1226 -0.5439
 1123TIP3    H1 3375   2.221   1.690   0.210 -0.7349 -0.8534 -0.7480
 1123TIP3    H2 3376   2.184   1.820   0.276  1.0916 -0.4405 -0.4917
 1124TIP3   OH2 3377   4.549   1.881   3.445  0.5177 -0.2994  0.4384
 1124TIP3    H1 3378   4.637   1.916   3.459 -0.4148  2.4645 -0.0536
 1124TIP3    H2 3379   4.533   1.889   3.351 -0.1708 -1.1001  0.4642
 1125TIP3   OH2 3380   4.459   3.666   1.363  0.4654 -0.3383  0.4734
 1125TIP3    H1 3381   4.404   3.622   1.299  0.2101 -1.3529  1.3708
 1125TIP3    H2 3382   4.528   3.603   1.382  0.4241 -0.1244  1.3423
 1126TIP3   OH2 3383   5.909   1.125   3.136  0.3664  0.1498 -0.0915
 1126TIP3    H1 3384   5.859   1.081   3.205  0.7925 -1.1786 -0.6056
 1126TIP3    H2 3385   5.958   1.193   3.182  0.0844 -0.2397  0.8068
 1127TIP3   OH2 3386   0.096   0.311   4.902 -0.1602  0.2028 -0.1241
 1127TIP3    H1 3387   0.187   0.282   4.896  0.1749  1.1575  0.1341
 1127TIP3    H2 3388   0.063   0.272   4.983 -0.4551 -1.3645 -0.9550
 1128TIP3   OH2 3389   1.372   0.716   0.724 -0.0824  0.1263  0.1408
 1128TIP3    H1 3390   1.454   0.747   0.684  0.5338 -1.1447  0.3803
 1128TIP3    H2 3391   1.347   0.787   0.784  2.7772 -0.8396  2.7846
 1129TIP3   OH2 3392   5.721   4.440   0.358 -0.2969 -0.0799 -0.1641
 1129TIP3    H1 3393   5.745   4.464   0.448 -0.5622 -0.2141 -0.0564
 1129TIP3    H2 3394   5.735   4.520   0.308  0.5552 -0.2015 -0.1423
 1130TIP3   OH2 3395   4.541   4.362   3.703  0.1712  0.5217 -0.0213
 1130TIP3    H1 3396   4.513   4.274   3.730 -0.2176  1.2214  1.9825
 1130TIP3    H2 3397   4.480   4.421   3.747  0.8722  1.8411 -0.7612
 1131TIP3   OH2 3398   0.871   4.670   1.054 -0.8495 -0.2100 -0.3440
 1131TIP3    H1 3399   0.880   4.581   1.089 -0.9519  0.4332  1.4556
 1131TIP3    H2 3400   0.959   4.694   1.026 -0.3248 -0.0808  1.3039
 1132TIP3   OH2 3401   5.094   0.545   4.371 -0.1382 -0.1651 -0.0831
 1132TIP3    H1 3402   5.040   0.516   4.298 -0.2820 -0.9601  0.3358
 1132TIP3    H2 3403   5.110   0.638   4.353 -3.6040  0.7821  0.9809
 1133TIP3   OH2 3404   5.178   0.450   1.444  0.4300  0.3096 -0.0822
 1133TIP3    H1 3405   5.183   0.404   1.361 -0.0623  0.6385 -0.2996
 1133TIP3    H2 3406   5.104   0.510   1.434  0.9655  1.0481  0.2374
 1134TIP3   OH2 3407   4.525   1.860   1.230 -0.1007 -0.6601 -0.6433
 1134TIP3    H1 3408   4.560   1.946   1.252 -1.0020 -0.3755 -0.2834
 1134TIP3    H2 3409   4.590   1.822   1.170  0.0709  0.4449 -1.1711
 1135TIP3   OH2 3410   2.121   3.287   0.677 -0.2886 -0.1877 -0.3856
 1135TIP3    H1 3411   2.187   3.349   0.645 -0.1938 -0.4815 -0.7603
 1135TIP3    H2 3412   2.172   3.219   0.721 -0.4648  0.9376  1.7448
 1136TIP3   OH2 3413   5.977   2.788   1.806 -0.0622 -0.0721  0.0668
 1136TIP3    H1 3414   6.046   2.784   1.872  0.1554  0.9668 -0.0892
 1136TIP3    H2 3415   5.906   2.838   1.847 -0.4604 -0.5568 -0.0164
 1137TIP3   OH2 3416   3.751   4.142   0.943 -0.3792 -0.1541  0.7684
 1137TIP3    H1 3417   3.828   4.190   0.913  0.0480 -1.7065 -0.7981
 1137TIP3    H2 3418   3.787   4.067   0.992 -1.0260  1.0201  3.2005
 1138TIP3   OH2 3419   1.239   3.594   0.628 -0.1336 -0.3822 -0.2147
 1138TIP3    H1 3420   1.199   3.678   0.606  0.9771  0.0996 -0.4245
 1138TIP3    H2 3421   1.191   3.564   0.706 -0.3329  0.5810  0.0409
 1139TIP3   OH2 3422   1.581   0.607   3.347  0.0658 -0.2154  0.4773
 1139TIP3    H1 3423   1.645   0.674   3.372 -1.7445  1.9001 -0.2400
 1139TIP3    H2 3424   1.498   0.654   3.342 -1.6663 -2.8980  1.6397
 1140TIP3   OH2 3425   0.775   4.857   3.480  0.4119  0.1355  0.0213
 1140TIP3    H1 3426   0.788   4.809   3.398  2.8479  0.6778  0.0070
 1140TIP3    H2 3427   0.784   4.790   3.548  0.4449  0.0068 -0.1089
 1141TIP3   OH2 3428   3.906   2.816   0.094  0.6879 -0.1227  0.4441
 1141TIP3    H1 3429   3.822   2.785   0.127 -0.7195  0.4895 -2.2794
 1141TIP3    H2 3430   3.918   2.901   0.135 -0.5229  0.2079  0.1578
 1142TIP3   OH2 3431   6.066   0.791   3.465 -0.0882 -0.1235  0.6823
 1142TIP3    H1 3432   6.015   0.873   3.466  0.6268  0.3312  0.4211
 1142TIP3    H2 3433   6.014   0.731   3.518 -0.4394  0.6159  1.2061
 1143TIP3   OH2 3434   6.142   2.121   4.224 -0.6154  0.3012 -0.0549
 1143TIP3    H1 3435   6.173   2.123   4.133  3.5046  0.2054  1.1569
 1143TIP3    H2 3436   6.111   2.031   4.237 -2.0072  0.5264 -1.4869
 1144TIP3   OH2 3437   5.122   3.065   3.667 -0.0133 -0.1713  0.1106
 1144TIP3    H1 3438   5.101   3.002   3.736  3.5956 -0.4905  1.1045
 1144TIP3    H2 3439   5.169   3.014   3.601 -1.9501  0.4732 -1.8916
 1145TIP3   OH2 3440   0.866   0.130   0.668  0.4308  0.2424 -0.2501
 1145TIP3    H1 3441   0.959   0.126   0.643  0.6979  0.9869  0.5733
 1145TIP3    H2 3442   0.827   0.191   0.606  0.5186  0.0238 -0.5205
 1146TIP3   OH2 3443   3.559   0.182   0.894 -0.2222  0.3478 -0.2175
 1146TIP3    H1 3444   3.545   0.089   0.913 -2.3769  0.8862  1.2711
 1146TIP3    H2 3445   3.470   0.219   0.890  0.5050  2.1175 -2.2188
 1147TIP3   OH2 3446   3.037   1.151   3.260  0.3684 -0.2775  0.7331
 1147TIP3    H1 3447   3.060   1.092   3.332  0.8234 -2.3099 -1.0009
 1147TIP3    H2 3448   3.120   1.193   3.237  0.3232 -0.0225  1.0195
 1148TIP3   OH2 3449   5.616   5.710   4.188  0.2249 -0.6752 -0.1547
 1148TIP3    H1 3450   5.552   5.781   4.191 -1.0851 -1.8322  0.1233
 1148TIP3    H2 3451   5.568   5.633   4.217  0.9890 -2.1579 -2.5366
 1149TIP3   OH2 3452   1.564   3.183   5.165 -0.1542 -0.0531 -0.3203
 1149TIP3    H1 3453   1.528   3.156   5.249  0.4925  0.0956  0.0124
 1149TIP3    H2 3454   1.502   3.149   5.100 -1.0399  0.4555  0.2417
 1150TIP3   OH2 3455   5.756   3.654   4.693  0.4920  0.1609  0.0430
 1150TIP3    H1 3456   5.692   3.687   4.630  1.0485 -0.8439 -1.0975
 1150TIP3    H2 3457   5.805   3.587   4.644 -0.7142 -2.5349  2.2441
 1151TIP3   OH2 3458   2.559   0.732   2.253 -0.4360  0.4976  0.1684
 1151TIP3    H1 3459   2.635   0.707   2.306  0.3360  2.4421  0.0746
 1151TIP3    H2 3460   2.541   0.655   2.199 -0.1945 -0.9344  2.0227
 1152TIP3   OH2 3461   2.584   1.108   0.799  0.4628 -0.0019  0.0422
 1152TIP3    H1 3462   2.565   1.158   0.878  0.8877  0.8662 -0.3887
 1152TIP3    H2 3463   2.537   1.154   0.729 -1.9469 -2.1422  0.1040
 1153TIP3   OH2 3464   6.350   0.052   1.438 -0.4598 -0.1526 -0.2323
 1153TIP3    H1 3465   6.315  -0.009   1.373 -0.3919 -1.4886  0.9469
 1153TIP3    H2 3466   6.282   0.057   1.505 -0.4016  0.9745 -0.2363
 1154TIP3   OH2 3467   1.744   3.210   3.915  0.1575  0.1219 -0.4232
 1154TIP3    H1 3468   1.813   3.275   3.927  0.3641 -0.0882 -0.4856
 1154TIP3    H2 3469   1.752   3.182   3.824  0.7032 -0.7199 -0.1233
 1155TIP3   OH2 3470   2.962   3.151   4.050  0.3255 -0.0777  0.3327
 1155TIP3    H1 3471   3.010   3.233   4.061 -0.7066  0.3993  1.5828
 1155TIP3    H2 3472   2.994   3.095   4.120  0.0690 -0.2622  0.3042
 1156TIP3   OH2 3473   1.705   3.551   4.064 -0.1916  0.1628  0.0725
 1156TIP3    H1 3474   1.666   3.505   3.990 -0.2506  3.0006 -1.8381
 1156TIP3    H2 3475   1.797   3.562   4.039 -0.2452  1.2861  0.3150
 1157TIP3   OH2 3476   3.904   1.115   3.165 -0.4623 -0.2740  0.8050
 1157TIP3    H1 3477   3.998   1.134   3.167 -0.6673  1.0598 -0.1953
 1157TIP3    H2 3478   3.870   1.152   3.246 -0.0475 -1.3616  1.4944
 1158TIP3   OH2 3479   0.271   0.912   3.687 -0.1495 -0.2897  0.0026
 1158TIP3    H1 3480   0.331   0.985   3.702 -0.6788  0.1565  0.0125
 1158TIP3    H2 3481   0.327   0.835   3.680  0.4796  0.2231 -0.7482
 1159TIP3   OH2 3482   3.561   2.686   0.523  0.4108 -0.5219  0.4144
 1159TIP3    H1 3483   3.474   2.649   0.512  0.2561 -0.3853  1.1484
 1159TIP3    H2 3484   3.621   2.613   0.507  0.0971 -1.3830  2.8131
 1160TIP3   OH2 3485   2.355   5.501   2.898  0.5666 -0.2316  0.2229
 1160TIP3    H1 3486   2.424   5.516   2.833  0.3719  0.4237  0.1510
 1160TIP3    H2 3487   2.286   5.456   2.849  1.0464 -1.1218  0.3602
 1161TIP3   OH2 3488   3.903   1.686   4.596 -0.1967  0.3106 -0.5120
 1161TIP3    H1 3489   3.926   1.744   4.669 -0.0537 -1.8465  1.2507
 1161TIP3    H2 3490   3.870   1.606   4.637 -3.3406  0.1798 -2.8364
 1162TIP3   OH2 3491   0.304   5.411   5.182  0.5039  0.6736  0.6024
 1162TIP3    H1 3492   0.387   5.457   5.195 -0.1793  1.8760  0.9488
 1162TIP3    H2 3493   0.262   5.459   5.110  1.0625 -1.3428 -1.1650
 1163TIP3   OH2 3494   5.179   1.880   5.116 -0.5906  0.3985  0.2301
 1163TIP3    H1 3495   5.177   1.943   5.045  0.8792 -0.1850 -0.3805
 1163TIP3    H2 3496   5.088   1.855   5.129 -0.8622  0.1369 -1.8100
 1164TIP3   OH2 3497   5.315   5.081   4.689  0.5999 -0.0820  0.1860
 1164TIP3    H1 3498   5.357   5.056   4.771  0.8434  0.5954  0.2714
 1164TIP3    H2 3499   5.224   5.053   4.699  0.0340  2.0769  1.6516
 1165TIP3   OH2 3500   5.649   2.057   1.199 -0.0217  0.5197  0.0318
 1165TIP3    H1 3501   5.667   2.138   1.246  3.1711 -1.1158  1.9393
 1165TIP3    H2 3502   5.615   2.085   1.114 -3.3507  3.6767  2.1296
 1166TIP3   OH2 3503   1.078   2.452   2.619  0.2410  0.3314  0.6423
 1166TIP3    H1 3504   1.088   2.411   2.705 -1.4507  1.7159  1.5634
 1166TIP3    H2 3505   1.095   2.545   2.634  2.0771  0.3270 -1.0022
 1167TIP3   OH2 3506   4.919   0.156   0.083 -0.2455  0.4110 -0.4578
 1167TIP3    H1 3507   4.902   0.062   0.086  1.8112 -0.0638 -1.9225
 1167TIP3    H2 3508   4.859   0.193   0.148 -1.1578 -1.8821  0.0963
 1168TIP3   OH2 3509   5.374   2.145   4.749 -0.3367  0.6039  0.3015
 1168TIP3    H1 3510   5.338   2.217   4.697 -0.8510 -0.2318 -0.5317
 1168TIP3    H2 3511   5.370   2.069   4.691  0.2014 -0.1039  1.1596
 1169TIP3   OH2 3512   1.856   2.944   3.661 -0.1480  0.5396 -0.2940
 1169TIP3    H1 3513   1.797   2.869   3.661 -0.0038  0.4255 -0.2406
 1169TIP3    H2 3514   1.943   2.906   3.672 -0.1956  0.8067  1.2171
 1170TIP3   OH2 3515   1.704   5.146   1.414  0.7076 -0.2440  0.6814
 1170TIP3    H1 3516   1.689   5.186   1.500  0.7903 -1.0552  1.0773
 1170TIP3    H2 3517   1.771   5.080   1.430 -0.3718 -1.4690  0.3136
 1171TIP3   OH2 3518   5.983   4.354   3.406  0.2344 -0.1432 -0.1734
 1171TIP3    H1 3519   5.965   4.301   3.328  0.6900  0.0833 -0.4334
 1171TIP3    H2 3520   5.913   4.420   3.407  0.1200 -0.2622 -0.2860
 1172TIP3   OH2 3521   0.771   1.883   3.917 -0.4293  0.3911 -0.5025
 1172TIP3    H1 3522   0.865   1.898   3.921 -0.5455  0.9480  1.3077
 1172TIP3    H2 3523   0.760   1.811   3.855  1.4591 -1.5649  1.2723
 1173TIP3   OH2 3524   3.097   1.973   1.191  0.0632 -0.2254  0.5297
 1173TIP3    H1 3525   3.049   1.969   1.107  0.8034 -1.7719  0.1365
 1173TIP3    H2 3526   3.029   1.963   1.257 -0.3841 -0.4706  0.0469
 1174TIP3   OH2 3527   6.275   1.461   2.979  0.4051 -0.8507 -0.5496
 1174TIP3    H1 3528   6.291   1.386   2.922 -0.2950 -0.7979 -0.8175
 1174TIP3    H2 3529   6.359   1.507   2.982  0.2581 -0.4278 -2.1739
 1175TIP3   OH2 3530   4.963   4.543   3.811  0.6026  0.2298  0.0579
 1175TIP3    H1 3531   4.931   4.461   3.848  0.0189  0.3677 -0.1196
 1175TIP3    H2 3532   4.946   4.608   3.880 -0.2330  0.4384 -0.3209
 1176TIP3   OH2 3533   4.947   2.052   4.672 -0.0410  0.3826 -0.0559
 1176TIP3    H1 3534   4.913   2.130   4.717 -2.1890 -0.3175 -0.3360
 1176TIP3    H2 3535   4.977   2.084   4.587 -2.4520  0.7408 -0.8520
 1177TIP3   OH2 3536   5.322   4.552   1.565 -0.3110 -0.0892  0.2944
 1177TIP3    H1 3537   5.412   4.532   1.540 -0.6115 -0.1775 -0.7784
 1177TIP3    H2 3538   5.298   4.626   1.508 -1.3281 -0.8859 -0.3409
 1178TIP3   OH2 3539   0.742   1.372   3.273  0.3272  0.0130 -0.4162
 1178TIP3    H1 3540   0.741   1.465   3.253 -0.6022 -0.0092 -0.5238
 1178TIP3    H2 3541   0.649   1.348   3.284  0.5508 -0.8844 -0.3500
 1179TIP3   OH2 3542   2.639   1.413   5.166  0.9500 -0.2272 -0.6523
 1179TIP3    H1 3543   2.616   1.346   5.102  1.1212  0.1338 -1.0984
 1179TIP3    H2 3544   2.639   1.495   5.117 -0.1606  0.2403  0.0874
 1180TIP3   OH2 3545   0.105   5.781   2.985  0.5066 -0.1254 -0.0967
 1180TIP3    H1 3546   0.191   5.819   3.002  0.9576 -0.9572 -0.4106
 1180TIP3    H2 3547   0.112   5.747   2.895 -0.9599  1.9401 -1.0738
 1181TIP3   OH2 3548   2.626   0.822   0.750  0.2830  0.4067 -0.1592
 1181TIP3    H1 3549   2.672   0.906   0.744  1.2695 -0.0633  0.5021
 1181TIP3    H2 3550   2.536   0.842   0.726 -0.0144  2.0852  2.0621
 1182TIP3   OH2 3551   3.416   5.537   1.225 -0.3645 -0.1747  0.7825
 1182TIP3    H1 3552   3.336   5.544   1.277 -2.5851 -0.4756 -2.3274
 1182TIP3    H2 3553   3.405   5.456   1.175  1.5677  0.1507 -0.2629
 1183TIP3   OH2 3554   1.675   0.371   3.209  0.2581 -0.1804 -0.2520
 1183TIP3    H1 3555   1.648   0.361   3.118  1.1857 -0.0282 -0.5549
 1183TIP3    H2 3556   1.630   0.450   3.239  0.9173  0.4717 -0.9572
 1184TIP3   OH2 3557   2.976   1.058   2.061 -0.0683 -0.5109 -0.5095
 1184TIP3    H1 3558   2.967   1.151   2.039  0.7972 -0.1163  0.7252
 1184TIP3    H2 3559   3.008   1.018   1.980 -0.9748  0.1583 -1.2184
 1185TIP3   OH2 3560   5.657   1.351   2.485 -0.0350  0.0681  0.3189
 1185TIP3    H1 3561   5.722   1.337   2.554 -0.3880 -1.7805  0.3225
 1185TIP3    H2 3562   5.573   1.352   2.531 -0.1088  1.5268  0.2031
 1186TIP3   OH2 3563   1.155   0.282   1.300 -0.3125  0.3756 -0.4819
 1186TIP3    H1 3564   1.226   0.344   1.288 -0.4116  0.2774 -1.8203
 1186TIP3    H2 3565   1.099   0.321   1.367 -0.0444  1.4310 -0.8488
 1187TIP3   OH2 3566   0.721   3.886   0.477 -0.1998  0.0518 -0.6339
 1187TIP3    H1 3567   0.785   3.950   0.445  0.8991 -1.8276 -2.4426
 1187TIP3    H2 3568   0.683   3.849   0.398 -0.7218 -1.5850  0.3434
 1188TIP3   OH2 3569   5.213   0.576   5.174  0.2053  0.3667 -0.6353
 1188TIP3    H1 3570   5.188   0.522   5.099  0.6797 -0.1979 -0.3947
 1188TIP3    H2 3571   5.308   0.583   5.167  0.1999  0.7293 -0.3600
 1189TIP3   OH2 3572   3.468   4.010   2.369  0.1341  0.1993  0.2295
 1189TIP3    H1 3573   3.445   3.923   2.402 -1.3565  1.0166  1.4823
 1189TIP3    H2 3574   3.561   4.005   2.349 -0.0458 -1.8603 -0.3338
 1190TIP3   OH2 3575   5.541   0.877   1.813  0.0801 -0.1966 -0.3739
 1190TIP3    H1 3576   5.452   0.900   1.840  0.2922  0.3067 -0.1078
 1190TIP3    H2 3577   5.551   0.919   1.727  0.5161  0.8263  0.1735
 1191TIP3   OH2 3578   1.119   2.912   4.089 -0.2787  0.3761  0.2641
 1191TIP3    H1 3579   1.189   2.960   4.045  0.4786 -0.1703  0.8219
 1191TIP3    H2 3580   1.129   2.935   4.182  1.0687 -1.9118  0.7893
 1192TIP3   OH2 3581   5.267   4.783   2.517  0.2703  0.3776 -0.0758
 1192TIP3    H1 3582   5.244   4.720   2.449  0.1984  0.6481 -0.3025
 1192TIP3    H2 3583   5.224   4.749   2.596  0.1732  0.1813 -0.2122
 1193TIP3   OH2 3584   3.671   4.793   0.131  0.2999 -0.3179  0.2066
 1193TIP3    H1 3585   3.615   4.730   0.175  1.4696 -0.7831  1.1017
 1193TIP3    H2 3586   3.737   4.817   0.197  1.6071 -0.3784 -1.0132
 1194TIP3   OH2 3587   5.170   2.478   3.110 -0.1513  0.1596  0.4034
 1194TIP3    H1 3588   5.087   2.522   3.089  0.2035  0.4875 -0.3317
 1194TIP3    H2 3589   5.194   2.514   3.196  0.1000  1.3760 -0.1544
 1195TIP3   OH2 3590   1.255   2.192   2.953 -0.2192  0.2666 -0.3425
 1195TIP3    H1 3591   1.278   2.150   2.870  2.2940 -2.9470  1.7551
 1195TIP3    H2 3592   1.338   2.223   2.989 -1.1451  1.0493  1.2482
 1196TIP3   OH2 3593   4.326   2.408   2.222 -0.3461 -0.0936 -0.3655
 1196TIP3    H1 3594   4.258   2.363   2.172 -2.0721  2.1069 -0.2062
 1196TIP3    H2 3595   4.377   2.456   2.157 -0.0159 -0.4017 -0.3377
 1197TIP3   OH2 3596   1.829   1.873   3.184 -0.1548 -0.2835 -0.2021
 1197TIP3    H1 3597   1.738   1.893   3.166 -0.7185 -2.1704  0.3774
 1197TIP3    H2 3598   1.858   1.944   3.242 -0.5889  1.4794 -2.0076
 1198TIP3   OH2 3599   4.526   1.555   2.339  0.3314  0.2472  0.3027
 1198TIP3    H1 3600   4.430   1.546   2.339  0.3025  0.2227  1.9268
 1198TIP3    H2 3601   4.558   1.471   2.307 -0.1950  0.0599  0.2549
 1199TIP3   OH2 3602   0.000   0.795   4.949  0.0633  0.1754  0.1509
 1199TIP3    H1 3603   0.004   0.829   4.860 -0.0262  0.4233  0.2415
 1199TIP3    H2 3604   0.082   0.746   4.959 -0.4647 -0.8684 -0.4752
 1200TIP3   OH2 3605   1.886   1.263   3.652  0.1697  0.3717 -0.3382
 1200TIP3    H1 3606   1.904   1.341   3.600  1.3778  0.0350 -0.4644
 1200TIP3    H2 3607   1.936   1.276   3.733  1.5337 -0.8749 -0.9447
 1201TIP3   OH2 3608   2.405   0.016   4.936  0.3873  0.0605 -0.2490
 1201TIP3    H1 3609   2.458   0.074   4.991  1.2846  0.0261 -1.0435
 1201TIP3    H2 3610   2.347   0.075   4.888  1.2158  0.3133 -0.9669
 1202TIP3   OH2 3611   0.369   1.659   1.271 -0.4449 -0.4719  0.0121
 1202TIP3    H1 3612   0.296   1.623   1.322  0.3958 -0.1687  1.5136
 1202TIP3    H2 3613   0.438   1.671   1.336  0.6274  0.1062 -1.2111
 1203TIP3   OH2 3614   5.676   3.709   3.751 -0.0991  0.3570 -0.2284
 1203TIP3    H1 3615   5.605   3.660   3.792  0.5487  0.4953  1.1253
 1203TIP3    H2 3616   5.656   3.801   3.767 -0.3516  0.4726 -1.1347
 1204TIP3   OH2 3617   1.788   2.422   0.762  0.0701  0.0712  0.1139
 1204TIP3    H1 3618   1.858   2.366   0.727  0.3350  0.6345 -0.2752
 1204TIP3    H2 3619   1.796   2.504   0.713  0.2032  0.7423  1.2206
 1205TIP3   OH2 3620   3.042   2.437   0.121  0.2120  0.0512 -0.1153
 1205TIP3    H1 3621   2.961   2.411   0.077  1.0041 -1.3110 -0.8254
 1205TIP3    H2 3622   3.065   2.521   0.081  0.0623 -0.3961 -1.1991
 1206TIP3   OH2 3623   2.852   5.932   3.915  0.3993  0.0137  0.6869
 1206TIP3    H1 3624   2.880   5.995   3.848  4.0568 -1.1811  0.8630
 1206TIP3    H2 3625   2.846   5.848   3.868 -0.4834 -0.2337  1.2186
 1207TIP3   OH2 3626   0.212   3.679   5.103  0.3910  0.1520  0.0388
 1207TIP3    H1 3627   0.180   3.769   5.108 -0.9190 -0.3058  0.4486
 1207TIP3    H2 3628   0.211   3.658   5.010  1.3418  0.7683 -0.1206
 1208TIP3   OH2 3629   3.242   3.883   1.084 -0.1080 -0.6214  0.1016
 1208TIP3    H1 3630   3.245   3.977   1.069 -2.1235 -0.4544  0.4609
 1208TIP3    H2 3631   3.332   3.853   1.068  0.8396  1.4965  1.0238
 1209TIP3   OH2 3632   3.453   0.842   0.465  0.5427  0.2517  0.1335
 1209TIP3    H1 3633   3.469   0.752   0.493 -0.3116 -0.3561 -1.2429
 1209TIP3    H2 3634   3.398   0.834   0.388 -0.6742  2.0133  0.7493
 1210TIP3   OH2 3635   0.132   2.223   2.420 -0.5001 -0.5502 -0.2418
 1210TIP3    H1 3636   0.107   2.140   2.460 -0.7144  0.9474  3.1135
 1210TIP3    H2 3637   0.227   2.217   2.409 -0.1710 -0.5496  2.0685
 1211TIP3   OH2 3638   3.080   2.408   0.799 -0.8007  0.4790  0.0396
 1211TIP3    H1 3639   3.017   2.458   0.747  0.7244  0.8741 -1.5402
 1211TIP3    H2 3640   3.130   2.358   0.734 -0.6591 -1.2096  1.3884
 1212TIP3   OH2 3641   2.628   1.508   0.318  0.2154  0.2232 -0.1421
 1212TIP3    H1 3642   2.617   1.464   0.234 -0.7777 -2.0203  1.0917
 1212TIP3    H2 3643   2.683   1.449   0.369  0.2258  1.2097  1.0321
 1213TIP3   OH2 3644   5.600   3.608   1.742 -0.0020 -0.4411 -0.0312
 1213TIP3    H1 3645   5.517   3.630   1.699 -0.1394 -0.1465  0.3816
 1213TIP3    H2 3646   5.651   3.689   1.736  0.7840 -1.0098 -1.4822
 1214TIP3   OH2 3647   1.420   0.378   2.641  0.0854  0.0629  0.0514
 1214TIP3    H1 3648   1.421   0.471   2.620 -0.3104  0.4314  1.5495
 1214TIP3    H2 3649   1.455   0.335   2.563  1.1375  1.5301 -0.3193
 1215TIP3   OH2 3650   2.001   3.932   2.010  1.0217  0.5374  0.4715
 1215TIP3    H1 3651   2.030   3.872   1.941 -2.0674 -0.5570 -0.0651
 1215TIP3    H2 3652   2.028   3.890   2.092  0.2091 -0.8714  0.0470
 1216TIP3   OH2 3653   5.343   2.211   1.138  0.0048 -0.0471 -0.2008
 1216TIP3    H1 3654   5.346   2.297   1.095 -3.2165 -0.3268 -1.1794
 1216TIP3    H2 3655   5.384   2.151   1.075  1.2465  0.5337  0.0126
 1217TIP3   OH2 3656   6.181   4.127   3.508  0.3297  0.0853  0.5979
 1217TIP3    H1 3657   6.183   4.219   3.482  0.5884 -0.0948 -0.0373
 1217TIP3    H2 3658   6.271   4.109   3.538  0.7342 -0.3924 -0.8461
 1218TIP3   OH2 3659   2.387   1.500   3.779 -0.0194 -0.3230  0.2238
 1218TIP3    H1 3660   2.327   1.573   3.795 -1.9453 -1.9554  0.8894
 1218TIP3    H2 3661   2.363   1.467   3.693  0.3722 -0.5639  0.2055
 1219TIP3   OH2 3662   5.920   3.422   0.171  0.2961  0.5543 -0.0298
 1219TIP3    H1 3663   5.917   3.475   0.091  0.9890  0.8432  0.1270
 1219TIP3    H2 3664   5.853   3.355   0.158 -0.4188  1.3244 -0.3299
 1220TIP3   OH2 3665   1.612   2.937   1.404  0.1180  0.2167  0.0827
 1220TIP3    H1 3666   1.638   2.847   1.424  0.9049  0.5778  0.6931
 1220TIP3    H2 3667   1.559   2.928   1.324  1.8978 -0.5684 -1.0755
 1221TIP3   OH2 3668   2.895   4.373   4.342 -0.7766 -0.0980 -0.1840
 1221TIP3    H1 3669   2.819   4.360   4.285 -1.3335  1.8486  0.0361
 1221TIP3    H2 3670   2.968   4.384   4.282 -1.2158  1.0744 -0.5458
 1222TIP3   OH2 3671   2.948   0.218   3.688 -0.2154  0.8043  0.1140
 1222TIP3    H1 3672   3.028   0.244   3.734  0.2239 -0.8843  0.3358
 1222TIP3    H2 3673   2.920   0.298   3.643  0.8013  1.7964  1.1724
 1223TIP3   OH2 3674   5.995   5.415   4.645  0.2085  0.1588  0.2256
 1223TIP3    H1 3675   6.086   5.443   4.632  1.2914 -2.4967  1.3202
 1223TIP3    H2 3676   5.949   5.495   4.669  2.3739  1.5116  0.1673
 1224TIP3   OH2 3677   3.642   0.223   0.617 -0.1963  0.0586  0.2000
 1224TIP3    H1 3678   3.603   0.259   0.697 -0.6772  0.8512 -0.3636
 1224TIP3    H2 3679   3.600   0.138   0.606 -0.4098  0.1107  0.5933
 1225TIP3   OH2 3680   5.893   3.896   1.071  0.3543 -0.6291 -0.3865
 1225TIP3    H1 3681   5.884   3.946   0.991  0.5071 -0.0541 -0.0518
 1225TIP3    H2 3682   5.881   3.960   1.141  1.0163 -0.9680  0.0480
 1226TIP3   OH2 3683   2.576   1.299   3.070 -0.1166 -0.2735 -0.2217
 1226TIP3    H1 3684   2.519   1.232   3.033 -1.3973  1.6380 -1.9237
 1226TIP3    H2 3685   2.665   1.267   3.052 -0.6897 -0.6481 -2.7447
 1227TIP3   OH2 3686   2.081   4.309   1.643  0.0392 -0.0800 -0.1615
 1227TIP3    H1 3687   2.009   4.373   1.647  0.2683  0.1251  1.2088
 1227TIP3    H2 3688   2.064   4.251   1.717 -0.8794 -2.4419 -2.0865
 1228TIP3   OH2 3689   4.797   3.147   0.765  0.2313  0.3664  0.0837
 1228TIP3    H1 3690   4.781   3.077   0.702  0.4892  0.7252 -0.3816
 1228TIP3    H2 3691   4.883   3.182   0.742 -0.0106  1.0196  0.1446
 1229TIP3   OH2 3692   5.587   0.625   3.551 -0.2510  0.0023 -0.9155
 1229TIP3    H1 3693   5.665   0.602   3.602 -0.4330  3.7365  1.4254
 1229TIP3    H2 3694   5.522   0.649   3.617 -1.7050  1.7405 -2.8522
 1230TIP3   OH2 3695   5.353   2.847   0.062  0.5412 -0.1219 -0.8038
 1230TIP3    H1 3696   5.340   2.809  -0.025 -0.2349 -0.5692 -0.5055
 1230TIP3    H2 3697   5.381   2.773   0.116  0.4785  0.0364 -0.5523
 1231TIP3   OH2 3698   3.032   2.340   1.531 -0.3447 -0.2414 -0.1059
 1231TIP3    H1 3699   3.125   2.317   1.533 -0.4309 -0.6251 -0.2933
 1231TIP3    H2 3700   2.990   2.270   1.580 -0.6367 -0.6027 -0.8490
 1232TIP3   OH2 3701   4.616   0.799   1.301  0.0429  0.0174 -0.3369
 1232TIP3    H1 3702   4.680   0.744   1.255  2.1867  1.7142  0.4416
 1232TIP3    H2 3703   4.574   0.850   1.231  2.1509  1.4423 -0.6565
 1233TIP3   OH2 3704   5.957   4.371   1.154  0.0307  0.2245  0.1326
 1233TIP3    H1 3705   5.913   4.342   1.234  1.2860 -0.7138  0.5169
 1233TIP3    H2 3706   5.898   4.344   1.084 -0.4660 -0.1416  0.6768
 1234TIP3   OH2 3707   5.500   3.289   1.020  0.0665  0.3797 -0.0156
 1234TIP3    H1 3708   5.455   3.367   0.987 -0.9077 -0.4966 -0.8483
 1234TIP3    H2 3709   5.429   3.233   1.053  0.8606  0.4060  1.8532
 1235TIP3   OH2 3710   2.200   2.721   0.783 -0.1903 -0.7496  0.0902
 1235TIP3    H1 3711   2.140   2.780   0.829  0.5041  0.8836 -1.0342
 1235TIP3    H2 3712   2.273   2.710   0.844 -0.4090 -0.5834  0.3848
 1236TIP3   OH2 3713   0.516   4.107   1.618  0.9095  0.7584 -0.1001
 1236TIP3    H1 3714   0.609   4.126   1.628  1.1937 -0.8937  0.7894
 1236TIP3    H2 3715   0.509   4.013   1.635 -0.7275  0.5651 -1.5829
 1237TIP3   OH2 3716   4.893   3.466   2.816 -0.1990 -0.0472  0.0068
 1237TIP3    H1 3717   4.890   3.561   2.805  0.2789  0.4638  3.2701
 1237TIP3    H2 3718   4.804   3.442   2.841 -0.2979 -0.4814 -0.7235
 1238TIP3   OH2 3719   0.940   5.613   2.644  0.4168  0.2610  0.2730
 1238TIP3    H1 3720   0.926   5.520   2.624 -1.2485  0.5855 -0.2220
 1238TIP3    H2 3721   0.938   5.657   2.559 -2.6577  1.1594  0.6762
 1239TIP3   OH2 3722   0.703   5.741   1.060 -0.3134 -0.1948  0.5815
 1239TIP3    H1 3723   0.677   5.820   1.107 -1.3550  0.0579 -0.3629
 1239TIP3    H2 3724   0.713   5.674   1.128 -1.5613  0.2098  1.1896
 1240TIP3   OH2 3725   4.475   5.158   1.846  0.2777 -0.0517  0.2587
 1240TIP3    H1 3726   4.568   5.136   1.843  0.0023 -1.2276 -0.7212
 1240TIP3    H2 3727   4.462   5.222   1.776  0.4244  0.4832  0.7136
 1241TIP3   OH2 3728   0.853   2.013   4.803  0.0128 -0.4834 -0.2682
 1241TIP3    H1 3729   0.765   2.025   4.839  0.1288 -0.1475 -0.0927
 1241TIP3    H2 3730   0.841   1.950   4.732 -0.2153 -1.1755  0.3715
 1242TIP3   OH2 3731   0.460   2.382   4.154 -0.1110  0.3210 -0.2661
 1242TIP3    H1 3732   0.461   2.477   4.165 -0.8426  0.3695 -0.5527
 1242TIP3    H2 3733   0.548   2.354   4.179 -0.1993  0.9561  0.8319
 1243TIP3   OH2 3734   4.637   5.754   2.245 -0.5673  0.2204 -0.1269
 1243TIP3    H1 3735   4.705   5.732   2.308 -1.6743  0.8550  1.3459
 1243TIP3    H2 3736   4.665   5.836   2.206  0.5493 -0.6099 -1.1334
 1244TIP3   OH2 3737   1.049   3.864   4.124 -0.0411  0.3056  0.1863
 1244TIP3    H1 3738   0.960   3.898   4.127  0.0498  0.5073  0.6896
 1244TIP3    H2 3739   1.102   3.931   4.166  0.6235  0.9776 -1.6188
 1245TIP3   OH2 3740   2.977   0.091   5.032 -0.1405  0.4083 -0.3205
 1245TIP3    H1 3741   2.977   0.140   5.114  1.3734  1.7320 -1.0579
 1245TIP3    H2 3742   3.066   0.100   4.998 -0.8056  0.2087 -2.2805
 1246TIP3   OH2 3743   1.696   5.549   4.421  0.3915 -0.2512 -0.8938
 1246TIP3    H1 3744   1.639   5.580   4.351  0.2753 -0.2896 -0.8175
 1246TIP3    H2 3745   1.732   5.467   4.388  2.1849  0.8685 -1.8858
 1247TIP3   OH2 3746   3.509   4.600   0.236 -0.3603  0.1285 -0.4274
 1247TIP3    H1 3747   3.440   4.653   0.276 -0.1210  1.2172 -1.3956
 1247TIP3    H2 3748   3.486   4.510   0.257 -1.8411  0.5007 -0.3584
 1248TIP3   OH2 3749   5.979   1.845   4.579 -0.8778  0.4328  0.5066
 1248TIP3    H1 3750   6.042   1.803   4.638  0.3125  3.2100  1.4441
 1248TIP3    H2 3751   6.002   1.813   4.492  0.7287  0.0303  1.0343
 1249TIP3   OH2 3752   4.228   5.046   0.528 -0.0097  0.1207 -0.0821
 1249TIP3    H1 3753   4.222   5.014   0.618  1.5661 -2.8192 -0.9036
 1249TIP3    H2 3754   4.302   5.107   0.530  0.8464 -0.8943  0.4143
 1250TIP3   OH2 3755   4.741   4.667   1.475  0.0176 -0.4732 -0.0165
 1250TIP3    H1 3756   4.657   4.625   1.497  0.0530 -0.8126 -0.5263
 1250TIP3    H2 3757   4.803   4.595   1.469  0.3039 -0.2413  0.1348
 1251TIP3   OH2 3758   1.862   1.148   1.617 -0.0325  0.4048 -0.7167
 1251TIP3    H1 3759   1.821   1.221   1.664 -1.4798 -0.6202 -0.2857
 1251TIP3    H2 3760   1.843   1.165   1.525 -1.7151 -0.1597 -0.5133
 1252TIP3   OH2 3761   1.709   4.983   3.902 -0.4316  0.5293  0.2991
 1252TIP3    H1 3762   1.616   4.990   3.925 -0.2388  0.2946  1.1598
 1252TIP3    H2 3763   1.718   5.040   3.825 -1.6148 -0.6827 -0.8063
 1253TIP3   OH2 3764   3.135   3.430   2.416  0.1522 -0.3033 -0.2525
 1253TIP3    H1 3765   3.171   3.447   2.504 -1.4447 -0.8064  0.5313
 1253TIP3    H2 3766   3.139   3.335   2.407  0.5281 -0.2377 -0.8484
 1254TIP3   OH2 3767   3.475   4.183   0.633 -0.2566  0.1716  0.1265
 1254TIP3    H1 3768   3.504   4.157   0.546 -0.4220 -0.2346  0.1908
 1254TIP3    H2 3769   3.438   4.103   0.671 -1.5366  0.7066  0.0243
 1255TIP3   OH2 3770   3.864   1.935   0.477  0.2744 -0.1667 -0.2891
 1255TIP3    H1 3771   3.848   2.024   0.446 -2.1300 -0.0617  1.0451
 1255TIP3    H2 3772   3.901   1.946   0.564  2.3568 -0.5209 -1.0591
 1256TIP3   OH2 3773   0.810   1.924   0.161 -0.6330  0.4939  0.4904
 1256TIP3    H1 3774   0.818   2.019   0.173 -0.3739  0.3748  1.2793
 1256TIP3    H2 3775   0.716   1.909   0.148 -0.4336  1.1641 -2.4741
 1257TIP3   OH2 3776   5.326   5.758   2.674  0.6759 -0.5760 -0.5872
 1257TIP3    H1 3777   5.363   5.788   2.592 -0.6282  0.1141 -0.9586
 1257TIP3    H2 3778   5.398   5.764   2.737  1.1705  0.8119 -1.2385
 1258TIP3   OH2 3779   5.789   5.806   5.013  0.6326 -0.2352 -0.2338
 1258TIP3    H1 3780   5.709   5.782   4.965 -0.4540  1.7723  0.4201
 1258TIP3    H2 3781   5.792   5.902   5.006  1.4388 -0.0210  2.1082
 1259TIP3   OH2 3782   3.922   0.620   0.710 -0.2448 -0.3288 -0.5944
 1259TIP3    H1 3783   3.924   0.524   0.707 -1.8820 -0.4579  0.7904
 1259TIP3    H2 3784   3.906   0.646   0.620  0.9583 -1.2976 -1.1248
 1260TIP3   OH2 3785   6.157   2.737   0.175 -0.2701 -0.1607 -0.6160
 1260TIP3    H1 3786   6.145   2.651   0.213 -0.1451 -0.8375 -2.0296
 1260TIP3    H2 3787   6.129   2.727   0.084  0.4213  1.1017 -0.9926
 1261TIP3   OH2 3788   4.957   2.824   0.674  0.4166  0.4089  0.3924
 1261TIP3    H1 3789   5.018   2.872   0.618  1.5274 -0.5266  0.7681
 1261TIP3    H2 3790   4.983   2.846   0.763  1.0246 -0.9356  0.5764
 1262TIP3   OH2 3791   1.974   4.247   4.503  0.0105 -0.2475  0.0963
 1262TIP3    H1 3792   1.928   4.331   4.515 -1.2426 -0.8127 -0.5042
 1262TIP3    H2 3793   1.930   4.188   4.563  0.6854 -0.5571  0.2886
 1263TIP3   OH2 3794   0.942   2.808   0.334 -0.5440 -0.2614  0.2782
 1263TIP3    H1 3795   0.907   2.795   0.246  0.0518 -2.5417  0.3035
 1263TIP3    H2 3796   1.037   2.807   0.322 -0.3307  3.6795  0.4842
 1264TIP3   OH2 3797   2.092   0.791   2.394  0.0623 -0.4768 -0.0574
 1264TIP3    H1 3798   2.092   0.718   2.457  0.4998 -1.2976 -0.9885
 1264TIP3    H2 3799   2.183   0.801   2.368 -0.2982 -1.0943 -1.6244
 1265TIP3   OH2 3800   3.280   1.584   1.594  0.2883 -0.2618  0.3564
 1265TIP3    H1 3801   3.341   1.635   1.647  0.4673 -0.1453  0.0399
 1265TIP3    H2 3802   3.246   1.645   1.529  0.6228 -0.5732 -0.1235
 1266TIP3   OH2 3803   4.430   3.455   4.845  0.2992  0.3179 -0.0563
 1266TIP3    H1 3804   4.519   3.421   4.833 -0.1056 -1.3214  1.2976
 1266TIP3    H2 3805   4.389   3.445   4.759  0.0801 -3.1460  0.3333
 1267TIP3   OH2 3806   5.918   1.720   2.944  0.2171  0.0312  0.1401
 1267TIP3    H1 3807   5.960   1.792   2.991 -1.3760  1.3002 -0.2662
 1267TIP3    H2 3808   5.909   1.752   2.854  0.7212 -1.2404 -0.3822
 1268TIP3   OH2 3809   2.495   1.251   3.815 -0.3960  0.2409 -0.1465
 1268TIP3    H1 3810   2.457   1.339   3.805  0.4846  0.9254  2.0048
 1268TIP3    H2 3811   2.532   1.251   3.903  1.0151 -1.7868 -0.6852
 1269TIP3   OH2 3812   2.355   4.564   4.942  0.2551  0.0834  0.5181
 1269TIP3    H1 3813   2.329   4.638   4.996 -0.1599  0.7517 -0.5767
 1269TIP3    H2 3814   2.337   4.487   4.996  1.3226  0.7785  1.9309
 1270TIP3   OH2 3815   1.106   1.327   2.892  0.1382  0.0393  0.5411
 1270TIP3    H1 3816   1.108   1.422   2.899 -1.7913  0.0510  1.7871
 1270TIP3    H2 3817   1.090   1.296   2.982  0.8334 -1.4675  0.1864
 1271TIP3   OH2 3818   0.681   3.244   3.520 -0.2612 -0.1830 -0.0574
 1271TIP3    H1 3819   0.603   3.272   3.472 -0.3776  0.8973  0.7263
 1271TIP3    H2 3820   0.738   3.321   3.520  1.3175 -1.2621 -1.5483
 1272TIP3   OH2 3821   5.143   1.278   0.641 -0.4640  0.6777 -0.7002
 1272TIP3    H1 3822   5.158   1.192   0.602  0.6442  1.1118 -1.2616
 1272TIP3    H2 3823   5.059   1.306   0.604 -0.5717  0.0680 -0.9365
 1273TIP3   OH2 3824   1.518   0.469   2.894  0.2188 -0.1790 -0.4721
 1273TIP3    H1 3825   1.469   0.439   2.817  0.5583  0.5396 -0.9812
 1273TIP3    H2 3826   1.451   0.480   2.961 -0.3443  0.7942 -1.1638
 1274TIP3   OH2 3827   0.399   4.642   1.259 -0.4308  0.2227 -0.3779
 1274TIP3    H1 3828   0.386   4.563   1.207 -2.2385 -0.7804  1.4605
 1274TIP3    H2 3829   0.494   4.649   1.268 -0.2242 -1.6511 -0.7316
 1275TIP3   OH2 3830   1.822   5.340   1.208 -0.0238 -0.2276 -0.3535
 1275TIP3    H1 3831   1.907   5.345   1.252 -0.8267  0.4768  1.2173
 1275TIP3    H2 3832   1.783   5.258   1.240 -0.4740  0.1186  0.0024
 1276TIP3   OH2 3833   1.573   4.563   1.534  0.1130  0.2418  0.2120
 1276TIP3    H1 3834   1.546   4.473   1.515 -0.1588 -0.0837  1.9704
 1276TIP3    H2 3835   1.621   4.557   1.616 -0.3130  1.7569  0.6134
 1277TIP3   OH2 3836   5.301   4.661   3.554 -0.0230 -0.1932  0.3392
 1277TIP3    H1 3837   5.225   4.604   3.565  1.6273 -2.6577 -0.2303
 1277TIP3    H2 3838   5.286   4.706   3.472 -1.2562  0.0099  0.6621
 1278TIP3   OH2 3839   1.162   0.888   4.748  0.1866  0.2611  0.0471
 1278TIP3    H1 3840   1.136   0.980   4.737 -0.5350  0.1903  1.0329
 1278TIP3    H2 3841   1.132   0.845   4.668  0.8965  0.9494 -0.6090
 1279TIP3   OH2 3842   0.734   0.188   1.660 -0.4464  0.0369  0.1769
 1279TIP3    H1 3843   0.674   0.237   1.715 -0.5136  0.6522 -0.4349
 1279TIP3    H2 3844   0.818   0.232   1.671 -0.0097 -0.9751  1.2354
 1280TIP3   OH2 3845   0.600   3.413   4.089  0.8898 -0.5793  0.3493
 1280TIP3    H1 3846   0.670   3.348   4.098  2.1559  0.8819  1.4672
 1280TIP3    H2 3847   0.640   3.485   4.041 -0.1503 -0.1348  0.1337
 1281TIP3   OH2 3848   3.398   4.540   5.086 -0.0635 -0.0320  0.2916
 1281TIP3    H1 3849   3.371   4.505   5.171  0.8440 -3.6599 -0.7264
 1281TIP3    H2 3850   3.473   4.596   5.106 -0.9920  0.6833  2.0044
 1282TIP3   OH2 3851   2.046   2.259   1.254 -0.0208 -0.6426 -0.6532
 1282TIP3    H1 3852   1.988   2.183   1.251 -0.8084 -0.0483 -0.9947
 1282TIP3    H2 3853   2.051   2.289   1.163 -0.4559  0.2351 -0.4069
 1283TIP3   OH2 3854   6.065   4.023   4.582  0.2109 -0.0223 -0.5361
 1283TIP3    H1 3855   5.994   3.993   4.639 -2.1084  1.2177 -2.6019
 1283TIP3    H2 3856   6.132   4.056   4.643 -0.7010 -1.7052  1.5048
 1284TIP3   OH2 3857   3.561   1.217   0.089  0.0876  0.4825  0.6375
 1284TIP3    H1 3858   3.622   1.213   0.016 -0.4219  2.5935  0.0179
 1284TIP3    H2 3859   3.598   1.283   0.148 -0.7182  0.5473  1.0870
 1285TIP3   OH2 3860   1.446   0.477   4.920  0.3017 -0.5880 -0.3453
 1285TIP3    H1 3861   1.398   0.404   4.960 -0.2302 -0.5070 -0.8228
 1285TIP3    H2 3862   1.391   0.554   4.936 -0.4654 -0.7116 -2.1096
 1286TIP3   OH2 3863   0.360   1.166   3.112  0.1196 -0.0329  0.1670
 1286TIP3    H1 3864   0.324   1.078   3.100  0.7196 -0.5156  1.6063
 1286TIP3    H2 3865   0.411   1.182   3.033 -0.1457 -0.9071 -0.1986
 1287TIP3   OH2 3866   2.981   5.568   2.975  0.1428  0.2984 -0.3570
 1287TIP3    H1 3867   2.899   5.601   3.011 -0.1643 -0.6093 -0.1757
 1287TIP3    H2 3868   2.960   5.479   2.945  0.8839  0.3145 -0.9705
 1288TIP3   OH2 3869   1.016   4.498   3.855  0.2365 -0.0053 -0.0047
 1288TIP3    H1 3870   0.939   4.474   3.906 -0.1116  0.1194 -0.4658
 1288TIP3    H2 3871   0.986   4.570   3.799  0.8936  0.5628  0.3563
 1289TIP3   OH2 3872   2.871   3.778   0.762  0.5153  0.5223 -0.1903
 1289TIP3    H1 3873   2.929   3.830   0.707 -0.8221  2.7581  0.4032
 1289TIP3    H2 3874   2.922   3.759   0.840  1.4738 -0.2934 -0.9786
 1290TIP3   OH2 3875   4.002   4.307   3.968  0.7298 -0.0653 -0.3473
 1290TIP3    H1 3876   4.038   4.367   3.902 -1.0458 -0.2727 -1.5821
 1290TIP3    H2 3877   3.935   4.359   4.014  1.4563 -0.1412  0.8312
 1291TIP3   OH2 3878   3.610   5.340   4.911 -0.4660  0.4921  0.2867
 1291TIP3    H1 3879   3.698   5.365   4.939  0.7425 -1.1717 -1.7886
 1291TIP3    H2 3880   3.580   5.414   4.859 -0.1407  0.9007  0.6700
 1292TIP3   OH2 3881   2.027   3.467   5.074  0.1558  0.1443  0.3524
 1292TIP3    H1 3882   1.974   3.407   5.127 -0.0384 -0.6265 -0.6568
 1292TIP3    H2 3883   2.061   3.411   5.003 -1.3850  1.5312 -1.5793
 1293TIP3   OH2 3884   2.617   0.917   2.066 -0.0215  0.2046 -0.2939
 1293TIP3    H1 3885   2.678   0.872   2.008 -0.7487  0.0640 -0.9736
 1293TIP3    H2 3886   2.576   0.847   2.116  1.9649  0.4525  1.8061
 1294TIP3   OH2 3887   4.441   2.694   2.374 -0.3216 -0.7405  0.2825
 1294TIP3    H1 3888   4.349   2.717   2.386  0.2830  2.4810 -0.2352
 1294TIP3    H2 3889   4.471   2.671   2.462 -1.3438 -0.7256  0.6538
 1295TIP3   OH2 3890   3.516   4.044   4.916 -0.0744 -0.0180 -0.5454
 1295TIP3    H1 3891   3.469   4.113   4.964  2.1763  0.3714  1.2857
 1295TIP3    H2 3892   3.553   4.089   4.840  0.3765  0.5322 -0.0074
 1296TIP3   OH2 3893   0.971   5.194   0.196 -0.1714  0.3616 -0.3725
 1296TIP3    H1 3894   1.015   5.134   0.136 -1.0109 -1.7722  1.0255
 1296TIP3    H2 3895   0.886   5.155   0.211 -0.0271  0.8359  2.1241
 1297TIP3   OH2 3896   4.892   1.003   2.499  0.4148  0.0399  0.2014
 1297TIP3    H1 3897   4.854   1.072   2.445 -0.6334 -0.9107 -0.3204
 1297TIP3    H2 3898   4.961   0.966   2.445  0.9723  0.6495  0.4779
 1298TIP3   OH2 3899   2.876   3.968   3.560 -0.1244 -0.3117  0.4760
 1298TIP3    H1 3900   2.805   3.933   3.614 -0.8598  0.3218 -0.0614
 1298TIP3    H2 3901   2.884   4.059   3.587  1.1740 -0.6329  1.2349
 1299TIP3   OH2 3902   2.908   2.704   1.216  0.6319 -1.1927  0.3380
 1299TIP3    H1 3903   2.925   2.617   1.180  0.6306 -1.0167 -0.0913
 1299TIP3    H2 3904   2.921   2.764   1.143 -0.2704 -0.9076  0.3887
 1300TIP3   OH2 3905   2.571   5.767   4.674 -0.2775  0.2695  0.5415
 1300TIP3    H1 3906   2.622   5.771   4.593 -0.5194 -2.9816  0.1021
 1300TIP3    H2 3907   2.635   5.748   4.742 -0.3686  0.6562  0.7376
 1301TIP3   OH2 3908   3.072   1.009   3.889 -0.3532  0.6274 -0.1355
 1301TIP3    H1 3909   3.024   1.072   3.942  0.7345  2.3537 -1.0956
 1301TIP3    H2 3910   3.157   1.000   3.932 -0.7140 -0.7011  0.3382
 1302TIP3   OH2 3911   5.685   1.734   3.471  0.3264  0.2214  0.2840
 1302TIP3    H1 3912   5.639   1.798   3.416 -0.3162  0.7080  1.3513
 1302TIP3    H2 3913   5.744   1.689   3.411 -0.9596  0.1454 -0.9763
 1303TIP3   OH2 3914   1.859   0.770   1.552  0.0023  0.3002  0.4777
 1303TIP3    H1 3915   1.935   0.807   1.598 -0.8255  1.9959  0.5555
 1303TIP3    H2 3916   1.888   0.683   1.524  1.4760  0.3325  1.7598
 1304TIP3   OH2 3917   1.449   0.690   2.022  0.0182  0.4120  0.6432
 1304TIP3    H1 3918   1.420   0.722   2.108 -0.5934 -0.2978  0.7096
 1304TIP3    H2 3919   1.371   0.699   1.967 -0.1510 -0.8605  0.6411
 1305TIP3   OH2 3920   4.633   0.465   4.474 -0.2950  0.2548  0.1175
 1305TIP3    H1 3921   4.649   0.372   4.489  0.9407  0.6953  1.7014
 1305TIP3    H2 3922   4.708   0.510   4.512 -0.8997  1.9312 -0.5430
 1306TIP3   OH2 3923   2.775   3.688   2.644 -0.5784 -0.2269  0.0342
 1306TIP3    H1 3924   2.822   3.714   2.723 -1.2266 -0.5434  0.5424
 1306TIP3    H2 3925   2.774   3.593   2.647 -1.1741 -0.2269 -0.0040
 1307TIP3   OH2 3926   5.921   3.081   2.294  0.4102  0.4762  0.0698
 1307TIP3    H1 3927   6.015   3.083   2.311 -0.0485  3.8399  3.4233
 1307TIP3    H2 3928   5.900   3.168   2.261 -1.4007 -0.7498 -2.3544
 1308TIP3   OH2 3929   5.139   2.037   4.876  0.2186 -0.0898 -0.0759
 1308TIP3    H1 3930   5.077   2.042   4.803 -0.1111  1.1323  0.2554
 1308TIP3    H2 3931   5.222   2.066   4.840  0.0227  0.6550  0.0493
 1309TIP3   OH2 3932   0.095   5.148   2.884 -0.0745 -0.5540 -0.1446
 1309TIP3    H1 3933   0.031   5.198   2.833  0.3338  1.0718  0.8665
 1309TIP3    H2 3934   0.043   5.101   2.949 -0.2871  0.7725  0.6850
 1310TIP3   OH2 3935   0.353   0.001   0.877 -0.0646  0.4256 -0.3037
 1310TIP3    H1 3936   0.355   0.078   0.934 -1.9732  0.9153 -0.8159
 1310TIP3    H2 3937   0.390  -0.069   0.929 -0.5179  1.1623  1.0532
 1311TIP3   OH2 3938   2.203   1.779   2.494  0.0613 -0.2181  0.2051
 1311TIP3    H1 3939   2.236   1.768   2.583  1.3062  1.8583  0.0881
 1311TIP3    H2 3940   2.241   1.706   2.445 -2.1765 -2.5201  1.6558
 1312TIP3   OH2 3941   1.082   4.780   1.561  0.0330 -0.1649 -0.3578
 1312TIP3    H1 3942   1.139   4.840   1.512 -0.4902 -0.0835 -0.8740
 1312TIP3    H2 3943   1.138   4.705   1.582  1.3248  1.3538  2.1226
 1313TIP3   OH2 3944   5.756   2.232   2.714  0.1560  0.4811  0.1236
 1313TIP3    H1 3945   5.693   2.285   2.762 -2.0561 -1.6364 -0.2299
 1313TIP3    H2 3946   5.738   2.250   2.622  0.1510 -0.0239  0.0195
 1314TIP3   OH2 3947   2.346   3.115   3.327 -0.4452 -0.3540  0.1558
 1314TIP3    H1 3948   2.338   3.052   3.256  1.4665  0.5977 -0.9925
 1314TIP3    H2 3949   2.375   3.064   3.403 -0.6361 -1.0920 -0.2647
 1315TIP3   OH2 3950   5.432   2.341   3.923 -0.2394 -0.4919  0.3786
 1315TIP3    H1 3951   5.370   2.268   3.918 -1.5677  0.6217 -3.6078
 1315TIP3    H2 3952   5.516   2.302   3.897 -0.5900 -0.9380 -0.1317
 1316TIP3   OH2 3953   5.177   0.364   5.023 -0.9331 -0.2127  0.2755
 1316TIP3    H1 3954   5.132   0.280   5.033  0.0650 -0.9001 -0.7138
 1316TIP3    H2 3955   5.261   0.341   4.982  0.4217  0.9844  2.2396
 1317TIP3   OH2 3956   5.012   0.533   0.183 -0.6679 -0.1791 -0.3324
 1317TIP3    H1 3957   5.026   0.490   0.267 -0.6525  0.1217 -0.1806
 1317TIP3    H2 3958   5.016   0.627   0.202 -1.0834 -0.1058 -0.5968
 1318TIP3   OH2 3959   1.420   2.245   2.150  0.2223  0.1858 -0.2845
 1318TIP3    H1 3960   1.489   2.193   2.192 -0.1592 -0.0259  0.0907
 1318TIP3    H2 3961   1.403   2.315   2.212  0.7728  0.7960 -0.8145
 1319TIP3   OH2 3962   5.979   1.146   4.427  0.7206 -0.0457  0.2428
 1319TIP3    H1 3963   5.901   1.202   4.428  0.4971 -0.3215  2.0967
 1319TIP3    H2 3964   5.958   1.075   4.488  2.2035 -0.4327  0.3330
 1320TIP3   OH2 3965   4.752   5.300   2.793 -0.5500 -0.2548  0.2448
 1320TIP3    H1 3966   4.825   5.355   2.764  0.6367 -2.3198 -0.9563
 1320TIP3    H2 3967   4.753   5.306   2.888  1.4065 -0.4491  0.2695
 1321TIP3   OH2 3968   3.210   3.500   1.055 -0.1363 -0.3607 -0.0206
 1321TIP3    H1 3969   3.116   3.502   1.071 -0.9317  1.4725 -3.7450
 1321TIP3    H2 3970   3.228   3.411   1.024 -0.8551 -0.4752 -0.1232
 1322TIP3   OH2 3971   6.353   5.949   4.148  0.4024  0.1169  0.1014
 1322TIP3    H1 3972   6.374   5.974   4.238 -1.7725 -0.0621  0.7042
 1322TIP3    H2 3973   6.318   5.861   4.154 -0.7521  0.4900 -0.7619
 1323TIP3   OH2 3974   1.929   4.702   4.995 -0.0450  0.1681 -0.5445
 1323TIP3    H1 3975   1.988   4.743   5.059 -0.9180  1.2399 -0.3868
 1323TIP3    H2 3976   1.969   4.723   4.910  1.2303 -1.4377 -0.3867
 1324TIP3   OH2 3977   2.106   4.784   4.044 -0.0528  0.1628 -0.0264
 1324TIP3    H1 3978   2.185   4.798   3.991  0.5684  0.3926  0.9392
 1324TIP3    H2 3979   2.099   4.863   4.098 -1.1295  0.2846 -0.3299
 1325TIP3   OH2 3980   4.091   2.578   0.723  0.2975 -0.4648  0.3947
 1325TIP3    H1 3981   4.038   2.649   0.686  1.0303 -0.2988 -0.3762
 1325TIP3    H2 3982   4.030   2.527   0.775 -0.1304  1.0868  1.5063
 1326TIP3   OH2 3983   3.107   3.022   2.652 -0.2572 -0.6008  0.0569
 1326TIP3    H1 3984   3.139   3.002   2.740 -1.1115  2.5749  1.2313
 1326TIP3    H2 3985   3.015   3.044   2.664 -0.8690 -1.7047 -1.9808
 1327TIP3   OH2 3986   4.464   0.803   0.274  0.1375 -0.1941  0.6048
 1327TIP3    H1 3987   4.412   0.881   0.290  0.0257  0.0343 -0.7468
 1327TIP3    H2 3988   4.400   0.735   0.256  0.2676 -0.3112  0.5838
 1328TIP3   OH2 3989   4.213   2.391   4.297 -0.7517  0.2260 -0.0787
 1328TIP3    H1 3990   4.302   2.389   4.332 -0.6243  2.1031 -0.1703
 1328TIP3    H2 3991   4.216   2.457   4.228 -2.0875 -0.0952 -0.4709
 1329TIP3   OH2 3992   1.325   5.899   2.059  0.7652  0.8333 -0.2134
 1329TIP3    H1 3993   1.418   5.876   2.048  0.9296  0.9082  0.8519
 1329TIP3    H2 3994   1.325   5.957   2.135 -0.2396  0.2812  0.2171
 1330TIP3   OH2 3995   0.149   5.296   1.126  0.1329 -0.2830  0.5819
 1330TIP3    H1 3996   0.221   5.233   1.120  0.3751  0.1247 -1.1512
 1330TIP3    H2 3997   0.178   5.371   1.075 -1.8332 -0.4275 -0.8599
 1331TIP3   OH2 3998   1.123   4.254   3.015 -0.4120  0.5345  0.0406
 1331TIP3    H1 3999   1.033   4.220   3.009 -0.2664  0.0709  0.3844
 1331TIP3    H2 4000   1.112   4.347   3.034 -0.8287  0.3213  0.9098
 1332TIP3   OH2 4001   2.344   1.635   3.285 -0.3846  0.0193 -0.2538
 1332TIP3    H1 4002   2.409   1.564   3.279  1.5995  1.1808  3.7738
 1332TIP3    H2 4003   2.260   1.590   3.282  0.7613 -2.9503  3.5433
 1333TIP3   OH2 4004   6.252   3.484   1.368 -0.1365  0.4092 -0.0414
 1333TIP3    H1 4005   6.305   3.511   1.294 -0.6055  0.8615 -0.2184
 1333TIP3    H2 4006   6.171   3.451   1.329 -0.5247  0.9690  0.2765
 1334TIP3   OH2 4007   3.676   2.495   0.360 -0.0861 -0.3793 -0.3842
 1334TIP3    H1 4008   3.663   2.420   0.303 -1.9387 -0.8907  0.6321
 1334TIP3    H2 4009   3.627   2.566   0.318 -3.9820 -1.4864  1.8451
 1335TIP3   OH2 4010   1.232   2.019   1.255  0.2324 -0.1656 -0.4966
 1335TIP3    H1 4011   1.161   2.056   1.201  0.4540 -0.9982 -1.3725
 1335TIP3    H2 4012   1.312   2.045   1.210  0.4343 -0.5327 -0.3488
 1336TIP3   OH2 4013   4.117   5.897   2.221  0.6167  0.4512 -0.2956
 1336TIP3    H1 4014   4.030   5.867   2.196  0.5009  1.6440 -1.5089
 1336TIP3    H2 4015   4.102   5.966   2.285  0.8719 -1.7630  2.3400
 1337TIP3   OH2 4016   2.967   0.158   0.133 -0.7269 -0.5267 -0.4527
 1337TIP3    H1 4017   2.995   0.112   0.054  1.6945  0.5392 -0.3088
 1337TIP3    H2 4018   3.015   0.240   0.131 -3.3126  1.1249  0.3700
 1338TIP3   OH2 4019   1.489   3.284   3.181  0.4560  0.2438 -0.3270
 1338TIP3    H1 4020   1.582   3.263   3.179  0.1730 -1.1966  0.5516
 1338TIP3    H2 4021   1.446   3.202   3.205 -1.1327  0.6292 -1.6292
 1339TIP3   OH2 4022   5.867   5.240   3.888 -0.4461 -0.0215 -0.1876
 1339TIP3    H1 4023   5.881   5.205   3.976  0.7281  0.5126 -0.1433
 1339TIP3    H2 4024   5.773   5.255   3.883 -0.4860  0.3216  1.1260
 1340TIP3   OH2 4025   0.549   0.752   3.002 -0.6115 -0.5000  0.0474
 1340TIP3    H1 4026   0.587   0.840   2.995 -0.6624 -0.5281 -0.6757
 1340TIP3    H2 4027   0.590   0.714   3.079  0.0432 -0.1453 -0.1211
 1341TIP3   OH2 4028   3.008   1.037   1.535 -0.9248  0.2421  0.2178
 1341TIP3    H1 4029   3.026   0.955   1.490 -0.2776  1.2191 -1.4176
 1341TIP3    H2 4030   2.912   1.043   1.536 -0.9639 -0.0753 -0.5580
 1342TIP3   OH2 4031   0.243   0.641   4.883  0.1707  0.1657  0.0249
 1342TIP3    H1 4032   0.297   0.563   4.895 -0.1181 -0.4287 -2.0329
 1342TIP3    H2 4033   0.301   0.714   4.906  0.7882 -0.6040  0.9620
 1343TIP3   OH2 4034   4.833   4.464   3.583 -0.2623 -0.4353  0.7416
 1343TIP3    H1 4035   4.873   4.496   3.664 -0.2881 -1.1386  1.0409
 1343TIP3    H2 4036   4.739   4.467   3.600 -0.3000  0.0275  0.4927
 1344TIP3   OH2 4037   1.119   0.124   1.085 -0.0866  0.1428 -0.4674
 1344TIP3    H1 4038   1.038   0.087   1.050 -0.2582 -1.1838  1.2361
 1344TIP3    H2 4039   1.093   0.169   1.165  0.4485  2.3576 -1.4443
 1345TIP3   OH2 4040   0.004   4.713   0.918  0.0469  0.0630  0.2896
 1345TIP3    H1 4041   0.080   4.749   0.873 -0.1992 -0.9669 -1.0056
 1345TIP3    H2 4042  -0.059   4.694   0.848 -0.5723 -1.0613  1.1207
 1346TIP3   OH2 4043   1.445   1.799   1.951  0.2394  0.0595  0.4834
 1346TIP3    H1 4044   1.502   1.833   1.881  0.2774 -0.3872  0.2981
 1346TIP3    H2 4045   1.405   1.878   1.989 -0.8856  0.2369 -0.9775
 1347TIP3   OH2 4046   0.119   5.103   3.455 -0.5482  0.0831 -0.0617
 1347TIP3    H1 4047   0.096   5.023   3.408  1.0145 -1.4662  1.6139
 1347TIP3    H2 4048   0.076   5.094   3.540  0.6534  0.3781  0.6001
 1348TIP3   OH2 4049   1.046   4.392   0.392 -0.0849 -0.0788 -0.0096
 1348TIP3    H1 4050   1.106   4.325   0.360  0.3897 -0.2907  1.2913
 1348TIP3    H2 4051   1.037   4.374   0.485  0.2813  1.8496  0.4389
 1349TIP3   OH2 4052   0.186   1.576   4.188  0.0851 -0.2762 -0.1039
 1349TIP3    H1 4053   0.265   1.544   4.146  1.0049 -0.6696  1.8023
 1349TIP3    H2 4054   0.117   1.514   4.163  0.0480  0.7014 -2.7064
 1350TIP3   OH2 4055   3.698   1.586   2.734 -0.1383 -0.0988 -0.9806
 1350TIP3    H1 4056   3.704   1.556   2.825 -0.2790  0.0619 -0.9168
 1350TIP3    H2 4057   3.624   1.647   2.734 -0.8042 -0.8891 -1.4211
 1351TIP3   OH2 4058   1.062   4.136   3.353  0.7441  0.0063 -0.7583
 1351TIP3    H1 4059   1.058   4.148   3.448  0.6910  2.0122 -0.9817
 1351TIP3    H2 4060   0.975   4.104   3.329  0.8294 -0.7378 -0.1267
 1352TIP3   OH2 4061   1.908   1.754   0.112  0.5276  0.1390 -0.8970
 1352TIP3    H1 4062   1.995   1.753   0.154 -0.0857 -1.0461  0.4430
 1352TIP3    H2 4063   1.902   1.669   0.069  0.5495  0.7644 -2.1531
 1353TIP3   OH2 4064   2.121   4.853   2.963 -0.1053 -0.1618 -0.0387
 1353TIP3    H1 4065   2.212   4.835   2.938 -0.1483 -0.5635  0.0860
 1353TIP3    H2 4066   2.071   4.783   2.921 -0.5073  0.7465 -1.1155
 1354TIP3   OH2 4067   6.349   0.369   1.610  0.5513 -0.0765  0.2017
 1354TIP3    H1 4068   6.371   0.288   1.656 -0.0438  0.2913  1.1851
 1354TIP3    H2 4069   6.255   0.363   1.595  0.5360  0.3423  0.1186
 1355TIP3   OH2 4070   3.052   5.744   2.005  0.4854 -0.3095 -0.1192
 1355TIP3    H1 4071   3.004   5.824   2.028 -1.1905 -1.4559  0.6522
 1355TIP3    H2 4072   3.143   5.763   2.026 -0.2203  0.5180  2.7011
 1356TIP3   OH2 4073   3.743   5.389   2.274  0.6315 -0.3944 -0.3454
 1356TIP3    H1 4074   3.744   5.362   2.183  1.3106 -0.3515 -0.3610
 1356TIP3    H2 4075   3.751   5.485   2.271 -0.4485 -0.2920 -0.2618
 1357TIP3   OH2 4076   3.204   0.359   0.256 -0.2148  0.1530 -0.1772
 1357TIP3    H1 4077   3.278   0.399   0.210  0.5378  0.6467  1.3892
 1357TIP3    H2 4078   3.128   0.410   0.227  0.3873  1.1239 -0.1028
 1358TIP3   OH2 4079   6.367   3.360   3.406  0.1974 -0.2803  0.1190
 1358TIP3    H1 4080   6.325   3.284   3.366 -1.6979  0.8951 -0.2393
 1358TIP3    H2 4081   6.301   3.429   3.402  1.5645  1.1643  1.1916
 1359TIP3   OH2 4082   4.230   1.941   2.359  0.4192  0.6598  0.0139
 1359TIP3    H1 4083   4.268   1.906   2.440  0.0227  0.8202  0.2722
 1359TIP3    H2 4084   4.183   2.020   2.386 -0.7211  0.0704 -0.1676
 1360TIP3   OH2 4085   5.866   4.647   2.134 -0.0656 -0.4051  0.0837
 1360TIP3    H1 4086   5.899   4.607   2.214 -0.8653 -0.9049  0.1752
 1360TIP3    H2 4087   5.779   4.610   2.123 -0.9610  1.5001  0.3200
 1361TIP3   OH2 4088   0.646   0.811   2.076 -0.3020  0.4185 -0.7731
 1361TIP3    H1 4089   0.720   0.851   2.030  0.1586  1.3529  0.7284
 1361TIP3    H2 4090   0.575   0.811   2.012  0.4216  1.3487 -1.5941
 1362TIP3   OH2 4091   2.426   4.448   1.662  0.0433  0.0356  0.1120
 1362TIP3    H1 4092   2.345   4.475   1.706  0.7374 -0.4834  1.8059
 1362TIP3    H2 4093   2.480   4.412   1.733  1.8529  0.6045 -0.9254
 1363TIP3   OH2 4094   5.882   4.053   1.294  0.4692  0.0760  0.4802
 1363TIP3    H1 4095   5.833   4.135   1.295  0.2836 -0.0450  1.4218
 1363TIP3    H2 4096   5.901   4.034   1.386  1.7176 -0.2221  0.1842
 1364TIP3   OH2 4097   2.656   4.645   0.744  0.6233 -0.0899 -0.2810
 1364TIP3    H1 4098   2.628   4.624   0.833  0.0923  0.3284 -0.3445
 1364TIP3    H2 4099   2.666   4.740   0.744  3.6373 -0.2812  0.1982
 1365TIP3   OH2 4100   2.998   1.058   2.491 -0.2340 -0.3897  0.8886
 1365TIP3    H1 4101   2.938   1.132   2.503 -0.4983 -0.5686  0.6783
 1365TIP3    H2 4102   3.074   1.080   2.544 -0.5758 -0.2618  1.3328
 1366TIP3   OH2 4103   5.860   4.307   1.925 -0.4749 -0.0876 -0.2734
 1366TIP3    H1 4104   5.913   4.230   1.903 -1.0514 -0.0327 -1.9959
 1366TIP3    H2 4105   5.828   4.290   2.014  0.1807 -1.3950 -0.2721
 1367TIP3   OH2 4106   1.303   2.101   4.654 -0.1866  0.4246 -0.3367
 1367TIP3    H1 4107   1.308   2.045   4.576  0.9522  1.4330 -1.0340
 1367TIP3    H2 4108   1.237   2.167   4.632  0.0386  0.6288 -0.4186
 1368TIP3   OH2 4109   3.544   5.767   0.047  0.5946 -0.1341  0.4543
 1368TIP3    H1 4110   3.613   5.803  -0.009  0.8732 -0.6369  0.4649
 1368TIP3    H2 4111   3.516   5.688   0.002 -0.0280  0.1037  0.4171
 1369TIP3   OH2 4112   5.353   2.368   1.380 -0.4502  0.8609  0.2246
 1369TIP3    H1 4113   5.383   2.321   1.302 -1.0359 -2.2241  1.7223
 1369TIP3    H2 4114   5.264   2.398   1.356 -0.2380  0.8672 -0.6033
 1370TIP3   OH2 4115   2.381   0.852   2.949 -0.2461  0.0132  0.0258
 1370TIP3    H1 4116   2.433   0.929   2.930  0.0963 -0.3031 -0.3335
 1370TIP3    H2 4117   2.325   0.878   3.023 -0.8617  0.9243 -0.7361
 1371TIP3   OH2 4118   0.030   1.447   1.618  0.2398  0.4384 -0.1689
 1371TIP3    H1 4119   0.047   1.486   1.704  1.6693  0.8861 -0.6301
 1371TIP3    H2 4120  -0.055   1.406   1.627  0.1335  0.9281  1.3116
 1372TIP3   OH2 4121   5.058   3.771   4.459 -0.1897  0.1004 -0.6262
 1372TIP3    H1 4122   5.039   3.864   4.470  0.5806  0.2675 -0.6630
 1372TIP3    H2 4123   5.080   3.761   4.367  0.7882  0.0832 -0.3974
 1373TIP3   OH2 4124   6.048   2.038   5.057  0.1728  0.0656 -0.2551
 1373TIP3    H1 4125   5.975   2.040   4.996 -1.9971 -0.8770  2.1386
 1373TIP3    H2 4126   6.063   1.945   5.074 -0.1649  0.3077  1.5649
 1374TIP3   OH2 4127   4.888   4.250   1.223 -0.5475 -0.1949 -0.3994
 1374TIP3    H1 4128   4.941   4.302   1.162  0.3431 -0.0105  0.4962
 1374TIP3    H2 4129   4.943   4.175   1.244 -1.2668 -0.7889 -0.6108
 1375TIP3   OH2 4130   1.937   3.384   3.951 -0.2936 -0.1181 -0.4201
 1375TIP3    H1 4131   1.980   3.445   3.891  0.5219 -0.3493 -0.0785
 1375TIP3    H2 4132   2.007   3.350   4.007 -0.6935 -1.5020 -0.7084
 1376TIP3   OH2 4133   2.855   1.302   2.485  0.3424  0.2822 -0.0889
 1376TIP3    H1 4134   2.784   1.255   2.440 -1.0092  1.0061  1.1916
 1376TIP3    H2 4135   2.884   1.367   2.421 -2.2595  2.0014  0.3060
 1377TIP3   OH2 4136   1.187   4.894   2.737  0.1965  0.5829 -0.7259
 1377TIP3    H1 4137   1.160   4.985   2.738  0.0223  0.5327 -0.8060
 1377TIP3    H2 4138   1.278   4.896   2.707  0.0926  0.7033 -1.0325
 1378TIP3   OH2 4139   5.353   1.399   4.147 -0.0408 -0.1468  0.1921
 1378TIP3    H1 4140   5.266   1.364   4.167  0.2967 -0.3284  1.3827
 1378TIP3    H2 4141   5.339   1.492   4.132 -0.4077 -0.1459  0.5496
 1379TIP3   OH2 4142   0.899   1.728   4.895 -0.0957  0.1209 -0.0995
 1379TIP3    H1 4143   0.904   1.817   4.861 -0.0536 -0.1106 -0.7101
 1379TIP3    H2 4144   0.990   1.702   4.911  0.0666 -0.5623 -1.9254
 1380TIP3   OH2 4145   3.435   3.798  -0.003  0.4243 -1.0050  0.1955
 1380TIP3    H1 4146   3.441   3.892  -0.021  1.5102 -1.2004 -0.5622
 1380TIP3    H2 4147   3.486   3.786   0.076 -2.8678 -0.4245  2.6248
 1381TIP3   OH2 4148   1.592   4.519   3.640 -0.3446  0.2685  0.0119
 1381TIP3    H1 4149   1.612   4.523   3.546  0.5168  1.5799  0.2277
 1381TIP3    H2 4150   1.577   4.426   3.657  0.0537 -0.0606 -1.3080
 1382TIP3   OH2 4151   4.037   0.430   0.952 -0.1677  0.4201  0.0844
 1382TIP3    H1 4152   4.046   0.450   0.859 -1.3813  0.8760  0.0460
 1382TIP3    H2 4153   4.118   0.461   0.992  1.4317 -1.8635 -1.1218
 1383TIP3   OH2 4154   2.368   5.590   3.480  0.0323  0.3265 -0.2712
 1383TIP3    H1 4155   2.321   5.507   3.481  0.6224 -0.0245 -0.6597
 1383TIP3    H2 4156   2.358   5.625   3.568  1.7996 -1.3255  0.6491
 1384TIP3   OH2 4157   6.338   3.516   1.102  0.2550 -0.3661  0.1885
 1384TIP3    H1 4158   6.288   3.547   1.027  1.2040 -0.7800 -0.6494
 1384TIP3    H2 4159   6.402   3.585   1.119  0.0800 -0.3004  0.5721
 1385TIP3   OH2 4160   4.059   3.174   0.717 -0.4135 -0.1453 -0.3511
 1385TIP3    H1 4161   4.106   3.090   0.711 -1.2051 -0.6290 -0.0347
 1385TIP3    H2 4162   4.116   3.229   0.771  0.7508 -0.0083 -1.6850
 1386TIP3   OH2 4163   5.385   1.262   2.533 -0.6680 -0.2485  0.1672
 1386TIP3    H1 4164   5.351   1.338   2.581 -0.8882 -0.8720  1.0356
 1386TIP3    H2 4165   5.306   1.221   2.497 -0.3524  1.8140 -3.3401
 1387TIP3   OH2 4166   0.310   5.153   0.848 -0.1470 -0.0867 -0.4526
 1387TIP3    H1 4167   0.373   5.103   0.797 -1.3335 -1.3520 -0.7206
 1387TIP3    H2 4168   0.340   5.244   0.840 -0.1036 -0.2654 -3.1402
 1388TIP3   OH2 4169   5.565   5.132   4.072  0.4909 -0.0998 -0.0626
 1388TIP3    H1 4170   5.575   5.220   4.035  0.6197 -0.2881 -0.4863
 1388TIP3    H2 4171   5.596   5.074   4.002 -3.0928 -0.7170 -1.3661
 1389TIP3   OH2 4172   1.844   4.601   3.006 -0.0105  0.1054 -0.0504
 1389TIP3    H1 4173   1.802   4.529   2.959  0.5081 -0.2807  0.0724
 1389TIP3    H2 4174   1.938   4.588   2.991  0.1478  0.1256  0.8845
 1390TIP3   OH2 4175   3.769   0.787   0.221 -0.4350  0.3552 -0.1948
 1390TIP3    H1 4176   3.748   0.879   0.238 -2.3405 -0.0339 -0.2049
 1390TIP3    H2 4177   3.694   0.755   0.170  0.3901 -1.1093 -0.5386
 1391TIP3   OH2 4178   0.673   4.574   2.860 -0.4233  1.2206  0.7089
 1391TIP3    H1 4179   0.612   4.536   2.796  0.2277 -0.3275  0.9694
 1391TIP3    H2 4180   0.750   4.597   2.809 -0.7098  1.9863  0.6007
 1392TIP3   OH2 4181   5.442   4.544   2.564 -0.3566  0.8934 -0.2497
 1392TIP3    H1 4182   5.534   4.520   2.549 -0.2970  1.7508 -1.4123
 1392TIP3    H2 4183   5.392   4.477   2.518 -0.2386  1.5564 -1.4074
 1393TIP3   OH2 4184   1.282   4.284   0.257 -0.5311 -0.4386  0.0147
 1393TIP3    H1 4185   1.349   4.288   0.325 -0.8925  1.7075  0.2884
 1393TIP3    H2 4186   1.298   4.360   0.201 -1.6779 -0.8539 -0.9339
 1394TIP3   OH2 4187   4.887   3.584   1.935  0.0720 -0.3845  0.4109
 1394TIP3    H1 4188   4.859   3.516   1.996  0.6252 -1.5483 -0.5888
 1394TIP3    H2 4189   4.920   3.654   1.990  1.1052 -1.6464  1.4458
 1395TIP3   OH2 4190   5.862   4.666   2.703  0.6284 -0.1372 -0.2733
 1395TIP3    H1 4191   5.825   4.744   2.745  0.4827 -0.4607  0.1992
 1395TIP3    H2 4192   5.842   4.594   2.762  0.7450 -0.5446 -0.7176
 1396TIP3   OH2 4193   5.438   0.685   2.744 -0.5421  0.2953  0.6253
 1396TIP3    H1 4194   5.511   0.747   2.741 -0.6123  0.3636  0.2988
 1396TIP3    H2 4195   5.472   0.605   2.704 -0.4932  0.1687  0.9217
 1397TIP3   OH2 4196   3.191   1.546   4.982 -0.0681 -0.0546  0.1376
 1397TIP3    H1 4197   3.266   1.560   5.040 -0.4670  1.5242  0.3104
 1397TIP3    H2 4198   3.191   1.622   4.924  0.4686 -1.6956 -2.1444
 1398TIP3   OH2 4199   2.731   2.784   1.414  0.4277 -0.2647  0.1525
 1398TIP3    H1 4200   2.777   2.748   1.338 -1.5463 -2.2034 -0.2298
 1398TIP3    H2 4201   2.652   2.824   1.378 -0.8729 -1.7836  1.1668
 1399TIP3   OH2 4202   4.043   4.082   0.827  0.1411 -0.2844  0.3751
 1399TIP3    H1 4203   4.088   4.163   0.855  0.1543 -0.6733  1.5096
 1399TIP3    H2 4204   4.095   4.012   0.866  1.1265 -0.9553 -1.9843
 1400TIP3   OH2 4205   1.013   1.287   3.180  0.1302  0.7151 -0.1929
 1400TIP3    H1 4206   1.060   1.367   3.205 -2.0440  2.3419 -1.0159
 1400TIP3    H2 4207   0.923   1.302   3.208 -0.2771 -1.6863  0.0364
 1401TIP3   OH2 4208   1.711   2.943   1.056  0.4969 -0.4984  0.2130
 1401TIP3    H1 4209   1.719   3.011   0.989  2.2053 -1.8387 -1.0390
 1401TIP3    H2 4210   1.633   2.894   1.031  0.2664 -0.0730  0.0879
 1402TIP3   OH2 4211   0.607   1.432   3.858 -0.8299 -0.1969 -0.1502
 1402TIP3    H1 4212   0.672   1.364   3.875 -1.2661 -0.7687 -0.7173
 1402TIP3    H2 4213   0.624   1.460   3.767 -1.4345 -0.4253 -0.3386
 1403TIP3   OH2 4214   2.561   3.869   2.562  0.0726 -0.3486 -0.1076
 1403TIP3    H1 4215   2.641   3.822   2.538 -0.9021 -1.8811 -0.5181
 1403TIP3    H2 4216   2.547   3.847   2.654  0.4375  0.4237  0.1410
 1404TIP3   OH2 4217   1.810   4.148   3.452 -0.2211  0.5697  0.3197
 1404TIP3    H1 4218   1.801   4.111   3.539 -1.4876  2.0601  0.8710
 1404TIP3    H2 4219   1.834   4.074   3.396  0.7625 -0.3780  1.9338
 1405TIP3   OH2 4220   4.366   0.770   1.403 -0.2749  0.0640  0.3098
 1405TIP3    H1 4221   4.455   0.788   1.373  0.3457 -3.1988 -0.1262
 1405TIP3    H2 4222   4.352   0.678   1.382 -3.1143  0.0085  2.0302
 1406TIP3   OH2 4223   1.317   4.517   0.110  1.0065  0.1473  0.1133
 1406TIP3    H1 4224   1.311   4.605   0.147  1.1393  0.1913  0.0325
 1406TIP3    H2 4225   1.228   4.496   0.083  1.2773  0.9910 -1.5646
 1407TIP3   OH2 4226   5.047   4.103   0.921 -0.4566  0.1135 -0.2092
 1407TIP3    H1 4227   5.136   4.104   0.955 -0.7788 -0.6211  0.6759
 1407TIP3    H2 4228   5.014   4.015   0.940 -0.4684 -0.5711 -2.9653
 1408TIP3   OH2 4229   1.104   0.462   0.039 -0.4158 -0.2826 -0.0907
 1408TIP3    H1 4230   1.171   0.516   0.081 -0.1766 -0.7356  0.1129
 1408TIP3    H2 4231   1.082   0.510  -0.041  1.6512 -1.0984 -1.2590
 1409TIP3   OH2 4232   5.673   0.266   4.380 -0.0486 -0.0171  0.9202
 1409TIP3    H1 4233   5.643   0.227   4.461  0.5523 -1.5452  0.4401
 1409TIP3    H2 4234   5.765   0.287   4.395  0.2381 -0.8949  0.4366
 1410TIP3   OH2 4235   4.407   4.080   4.763 -0.3953  0.3788 -0.1613
 1410TIP3    H1 4236   4.415   4.165   4.720  0.7912  0.6574  0.5620
 1410TIP3    H2 4237   4.340   4.034   4.713  0.4629  0.9265 -1.8966
 1411TIP3   OH2 4238   4.067   0.853   1.810  0.1965 -0.1672 -0.3276
 1411TIP3    H1 4239   4.116   0.773   1.828  0.9094  0.0610 -1.1810
 1411TIP3    H2 4240   4.073   0.863   1.715 -0.1398  0.7404 -0.2574
 1412TIP3   OH2 4241   3.595   3.178   2.793 -1.0587  0.1718 -0.1673
 1412TIP3    H1 4242   3.663   3.207   2.854  0.3510 -1.4132 -0.8802
 1412TIP3    H2 4243   3.594   3.244   2.724 -0.6165  0.4944  0.1303
 1413TIP3   OH2 4244   4.640   0.541   1.876 -0.0650  0.0236 -0.0075
 1413TIP3    H1 4245   4.573   0.532   1.943  0.5886  0.6560  0.7438
 1413TIP3    H2 4246   4.605   0.606   1.815  0.3736  1.2661  1.0371
 1414TIP3   OH2 4247   5.342   0.971   3.775  0.3417 -0.1671 -0.5723
 1414TIP3    H1 4248   5.363   1.013   3.691 -0.2224 -0.6364 -0.9609
 1414TIP3    H2 4249   5.247   0.982   3.784  0.7324  2.5163  1.4742
 1415TIP3   OH2 4250   6.097   4.387   4.912 -0.0416  0.2728 -0.2074
 1415TIP3    H1 4251   6.052   4.471   4.925  0.9272  0.6743  0.6503
 1415TIP3    H2 4252   6.072   4.335   4.988 -2.9640 -1.3364 -2.0963
 1416TIP3   OH2 4253   1.168   1.866   3.271 -0.1396 -0.1903  0.0232
 1416TIP3    H1 4254   1.223   1.943   3.259 -0.6763 -0.0338 -1.6896
 1416TIP3    H2 4255   1.080   1.896   3.252 -0.8462 -0.4859  2.5425
 1417TIP3   OH2 4256   1.910   4.518   4.177  0.1181  0.0640  0.2321
 1417TIP3    H1 4257   1.930   4.470   4.097  0.6801  2.1000 -0.9016
 1417TIP3    H2 4258   1.815   4.523   4.179  0.1007 -0.0004 -0.3219
 1418TIP3   OH2 4259   5.029   2.105   0.122 -0.4542 -0.1586 -0.1340
 1418TIP3    H1 4260   5.097   2.170   0.103 -1.1456  0.4873 -0.4356
 1418TIP3    H2 4261   4.947   2.153   0.115 -0.9332 -0.8441  0.5957
 1419TIP3   OH2 4262   0.754   2.743   2.194  0.2242 -0.1797  0.0480
 1419TIP3    H1 4263   0.684   2.701   2.243  1.8488 -1.7697  1.1301
 1419TIP3    H2 4264   0.734   2.837   2.199 -3.1158 -0.6351 -1.8014
 1420TIP3   OH2 4265   1.148   0.687   1.259 -0.5105 -0.2370  0.2162
 1420TIP3    H1 4266   1.099   0.754   1.307 -0.3089  0.4382 -0.5006
 1420TIP3    H2 4267   1.206   0.736   1.201  2.1645 -0.9353  2.0735
 1421TIP3   OH2 4268   4.433   1.355   0.226 -0.2202  0.2556  0.5363
 1421TIP3    H1 4269   4.497   1.423   0.205 -0.1394  0.1528  0.4501
 1421TIP3    H2 4270   4.388   1.388   0.304  0.7514 -0.2047  1.3155
 1422TIP3   OH2 4271   0.634   1.252   3.567 -0.6532  0.9692  0.2071
 1422TIP3    H1 4272   0.720   1.244   3.526 -0.8156 -0.4463  0.0954
 1422TIP3    H2 4273   0.604   1.339   3.541  0.4090  1.1804 -0.3968
 1423TIP3   OH2 4274   1.407   5.515   0.460  0.1380  0.2347  0.5388
 1423TIP3    H1 4275   1.353   5.443   0.426  0.0227  0.7550 -0.4338
 1423TIP3    H2 4276   1.379   5.527   0.550 -2.1365  1.1648 -0.2198
 1424TIP3   OH2 4277   4.951   5.782   2.961 -0.1034 -0.5279  0.0259
 1424TIP3    H1 4278   4.960   5.789   2.866 -1.5409  1.7920 -0.0116
 1424TIP3    H2 4279   4.876   5.725   2.975 -0.3482 -0.2773 -0.2652
 1425TIP3   OH2 4280   2.985   1.999   2.747  0.3036 -0.0334 -0.2664
 1425TIP3    H1 4281   2.948   2.033   2.666 -1.5988 -2.3024 -0.4908
 1425TIP3    H2 4282   3.025   1.916   2.722  1.9314  0.4037  0.7451
 1426TIP3   OH2 4283   6.070   2.512   4.422 -0.3793  0.4345 -0.1065
 1426TIP3    H1 4284   6.017   2.573   4.474 -1.4881  0.9350 -1.7343
 1426TIP3    H2 4285   6.043   2.425   4.451 -0.1702  0.7070  0.9156
 1427TIP3   OH2 4286   5.958   3.599   0.397 -0.2388  0.0422 -0.9522
 1427TIP3    H1 4287   6.039   3.560   0.430 -1.4773 -1.9751 -0.1531
 1427TIP3    H2 4288   5.939   3.550   0.317 -0.9554  0.1326 -0.8408
 1428TIP3   OH2 4289   2.371   1.614   4.157 -0.1904 -0.5543  0.0695
 1428TIP3    H1 4290   2.460   1.624   4.123 -0.9503 -2.1265 -2.7233
 1428TIP3    H2 4291   2.327   1.696   4.134  0.7007  0.6572  2.3752
 1429TIP3   OH2 4292   3.863   4.447   1.993 -0.8976 -0.4005  0.0312
 1429TIP3    H1 4293   3.771   4.467   1.980 -1.0640 -1.1138  0.0562
 1429TIP3    H2 4294   3.863   4.376   2.057 -0.6146 -3.4221 -3.0072
 1430TIP3   OH2 4295   0.877   3.513   2.871  0.0537  0.5390  0.3920
 1430TIP3    H1 4296   0.913   3.598   2.846 -0.2007  0.9874  1.4743
 1430TIP3    H2 4297   0.930   3.485   2.946 -0.4426  0.1812  0.6190
 1431TIP3   OH2 4298   3.054   0.912   1.152 -0.5146 -0.1420 -0.0425
 1431TIP3    H1 4299   3.018   0.888   1.067  0.9755  0.6385 -0.9416
 1431TIP3    H2 4300   3.022   1.001   1.167  1.2230  0.6924 -1.0131
 1432TIP3   OH2 4301   1.448   4.128   1.654 -0.1959 -0.0861 -0.7178
 1432TIP3    H1 4302   1.467   4.187   1.581 -0.3304  0.4432 -0.3265
 1432TIP3    H2 4303   1.532   4.085   1.672 -0.1235 -0.1010 -1.0746
 1433TIP3   OH2 4304   3.646   0.280   0.333  0.5363  0.0084  0.4480
 1433TIP3    H1 4305   3.653   0.185   0.322  1.4541  0.2152 -0.9631
 1433TIP3    H2 4306   3.633   0.291   0.427 -1.3904 -1.5888  0.4476
 1434TIP3   OH2 4307   4.427   1.244   5.121 -0.1759 -0.0283 -0.8574
 1434TIP3    H1 4308   4.506   1.190   5.119 -0.3700 -0.6155  2.1015
 1434TIP3    H2 4309   4.448   1.315   5.182 -1.4441  0.6047 -1.1310
 1435TIP3   OH2 4310   4.085   5.844   1.285 -0.5609  0.1054  0.3529
 1435TIP3    H1 4311   4.053   5.849   1.195 -0.1527  1.5081  0.2630
 1435TIP3    H2 4312   4.008   5.858   1.339 -0.5779  0.7054  0.1836
 1436TIP3   OH2 4313   1.414   2.002   3.136 -0.2279 -0.3002  0.4030
 1436TIP3    H1 4314   1.427   1.926   3.193  1.6304 -0.3256  0.0070
 1436TIP3    H2 4315   1.494   2.007   3.083 -0.6325  1.4875 -0.1200
 1437TIP3   OH2 4316   0.660   0.565   3.587  0.2655 -0.2922 -0.1350
 1437TIP3    H1 4317   0.694   0.647   3.621  0.6921 -1.7016  3.2020
 1437TIP3    H2 4318   0.565   0.578   3.584  0.3567  0.4251 -0.0096
 1438TIP3   OH2 4319   0.543   4.516   4.703  0.4331  0.1336  0.7252
 1438TIP3    H1 4320   0.481   4.572   4.748 -0.8934 -1.1440  0.5555
 1438TIP3    H2 4321   0.618   4.510   4.763  0.5533  1.9288  0.7963
 1439TIP3   OH2 4322   2.348   5.062   2.833 -0.3882 -0.2033 -0.0653
 1439TIP3    H1 4323   2.306   5.041   2.750  0.4022 -0.0200 -0.5319
 1439TIP3    H2 4324   2.278   5.093   2.889 -0.9236 -0.2557 -0.6952
 1440TIP3   OH2 4325   2.132   0.654   2.777 -0.3128 -0.5084 -0.3945
 1440TIP3    H1 4326   2.092   0.720   2.834  0.6428 -1.3402  1.2982
 1440TIP3    H2 4327   2.128   0.573   2.828  0.5905 -1.2815 -1.5167
 1441TIP3   OH2 4328   4.339   5.512   0.315 -0.1571  0.3653  0.1815
 1441TIP3    H1 4329   4.427   5.498   0.350  0.3189  0.6788 -0.8551
 1441TIP3    H2 4330   4.343   5.597   0.271 -0.7261  0.0006 -0.6079
 1442TIP3   OH2 4331   1.845   1.854   1.717 -0.0221  0.0580  0.1184
 1442TIP3    H1 4332   1.876   1.818   1.800 -3.2912  0.6835  1.7573
 1442TIP3    H2 4333   1.909   1.922   1.696  0.6992  0.1844  2.3798
 1443TIP3   OH2 4334   5.053   5.157   3.849  0.0910 -0.6041  0.0016
 1443TIP3    H1 4335   5.009   5.239   3.828  2.1448  0.6548  0.2779
 1443TIP3    H2 4336   5.105   5.176   3.927 -0.1615 -2.4801  0.6820
 1444TIP3   OH2 4337   1.867   3.684   3.844 -0.1171 -0.0491  0.2685
 1444TIP3    H1 4338   1.877   3.749   3.775 -0.9986  0.3610  0.5052
 1444TIP3    H2 4339   1.793   3.630   3.815 -0.1756 -0.1800  0.6536
 1445TIP3   OH2 4340   2.947   1.260   0.243 -0.7050  0.0603 -0.3522
 1445TIP3    H1 4341   2.933   1.192   0.177 -0.6414 -0.0136 -0.2888
 1445TIP3    H2 4342   3.007   1.323   0.201 -2.0079  0.9190 -1.0242
 1446TIP3   OH2 4343   4.023   1.901   0.050 -0.0111  0.3295 -0.3029
 1446TIP3    H1 4344   4.096   1.844   0.026 -1.7286 -1.2249 -2.3292
 1446TIP3    H2 4345   3.973   1.851   0.113 -1.6423 -0.6403 -2.2441
 1447TIP3   OH2 4346   4.333   4.310   0.627  0.1295  0.2485 -0.1316
 1447TIP3    H1 4347   4.418   4.348   0.649  0.7865 -1.0173 -0.3967
 1447TIP3    H2 4348   4.324   4.323   0.532 -0.1910  0.7820 -0.0340
 1448TIP3   OH2 4349   0.558   5.852   2.092 -0.6874 -0.7861 -0.4109
 1448TIP3    H1 4350   0.588   5.856   2.001  0.7226 -1.9939 -0.0282
 1448TIP3    H2 4351   0.469   5.818   2.086 -1.0590  0.2798 -1.3973
 1449TIP3   OH2 4352   0.132   1.583   1.377 -0.6998  0.4480  0.6301
 1449TIP3    H1 4353   0.103   1.534   1.300  0.8275  1.1480 -0.4447
 1449TIP3    H2 4354   0.095   1.536   1.451 -1.0879 -1.0455 -0.4616
 1450TIP3   OH2 4355   1.710   0.523   0.972 -0.2114  0.1652  0.3725
 1450TIP3    H1 4356   1.692   0.537   0.879 -0.3124  1.5376  0.5735
 1450TIP3    H2 4357   1.663   0.594   1.016  0.2848 -0.1406  1.4282
 1451TIP3   OH2 4358   2.752   0.610   2.965 -0.3899 -0.1521  0.1756
 1451TIP3    H1 4359   2.735   0.704   2.974 -0.0411  0.3336 -3.0687
 1451TIP3    H2 4360   2.793   0.601   2.879 -1.5125 -3.4382 -0.1516
 1452TIP3   OH2 4361   6.313   3.402   4.925 -0.4378 -0.3579 -0.3849
 1452TIP3    H1 4362   6.291   3.369   5.012 -1.2796  0.3281 -0.3207
 1452TIP3    H2 4363   6.406   3.425   4.931 -0.6225  0.2073  0.5133
 1453TIP3   OH2 4364   3.901   1.101   0.130 -0.6408 -0.1244 -0.1115
 1453TIP3    H1 4365   3.816   1.138   0.154 -0.0362  0.8841  0.5365
 1453TIP3    H2 4366   3.883   1.051   0.050 -1.7435  0.5036 -0.2825
 1454TIP3   OH2 4367   4.037   4.426   1.372  0.3904  0.0245  0.4107
 1454TIP3    H1 4368   3.979   4.502   1.370  0.3912  0.0139 -0.4327
 1454TIP3    H2 4369   3.988   4.360   1.421  1.0726  1.0809  2.6511
 1455TIP3   OH2 4370   0.411   4.920   0.359 -0.6410 -0.2499 -0.0401
 1455TIP3    H1 4371   0.351   4.851   0.331  0.2839 -1.8755  1.7860
 1455TIP3    H2 4372   0.495   4.896   0.321 -0.6080  0.7289 -0.6290
 1456TIP3   OH2 4373   4.954   5.018   2.023 -0.2342  0.1710  0.1757
 1456TIP3    H1 4374   4.995   5.103   2.008 -0.1170  0.0322 -0.3178
 1456TIP3    H2 4375   4.878   5.037   2.079  0.3677  0.4597  0.9161
 1457TIP3   OH2 4376   6.290   0.957   3.123  0.5032 -0.0816 -0.5379
 1457TIP3    H1 4377   6.298   1.028   3.059  0.4895 -0.7899 -1.3563
 1457TIP3    H2 4378   6.197   0.939   3.128  0.2646  1.4666  1.4084
 1458TIP3   OH2 4379   0.014   4.668   5.061  0.3015 -0.2095 -0.0549
 1458TIP3    H1 4380  -0.059   4.608   5.078 -0.0264  0.1691 -0.0913
 1458TIP3    H2 4381   0.088   4.630   5.109 -0.6200  0.8985  2.4452
 1459TIP3   OH2 4382   1.859   2.815   4.180  0.0816 -0.1144  0.2930
 1459TIP3    H1 4383   1.813   2.811   4.264  0.9360 -1.5340  0.7224
 1459TIP3    H2 4384   1.805   2.763   4.121 -0.2167  0.4033  0.1037
 1460TIP3   OH2 4385   0.979   5.491   0.022  0.6494 -0.4117 -0.1203
 1460TIP3    H1 4386   0.945   5.456   0.104 -0.4908 -1.6918 -1.0878
 1460TIP3    H2 4387   0.958   5.584   0.024 -1.9758 -0.9371 -0.1661
 1461TIP3   OH2 4388   4.732   2.894   3.714 -0.4152 -0.1178  0.4650
 1461TIP3    H1 4389   4.642   2.863   3.700 -0.6311  0.7188 -0.0551
 1461TIP3    H2 4390   4.786   2.816   3.702 -1.0731 -0.6551  0.8976
 1462TIP3   OH2 4391   1.601   1.728   4.114 -0.1155  0.2201 -0.3176
 1462TIP3    H1 4392   1.678   1.751   4.166  1.8636 -3.8795 -1.0235
 1462TIP3    H2 4393   1.546   1.676   4.174 -0.7740  0.4692 -0.6940
 1463TIP3   OH2 4394   0.941   2.169   1.196  0.3494  0.0361 -0.0883
 1463TIP3    H1 4395   0.913   2.218   1.273  2.0709 -0.9168  1.1902
 1463TIP3    H2 4396   0.870   2.107   1.180 -0.9205  1.5292 -0.5146
 1464TIP3   OH2 4397   4.478   4.340   2.889 -0.0020  0.2419  0.3214
 1464TIP3    H1 4398   4.385   4.352   2.872 -0.0516 -0.0093  0.4181
 1464TIP3    H2 4399   4.521   4.368   2.808 -0.2583 -1.2739 -0.3605
 1465TIP3   OH2 4400   1.338   2.393   4.801 -0.1575  0.1967 -0.1304
 1465TIP3    H1 4401   1.406   2.461   4.801 -0.7447  0.8210  0.7471
 1465TIP3    H2 4402   1.383   2.314   4.830  0.5874  0.1402 -1.3680
 1466TIP3   OH2 4403   5.617   0.269   1.619  0.0162  0.0211  0.6176
 1466TIP3    H1 4404   5.600   0.279   1.712  0.6213 -0.9585  0.8506
 1466TIP3    H2 4405   5.679   0.196   1.614 -0.8470 -0.6625 -0.6197
 1467TIP3   OH2 4406   3.967   0.143   0.415  0.1241  0.3362 -0.1983
 1467TIP3    H1 4407   4.061   0.127   0.423  0.0628  0.8183  2.4972
 1467TIP3    H2 4408   3.926   0.068   0.458 -0.7017  0.4920 -0.6960
 1468TIP3   OH2 4409   4.778   5.149   1.390 -0.1192  0.2414  0.0441
 1468TIP3    H1 4410   4.827   5.161   1.472 -1.3625  0.0356  0.8431
 1468TIP3    H2 4411   4.747   5.059   1.393  1.5294 -0.4414 -1.6535
 1469TIP3   OH2 4412   5.495   4.485   4.724  0.2392  0.4663 -0.1583
 1469TIP3    H1 4413   5.572   4.510   4.674  0.2926 -0.2271 -0.4268
 1469TIP3    H2 4414   5.471   4.399   4.691 -0.6701  0.6852 -0.0951
 1470TIP3   OH2 4415   2.023   3.443   0.443 -0.3649  0.2448 -0.2736
 1470TIP3    H1 4416   1.971   3.366   0.467 -2.7969  1.9308  0.1737
 1470TIP3    H2 4417   1.982   3.515   0.489  0.3843  2.2108 -2.4823
 1471TIP3   OH2 4418   5.107   1.459   1.189  0.2802  0.4559 -0.0285
 1471TIP3    H1 4419   5.106   1.488   1.098  0.7413  0.1024 -0.1518
 1471TIP3    H2 4420   5.144   1.533   1.237 -0.8381  1.0091  0.0154
 1472TIP3   OH2 4421   4.829   0.817   3.553  0.2731  0.0167 -0.3350
 1472TIP3    H1 4422   4.904   0.766   3.520  0.7867  0.6482 -0.1629
 1472TIP3    H2 4423   4.789   0.853   3.474 -0.5541 -1.2459 -0.5279
 1473TIP3   OH2 4424   5.671   2.437   0.103 -0.5923 -0.8228 -0.0705
 1473TIP3    H1 4425   5.616   2.358   0.102  2.8277 -3.4192 -0.6488
 1473TIP3    H2 4426   5.732   2.424   0.030  1.7444  1.0999  1.4120
 1474TIP3   OH2 4427   0.168   0.691   1.988  0.5241 -0.6100 -0.5718
 1474TIP3    H1 4428   0.102   0.711   2.054 -0.2303 -0.7484 -1.2686
 1474TIP3    H2 4429   0.132   0.617   1.939  1.6389 -1.3328 -0.3409
 1475TIP3   OH2 4430   0.400   2.628   0.789 -0.4317  0.0859  0.1029
 1475TIP3    H1 4431   0.323   2.679   0.812 -0.8005 -0.5704  0.3408
 1475TIP3    H2 4432   0.449   2.621   0.871 -0.2914  0.2008  0.0304
 1476TIP3   OH2 4433   1.843   0.037   5.072 -0.0878 -0.0631 -0.0933
 1476TIP3    H1 4434   1.845  -0.050   5.113 -1.5912  0.1444  0.4689
 1476TIP3    H2 4435   1.903   0.090   5.125 -1.4185 -0.0002  1.4137
 1477TIP3   OH2 4436   4.312   3.475   0.534 -0.0572  0.4556  0.1917
 1477TIP3    H1 4437   4.388   3.463   0.477 -0.8059  1.0056 -0.9620
 1477TIP3    H2 4438   4.339   3.542   0.597  1.1109 -0.8398  1.1411
 1478TIP3   OH2 4439   5.064   2.459   4.483  0.1816  0.4570  0.6078
 1478TIP3    H1 4440   5.008   2.525   4.525 -0.2928  0.4696 -0.0198
 1478TIP3    H2 4441   5.064   2.483   4.390 -0.5932 -0.8282  0.2397
 1479TIP3   OH2 4442   1.769   5.608   4.140 -0.6811  0.2356  0.2540
 1479TIP3    H1 4443   1.844   5.667   4.149 -0.9309  0.4740  0.7937
 1479TIP3    H2 4444   1.795   5.529   4.188 -0.9239  0.4653  0.7716
 1480TIP3   OH2 4445   4.963   5.460   2.752 -0.2172 -0.2514  0.0502
 1480TIP3    H1 4446   4.927   5.542   2.719  0.1396 -0.3388 -0.5791
 1480TIP3    H2 4447   5.039   5.443   2.696 -0.4012 -1.1076  0.0452
 1481TIP3   OH2 4448   1.764   0.806   3.408 -0.5788  0.2747  0.0010
 1481TIP3    H1 4449   1.855   0.790   3.433 -0.2832  1.1417 -0.5020
 1481TIP3    H2 4450   1.731   0.864   3.476  0.1888  2.5342 -1.4566
 1482TIP3   OH2 4451   6.340   4.717   1.194 -0.4365  0.1638 -0.0572
 1482TIP3    H1 4452   6.370   4.723   1.103 -1.3792 -1.9817 -0.6036
 1482TIP3    H2 4453   6.284   4.793   1.206  0.4174  0.9655 -0.9674
 1483TIP3   OH2 4454   5.100   5.058   0.376  0.6841 -0.2379  0.0902
 1483TIP3    H1 4455   5.028   5.073   0.437  0.7165  0.9694 -0.1504
 1483TIP3    H2 4456   5.085   4.970   0.341  0.8332 -1.0767  2.0417
 1484TIP3   OH2 4457   4.644   3.949   4.857  0.1070 -0.2351 -0.3779
 1484TIP3    H1 4458   4.659   4.030   4.905 -1.7255 -1.4245  2.4822
 1484TIP3    H2 4459   4.561   3.964   4.811 -0.1834 -0.4450  0.0747
 1485TIP3   OH2 4460   1.657   4.759   4.650 -0.0402 -0.1858 -0.0736
 1485TIP3    H1 4461   1.630   4.760   4.742 -1.9938 -0.5651 -0.5942
 1485TIP3    H2 4462   1.612   4.683   4.613  1.0358 -0.2683 -1.2577
 1486TIP3   OH2 4463   0.976   3.503   0.808  0.3219  0.5199 -0.4155
 1486TIP3    H1 4464   0.978   3.441   0.735 -0.1091  1.8031 -1.5561
 1486TIP3    H2 4465   0.967   3.589   0.766  2.1842  1.4953  1.0481
 1487TIP3   OH2 4466   1.471   0.361   3.460  0.3848  0.4636 -0.2615
 1487TIP3    H1 4467   1.534   0.422   3.422  1.0817  0.4040  0.7676
 1487TIP3    H2 4468   1.487   0.279   3.414  1.8377  0.1539  0.7304
 1488TIP3   OH2 4469   0.540   5.907   1.204 -0.3709 -0.2285  1.0343
 1488TIP3    H1 4470   0.543   5.940   1.294 -0.2299  0.5020  0.7697
 1488TIP3    H2 4471   0.453   5.932   1.173 -0.1005  0.2924  0.6863
 1489TIP3   OH2 4472   1.248   1.575   0.176 -0.3012 -0.2971 -0.1145
 1489TIP3    H1 4473   1.229   1.544   0.265  0.6552 -0.4161  0.0665
 1489TIP3    H2 4474   1.235   1.669   0.181  0.5355 -0.1892  0.3940
 1490TIP3   OH2 4475   5.001   3.300   0.655 -0.2603 -0.4717 -0.1633
 1490TIP3    H1 4476   4.936   3.366   0.631 -1.0019 -0.8404  0.7506
 1490TIP3    H2 4477   5.082   3.349   0.666 -0.2353 -0.0811 -1.8413
 1491TIP3   OH2 4478   2.320   1.462   0.477  0.0917  0.2832  0.8430
 1491TIP3    H1 4479   2.350   1.457   0.386  1.3781  2.1644  1.1006
 1491TIP3    H2 4480   2.224   1.455   0.471 -0.1293  3.2249 -1.0021
 1492TIP3   OH2 4481   5.379   0.098   4.462  0.6139 -0.0257  0.1615
 1492TIP3    H1 4482   5.465   0.113   4.501  0.0809 -0.2283  1.4544
 1492TIP3    H2 4483   5.318   0.147   4.517 -0.5990 -3.1180  1.7655
 1493TIP3   OH2 4484   1.631   1.928   3.718  0.1220 -0.0690  0.3769
 1493TIP3    H1 4485   1.561   1.888   3.771 -0.7247 -0.0057 -0.6639
 1493TIP3    H2 4486   1.594   2.011   3.689  1.0371  0.4517  0.6608
 1494TIP3   OH2 4487   3.804   1.544   1.754 -0.0096 -0.1717  0.0573
 1494TIP3    H1 4488   3.760   1.502   1.828 -1.4142  3.1834  1.3047
 1494TIP3    H2 4489   3.733   1.563   1.692  0.1997  1.9933  0.4200
 1495TIP3   OH2 4490   3.469   0.511   2.361  0.3334  0.5665 -0.4767
 1495TIP3    H1 4491   3.419   0.566   2.301  0.0587  1.0086  0.1463
 1495TIP3    H2 4492   3.459   0.422   2.327  0.7748  0.8871 -1.4862
 1496TIP3   OH2 4493   5.866   0.456   2.461 -0.3493 -0.0708 -0.1843
 1496TIP3    H1 4494   5.858   0.434   2.368  0.8350  0.1618 -0.3488
 1496TIP3    H2 4495   5.857   0.552   2.463 -0.4776 -0.0851 -0.0431
 1497TIP3   OH2 4496   3.280   1.891   1.602 -0.1425 -0.4732  0.8273
 1497TIP3    H1 4497   3.202   1.923   1.557  0.9181  1.5916  0.3122
 1497TIP3    H2 4498   3.347   1.887   1.534  0.3587 -1.7296  1.3581
 1498TIP3   OH2 4499   0.250   4.862   4.656  0.4021  0.2795  0.0573
 1498TIP3    H1 4500   0.170   4.856   4.708  1.1566 -0.3587  1.1796
 1498TIP3    H2 4501   0.231   4.930   4.590 -1.9501 -1.5770 -1.3351
 1499TIP3   OH2 4502   4.661   0.342   3.361 -0.1221 -0.0595  0.6610
 1499TIP3    H1 4503   4.686   0.406   3.295  0.3666 -1.4330 -0.5630
 1499TIP3    H2 4504   4.586   0.381   3.406 -1.6223  0.2482 -1.9073
 1500TIP3   OH2 4505   4.165   3.627   2.115  0.1292  0.6181 -0.7741
 1500TIP3    H1 4506   4.197   3.667   2.196 -1.6931  0.2717  0.1650
 1500TIP3    H2 4507   4.132   3.542   2.142  0.0334  0.2581 -2.0001
 1501TIP3   OH2 4508   3.713   4.580   4.523  0.2372 -0.1585 -0.5292
 1501TIP3    H1 4509   3.770   4.504   4.534  0.7588  0.5696  2.8525
 1501TIP3    H2 4510   3.624   4.546   4.534  0.3311 -0.5420 -0.9252
 1502TIP3   OH2 4511   5.052   2.253   1.676 -0.1880  0.4233 -0.3176
 1502TIP3    H1 4512   5.137   2.214   1.661 -0.8236 -1.2451  0.2548
 1502TIP3    H2 4513   5.066   2.347   1.663  1.9059  0.2783  0.6059
 1503TIP3   OH2 4514   1.441   3.486   1.406 -0.0051  0.2232 -0.0211
 1503TIP3    H1 4515   1.512   3.550   1.406  1.2295 -1.1007 -0.1765
 1503TIP3    H2 4516   1.426   3.467   1.313 -2.4106  2.4002 -0.1827
 1504TIP3   OH2 4517   1.631   3.296   2.639 -0.4311  0.0905  0.5289
 1504TIP3    H1 4518   1.572   3.359   2.680 -0.6020  0.7410 -0.6678
 1504TIP3    H2 4519   1.576   3.220   2.620 -0.9337  0.7379 -0.6860
 1505TIP3   OH2 4520   2.539   4.734   3.869  0.2103 -0.3736  0.0374
 1505TIP3    H1 4521   2.560   4.654   3.917  1.4203 -0.2515 -0.2319
 1505TIP3    H2 4522   2.501   4.793   3.934  0.1121 -0.8664  0.4259
 1506TIP3   OH2 4523   2.899   5.304   1.527  0.3498  0.4238  0.0408
 1506TIP3    H1 4524   2.895   5.284   1.434 -0.5607 -1.3163  0.4241
 1506TIP3    H2 4525   2.987   5.278   1.553  0.4654  0.5282 -0.2357
 1507TIP3   OH2 4526   4.655   2.630   4.817  0.0968  0.1549 -0.1083
 1507TIP3    H1 4527   4.613   2.710   4.849 -1.8813 -0.7739 -0.2036
 1507TIP3    H2 4528   4.746   2.636   4.847  0.2002  2.7656 -0.7746
 1508TIP3   OH2 4529   5.548   1.430   2.930  0.3274 -0.8928  0.3087
 1508TIP3    H1 4530   5.541   1.342   2.965 -0.2070 -1.3844 -0.9595
 1508TIP3    H2 4531   5.457   1.457   2.914  0.3484  0.5961  2.2785
 1509TIP3   OH2 4532   6.050   1.479   0.392  0.3582 -0.2000  0.1849
 1509TIP3    H1 4533   6.058   1.411   0.326 -1.2794  0.8485 -1.1637
 1509TIP3    H2 4534   5.960   1.472   0.423  0.4660  0.7234  0.7381
 1510TIP3   OH2 4535   0.225   2.142   3.067 -0.3639  0.1628  0.4564
 1510TIP3    H1 4536   0.245   2.104   3.153  1.0203  0.6230  0.3702
 1510TIP3    H2 4537   0.219   2.236   3.084 -1.5487  0.1280  0.2871
 1511TIP3   OH2 4538   0.164   0.780   0.439  0.4381  0.1858  0.1128
 1511TIP3    H1 4539   0.138   0.868   0.468 -0.9712  0.2316 -1.1478
 1511TIP3    H2 4540   0.247   0.793   0.394  0.6775  0.7302  0.7049
 1512TIP3   OH2 4541   1.783   4.484   0.054  0.3173 -0.0578 -0.4730
 1512TIP3    H1 4542   1.822   4.440  -0.021  1.0131 -1.4904  0.6702
 1512TIP3    H2 4543   1.701   4.438   0.069 -0.7302  1.4051 -1.4108
 1513TIP3   OH2 4544   0.847   0.812   1.693  0.1829 -0.5307 -0.4968
 1513TIP3    H1 4545   0.787   0.875   1.733  0.6799 -1.3762  1.6986
 1513TIP3    H2 4546   0.933   0.837   1.726  0.3644 -2.4364  0.5839
 1514TIP3   OH2 4547   6.326   2.339   0.270  0.4147  0.3416  0.6898
 1514TIP3    H1 4548   6.354   2.430   0.277 -0.9179  0.7350  1.3689
 1514TIP3    H2 4549   6.334   2.318   0.177 -0.9105  1.7473  0.2072
 1515TIP3   OH2 4550   2.821   3.802   0.339 -0.0117  0.1628  0.7422
 1515TIP3    H1 4551   2.903   3.771   0.377  0.8246  1.8223  0.3748
 1515TIP3    H2 4552   2.829   3.897   0.337 -0.1380  0.2658 -3.1577
 1516TIP3   OH2 4553   0.152   3.266   0.803  0.2603 -0.0355 -0.0895
 1516TIP3    H1 4554   0.133   3.284   0.895  0.3983 -0.3881  0.0094
 1516TIP3    H2 4555   0.089   3.319   0.755 -1.1937 -1.3866  0.2363
 1517TIP3   OH2 4556   6.367   4.098   0.541  0.1027  0.6966  0.1816
 1517TIP3    H1 4557   6.272   4.096   0.549  0.0261  2.0632 -0.0538
 1517TIP3    H2 4558   6.384   4.166   0.475  1.1318 -1.7121 -2.2361
 1518TIP3   OH2 4559   3.052   1.587   3.370 -0.0501  0.8805 -0.1779
 1518TIP3    H1 4560   3.045   1.680   3.349 -1.8873  0.7107 -0.5814
 1518TIP3    H2 4561   2.978   1.547   3.323  1.2423 -0.9320 -0.7919
 1519TIP3   OH2 4562   3.123   1.990   4.570 -0.1935  0.2626 -0.0537
 1519TIP3    H1 4563   3.211   1.983   4.532 -1.3374  0.9547 -3.2060
 1519TIP3    H2 4564   3.084   1.904   4.553 -1.2080  1.0381 -2.0412
 1520TIP3   OH2 4565   6.188   5.507   1.283  0.3959  0.1811 -0.6020
 1520TIP3    H1 4566   6.190   5.423   1.238  0.7402  0.7677 -1.6935
 1520TIP3    H2 4567   6.198   5.573   1.214  0.0168  1.1307  0.2173
 1521TIP3   OH2 4568   6.174   0.621   0.993 -0.2366  0.4636 -0.0057
 1521TIP3    H1 4569   6.116   0.560   1.038  0.7931  0.5802  1.5882
 1521TIP3    H2 4570   6.143   0.708   1.019  0.8553  0.5218  1.2139
 1522TIP3   OH2 4571   0.960   1.075   0.268  0.2084  0.4931  0.0624
 1522TIP3    H1 4572   0.971   1.079   0.363 -0.6632  2.4784  0.1121
 1522TIP3    H2 4573   1.039   1.115   0.233  0.0764  0.6880 -0.0141
 1523TIP3   OH2 4574   1.635   4.488   2.692  0.3230  0.1734  0.0763
 1523TIP3    H1 4575   1.627   4.452   2.781 -0.9588 -0.8209 -0.4036
 1523TIP3    H2 4576   1.729   4.487   2.674  0.6775  1.0719  1.6789
 1524TIP3   OH2 4577   5.304   0.130   1.356 -0.4381 -0.5239 -0.3582
 1524TIP3    H1 4578   5.328   0.182   1.432  0.0832 -1.4639  0.1290
 1524TIP3    H2 4579   5.236   0.183   1.312 -0.6503  0.0881  0.6662
 1525TIP3   OH2 4580   4.060   4.807   2.689 -0.3868  0.2379 -0.1720
 1525TIP3    H1 4581   3.972   4.819   2.724 -1.0834 -2.2338 -0.8479
 1525TIP3    H2 4582   4.047   4.800   2.594  0.9647  2.8539 -0.6348
 1526TIP3   OH2 4583   3.961   0.644   3.814  0.0548 -0.6508 -0.0173
 1526TIP3    H1 4584   3.887   0.702   3.829  0.5787  0.1800 -0.5865
 1526TIP3    H2 4585   3.922   0.557   3.804 -0.8260 -0.2373 -0.2444
 1527TIP3   OH2 4586   3.043   3.497   0.767  0.3790 -0.3867  0.5033
 1527TIP3    H1 4587   3.018   3.429   0.705  2.1063 -2.1144  1.6154
 1527TIP3    H2 4588   2.972   3.497   0.832 -0.1146 -0.4017 -0.0193
 1528TIP3   OH2 4589   0.850   1.302   3.772 -0.0278 -0.3273 -0.4203
 1528TIP3    H1 4590   0.878   1.376   3.826  0.7511 -1.6377  1.0497
 1528TIP3    H2 4591   0.880   1.324   3.683  1.3091  0.5370  0.2187
 1529TIP3   OH2 4592   4.436   4.844   4.701 -0.4967 -0.0032 -0.0015
 1529TIP3    H1 4593   4.360   4.870   4.754 -0.9666  0.0098 -0.6691
 1529TIP3    H2 4594   4.410   4.862   4.611  0.7469  1.1171 -0.1679
 1530TIP3   OH2 4595   0.541   2.695   0.492  0.0881 -0.0040  0.1384
 1530TIP3    H1 4596   0.452   2.723   0.471  0.0357  0.0384  0.4142
 1530TIP3    H2 4597   0.534   2.652   0.577  0.4419  0.6277  0.4987
 1531TIP3   OH2 4598   1.087   0.707   3.569 -0.1170  0.1966  0.7295
 1531TIP3    H1 4599   1.163   0.654   3.591 -0.1193  0.3926  1.2120
 1531TIP3    H2 4600   1.116   0.763   3.496  0.1327  0.1152  0.7684
 1532TIP3   OH2 4601   3.300   5.310   4.610  0.3997 -0.4524  0.6486
 1532TIP3    H1 4602   3.256   5.275   4.687 -0.1996  0.3115  0.6722
 1532TIP3    H2 4603   3.285   5.404   4.615  0.1907 -0.4119 -0.4984
 1533TIP3   OH2 4604   0.615   0.861   3.565 -0.0123 -0.1326 -0.5693
 1533TIP3    H1 4605   0.614   0.918   3.642  2.5255 -0.3514 -0.2629
 1533TIP3    H2 4606   0.548   0.897   3.507 -0.3631  1.4750  0.7592
 1534TIP3   OH2 4607   4.604   2.442   2.528  0.5465 -0.5023  0.2241
 1534TIP3    H1 4608   4.618   2.364   2.581  1.4102  0.1199  0.9441
 1534TIP3    H2 4609   4.511   2.441   2.507  0.7784 -2.4384 -0.9408
 1535TIP3   OH2 4610   5.771   5.272   0.680 -0.8192 -0.0495  0.0915
 1535TIP3    H1 4611   5.762   5.197   0.621 -0.9366 -1.4099  1.7837
 1535TIP3    H2 4612   5.713   5.339   0.642 -1.2573 -1.0424 -1.0697
 1536TIP3   OH2 4613   5.205   2.847   1.121 -0.2201 -0.4910 -0.4960
 1536TIP3    H1 4614   5.280   2.788   1.124 -0.1180 -0.3208  0.9327
 1536TIP3    H2 4615   5.157   2.829   1.201 -0.9372  0.4065 -0.7064
 1537TIP3   OH2 4616   0.687   3.557   5.104  0.2293 -0.3334 -0.3034
 1537TIP3    H1 4617   0.595   3.533   5.088 -0.5075  1.5838  0.7055
 1537TIP3    H2 4618   0.697   3.548   5.199  0.6349  0.8600 -0.2213
 1538TIP3   OH2 4619   0.166   3.888   0.682  1.2021  0.3014 -0.4963
 1538TIP3    H1 4620   0.082   3.933   0.670 -0.2996 -2.1456 -0.0319
 1538TIP3    H2 4621   0.231   3.958   0.683 -0.8268  2.3250 -0.7932
 1539TIP3   OH2 4622   5.107   1.146   2.074  0.3561 -0.2901 -0.7372
 1539TIP3    H1 4623   5.165   1.071   2.076 -2.0913 -2.3597 -1.7420
 1539TIP3    H2 4624   5.066   1.143   1.987 -0.8063  1.3989 -0.3088
 1540TIP3   OH2 4625   3.434   1.596   0.385  0.4271  0.2440  0.7110
 1540TIP3    H1 4626   3.452   1.653   0.460 -1.0897  1.5692  0.1219
 1540TIP3    H2 4627   3.438   1.507   0.420 -0.2505  0.8291  2.3639
 1541TIP3   OH2 4628   3.237   1.160   0.303  0.2437  0.2005  0.3723
 1541TIP3    H1 4629   3.308   1.096   0.305  0.2750  0.1325 -1.4887
 1541TIP3    H2 4630   3.157   1.107   0.304  0.2339 -0.1630 -3.7742
 1542TIP3   OH2 4631   3.497   1.424   4.133  0.1204 -0.3609  0.3155
 1542TIP3    H1 4632   3.543   1.502   4.164 -1.1542  0.3232  0.5322
 1542TIP3    H2 4633   3.475   1.376   4.212  0.0962 -0.4860  0.2332
 1543TIP3   OH2 4634   2.218   1.405   4.320 -0.3995  0.2848 -0.4070
 1543TIP3    H1 4635   2.259   1.480   4.276  0.2717  0.3850  0.3733
 1543TIP3    H2 4636   2.125   1.428   4.326  0.0113  1.7009  1.0791
 1544TIP3   OH2 4637   1.538   4.798   4.887  0.1851 -0.0597 -0.2040
 1544TIP3    H1 4638   1.574   4.867   4.942  0.7755 -0.1436 -0.4710
 1544TIP3    H2 4639   1.586   4.719   4.913  0.7637 -0.0241 -1.1096
 1545TIP3   OH2 4640   5.124   1.924   1.738  0.1792 -0.0042 -0.3385
 1545TIP3    H1 4641   5.081   1.991   1.685 -1.1369  0.7123  1.5309
 1545TIP3    H2 4642   5.116   1.843   1.687 -1.9183  0.4469 -0.8010
 1546TIP3   OH2 4643   2.491   0.929   3.983  0.0899  0.1761 -0.6307
 1546TIP3    H1 4644   2.505   0.946   4.076 -0.9330 -0.6548 -0.3096
 1546TIP3    H2 4645   2.403   0.892   3.978  0.7177 -1.2561 -1.7533
 1547TIP3   OH2 4646   2.393   1.207   0.609  0.0661  0.4109 -0.0335
 1547TIP3    H1 4647   2.414   1.136   0.549 -0.1469  0.5707 -0.2971
 1547TIP3    H2 4648   2.335   1.265   0.560 -3.1226 -1.3010  1.4189
 1548TIP3   OH2 4649   0.705   5.321   4.156  0.4641 -0.4101  0.0190
 1548TIP3    H1 4650   0.671   5.315   4.067 -0.0813  2.0358 -0.0031
 1548TIP3    H2 4651   0.629   5.341   4.210  1.4467  4.1922  0.1111
 1549TIP3   OH2 4652   4.146   5.681   1.633  0.3925 -0.1548 -0.0485
 1549TIP3    H1 4653   4.116   5.704   1.721 -0.7998 -1.1651 -0.1720
 1549TIP3    H2 4654   4.181   5.762   1.598 -2.3524  1.1818  0.0601
 1550TIP3   OH2 4655   5.731   5.571   2.306 -0.3187  0.0195  0.7730
 1550TIP3    H1 4656   5.817   5.533   2.323  0.6169  1.3857 -0.6541
 1550TIP3    H2 4657   5.716   5.629   2.381  1.0412  1.4289  0.0252
 1551TIP3   OH2 4658   4.675   0.358   2.716  0.3061 -0.0563  0.1129
 1551TIP3    H1 4659   4.585   0.363   2.746  0.2762 -0.6916  0.1472
 1551TIP3    H2 4660   4.717   0.295   2.774  0.4365 -0.7315 -0.6832
 1552TIP3   OH2 4661   2.765   3.269   2.978 -0.0873 -0.2642 -0.1989
 1552TIP3    H1 4662   2.703   3.209   3.021 -1.6769  0.3662 -1.4788
 1552TIP3    H2 4663   2.789   3.332   3.047 -2.2541  0.4953 -0.0580
 1553TIP3   OH2 4664   0.234   4.462   0.117  0.1945 -0.6615  0.3978
 1553TIP3    H1 4665   0.320   4.502   0.104 -0.0903 -0.0153  0.4834
 1553TIP3    H2 4666   0.173   4.522   0.075 -0.0016 -2.2990 -1.7976
 1554TIP3   OH2 4667   5.578   1.916   3.315 -0.0346 -0.7827  0.0003
 1554TIP3    H1 4668   5.593   1.989   3.375  1.0607  1.8461 -3.1807
 1554TIP3    H2 4669   5.485   1.922   3.293  0.2969  0.5389 -1.1823
 1555TIP3   OH2 4670   6.204   3.074   1.712 -0.5235 -0.2319 -0.0852
 1555TIP3    H1 4671   6.146   3.060   1.787 -0.5713  0.1236 -0.0538
 1555TIP3    H2 4672   6.169   3.152   1.669 -1.2608 -1.1526 -1.2122
 1556TIP3   OH2 4673   0.336   0.473   0.786  0.4600  0.1687 -0.2015
 1556TIP3    H1 4674   0.354   0.415   0.711  1.9347 -1.2153  1.1395
 1556TIP3    H2 4675   0.399   0.445   0.853 -0.2171  1.9596  1.2496
 1557TIP3   OH2 4676   0.758   0.782   3.986 -0.7113  0.1703 -0.0605
 1557TIP3    H1 4677   0.803   0.821   3.910 -0.0436  0.9011  0.6934
 1557TIP3    H2 4678   0.828   0.743   4.038 -1.0004  0.7857  0.8180
 1558TIP3   OH2 4679   2.530   3.944   4.564 -0.0718 -0.2308 -0.4649
 1558TIP3    H1 4680   2.560   4.029   4.530 -0.3574  0.9485  1.9618
 1558TIP3    H2 4681   2.435   3.947   4.554 -0.3310  0.8054  1.6167
 1559TIP3   OH2 4682   2.739   0.412   0.763  0.0989 -0.4167  0.2980
 1559TIP3    H1 4683   2.759   0.400   0.855  1.0175 -1.2361  0.0074
 1559TIP3    H2 4684   2.824   0.417   0.720 -0.3183 -0.1761 -0.5243
 1560TIP3   OH2 4685   2.407   1.053   3.618 -0.3812 -0.3192  0.0665
 1560TIP3    H1 4686   2.431   1.122   3.679 -1.4465  0.4137 -0.3150
 1560TIP3    H2 4687   2.470   1.060   3.547 -0.1076 -0.1483  0.3233
 1561TIP3   OH2 4688   5.368   5.098   3.480  0.0020  0.0602  0.1756
 1561TIP3    H1 4689   5.315   5.105   3.401 -2.2742  2.0506  1.7169
 1561TIP3    H2 4690   5.449   5.145   3.460  0.3449 -1.1685 -1.5317
 1562TIP3   OH2 4691   4.466   1.097   1.345  0.1719 -0.0417 -0.2444
 1562TIP3    H1 4692   4.540   1.101   1.284  0.7138  0.7381  0.4633
 1562TIP3    H2 4693   4.400   1.047   1.297  1.4842 -1.6235 -0.5293
 1563TIP3   OH2 4694   3.021   2.787   2.231 -0.5728 -0.3442  0.3576
 1563TIP3    H1 4695   3.019   2.876   2.194 -0.9374  0.2709  1.7790
 1563TIP3    H2 4696   3.101   2.748   2.197 -0.3349  0.5891 -0.1745
 1564TIP3   OH2 4697   5.640   3.577   1.443  0.2642  0.2310  0.2304
 1564TIP3    H1 4698   5.695   3.558   1.367 -0.9533  0.0360 -0.6317
 1564TIP3    H2 4699   5.598   3.661   1.422 -1.2704 -0.5666 -0.0354
 1565TIP3   OH2 4700   3.201   2.456   2.812 -0.1055 -0.3555  0.9064
 1565TIP3    H1 4701   3.147   2.528   2.845  0.4950 -0.3374  1.8798
 1565TIP3    H2 4702   3.168   2.379   2.859 -0.6261 -0.6943  0.0020
 1566TIP3   OH2 4703   5.928   3.016   3.250 -0.0922 -0.6279  0.5246
 1566TIP3    H1 4704   5.964   3.000   3.162 -2.4090 -4.4443  0.0331
 1566TIP3    H2 4705   5.982   3.086   3.285  0.7354  1.3971 -4.0289
 1567TIP3   OH2 4706   0.398   3.902   2.087  0.4894  0.9671 -0.3408
 1567TIP3    H1 4707   0.441   3.977   2.128  0.9043  0.6273 -0.1433
 1567TIP3    H2 4708   0.425   3.907   1.995  2.2628 -0.1114  0.0665
 1568TIP3   OH2 4709   4.019   1.924   1.235 -0.2558  0.1593 -0.4155
 1568TIP3    H1 4710   4.112   1.935   1.252 -0.4602 -1.0263  1.9605
 1568TIP3    H2 4711   4.014   1.858   1.166  0.7010 -1.0078  0.5790
 1569TIP3   OH2 4712   0.618   2.695   0.185 -0.0157 -0.0050 -0.0755
 1569TIP3    H1 4713   0.640   2.640   0.261  3.3058 -0.0523 -0.9334
 1569TIP3    H2 4714   0.551   2.754   0.218  0.3733 -0.8654  2.5394
 1570TIP3   OH2 4715   1.918   0.519   5.026 -0.2526  0.1247 -0.1686
 1570TIP3    H1 4716   1.972   0.505   5.104  0.1595  0.8570 -0.3153
 1570TIP3    H2 4717   1.955   0.598   4.985  0.0799 -0.7039 -1.5487
 1571TIP3   OH2 4718   0.049   2.690   3.163  0.7426 -0.3248 -0.2316
 1571TIP3    H1 4719   0.054   2.722   3.073  0.6658 -0.6037 -0.3358
 1571TIP3    H2 4720   0.133   2.715   3.202  1.2393 -1.1921 -0.7110
 1572TIP3   OH2 4721   2.325   5.615   5.088 -0.2435 -0.3432  0.2016
 1572TIP3    H1 4722   2.302   5.558   5.015 -1.0910 -0.1476  0.3022
 1572TIP3    H2 4723   2.290   5.701   5.064  0.0828 -0.1119  0.5299
 1573TIP3   OH2 4724   2.134   0.218   0.604  0.2817 -0.5330  0.5329
 1573TIP3    H1 4725   2.117   0.166   0.525  1.9527  0.8151 -0.8113
 1573TIP3    H2 4726   2.158   0.305   0.570 -2.0718  1.0746  2.6541
 1574TIP3   OH2 4727   4.113   5.777   3.312  0.3179 -0.4553 -0.1049
 1574TIP3    H1 4728   4.075   5.863   3.298 -0.2727 -0.9447 -1.8783
 1574TIP3    H2 4729   4.067   5.742   3.388  1.3144  1.1623  1.3084
 1575TIP3   OH2 4730   5.504   2.183   0.359  0.0556 -0.3266 -0.0958
 1575TIP3    H1 4731   5.477   2.219   0.443  0.3157  1.7410 -0.8425
 1575TIP3    H2 4732   5.474   2.247   0.295  1.1285 -1.1405 -1.4645
 1576TIP3   OH2 4733   2.221   4.893   1.789 -0.4117 -0.1276 -0.4129
 1576TIP3    H1 4734   2.248   4.801   1.789 -0.1206 -0.0456 -0.5278
 1576TIP3    H2 4735   2.294   4.939   1.831 -0.3372  0.1115 -0.8020
 1577TIP3   OH2 4736   6.235   5.544   4.551 -0.1658  0.1186  0.5505
 1577TIP3    H1 4737   6.320   5.524   4.589 -0.4689 -1.1737  0.5947
 1577TIP3    H2 4738   6.235   5.639   4.541  2.4557 -0.0278 -2.2285
 1578TIP3   OH2 4739   2.064   3.387   3.131 -0.0710 -0.3432 -0.1727
 1578TIP3    H1 4740   2.029   3.399   3.219 -1.2731  0.3999 -0.7344
 1578TIP3    H2 4741   2.032   3.462   3.082  1.2600 -0.3150 -1.0601
 1579TIP3   OH2 4742   2.899   3.910   2.885  0.0599  0.2071  0.0870
 1579TIP3    H1 4743   2.825   3.898   2.945  2.0367  0.2571  2.7213
 1579TIP3    H2 4744   2.902   4.005   2.870  0.8639  0.5080  1.8491
 1580TIP3   OH2 4745   3.507   2.358   1.926 -0.6569 -0.1217  0.2470
 1580TIP3    H1 4746   3.537   2.425   1.987  0.1801 -0.4669  0.2339
 1580TIP3    H2 4747   3.554   2.377   1.845 -0.5428 -0.6187  0.1950
 1581TIP3   OH2 4748   0.633   0.144   4.206 -0.0012 -0.5941  0.1344
 1581TIP3    H1 4749   0.627   0.135   4.111  0.2433  1.1310 -0.0794
 1581TIP3    H2 4750   0.569   0.081   4.240 -1.7476  0.3171 -1.2533
 1582TIP3   OH2 4751   0.971   1.570   2.575 -0.4227 -0.1277 -0.1904
 1582TIP3    H1 4752   0.930   1.614   2.500  0.4238  0.3289 -0.4036
 1582TIP3    H2 4753   1.052   1.533   2.539 -0.8328 -1.3824  0.1209
 1583TIP3   OH2 4754   1.033   3.623   1.558 -0.3086  0.3861  0.3048
 1583TIP3    H1 4755   1.010   3.589   1.471  1.7182  2.5769 -1.2124
 1583TIP3    H2 4756   1.126   3.602   1.568 -0.1959  1.3140  1.3752
 1584TIP3   OH2 4757   2.207   3.452   2.662  0.3740 -0.3609  0.1553
 1584TIP3    H1 4758   2.201   3.492   2.576  0.2185  1.5520  1.0083
 1584TIP3    H2 4759   2.126   3.402   2.672 -1.0871  1.9019  0.3478
 1585TIP3   OH2 4760   5.794   5.236   4.710 -0.0069  0.5761 -0.6202
 1585TIP3    H1 4761   5.864   5.300   4.700  2.8214 -2.4593 -1.8903
 1585TIP3    H2 4762   5.801   5.207   4.801 -0.9043  1.5713 -0.2141
 1586TIP3   OH2 4763   0.811   1.443   1.383 -0.0918 -0.0170 -1.0831
 1586TIP3    H1 4764   0.904   1.422   1.371 -0.0310  0.0500 -0.7324
 1586TIP3    H2 4765   0.806   1.538   1.370  0.1477  0.2200  0.4477
 1587TIP3   OH2 4766   5.538   3.871   2.619  0.5778 -0.1870  0.0880
 1587TIP3    H1 4767   5.621   3.866   2.572  0.7779  1.1933  0.2447
 1587TIP3    H2 4768   5.563   3.875   2.712  0.5516  2.7438  0.0675
 1588TIP3   OH2 4769   1.187   5.047   4.201 -0.8583  0.3767  0.2546
 1588TIP3    H1 4770   1.275   5.030   4.234 -0.5053  1.5458 -0.0610
 1588TIP3    H2 4771   1.159   5.127   4.245 -2.6287 -1.0752  1.9701
 1589TIP3   OH2 4772   4.995   1.175   4.545  0.0740  0.3084 -0.2203
 1589TIP3    H1 4773   5.008   1.081   4.546 -0.1452  0.2260 -1.8752
 1589TIP3    H2 4774   5.075   1.212   4.582  0.3578 -0.5081 -0.0194
 1590TIP3   OH2 4775   5.962   1.937   2.448  0.9418  0.4920 -0.0015
 1590TIP3    H1 4776   6.057   1.931   2.448  1.0225  0.4452  2.7209
 1590TIP3    H2 4777   5.944   2.031   2.452  0.7528  0.6196 -2.3538
 1591TIP3   OH2 4778   1.069   2.860   0.794 -0.2858 -0.0702 -0.1900
 1591TIP3    H1 4779   1.106   2.937   0.753 -0.7566  0.8873  1.1055
 1591TIP3    H2 4780   1.009   2.824   0.729 -1.8366  2.0187 -0.0233
 1592TIP3   OH2 4781   6.269   3.377   0.673  0.0031  0.5743  0.2203
 1592TIP3    H1 4782   6.218   3.300   0.649 -0.7263  0.8506  0.8402
 1592TIP3    H2 4783   6.204   3.444   0.695  0.5929  0.6797  1.8384
 1593TIP3   OH2 4784   4.072   1.637   3.229 -0.1526 -0.3292 -0.5574
 1593TIP3    H1 4785   4.052   1.543   3.231 -0.3439 -0.2736  0.4016
 1593TIP3    H2 4786   4.057   1.667   3.318 -1.7456  0.9581 -1.1953
 1594TIP3   OH2 4787   3.028   5.639   2.645  0.1334  0.0249  0.0509
 1594TIP3    H1 4788   3.059   5.630   2.555 -0.0233  0.3424 -0.0374
 1594TIP3    H2 4789   2.995   5.553   2.668 -2.2714  0.5488 -1.1174
 1595TIP3   OH2 4790   4.520   4.909   4.354  0.4232  0.5388  0.2881
 1595TIP3    H1 4791   4.539   4.970   4.283 -1.0223  1.9763  1.0539
 1595TIP3    H2 4792   4.572   4.940   4.428  1.1947 -0.3756  0.1470
 1596TIP3   OH2 4793   4.270   4.965   1.821 -0.7012 -0.0516 -0.2116
 1596TIP3    H1 4794   4.339   5.027   1.845 -1.2991  0.0653  1.3406
 1596TIP3    H2 4795   4.210   5.015   1.767  0.2367 -0.0648 -1.3090
 1597TIP3   OH2 4796   4.342   3.885   4.964 -0.1318 -0.4597 -0.3917
 1597TIP3    H1 4797   4.383   3.948   4.904 -1.2476  1.1600  0.4755
 1597TIP3    H2 4798   4.313   3.938   5.038  0.1260 -2.2339  1.0402
 1598TIP3   OH2 4799   2.504   1.388   0.075  0.2988 -0.0496 -0.6532
 1598TIP3    H1 4800   2.491   1.295   0.094  0.4574  0.1158  0.3241
 1598TIP3    H2 4801   2.478   1.398  -0.016 -2.9303 -0.4409  0.0981
 1599TIP3   OH2 4802   5.951   2.756   3.720 -0.3615 -0.2493 -0.2376
 1599TIP3    H1 4803   6.036   2.743   3.678  0.0943  2.6020 -0.3831
 1599TIP3    H2 4804   5.892   2.780   3.648 -1.1984 -1.6136 -0.0514
 1600TIP3   OH2 4805   3.297   5.741   3.335  0.0557  0.3603 -0.3070
 1600TIP3    H1 4806   3.385   5.715   3.306 -0.0053  1.4962 -1.6051
 1600TIP3    H2 4807   3.249   5.753   3.253 -1.0596  0.6109  0.3800
 1601TIP3   OH2 4808   5.682   2.756   3.794 -0.0382  0.4526  0.2027
 1601TIP3    H1 4809   5.636   2.699   3.856 -0.8458  0.3090 -0.5086
 1601TIP3    H2 4810   5.767   2.713   3.779  0.0361  0.3308  0.9597
 1602TIP3   OH2 4811   5.135   0.726   1.936 -0.3492  0.1436  0.6958
 1602TIP3    H1 4812   5.113   0.653   1.879 -1.0135  0.6044  0.3322
 1602TIP3    H2 4813   5.149   0.687   2.022  1.2941 -0.6398  0.1009
 1603TIP3   OH2 4814   3.996   1.863   4.248 -0.0922  0.1273  0.3118
 1603TIP3    H1 4815   4.053   1.805   4.298 -0.1805  1.0955  1.6117
 1603TIP3    H2 4816   3.909   1.850   4.286 -0.1957  0.7469  0.3053
 1604TIP3   OH2 4817   4.726   0.709   3.120  0.1950  0.0990 -0.1659
 1604TIP3    H1 4818   4.653   0.648   3.121 -0.2438  0.4865  3.5966
 1604TIP3    H2 4819   4.794   0.666   3.173  0.7467  1.8724  0.6370
 1605TIP3   OH2 4820   4.990   0.384   0.964 -0.4971  0.2533  0.6097
 1605TIP3    H1 4821   5.024   0.298   0.990 -0.9624  0.6351  2.6654
 1605TIP3    H2 4822   5.068   0.436   0.946 -0.1918 -0.3908  0.0131
 1606TIP3   OH2 4823   5.944   4.102   0.824  0.1325  0.3285 -0.1744
 1606TIP3    H1 4824   6.008   4.080   0.756  0.1746  0.1671 -0.0839
 1606TIP3    H2 4825   5.947   4.198   0.830  0.0205  0.3552 -0.5033
 1607TIP3   OH2 4826   3.713   1.224   4.787  0.3215 -0.0082  0.0877
 1607TIP3    H1 4827   3.658   1.285   4.836  0.1259 -1.0093  1.1296
 1607TIP3    H2 4828   3.765   1.178   4.853  0.2157 -1.2311 -0.6448
 1608TIP3   OH2 4829   2.693   2.275   4.272  0.0123 -0.0105 -0.0233
 1608TIP3    H1 4830   2.701   2.192   4.318 -1.4799 -0.9432 -1.3344
 1608TIP3    H2 4831   2.729   2.259   4.185  0.1651  0.8660 -0.1339
 1609TIP3   OH2 4832   1.326   3.877   4.839 -0.5033  0.4886 -0.5705
 1609TIP3    H1 4833   1.308   3.821   4.764  1.2708 -1.5252  0.4017
 1609TIP3    H2 4834   1.277   3.837   4.911  1.6365 -0.5902  0.3833
 1610TIP3   OH2 4835   2.379   2.354   0.147  0.0988  0.0204  0.0751
 1610TIP3    H1 4836   2.420   2.436   0.174  0.5784 -0.4673  0.8720
 1610TIP3    H2 4837   2.423   2.287   0.199 -1.1462 -0.6192  0.3523
 1611TIP3   OH2 4838   5.408   0.981   4.439 -0.0988 -0.0319 -0.0889
 1611TIP3    H1 4839   5.459   0.916   4.391  0.4699  0.2731  0.1042
 1611TIP3    H2 4840   5.463   1.059   4.441 -1.0109  0.6598 -0.8374
 1612TIP3   OH2 4841   4.992   1.466   1.586 -0.0024  0.5799  0.1011
 1612TIP3    H1 4842   4.987   1.454   1.491  1.0645  1.8595 -0.1519
 1612TIP3    H2 4843   5.078   1.430   1.610  0.2460  1.3400  0.3836
 1613TIP3   OH2 4844   1.024   4.396   5.092  0.0245  0.2076  0.3354
 1613TIP3    H1 4845   1.004   4.489   5.081  0.2273  0.2039 -0.0863
 1613TIP3    H2 4846   0.939   4.354   5.106 -0.4609  0.0470 -2.4406
 1614TIP3   OH2 4847   2.321   2.732   2.708 -0.3507 -0.8507 -0.6227
 1614TIP3    H1 4848   2.286   2.815   2.739  0.2351 -0.6336 -0.5328
 1614TIP3    H2 4849   2.336   2.681   2.789 -0.2677 -0.8669 -0.6482
 1615TIP3   OH2 4850   1.992   3.796   2.277  0.2002 -0.7520 -0.8421
 1615TIP3    H1 4851   2.006   3.711   2.318  1.4115 -0.8625 -1.4599
 1615TIP3    H2 4852   1.988   3.858   2.350 -0.5451 -1.3070 -0.4011
 1616TIP3   OH2 4853   1.058   5.091   3.950  0.4229 -0.2813  0.0505
 1616TIP3    H1 4854   1.089   5.078   4.040 -0.1802 -0.2136  0.2724
 1616TIP3    H2 4855   1.070   5.185   3.934 -0.7877 -0.0159  0.5744
 1617TIP3   OH2 4856   5.543   2.684   3.444  0.3387 -0.7531 -0.2792
 1617TIP3    H1 4857   5.624   2.675   3.394 -0.0439  0.4785 -1.1539
 1617TIP3    H2 4858   5.552   2.768   3.489 -1.8632  1.2290 -3.1716
 1618TIP3   OH2 4859   2.909   4.893   3.195 -0.2200  0.4601 -0.0557
 1618TIP3    H1 4860   2.943   4.979   3.170  1.0213  0.0604  0.1738
 1618TIP3    H2 4861   2.874   4.906   3.284  0.6024  0.5869  0.2613
 1619TIP3   OH2 4862   5.149   1.462   0.305  0.3043 -0.1393 -0.1976
 1619TIP3    H1 4863   5.193   1.381   0.333  0.4579 -0.2660 -0.8008
 1619TIP3    H2 4864   5.076   1.432   0.251  0.0357  0.1084  0.0255
 1620TIP3   OH2 4865   2.987   2.385   3.189  0.2411  0.0607 -0.3714
 1620TIP3    H1 4866   2.903   2.431   3.183  0.6273  0.7053 -0.9766
 1620TIP3    H2 4867   2.965   2.293   3.173 -0.8222 -0.3165  2.6788
 1621TIP3   OH2 4868   0.966   2.723   3.327  0.4106 -0.3152  0.4436
 1621TIP3    H1 4869   0.894   2.743   3.387  1.5964  1.5011  1.3611
 1621TIP3    H2 4870   0.992   2.634   3.350  0.8270  0.3212  2.7188
 1622TIP3   OH2 4871   4.637   0.167   1.811  0.5387 -0.1696  0.1752
 1622TIP3    H1 4872   4.614   0.133   1.897  0.8646 -2.0423 -0.4300
 1622TIP3    H2 4873   4.555   0.201   1.775  0.1125 -0.6989  0.6469
 1623TIP3   OH2 4874   4.750   5.044   2.964  0.7077 -0.0063 -0.4145
 1623TIP3    H1 4875   4.839   5.072   2.984  0.4913  1.4208 -1.3625
 1623TIP3    H2 4876   4.761   4.958   2.922  1.6101  0.0889 -0.3925
 1624TIP3   OH2 4877   2.191   1.248   0.826 -0.5725  0.6974  0.1663
 1624TIP3    H1 4878   2.250   1.235   0.751  1.5951 -3.8976  2.2550
 1624TIP3    H2 4879   2.243   1.299   0.889 -0.6616  0.6908  0.2453
 1625TIP3   OH2 4880   4.745   2.205   3.443 -0.2893  0.1610 -0.0087
 1625TIP3    H1 4881   4.804   2.211   3.368 -0.8326  0.3993 -0.4244
 1625TIP3    H2 4882   4.788   2.256   3.512 -0.3406  0.9184 -0.5283
 1626TIP3   OH2 4883   1.478   2.059   4.088 -0.8115 -0.4942 -0.7210
 1626TIP3    H1 4884   1.449   1.980   4.043  0.5300 -1.1043 -0.5704
 1626TIP3    H2 4885   1.572   2.046   4.101 -1.1742 -0.6149  2.7536
 1627TIP3   OH2 4886   3.095   2.975   1.297  0.3056 -0.1314 -0.3579
 1627TIP3    H1 4887   3.145   2.972   1.378  1.5443 -1.2536 -1.1135
 1627TIP3    H2 4888   3.146   2.922   1.235 -0.9601  0.0978 -1.6664
 1628TIP3   OH2 4889   3.660   0.909   1.973 -0.0530  0.2042 -0.1141
 1628TIP3    H1 4890   3.574   0.944   1.997 -0.3312 -0.5518 -0.0089
 1628TIP3    H2 4891   3.652   0.814   1.981  1.0580  0.1586  0.7985
 1629TIP3   OH2 4892   5.942   2.227   2.392  0.5792 -0.7971  0.3630
 1629TIP3    H1 4893   5.859   2.256   2.355  0.4676 -1.8407 -0.2278
 1629TIP3    H2 4894   6.008   2.258   2.330  0.6162 -0.1999  0.6949
 1630TIP3   OH2 4895   4.042   5.341   2.212  0.6521 -0.0872 -0.6065
 1630TIP3    H1 4896   4.053   5.297   2.128  0.6443 -0.4148 -0.4382
 1630TIP3    H2 4897   4.126   5.385   2.228  0.0297  1.5846 -1.6900
 1631TIP3   OH2 4898   1.440   4.903   2.660  0.2345  0.2980  0.1441
 1631TIP3    H1 4899   1.462   4.841   2.590 -0.0065 -0.1186  0.4333
 1631TIP3    H2 4900   1.521   4.912   2.709  0.7461  1.5029 -0.8682
 1632TIP3   OH2 4901   4.803   0.640   1.190 -0.5366 -0.3744 -0.0802
 1632TIP3    H1 4902   4.857   0.689   1.128 -1.2221  0.7525  0.1745
 1632TIP3    H2 4903   4.817   0.548   1.168  0.4593 -0.0512 -0.8573
 1633TIP3   OH2 4904   0.749   2.996   1.675  0.8410 -0.6006  0.2413
 1633TIP3    H1 4905   0.657   3.019   1.664  1.0437 -0.5530 -1.5455
 1633TIP3    H2 4906   0.752   2.949   1.759 -0.5398  0.7020  1.0735
 1634TIP3   OH2 4907   4.964   2.578   0.081  0.2184  0.0214 -0.4929
 1634TIP3    H1 4908   4.983   2.502   0.136  1.0340 -0.4011 -1.3369
 1634TIP3    H2 4909   5.001   2.652   0.129 -1.7535  0.1320  0.9942
 1635TIP3   OH2 4910   2.941   1.517   2.332  0.2085  0.1103 -0.0580
 1635TIP3    H1 4911   2.922   1.482   2.245  0.5469 -1.5960  0.5104
 1635TIP3    H2 4912   3.019   1.571   2.319 -0.5641  1.0459 -1.0384
 1636TIP3   OH2 4913   0.342   2.551   4.663  0.2032 -0.1443 -0.0674
 1636TIP3    H1 4914   0.271   2.517   4.608  1.2342 -1.3303 -0.6964
 1636TIP3    H2 4915   0.327   2.512   4.749 -1.4145  1.7164  0.5773
 1637TIP3   OH2 4916   0.443   2.002   1.347 -0.5897  0.1966  0.2376
 1637TIP3    H1 4917   0.427   1.946   1.422 -2.4831  0.0935 -0.2124
 1637TIP3    H2 4918   0.391   2.080   1.363  0.8725  1.2377  0.1507
 1638TIP3   OH2 4919   1.946   2.452   1.636 -0.1560 -0.0034 -0.7771
 1638TIP3    H1 4920   1.964   2.544   1.657 -0.9493 -0.0994  0.4433
 1638TIP3    H2 4921   1.854   2.440   1.660  0.2937 -1.4454  0.3616
 1639TIP3   OH2 4922   1.068   5.785   4.404  0.2099 -0.0699 -0.9994
 1639TIP3    H1 4923   1.028   5.862   4.443 -0.0393 -0.9243  0.5415
 1639TIP3    H2 4924   1.078   5.806   4.311 -1.3775  1.1546 -0.9245
 1640TIP3   OH2 4925   6.218   2.313   1.047 -0.0426  0.0780 -0.4174
 1640TIP3    H1 4926   6.308   2.324   1.018  1.3289 -2.0491  2.5807
 1640TIP3    H2 4927   6.201   2.386   1.105  0.6305 -0.7352  0.8392
 1641TIP3   OH2 4928   0.254   3.770   2.663  0.1586 -0.2791 -0.2211
 1641TIP3    H1 4929   0.318   3.707   2.630  0.6540 -0.5353  1.1608
 1641TIP3    H2 4930   0.186   3.717   2.704 -0.0412  0.0518 -0.1178
 1642TIP3   OH2 4931   2.239   0.966   3.204  0.1871  0.0418  0.7156
 1642TIP3    H1 4932   2.204   1.003   3.285  0.8540 -1.0089  1.5082
 1642TIP3    H2 4933   2.190   0.884   3.192  0.2202  0.1009  0.1571
 1643TIP3   OH2 4934   0.030   5.904   4.640 -0.1857 -0.2071  0.3227
 1643TIP3    H1 4935  -0.056   5.904   4.598 -0.7784  1.7173  1.4262
 1643TIP3    H2 4936   0.032   5.823   4.691 -0.0799 -1.7978 -2.0165
 1644TIP3   OH2 4937   0.710   5.764   0.415  0.2827  0.0321  0.6194
 1644TIP3    H1 4938   0.775   5.819   0.371  1.5228 -1.6274  0.2584
 1644TIP3    H2 4939   0.725   5.676   0.379 -1.6533 -0.5505  1.1183
 1645TIP3   OH2 4940   5.159   0.327   0.704  0.3099  0.4814 -0.0010
 1645TIP3    H1 4941   5.216   0.365   0.771  0.3304  0.8948 -0.2429
 1645TIP3    H2 4942   5.219   0.300   0.634  0.3178 -0.2436  0.2797
 1646TIP3   OH2 4943   5.813   2.716   3.389 -0.0623  0.0064 -0.0682
 1646TIP3    H1 4944   5.892   2.672   3.358  1.6461  1.4549  1.8943
 1646TIP3    H2 4945   5.846   2.790   3.441 -2.7030  0.3510  1.2988
 1647TIP3   OH2 4946   1.064   3.220   3.605  0.1798  0.7528  0.4620
 1647TIP3    H1 4947   1.066   3.155   3.675 -1.3017 -0.0691 -0.2030
 1647TIP3    H2 4948   1.075   3.170   3.524  1.6143  1.6527  0.0594
 1648TIP3   OH2 4949   0.362   4.195   0.785 -0.2832 -0.6899 -0.2906
 1648TIP3    H1 4950   0.280   4.243   0.775 -0.2944 -0.2577  1.5295
 1648TIP3    H2 4951   0.424   4.259   0.817 -0.0291 -1.6021  1.1800
 1649TIP3   OH2 4952   4.395   3.692   5.158  0.6754  0.1247  0.3444
 1649TIP3    H1 4953   4.381   3.729   5.071 -0.5505  1.3501  1.0246
 1649TIP3    H2 4954   4.393   3.767   5.217 -1.1907 -0.9093  1.7107
 1650TIP3   OH2 4955   4.028   1.683   1.700  0.0955 -0.0768  0.2613
 1650TIP3    H1 4956   3.992   1.770   1.689  0.0266  0.2844  2.8095
 1650TIP3    H2 4957   3.954   1.624   1.686  0.4182  0.0832 -2.8269
 1651TIP3   OH2 4958   0.683   4.657   1.279 -0.3558  0.0426  0.1844
 1651TIP3    H1 4959   0.761   4.661   1.335  0.0579 -0.3885 -0.3409
 1651TIP3    H2 4960   0.717   4.673   1.191 -0.8900  0.0177 -0.0266
 1652TIP3   OH2 4961   1.704   1.733   3.510  0.4505 -0.7591  0.0534
 1652TIP3    H1 4962   1.772   1.792   3.478 -1.3534  0.5506 -1.6330
 1652TIP3    H2 4963   1.659   1.783   3.578  0.2369 -0.9983  0.0875
 1653TIP3   OH2 4964   4.574   1.799   5.128  0.2098  0.1305  0.5385
 1653TIP3    H1 4965   4.479   1.789   5.142  0.1040  1.1554  0.5928
 1653TIP3    H2 4966   4.610   1.713   5.152 -0.5922  0.0452  1.5191
 1654TIP3   OH2 4967   4.210   5.222   2.979  0.0615  0.4545  0.0658
 1654TIP3    H1 4968   4.208   5.268   3.062  0.5708  1.3073 -0.3764
 1654TIP3    H2 4969   4.298   5.184   2.974  0.5891  1.7131 -0.7472
 1655TIP3   OH2 4970   0.917   1.936   1.662 -0.3714  0.4485 -0.0370
 1655TIP3    H1 4971   0.823   1.934   1.647 -0.4876 -0.3429  0.7566
 1655TIP3    H2 4972   0.927   1.966   1.752  0.2764  3.8731 -1.0728
 1656TIP3   OH2 4973   3.198   3.490   1.469  0.5500 -0.3829  0.2757
 1656TIP3    H1 4974   3.245   3.499   1.553 -0.0394 -0.2730  0.5994
 1656TIP3    H2 4975   3.168   3.399   1.469 -2.3114  0.4193  1.7568
 1657TIP3   OH2 4976   0.282   2.684   4.341 -0.6087 -0.1172 -0.0339
 1657TIP3    H1 4977   0.367   2.711   4.375 -0.9460  0.0710  0.7013
 1657TIP3    H2 4978   0.256   2.610   4.397  0.6748 -2.6293 -2.5346
 1658TIP3   OH2 4979   3.506   5.479   1.496  0.1967 -0.5200  0.1898
 1658TIP3    H1 4980   3.496   5.498   1.402  1.8241 -0.4112  0.0130
 1658TIP3    H2 4981   3.498   5.384   1.503  0.1656 -0.5374 -0.0784
 1659TIP3   OH2 4982   5.321   3.313   0.274 -0.2250  0.4841 -0.1707
 1659TIP3    H1 4983   5.376   3.256   0.221  0.7922  0.6993  0.6173
 1659TIP3    H2 4984   5.340   3.288   0.364 -0.8363  1.0949  0.1385
 1660TIP3   OH2 4985   1.770   5.393   0.521  1.0103  0.2183 -0.1580
 1660TIP3    H1 4986   1.719   5.355   0.450 -0.5396 -0.7919  1.4083
 1660TIP3    H2 4987   1.814   5.319   0.561 -0.9597  0.1425  2.0796
 1661TIP3   OH2 4988   1.263   4.461   1.095  0.6714  0.0773  0.0556
 1661TIP3    H1 4989   1.355   4.437   1.103  0.8776  0.5369 -0.7879
 1661TIP3    H2 4990   1.249   4.472   1.001 -0.8806 -2.3753 -0.0873
 1662TIP3   OH2 4991   2.171   3.780   1.800 -0.3422 -0.5049 -0.5265
 1662TIP3    H1 4992   2.186   3.727   1.878 -0.3457 -1.9705 -1.4949
 1662TIP3    H2 4993   2.258   3.816   1.779 -0.3700  0.0217  0.2224
 1663TIP3   OH2 4994   2.108   2.846   3.316 -0.1091 -0.3921  0.0386
 1663TIP3    H1 4995   2.152   2.790   3.381  1.4769  1.2191  0.4171
 1663TIP3    H2 4996   2.096   2.930   3.361 -1.2808 -0.0123 -0.9390
 1664TIP3   OH2 4997   4.543   0.487   3.125 -0.3778  0.2247 -0.3109
 1664TIP3    H1 4998   4.571   0.419   3.062  1.8731  1.6160 -0.9511
 1664TIP3    H2 4999   4.449   0.475   3.133 -0.1828 -2.4398 -1.0256
 1665TIP3   OH2 5000   3.651   4.790   1.504  0.1872 -0.8058 -0.0807
 1665TIP3    H1 5001   3.629   4.779   1.411  0.5592 -1.2730 -0.1181
 1665TIP3    H2 5002   3.590   4.858   1.535  0.5107 -0.1529 -0.8287
 1666TIP3   OH2 5003   0.964   2.217   3.545  0.2565 -0.5510  0.0422
 1666TIP3    H1 5004   0.915   2.255   3.618  1.8812 -0.0684  0.9513
 1666TIP3    H2 5005   0.898   2.174   3.491 -1.1901  0.4305  0.9578
 1667TIP3   OH2 5006   2.924   2.873   0.991 -0.2157  0.8393  0.0092
 1667TIP3    H1 5007   2.988   2.820   0.942 -0.4053  0.1391  0.5010
 1667TIP3    H2 5008   2.887   2.932   0.925 -2.2008 -1.6942 -1.3128
 1668TIP3   OH2 5009   5.832   0.144   0.452  0.5453  0.0193 -0.3992
 1668TIP3    H1 5010   5.884   0.214   0.413  0.6743  0.4605  0.5471
 1668TIP3    H2 5011   5.789   0.184   0.527  1.8087 -1.2463  1.0774
 1669TIP3   OH2 5012   4.584   4.168   0.461 -0.1371  0.4887  0.0237
 1669TIP3    H1 5013   4.534   4.120   0.527  0.2642 -0.1583 -0.1331
 1669TIP3    H2 5014   4.623   4.241   0.509 -0.0581  0.1709  0.4528
 1670TIP3   OH2 5015   0.208   0.602   3.923  0.8831 -0.4762 -0.0552
 1670TIP3    H1 5016   0.129   0.657   3.921  1.0935  0.1373  3.0858
 1670TIP3    H2 5017   0.279   0.662   3.903  0.7522 -0.6581 -1.1511
 1671TIP3   OH2 5018   2.827   1.059   4.116  0.0113 -0.0139  0.0199
 1671TIP3    H1 5019   2.867   1.102   4.192 -0.0438  0.0703  0.0012
 1671TIP3    H2 5020   2.846   0.966   4.129 -0.6440 -0.0836  0.5306
 1672TIP3   OH2 5021   3.482   3.903   3.062  0.3324 -0.1809 -0.0457
 1672TIP3    H1 5022   3.577   3.891   3.071  0.5375  1.4038  0.2764
 1672TIP3    H2 5023   3.446   3.816   3.077  1.7135 -0.7414  0.2500
 1673TIP3   OH2 5024   4.951   0.480   4.947 -0.7364 -0.3161  0.1133
 1673TIP3    H1 5025   4.922   0.537   5.019 -2.0640  1.1855 -1.5272
 1673TIP3    H2 5026   5.032   0.440   4.979  0.4163  2.6991  1.2676
 1674TIP3   OH2 5027   5.011   4.100   3.621 -0.4184  0.3810  0.1214
 1674TIP3    H1 5028   5.065   4.171   3.587  1.3991 -0.3662  1.2919
 1674TIP3    H2 5029   5.074   4.032   3.646 -1.7068  0.2394  3.4186
 1675TIP3   OH2 5030   2.231   0.431   1.526  0.1258 -0.0041 -0.0090
 1675TIP3    H1 5031   2.153   0.405   1.477  0.6995 -0.7178 -0.5733
 1675TIP3    H2 5032   2.219   0.525   1.542 -0.7693 -0.0725 -0.2179
 1676TIP3   OH2 5033   2.997   1.578   4.698 -0.1530 -0.5581  0.6243
 1676TIP3    H1 5034   2.902   1.565   4.700 -0.6945  1.7093 -2.3331
 1676TIP3    H2 5035   3.011   1.658   4.748  0.2768 -1.0193  1.2587
 1677TIP3   OH2 5036   3.050   5.422   0.828 -0.1876 -0.1984  0.3868
 1677TIP3    H1 5037   3.034   5.505   0.785 -0.2810  0.7668  2.1642
 1677TIP3    H2 5038   3.145   5.415   0.832 -0.1796 -0.2023  0.1871
 1678TIP3   OH2 5039   2.984   2.645   0.657  0.6472  0.7922  0.3648
 1678TIP3    H1 5040   2.920   2.715   0.665  1.8794  1.7717  2.4657
 1678TIP3    H2 5041   3.007   2.644   0.564 -3.0039 -0.2418 -0.6748
 1679TIP3   OH2 5042   0.740   2.925   4.071 -0.2926  0.7945 -0.0606
 1679TIP3    H1 5043   0.821   2.873   4.077  0.1712  1.3627 -1.0464
 1679TIP3    H2 5044   0.763   2.996   4.012 -1.9183  0.2222 -1.4482
 1680TIP3   OH2 5045   6.046   1.704   1.217 -0.1538 -0.4661  0.7629
 1680TIP3    H1 5046   6.076   1.736   1.302  0.5554 -1.7933  1.0349
 1680TIP3    H2 5047   6.075   1.771   1.154 -0.3049  0.3111  1.5046
 1681TIP3   OH2 5048   5.197   2.904   0.466 -0.0934  0.5897 -0.2871
 1681TIP3    H1 5049   5.174   2.950   0.547  1.0207 -0.1507  0.4870
 1681TIP3    H2 5050   5.291   2.920   0.455  0.0186 -0.3177 -0.7629
 1682TIP3   OH2 5051   2.874   1.288   4.547  0.2950 -0.2952 -0.3889
 1682TIP3    H1 5052   2.815   1.347   4.593 -1.7011 -0.6159 -2.3495
 1682TIP3    H2 5053   2.950   1.280   4.605 -0.8804  1.3801  1.5351
 1683TIP3   OH2 5054   4.388   5.231   4.326 -0.0613  0.4298 -0.1657
 1683TIP3    H1 5055   4.336   5.162   4.286  1.4063  0.8479 -3.0518
 1683TIP3    H2 5056   4.478   5.208   4.306  0.6756  1.5858  1.5711
 1684TIP3   OH2 5057   6.206   4.566   2.650  0.0382 -0.0417  0.3978
 1684TIP3    H1 5058   6.276   4.583   2.588  1.5971 -1.9578  1.4978
 1684TIP3    H2 5059   6.193   4.649   2.695 -0.6168  1.1683 -1.9334
 1685TIP3   OH2 5060   4.875   1.458   2.096 -0.0457 -0.1645 -0.0575
 1685TIP3    H1 5061   4.940   1.472   2.027  0.6274 -1.7426  0.2154
 1685TIP3    H2 5062   4.803   1.413   2.052 -0.4089  0.4427 -0.0932
 1686TIP3   OH2 5063   4.880   5.107   4.151  0.5424  0.0190  0.0609
 1686TIP3    H1 5064   4.926   5.170   4.206  2.3655 -1.3518  0.2177
 1686TIP3    H2 5065   4.933   5.027   4.156 -0.8864 -1.0939 -1.2728
 1687TIP3   OH2 5066   5.411   4.794   0.744  0.4680  0.4267 -0.7798
 1687TIP3    H1 5067   5.408   4.721   0.684  0.0494 -0.7290  0.5861
 1687TIP3    H2 5068   5.493   4.839   0.724  0.8134 -0.5162 -1.5256
 1688TIP3   OH2 5069   5.928   3.344   2.204 -0.0843  0.4269 -0.6724
 1688TIP3    H1 5070   5.895   3.410   2.142  0.0475  0.0432 -1.1582
 1688TIP3    H2 5071   6.019   3.369   2.219 -0.4710  1.2842  0.3983
 1689TIP3   OH2 5072   2.881   2.289   4.931  0.1757 -0.4052 -0.1000
 1689TIP3    H1 5073   2.840   2.220   4.983  0.6451 -1.4762 -1.1129
 1689TIP3    H2 5074   2.941   2.243   4.873  0.0913  0.8029 -1.1949
 1690TIP3   OH2 5075   5.618   1.142   3.878 -0.3422  0.8304  0.5658
 1690TIP3    H1 5076   5.609   1.047   3.879  0.5146  0.6576 -1.4728
 1690TIP3    H2 5077   5.529   1.176   3.881 -0.8968 -0.1909 -1.9676
 1691TIP3   OH2 5078   4.838   2.683   4.148  0.8039  0.0231 -0.1223
 1691TIP3    H1 5079   4.902   2.613   4.156  0.0507 -0.5852  0.8921
 1691TIP3    H2 5080   4.791   2.682   4.231 -1.5369 -0.5788 -1.3519
 1692TIP3   OH2 5081   3.990   1.915   3.217  0.3357 -0.2219 -0.2049
 1692TIP3    H1 5082   4.025   1.876   3.297 -1.1050 -0.0861  0.5262
 1692TIP3    H2 5083   3.929   1.850   3.183 -0.1194  0.2879 -0.3945
 1693TIP3   OH2 5084   1.667   4.662   1.305  0.0903  0.2385 -0.3169
 1693TIP3    H1 5085   1.632   4.654   1.394 -0.1656 -1.2469 -0.5225
 1693TIP3    H2 5086   1.619   4.597   1.255  0.0577  1.2306 -1.6250
 1694TIP3   OH2 5087   0.070   1.803   4.248  0.0135  0.3271 -0.0253
 1694TIP3    H1 5088   0.122   1.723   4.251  2.4289  1.7653 -1.0195
 1694TIP3    H2 5089   0.024   1.800   4.164  0.6726  0.3255 -0.3842
 1695TIP3   OH2 5090   5.423   3.404   4.751  0.0403 -0.0051 -0.5219
 1695TIP3    H1 5091   5.464   3.490   4.761 -0.5737  0.1263  1.0392
 1695TIP3    H2 5092   5.495   3.347   4.725  0.6113  0.8045 -0.7819
 1696TIP3   OH2 5093   3.837   2.364   4.881 -0.0340  0.6361  0.0979
 1696TIP3    H1 5094   3.748   2.333   4.896 -0.7348  1.9154 -1.2103
 1696TIP3    H2 5095   3.893   2.293   4.915 -1.5354 -0.7090 -0.1066
 1697TIP3   OH2 5096   1.758   5.111   3.647 -0.1318  0.1441 -0.3585
 1697TIP3    H1 5097   1.704   5.185   3.673  0.7141  0.8384 -0.5517
 1697TIP3    H2 5098   1.833   5.150   3.602 -0.2654 -0.8818 -1.5413
 1698TIP3   OH2 5099   3.470   1.327   0.428  0.5051 -0.3305  0.0403
 1698TIP3    H1 5100   3.403   1.259   0.421 -0.7989  0.9983 -0.9098
 1698TIP3    H2 5101   3.484   1.338   0.522  0.2289 -1.4171  0.2137
 1699TIP3   OH2 5102   3.701   2.647   1.206 -0.5971 -0.4057 -0.4388
 1699TIP3    H1 5103   3.730   2.563   1.170  4.6179  1.3573 -1.2393
 1699TIP3    H2 5104   3.670   2.697   1.130  0.9562 -0.0634 -0.8882
 1700TIP3   OH2 5105   3.619   2.085   4.305  0.6337  0.6642 -0.3207
 1700TIP3    H1 5106   3.703   2.084   4.350  1.2415  2.5084 -1.3242
 1700TIP3    H2 5107   3.637   2.047   4.219 -0.4139 -2.3661  0.6490
 1701TIP3   OH2 5108   5.197   5.175   2.228  0.1065 -0.1813  0.0321
 1701TIP3    H1 5109   5.189   5.243   2.294 -2.5484 -2.3240  2.1602
 1701TIP3    H2 5110   5.132   5.199   2.161 -0.9560 -0.6224  0.8684
 1702TIP3   OH2 5111   2.911   3.558   2.840  0.2458  1.1073  0.4828
 1702TIP3    H1 5112   2.982   3.515   2.888 -1.1369 -0.9370  0.8335
 1702TIP3    H2 5113   2.853   3.591   2.909 -1.8385 -1.9919  0.4187
 1703TIP3   OH2 5114   3.702   5.194   4.051 -0.2187  0.1265  0.1868
 1703TIP3    H1 5115   3.710   5.101   4.029  0.1947  0.5390 -1.5885
 1703TIP3    H2 5116   3.608   5.207   4.065 -0.1780 -0.7400  1.4852
 1704TIP3   OH2 5117   3.355   1.843   2.999 -0.3676 -0.0206 -0.3978
 1704TIP3    H1 5118   3.344   1.827   3.093 -1.7521  1.4116 -0.2810
 1704TIP3    H2 5119   3.272   1.818   2.960  0.5459 -1.6410 -1.4469
 1705TIP3   OH2 5120   3.710   0.877   1.647  0.4807  0.1589 -0.4659
 1705TIP3    H1 5121   3.639   0.816   1.669 -0.4841  2.1339  2.4999
 1705TIP3    H2 5122   3.678   0.962   1.677  1.9655  2.1460 -4.0043
 1706TIP3   OH2 5123   0.230   0.070   0.644  0.2117 -0.1096  1.1482
 1706TIP3    H1 5124   0.284   0.033   0.714 -1.0806  0.8652  2.7436
 1706TIP3    H2 5125   0.175   0.134   0.688  1.2195  2.5959 -1.2018
 1707TIP3   OH2 5126   4.787   2.223   0.044 -0.4304 -0.1274  0.4396
 1707TIP3    H1 5127   4.709   2.196  -0.003  1.3290 -3.2172 -1.0389
 1707TIP3    H2 5128   4.844   2.259  -0.023  0.5618 -0.8017  0.8911
 1708TIP3   OH2 5129   5.743   4.828   2.395 -0.8338 -0.2165 -0.2101
 1708TIP3    H1 5130   5.746   4.737   2.425 -0.7194  0.0910  0.7323
 1708TIP3    H2 5131   5.650   4.851   2.397 -0.8366 -0.2293 -0.1926
 1709TIP3   OH2 5132   4.464   2.951   4.233  0.0687  0.2421  0.1474
 1709TIP3    H1 5133   4.383   2.984   4.194 -0.5882 -1.3562  0.0859
 1709TIP3    H2 5134   4.525   2.945   4.160 -0.3504 -0.2995 -0.1644
 1710TIP3   OH2 5135   0.832   1.702   2.230 -0.2072 -0.0115  0.7175
 1710TIP3    H1 5136   0.878   1.729   2.150  0.8723  1.9326  1.9331
 1710TIP3    H2 5137   0.791   1.619   2.206  0.4010  0.3054 -1.7344
 1711TIP3   OH2 5138   5.446   1.741   0.406 -0.0297 -0.4538  0.2248
 1711TIP3    H1 5139   5.435   1.703   0.319 -0.3512 -0.5042  0.2859
 1711TIP3    H2 5140   5.366   1.718   0.453 -0.1136  0.0688  0.3488
 1712TIP3   OH2 5141   2.115   4.594   0.969  0.0195 -0.1972  0.6083
 1712TIP3    H1 5142   2.204   4.561   0.959  0.4342  0.9628  0.3875
 1712TIP3    H2 5143   2.099   4.589   1.063  0.7310  0.6285  0.7815
 1713TIP3   OH2 5144   6.016   1.535   3.123  0.3805 -0.5331 -0.6031
 1713TIP3    H1 5145   5.966   1.579   3.055  0.7117 -0.3669 -0.7399
 1713TIP3    H2 5146   6.103   1.522   3.085  0.6973 -0.0526 -0.0603
 1714TIP3   OH2 5147   2.603   4.234   3.507 -0.2506  0.6769 -0.3749
 1714TIP3    H1 5148   2.644   4.233   3.594 -2.3573  1.2595  0.6796
 1714TIP3    H2 5149   2.527   4.291   3.517 -1.3358 -0.3685 -2.2431
 1715TIP3   OH2 5150   3.052   2.194   4.314 -0.2190  0.2095 -0.1064
 1715TIP3    H1 5151   3.003   2.185   4.232 -0.5533  0.7637  0.0219
 1715TIP3    H2 5152   3.144   2.184   4.289 -0.4033 -1.2860 -0.2857
 1716TIP3   OH2 5153   3.526   1.080   3.426  0.3801 -0.1748  0.1177
 1716TIP3    H1 5154   3.583   1.053   3.354 -0.8059 -2.5436 -0.0442
 1716TIP3    H2 5155   3.479   1.000   3.451 -0.5208  0.9611  2.3797
 1717TIP3   OH2 5156   4.148   2.414   1.086  0.0182  0.0550  0.7750
 1717TIP3    H1 5157   4.133   2.320   1.078 -0.7524  0.1473  1.0951
 1717TIP3    H2 5158   4.108   2.438   1.169  0.0921  0.6919  0.6331
 1718TIP3   OH2 5159   5.815   1.892   3.673  0.1332 -0.5508  0.5180
 1718TIP3    H1 5160   5.773   1.833   3.611 -1.9374  1.6972 -0.3829
 1718TIP3    H2 5161   5.891   1.926   3.626 -0.5236 -0.0679 -0.2221
 1719TIP3   OH2 5162   4.239   3.983   3.073 -0.5598 -0.0100 -0.2157
 1719TIP3    H1 5163   4.281   4.001   3.158 -0.5768  0.1989 -0.2504
 1719TIP3    H2 5164   4.288   4.036   3.011 -1.6544  1.2427 -0.0735
 1720TIP3   OH2 5165   0.910  -0.007   4.677  0.7212 -0.2332  0.2499
 1720TIP3    H1 5166   0.860   0.038   4.608 -1.8446 -1.3269  1.2756
 1720TIP3    H2 5167   0.947   0.064   4.729 -0.2092  0.6565 -0.2625
 1721TIP3   OH2 5168   4.798   3.432   2.163  0.2236 -0.2740 -1.5628
 1721TIP3    H1 5169   4.821   3.398   2.249  0.2165 -1.8372 -2.1430
 1721TIP3    H2 5170   4.712   3.395   2.144 -0.2975  0.9963 -1.7675
 1722TIP3   OH2 5171   0.399   0.390   2.101  0.8737  0.6119  0.1200
 1722TIP3    H1 5172   0.482   0.387   2.149  0.3467  1.4160  1.0936
 1722TIP3    H2 5173   0.332   0.373   2.167  0.2512 -0.1514 -0.6827
 1723TIP3   OH2 5174   3.921   0.069   4.742  0.1123  0.3578  0.4415
 1723TIP3    H1 5175   3.961   0.151   4.773  1.5244 -0.2739  0.3389
 1723TIP3    H2 5176   3.930   0.073   4.647  3.0045 -1.2392  0.5403
 1724TIP3   OH2 5177   0.058   2.008   1.186  0.0383 -0.3466  0.1889
 1724TIP3    H1 5178   0.097   1.993   1.272 -1.8223 -1.0860  0.9604
 1724TIP3    H2 5179   0.092   1.937   1.131 -0.0323 -0.8392  0.7744
 1725TIP3   OH2 5180   3.110   4.494   5.011  0.1406 -0.6326 -0.4265
 1725TIP3    H1 5181   3.185   4.531   5.057 -0.7303  0.5997  0.0458
 1725TIP3    H2 5182   3.122   4.521   4.920 -1.3611  2.4603  0.1722
 1726TIP3   OH2 5183   0.786   5.946   1.960 -0.3164  0.4415 -0.2237
 1726TIP3    H1 5184   0.757   6.036   1.972 -0.9197  0.2077  0.1115
 1726TIP3    H2 5185   0.783   5.907   2.047  1.2008  0.4554 -0.1435
 1727TIP3   OH2 5186   4.324   2.053   1.074  0.1299 -0.2145 -0.3428
 1727TIP3    H1 5187   4.414   2.075   1.099 -0.1406 -1.4075  1.9443
 1727TIP3    H2 5188   4.284   2.022   1.155 -2.2703 -0.0267 -1.3815
 1728TIP3   OH2 5189   5.723   0.414   4.823  0.5150  0.2011 -0.3811
 1728TIP3    H1 5190   5.692   0.453   4.742  0.7944  2.1786  0.3955
 1728TIP3    H2 5191   5.675   0.460   4.892 -1.0462 -2.6452  0.6026
 1729TIP3   OH2 5192   4.823   3.131   3.803 -0.0024  0.4545  0.0799
 1729TIP3    H1 5193   4.891   3.122   3.870  0.4073  2.1760 -0.0714
 1729TIP3    H2 5194   4.797   3.041   3.783  0.9566 -0.1513  1.4335
 1730TIP3   OH2 5195   1.170   2.982   2.794  0.3470  0.0753  0.2825
 1730TIP3    H1 5196   1.133   2.997   2.881 -0.8579 -0.5320 -0.1080
 1730TIP3    H2 5197   1.124   3.043   2.738 -0.5093 -1.0884 -0.3139
 1731TIP3   OH2 5198   3.511   5.792   4.497 -0.3303  0.1947  0.1594
 1731TIP3    H1 5199   3.509   5.754   4.409  1.0795  0.5411 -0.0302
 1731TIP3    H2 5200   3.529   5.717   4.555  1.8189  0.4229 -0.1563
 1732TIP3   OH2 5201   0.541   2.646   1.222  0.2441  0.0908 -0.3846
 1732TIP3    H1 5202   0.511   2.699   1.148 -2.9609 -1.6966 -0.5385
 1732TIP3    H2 5203   0.584   2.709   1.280 -0.0190  2.1380 -2.2509
 1733TIP3   OH2 5204   5.419   4.196   4.704 -0.0918  0.1794 -0.4249
 1733TIP3    H1 5205   5.425   4.196   4.608 -0.7147 -1.0228 -0.4831
 1733TIP3    H2 5206   5.341   4.144   4.723  1.1936 -1.3966  0.8003
 1734TIP3   OH2 5207   2.809   5.805   4.476  0.2712 -0.4182 -0.0695
 1734TIP3    H1 5208   2.862   5.830   4.401  1.3402  1.2901  1.1828
 1734TIP3    H2 5209   2.865   5.744   4.525  0.0966 -0.5195  0.0046
 1735TIP3   OH2 5210   0.048   2.934   2.382 -0.0309 -0.5036 -0.4180
 1735TIP3    H1 5211   0.032   2.904   2.472 -2.2642  0.7628 -0.3151
 1735TIP3    H2 5212   0.070   2.854   2.334  1.2995 -1.1933  1.2405
 1736TIP3   OH2 5213   2.272   3.985   4.971  0.0560  0.5985  0.0055
 1736TIP3    H1 5214   2.338   4.053   4.960 -0.3243  0.6895 -2.1915
 1736TIP3    H2 5215   2.192   4.023   4.935 -0.3918 -0.6728 -0.4033
 1737TIP3   OH2 5216   3.943   2.433   4.187  0.0277  0.1047 -0.5779
 1737TIP3    H1 5217   3.901   2.448   4.272  0.1410 -0.3240 -0.4458
 1737TIP3    H2 5218   4.036   2.428   4.207  0.0940  0.4605 -0.7915
 1738TIP3   OH2 5219   3.001   3.674   1.398 -0.1951 -0.3725 -0.6663
 1738TIP3    H1 5220   3.067   3.606   1.412  0.2170 -0.0826 -1.1770
 1738TIP3    H2 5221   2.968   3.693   1.485  0.5895 -0.3301 -0.3661
 1739TIP3   OH2 5222   0.837   3.191   4.497 -0.5434  0.2501  0.3463
 1739TIP3    H1 5223   0.835   3.261   4.431  0.4358  0.4748  0.5336
 1739TIP3    H2 5224   0.762   3.136   4.476 -1.1702  1.1986  0.0161
 1740TIP3   OH2 5225   4.013   4.215   2.618  0.5790  0.1012 -0.1995
 1740TIP3    H1 5226   4.013   4.120   2.606  0.1346  0.0882 -0.1108
 1740TIP3    H2 5227   3.928   4.234   2.657  0.2222  0.6730 -1.2286
 1741TIP3   OH2 5228   3.635   3.424   3.877 -0.0891  0.0918  0.1060
 1741TIP3    H1 5229   3.596   3.383   3.954  1.8940 -0.4884  0.8768
 1741TIP3    H2 5230   3.641   3.354   3.812  0.9196 -0.2161  0.5042
 1742TIP3   OH2 5231   1.932   2.349   2.537  0.3474  0.3221 -0.5724
 1742TIP3    H1 5232   1.879   2.302   2.473 -0.1938 -0.2835  0.3143
 1742TIP3    H2 5233   1.927   2.297   2.617  1.7484  0.5872 -0.2728
 1743TIP3   OH2 5234   6.094   2.658   3.037  0.0026  0.1822 -0.2791
 1743TIP3    H1 5235   6.028   2.608   2.989 -0.7836  1.1715 -0.2690
 1743TIP3    H2 5236   6.104   2.611   3.120  0.3953 -0.7905 -0.8621
 1744TIP3   OH2 5237   0.847   2.487   2.449 -0.1304  0.3239  0.5261
 1744TIP3    H1 5238   0.936   2.491   2.486 -0.1230  1.3161  0.4192
 1744TIP3    H2 5239   0.790   2.487   2.526 -0.0517 -0.1967  0.5916
 1745TIP3   OH2 5240   4.040   0.842   0.272  0.1599 -0.2846 -0.6761
 1745TIP3    H1 5241   4.071   0.874   0.187 -2.7516  4.1948 -0.3329
 1745TIP3    H2 5242   3.958   0.797   0.253  0.2703 -0.6320 -0.3552
 1746TIP3   OH2 5243   0.645   3.894   0.750 -0.4308 -0.2961 -0.9972
 1746TIP3    H1 5244   0.635   3.989   0.751 -0.8000 -0.3250  0.1588
 1746TIP3    H2 5245   0.684   3.874   0.665  2.5562  1.1654 -0.0876
 1747TIP3   OH2 5246   5.410   3.908   2.325 -0.1529  0.4494 -0.0773
 1747TIP3    H1 5247   5.446   3.997   2.317  3.4607 -0.7690  0.9482
 1747TIP3    H2 5248   5.415   3.889   2.419 -2.9397 -0.1698  0.0340
 1748TIP3   OH2 5249   5.684   2.637   3.124 -0.2443  0.9308 -0.1641
 1748TIP3    H1 5250   5.713   2.725   3.150  3.0765  0.3070 -1.3422
 1748TIP3    H2 5251   5.759   2.599   3.078 -1.8525 -2.2513 -0.4381
 1749TIP3   OH2 5252   0.984   2.228   3.036  0.4513 -0.2019  0.1946
 1749TIP3    H1 5253   1.079   2.224   3.032  0.6292  2.1636  0.6665
 1749TIP3    H2 5254   0.957   2.256   2.949  0.2246 -0.3666  0.2110
 1750TIP3   OH2 5255   0.450   4.890   2.544 -0.1606 -0.3771 -0.1434
 1750TIP3    H1 5256   0.364   4.924   2.567  0.5482  0.3209  1.5917
 1750TIP3    H2 5257   0.504   4.968   2.530 -0.0876 -0.7838 -2.5262
 1751TIP3   OH2 5258   0.480   2.332   3.104  0.8990  0.3506  0.8700
 1751TIP3    H1 5259   0.548   2.386   3.065  0.4723  0.1349 -0.2382
 1751TIP3    H2 5260   0.398   2.365   3.066  0.6952 -1.5609 -0.5207
 1752TIP3   OH2 5261   3.732   1.991   1.155 -0.1624 -0.8405 -0.3518
 1752TIP3    H1 5262   3.763   1.910   1.196  2.1430 -0.7950 -1.7720
 1752TIP3    H2 5263   3.793   2.005   1.082 -1.5821  1.2406 -1.2345
 1753TIP3   OH2 5264   1.723   5.133   0.810 -0.4166 -0.3702  0.2775
 1753TIP3    H1 5265   1.810   5.165   0.786  0.5557 -3.0809 -0.2145
 1753TIP3    H2 5266   1.673   5.137   0.729  0.2482 -1.6539 -0.2229
 1754TIP3   OH2 5267   2.584   5.042   4.766 -0.4605  0.2843  0.1732
 1754TIP3    H1 5268   2.520   5.072   4.701 -0.4984  1.7876  0.8685
 1754TIP3    H2 5269   2.551   4.956   4.794 -0.8729 -0.0336 -1.1926
 1755TIP3   OH2 5270   0.796   5.953   4.347 -0.5613  0.2530  0.0245
 1755TIP3    H1 5271   0.747   5.892   4.402 -1.5239  0.0002 -1.0788
 1755TIP3    H2 5272   0.735   6.025   4.329 -0.4699  0.0502 -1.1699
 1756TIP3   OH2 5273   5.429   3.732   4.310  0.5191 -0.2114  0.3096
 1756TIP3    H1 5274   5.447   3.644   4.343  3.0691 -0.4693 -1.4843
 1756TIP3    H2 5275   5.426   3.722   4.215  2.6229  1.8515 -0.0626
 1757TIP3   OH2 5276   2.732   5.072   2.146 -0.1252  0.3350 -0.4956
 1757TIP3    H1 5277   2.817   5.027   2.152 -0.8769 -1.6089 -2.7949
 1757TIP3    H2 5278   2.747   5.142   2.082 -0.0853  0.4226 -0.3901
 1758TIP3   OH2 5279   2.804   4.723   0.273 -0.3022  0.3994 -0.6774
 1758TIP3    H1 5280   2.763   4.650   0.226  0.4680 -0.9121  0.6093
 1758TIP3    H2 5281   2.897   4.700   0.276 -0.2372  0.7691  0.8783
 1759TIP3   OH2 5282   1.859   5.527   3.869 -0.7174  0.1219  0.0601
 1759TIP3    H1 5283   1.835   5.549   3.959  0.7060  0.0865  0.4835
 1759TIP3    H2 5284   1.855   5.609   3.822 -0.3336  0.3662  0.4432
 1760TIP3   OH2 5285   1.900   1.869   3.779  0.1962 -0.1907 -0.2972
 1760TIP3    H1 5286   1.958   1.879   3.704  0.4612  1.3428  0.0844
 1760TIP3    H2 5287   1.815   1.899   3.747 -0.3617 -2.0960 -0.7486
 1761TIP3   OH2 5288   5.302   4.792   0.076  0.2196 -0.1558 -0.8572
 1761TIP3    H1 5289   5.361   4.717   0.083 -0.5038 -0.5974  1.6945
 1761TIP3    H2 5290   5.215   4.753   0.063 -0.0471  0.2500 -0.3538
 1762TIP3   OH2 5291   1.077   4.832   0.988 -0.3401 -0.0131 -0.0570
 1762TIP3    H1 5292   1.159   4.860   0.949 -0.6042  0.9643  0.0717
 1762TIP3    H2 5293   1.033   4.913   1.015 -0.9658 -0.5615  0.6417
 1763TIP3   OH2 5294   5.268   5.029   1.080  0.2759  0.3770  0.0575
 1763TIP3    H1 5295   5.232   5.059   1.163 -0.2132  3.2459 -1.0726
 1763TIP3    H2 5296   5.273   4.934   1.088 -0.1716  0.5365  3.1557
 1764TIP3   OH2 5297   4.009   3.754   0.080 -0.8846 -0.0419  0.6259
 1764TIP3    H1 5298   4.026   3.786   0.168 -0.2029  1.0421  0.1348
 1764TIP3    H2 5299   4.041   3.664   0.080  1.2190  0.6402  0.9022
 1765TIP3   OH2 5300   3.577   4.369   0.935 -0.1855  0.4065  0.6433
 1765TIP3    H1 5301   3.641   4.303   0.908 -0.9631 -0.3420  0.5865
 1765TIP3    H2 5302   3.626   4.426   0.994  0.7582  0.3451 -0.0549
 1766TIP3   OH2 5303   5.583   0.410   0.134  0.0132 -0.2689 -0.0799
 1766TIP3    H1 5304   5.589   0.400   0.229  2.0711 -0.6765 -0.2077
 1766TIP3    H2 5305   5.622   0.331   0.099  2.9335  1.5245 -1.1976
 1767TIP3   OH2 5306   4.038   5.148   3.944  0.1608 -0.1697  0.4257
 1767TIP3    H1 5307   4.052   5.220   4.005 -0.1800 -1.1706  1.7562
 1767TIP3    H2 5308   4.110   5.153   3.882  0.3972  1.0139  0.7850
 1768TIP3   OH2 5309   0.983   2.759   3.621 -0.2421  0.2647  0.2016
 1768TIP3    H1 5310   1.001   2.667   3.636  0.4930  0.8505  4.3250
 1768TIP3    H2 5311   0.891   2.762   3.595  0.0931 -1.6504 -1.3466
 1769TIP3   OH2 5312   0.419   2.268   2.394 -0.0455  0.2228  0.2619
 1769TIP3    H1 5313   0.441   2.188   2.442 -0.1955 -0.4677 -0.7863
 1769TIP3    H2 5314   0.503   2.305   2.369  0.1080  1.4619  2.3811
 1770TIP3   OH2 5315   4.362   1.065   0.172  0.3481  0.3284 -0.2764
 1770TIP3    H1 5316   4.319   1.057   0.257 -0.4351 -0.4183 -0.7283
 1770TIP3    H2 5317   4.406   1.150   0.175  0.9175 -0.0017  1.1284
 1771TIP3   OH2 5318   1.114   1.939   2.952  0.0244  0.3432  0.7956
 1771TIP3    H1 5319   1.162   2.012   2.989  0.1541  0.9204 -0.4435
 1771TIP3    H2 5320   1.057   1.979   2.885 -1.1657 -0.4806  1.2761
 1772TIP3   OH2 5321   3.168   4.080   2.348 -0.1907 -0.7403 -0.2194
 1772TIP3    H1 5322   3.105   4.035   2.405 -1.1566 -0.1893 -0.8164
 1772TIP3    H2 5323   3.254   4.057   2.384 -0.6559 -2.7613 -0.2756
 1773TIP3   OH2 5324   4.889   0.222   1.940 -0.0965 -0.1505 -0.1594
 1773TIP3    H1 5325   4.832   0.223   2.017 -1.2591  1.5506 -0.9918
 1773TIP3    H2 5326   4.829   0.228   1.866  0.9541 -2.3624 -1.2803
 1774TIP3   OH2 5327   2.583   3.101   1.110  0.3852 -0.4217  0.5896
 1774TIP3    H1 5328   2.671   3.082   1.144  0.9858 -1.3068 -1.2900
 1774TIP3    H2 5329   2.542   3.154   1.178  2.3200 -0.1098  1.5996
 1775TIP3   OH2 5330   2.734   3.658   3.034  0.2749  0.0555  0.3669
 1775TIP3    H1 5331   2.654   3.625   2.991 -0.0993 -0.4686  1.4449
 1775TIP3    H2 5332   2.702   3.707   3.110  0.9059  1.4772 -0.2362
 1776TIP3   OH2 5333   0.806   0.549   1.671 -0.1114 -0.4905  0.5078
 1776TIP3    H1 5334   0.839   0.635   1.644 -1.5023 -0.0164  0.2480
 1776TIP3    H2 5335   0.750   0.567   1.746 -1.9427 -0.8832 -0.7007
 1777TIP3   OH2 5336   5.966   3.249   1.155  0.1731  0.2078  0.3153
 1777TIP3    H1 5337   5.971   3.318   1.221 -0.8073  0.3158  0.2890
 1777TIP3    H2 5338   5.874   3.223   1.154  0.0186  0.7125 -1.5248
 1778TIP3   OH2 5339   5.662   4.656   3.855 -0.0015 -0.1337  0.2933
 1778TIP3    H1 5340   5.715   4.576   3.851  1.7723  1.0296 -0.7463
 1778TIP3    H2 5341   5.653   4.674   3.949  1.2073 -0.5548  0.5132
 1779TIP3   OH2 5342   0.738   2.641   0.850  0.0060  0.4353 -0.0634
 1779TIP3    H1 5343   0.729   2.599   0.936  0.7803  0.3481 -0.0236
 1779TIP3    H2 5344   0.691   2.724   0.859 -0.5034  0.1233  0.2271
 1780TIP3   OH2 5345   4.741   4.695   0.274  0.0085 -0.4417  0.0031
 1780TIP3    H1 5346   4.724   4.603   0.250  0.4824 -1.0246  1.7996
 1780TIP3    H2 5347   4.665   4.719   0.327  0.1845  0.0262  0.0371
 1781TIP3   OH2 5348   0.510   4.897   4.978  0.2645  0.5696 -0.0473
 1781TIP3    H1 5349   0.598   4.911   5.012 -0.2950  0.3727  1.5559
 1781TIP3    H2 5350   0.454   4.894   5.055 -1.2818  1.5323 -1.0604
 1782TIP3   OH2 5351   3.434   2.255   4.446 -0.1346 -0.2255  0.1360
 1782TIP3    H1 5352   3.494   2.190   4.408  0.6052 -0.0109  0.9026
 1782TIP3    H2 5353   3.438   2.239   4.540  1.6060  2.1702  0.5694
 1783TIP3   OH2 5354   4.555   1.249   4.319 -0.4696 -0.3362 -0.5724
 1783TIP3    H1 5355   4.649   1.240   4.329 -0.4710 -0.0455 -0.3210
 1783TIP3    H2 5356   4.519   1.170   4.360 -0.2990 -0.8444 -1.3749
 1784TIP3   OH2 5357   3.321   6.002   1.764  0.0877 -0.4012 -0.1222
 1784TIP3    H1 5358   3.240   6.042   1.797  0.7690  0.2303  0.8513
 1784TIP3    H2 5359   3.317   5.911   1.794 -0.7738 -0.6952 -1.0602
 1785TIP3   OH2 5360   6.280   1.083   2.276  0.5215  0.7775  0.0790
 1785TIP3    H1 5361   6.289   1.126   2.361 -0.1188  2.1725 -0.5268
 1785TIP3    H2 5362   6.322   1.143   2.214  0.2992  0.1490 -0.6988
 1786TIP3   OH2 5363   3.938   4.557   4.352 -0.0199 -0.0201 -0.7711
 1786TIP3    H1 5364   3.865   4.582   4.295 -0.6116  1.7343  0.6949
 1786TIP3    H2 5365   4.004   4.625   4.338  0.4206 -0.3758 -0.4444
 1787TIP3   OH2 5366   5.107   3.741   4.171 -0.2714 -0.3624 -0.1106
 1787TIP3    H1 5367   5.179   3.690   4.135  0.0521  0.4899 -0.7068
 1787TIP3    H2 5368   5.078   3.797   4.099  0.0389  0.9935  0.7701
 1788TIP3   OH2 5369   2.989   4.805   4.801  0.6717  0.1303 -0.0362
 1788TIP3    H1 5370   2.969   4.725   4.753 -1.3355  1.0023 -0.7639
 1788TIP3    H2 5371   2.998   4.872   4.732  1.5866  0.6967  0.6060
 1789TIP3   OH2 5372   5.690   0.922   3.648  0.7044 -0.0830 -0.4076
 1789TIP3    H1 5373   5.701   1.017   3.647  0.1584  0.0231  0.8848
 1789TIP3    H2 5374   5.661   0.902   3.737  0.4101 -1.4204 -0.7691
 1790TIP3   OH2 5375   3.263   3.394   4.302 -0.1677  0.0936 -0.6517
 1790TIP3    H1 5376   3.278   3.459   4.370 -0.7437 -0.4022 -0.0310
 1790TIP3    H2 5377   3.329   3.326   4.319 -0.5034 -0.1733 -0.3922
 1791TIP3   OH2 5378   4.650   2.345   4.811 -0.0791  0.3713 -0.6161
 1791TIP3    H1 5379   4.617   2.434   4.826  0.0109  0.3052 -0.0171
 1791TIP3    H2 5380   4.617   2.294   4.886 -1.8644 -0.5798 -1.9471
 1792TIP3   OH2 5381   4.497   2.881   3.371 -0.1378 -0.0390 -0.0054
 1792TIP3    H1 5382   4.446   2.887   3.452 -0.0563  0.3277  0.0164
 1792TIP3    H2 5383   4.443   2.826   3.313 -0.5613  0.3496  0.0172
 1793TIP3   OH2 5384   4.113   1.331   5.201  0.4963 -0.2441  0.1119
 1793TIP3    H1 5385   4.116   1.240   5.228 -2.1050 -0.4288  0.0121
 1793TIP3    H2 5386   4.150   1.332   5.112  4.5741 -0.3862  1.5658
 1794TIP3   OH2 5387   3.399   2.636   0.179  0.2125 -0.0339  0.4691
 1794TIP3    H1 5388   3.319   2.653   0.129  0.6911 -1.5400 -0.8968
 1794TIP3    H2 5389   3.369   2.613   0.267 -0.8360 -0.2849  0.0561
 1795TIP3   OH2 5390   1.633   4.312   2.268 -0.4107 -0.1952 -0.6218
 1795TIP3    H1 5391   1.604   4.299   2.358  1.4079 -0.1336  0.0101
 1795TIP3    H2 5392   1.643   4.407   2.259  0.0644 -0.2484 -0.6699
 1796TIP3   OH2 5393   5.650   1.474   1.960  0.2877 -0.4866 -0.0012
 1796TIP3    H1 5394   5.614   1.556   1.924  1.1531 -0.3319 -0.5335
 1796TIP3    H2 5395   5.584   1.446   2.024 -0.1773  0.4544 -0.0403
 1797TIP3   OH2 5396   6.355   5.554   3.284 -0.0633 -0.2778 -0.1910
 1797TIP3    H1 5397   6.283   5.616   3.270  1.2462  1.4893  0.4770
 1797TIP3    H2 5398   6.356   5.539   3.378  1.9625  1.7461  0.1762
 1798TIP3   OH2 5399   0.016   1.433   3.295 -0.6278 -0.0235  0.3045
 1798TIP3    H1 5400   0.044   1.443   3.204 -2.1903  2.2866 -0.0025
 1798TIP3    H2 5401   0.092   1.396   3.340 -0.5046 -3.3895 -2.2732
 1799TIP3   OH2 5402   5.136   1.221   2.411 -0.3144 -0.2429 -0.2126
 1799TIP3    H1 5403   5.130   1.272   2.331 -1.5915 -0.5299 -0.3265
 1799TIP3    H2 5404   5.082   1.269   2.474 -1.1041 -1.1427 -0.1723
 1800TIP3   OH2 5405   3.161   0.062   1.863 -0.2811  0.0176 -0.1499
 1800TIP3    H1 5406   3.232   0.055   1.799  0.6957 -0.8660  0.9885
 1800TIP3    H2 5407   3.152  -0.027   1.898 -0.4026  0.6039  1.3432
 1801TIP3   OH2 5408   0.406   5.776   3.802 -0.3655 -0.4927 -0.0698
 1801TIP3    H1 5409   0.398   5.695   3.752 -0.4061 -0.7928  0.4104
 1801TIP3    H2 5410   0.405   5.748   3.893 -1.0267  0.1019  0.1214
 1802TIP3   OH2 5411   1.582   1.915   1.765 -0.4037 -0.5468 -0.0190
 1802TIP3    H1 5412   1.660   1.890   1.715  0.0369 -0.5740  0.6702
 1802TIP3    H2 5413   1.535   1.976   1.708  0.3218 -0.2258 -0.2764
 1803TIP3   OH2 5414   6.090   5.220   1.870 -0.6046 -0.4522 -0.0343
 1803TIP3    H1 5415   6.117   5.128   1.874 -0.1318 -0.3457 -0.5962
 1803TIP3    H2 5416   6.131   5.253   1.790 -1.2755  0.0900 -0.1563
 1804TIP3   OH2 5417   2.962   1.713   1.332  0.2799 -0.3634 -0.0498
 1804TIP3    H1 5418   2.884   1.670   1.299 -0.0011 -0.1049  0.2703
 1804TIP3    H2 5419   3.023   1.641   1.350  0.4799 -0.4998 -1.2112
 1805TIP3   OH2 5420   0.927   3.801   0.978  0.8264 -0.2899  0.0121
 1805TIP3    H1 5421   0.948   3.721   1.025  0.2869 -0.9338 -0.8044
 1805TIP3    H2 5422   0.921   3.774   0.886 -2.1545  0.0796  0.0088
 1806TIP3   OH2 5423   4.526   5.479   1.905 -0.8613 -0.3086  0.1935
 1806TIP3    H1 5424   4.496   5.556   1.953 -0.7941 -0.2451  0.1335
 1806TIP3    H2 5425   4.450   5.450   1.855 -1.0532 -0.6235  0.6571
 1807TIP3   OH2 5426   2.861   4.746   0.979 -0.2840 -0.0406  0.3227
 1807TIP3    H1 5427   2.881   4.662   0.937 -0.1401 -0.8749  1.9938
 1807TIP3    H2 5428   2.766   4.743   0.992 -0.4807  0.6622 -0.8158
 1808TIP3   OH2 5429   5.015   4.546   0.539 -0.5201 -0.4458  0.3008
 1808TIP3    H1 5430   4.923   4.526   0.526 -0.3340 -0.4463 -1.0757
 1808TIP3    H2 5431   5.051   4.467   0.580 -0.7912 -1.0957 -0.6934
 1809TIP3   OH2 5432   3.077   4.408   4.147  0.2260 -0.1136 -0.1104
 1809TIP3    H1 5433   3.010   4.371   4.090  0.3283  0.3266 -0.5269
 1809TIP3    H2 5434   3.093   4.496   4.112  0.0469  0.2947  0.8029
 1810TIP3   OH2 5435   3.361   3.110   2.354 -0.0724 -0.0570 -0.1984
 1810TIP3    H1 5436   3.279   3.102   2.403  0.2391  1.2141  0.5772
 1810TIP3    H2 5437   3.379   3.021   2.322 -0.6817 -0.7672  1.3572
 1811TIP3   OH2 5438   1.452   0.112   2.757  0.6674  0.0841  0.4693
 1811TIP3    H1 5439   1.475   0.153   2.841  1.0145 -1.0858  0.9683
 1811TIP3    H2 5440   1.401   0.179   2.711  4.9749  2.9541 -0.7779
 1812TIP3   OH2 5441   5.121   2.510   1.392 -0.0249  0.2327  0.1056
 1812TIP3    H1 5442   5.162   2.514   1.478 -0.1708 -1.3115  0.2839
 1812TIP3    H2 5443   5.106   2.601   1.368  2.7855  0.8568  0.3511
 1813TIP3   OH2 5444   4.271   4.492   4.055  0.6049  0.4298 -0.0378
 1813TIP3    H1 5445   4.324   4.507   3.977  0.3532 -0.5706 -0.4175
 1813TIP3    H2 5446   4.334   4.478   4.125  0.8799 -0.9600 -0.5248
 1814TIP3   OH2 5447   4.712   5.593   2.937 -0.1222 -0.1902 -0.1622
 1814TIP3    H1 5448   4.617   5.601   2.935 -0.2645 -0.5944  2.0527
 1814TIP3    H2 5449   4.728   5.510   2.983  1.2977 -0.1335 -0.5079
 1815TIP3   OH2 5450   4.689   2.112   2.980 -0.2836  0.3858 -0.3737
 1815TIP3    H1 5451   4.619   2.168   3.013 -0.0310  0.9760 -0.8190
 1815TIP3    H2 5452   4.644   2.041   2.935 -0.6339 -0.3522  1.0575
 1816TIP3   OH2 5453   4.664   2.371   3.891 -0.0988  0.0164  0.0358
 1816TIP3    H1 5454   4.604   2.304   3.925 -0.2724 -0.6779 -1.5779
 1816TIP3    H2 5455   4.619   2.454   3.910 -0.1602 -0.3131  1.5053
 1817TIP3   OH2 5456   4.815   3.924   0.534 -0.5177  0.8234 -0.3851
 1817TIP3    H1 5457   4.839   3.973   0.456 -2.1073  1.0574 -0.7703
 1817TIP3    H2 5458   4.802   3.992   0.602 -0.4624  0.7404 -0.2914
 1818TIP3   OH2 5459   3.857   2.660   3.742 -0.6226 -0.0107 -0.0829
 1818TIP3    H1 5460   3.829   2.607   3.817 -0.1453 -1.7435 -1.0734
 1818TIP3    H2 5461   3.778   2.671   3.690 -0.8919  0.9501  0.5048
 1819TIP3   OH2 5462   5.155   1.487   3.528 -0.1256 -0.1358  0.2864
 1819TIP3    H1 5463   5.063   1.462   3.514 -0.2499  0.7630 -0.5995
 1819TIP3    H2 5464   5.164   1.492   3.624 -1.1792  0.3798  0.3732
 1820TIP3   OH2 5465   4.928   5.413   3.816 -0.2723 -0.1414 -0.0185
 1820TIP3    H1 5466   4.840   5.419   3.779 -0.3094  2.4919  0.3020
 1820TIP3    H2 5467   4.987   5.435   3.743  0.1658 -1.6881 -0.1807
 1821TIP3   OH2 5468   5.546   3.608   2.108 -0.1566 -0.0563 -0.0853
 1821TIP3    H1 5469   5.603   3.542   2.068  1.4391  1.3899 -0.3047
 1821TIP3    H2 5470   5.499   3.561   2.177  0.9589 -1.3956 -0.2070
 1822TIP3   OH2 5471   2.014   4.255   3.087  0.3159 -0.5495 -0.0671
 1822TIP3    H1 5472   2.025   4.346   3.059 -0.8406 -0.4475 -0.2565
 1822TIP3    H2 5473   2.088   4.238   3.144  2.1007 -0.3646 -2.1844
 1823TIP3   OH2 5474   4.345   4.054   2.638 -0.1532 -0.5877  0.3759
 1823TIP3    H1 5475   4.342   4.130   2.579  0.5998 -1.2426 -0.5483
 1823TIP3    H2 5476   4.350   4.091   2.726  0.3702  0.4371 -0.0690
 1824TIP3   OH2 5477   5.137   3.419   1.885 -0.4201 -0.6038 -0.5720
 1824TIP3    H1 5478   5.124   3.327   1.909  0.1829 -0.2265  1.4461
 1824TIP3    H2 5479   5.050   3.459   1.897 -0.4118 -0.6833 -0.2208
 1825TIP3   OH2 5480   4.292   2.852   1.772 -0.4097 -0.4820 -0.0311
 1825TIP3    H1 5481   4.345   2.810   1.705  0.5433 -1.8799  1.5250
 1825TIP3    H2 5482   4.203   2.820   1.757 -0.2144 -0.7574 -0.6164
 1826TIP3   OH2 5483   6.093   1.007   1.653  0.0752 -0.1605 -0.4383
 1826TIP3    H1 5484   6.140   1.001   1.570  0.4501 -2.3419 -0.1162
 1826TIP3    H2 5485   6.002   0.987   1.631 -0.1501  0.9493 -0.5663
 1827TIP3   OH2 5486   5.650   5.128   1.235 -0.2503  0.0211  0.4164
 1827TIP3    H1 5487   5.578   5.109   1.294 -1.0430 -0.9311 -0.8008
 1827TIP3    H2 5488   5.647   5.223   1.222  0.6338  0.4340  2.6911
 1828TIP3   OH2 5489   2.124   4.528   2.997 -0.1985  0.1270  0.2029
 1828TIP3    H1 5490   2.204   4.553   3.043 -0.7419  0.8721  0.7667
 1828TIP3    H2 5491   2.154   4.505   2.909  0.6231  0.5490  0.3593
 1829TIP3   OH2 5492   0.393   1.224   1.480  0.5835 -0.2874 -0.5260
 1829TIP3    H1 5493   0.431   1.146   1.439 -0.7170 -0.9868 -0.4520
 1829TIP3    H2 5494   0.417   1.216   1.572  1.3920 -0.0122 -0.7059
 1830TIP3   OH2 5495   1.924   3.861   1.655  0.2874  0.3521  0.4502
 1830TIP3    H1 5496   1.987   3.818   1.712  0.2135  1.2487  1.2227
 1830TIP3    H2 5497   1.920   3.805   1.577 -0.0701 -1.2306  1.5669
 1831TIP3   OH2 5498   1.077   1.150   4.734 -0.7647 -0.2045  0.7215
 1831TIP3    H1 5499   1.154   1.191   4.773  0.7107 -0.9112 -1.3026
 1831TIP3    H2 5500   1.007   1.166   4.797  0.9218  0.8412  2.4282
 1832TIP3   OH2 5501   4.158   5.501   4.646 -0.3429 -0.3630 -0.3953
 1832TIP3    H1 5502   4.194   5.415   4.628 -1.1442 -0.9751  0.8385
 1832TIP3    H2 5503   4.064   5.492   4.629 -0.7278 -0.2720  1.4889
 1833TIP3   OH2 5504   4.185   0.398   1.487  0.4481  0.2615 -0.0783
 1833TIP3    H1 5505   4.261   0.411   1.543  0.7193  1.3388 -0.6465
 1833TIP3    H2 5506   4.201   0.456   1.412 -0.5106 -0.1641 -0.6349
 1834TIP3   OH2 5507   2.842   0.549   3.782 -0.6450  0.5711  0.2511
 1834TIP3    H1 5508   2.833   0.641   3.807  0.5154  0.9094 -0.4796
 1834TIP3    H2 5509   2.753   0.521   3.761 -0.9307  1.7126 -0.1362
 1835TIP3   OH2 5510   2.614   1.275   2.674 -0.0098 -0.6005  0.3996
 1835TIP3    H1 5511   2.695   1.244   2.632  0.5073 -0.1576  1.0565
 1835TIP3    H2 5512   2.580   1.341   2.614 -2.1084 -3.5800 -1.9704
 1836TIP3   OH2 5513   1.689   0.504   4.565  0.1598  0.2892 -0.1469
 1836TIP3    H1 5514   1.696   0.420   4.610 -2.1587  0.5820  0.9242
 1836TIP3    H2 5515   1.680   0.481   4.473  0.6346 -0.5580  0.0074
 1837TIP3   OH2 5516   2.511   1.302   0.983 -0.4461  0.4927 -0.0551
 1837TIP3    H1 5517   2.541   1.257   1.062 -1.9488  0.0195  0.2644
 1837TIP3    H2 5518   2.558   1.386   0.985 -1.5514  1.1470  2.1661
 1838TIP3   OH2 5519   5.070   4.513   3.468 -0.0220  0.1816 -0.2586
 1838TIP3    H1 5520   5.065   4.483   3.377  0.0259 -1.8028  0.3338
 1838TIP3    H2 5521   4.979   4.509   3.499  0.1256 -0.3027  0.1129
 1839TIP3   OH2 5522   2.702   5.330   1.012  0.3485 -0.5083  0.0049
 1839TIP3    H1 5523   2.782   5.278   1.021 -0.5557 -1.8280  0.7103
 1839TIP3    H2 5524   2.632   5.266   1.000 -0.8728  0.5079  1.2786
 1840TIP3   OH2 5525   0.946   3.079   0.114  0.1926 -0.7039 -1.2597
 1840TIP3    H1 5526   1.042   3.078   0.113  0.3346 -2.9556  1.5350
 1840TIP3    H2 5527   0.920   2.997   0.071 -0.2185 -1.9881  1.2441
 1841TIP3   OH2 5528   2.476   3.415   4.803 -0.6660 -0.3750 -0.4174
 1841TIP3    H1 5529   2.526   3.449   4.877 -0.4953 -0.7074 -0.3772
 1841TIP3    H2 5530   2.540   3.404   4.733 -0.8808  0.2117 -0.7076
 1842TIP3   OH2 5531   2.270   1.555   2.367 -0.2999 -0.2868  0.0792
 1842TIP3    H1 5532   2.234   1.501   2.297 -0.3480 -2.8114  1.9143
 1842TIP3    H2 5533   2.354   1.513   2.389 -0.2301  0.5088  1.4488
 1843TIP3   OH2 5534   0.614   4.310   1.425 -0.0217  0.2319  0.3322
 1843TIP3    H1 5535   0.619   4.275   1.336 -0.5329 -0.2721  0.4945
 1843TIP3    H2 5536   0.543   4.261   1.466  0.5647  0.0700  1.1914
 1844TIP3   OH2 5537   3.292   1.451   4.695  0.0311 -0.5724  0.1980
 1844TIP3    H1 5538   3.349   1.453   4.618 -0.7452 -2.0839 -0.4581
 1844TIP3    H2 5539   3.271   1.543   4.712  2.0566 -0.0218  0.0295
 1845TIP3   OH2 5540   5.622   0.433   1.408  0.2306  0.0641 -0.1668
 1845TIP3    H1 5541   5.677   0.497   1.452 -0.3573 -0.2237  1.0258
 1845TIP3    H2 5542   5.608   0.364   1.473  0.8573 -1.3067 -1.4041
 1846TIP3   OH2 5543   6.050   0.551   3.856  0.1246  0.0836  0.2398
 1846TIP3    H1 5544   5.966   0.584   3.824 -0.6209 -0.9586  1.0793
 1846TIP3    H2 5545   6.089   0.508   3.780 -2.5067 -4.1257  0.9947
 1847TIP3   OH2 5546   5.177   4.749   4.840 -0.3490 -0.9264 -0.0108
 1847TIP3    H1 5547   5.216   4.664   4.857 -0.1910 -0.7089  0.7624
 1847TIP3    H2 5548   5.239   4.812   4.878 -1.3381 -0.5710  1.0939
 1848TIP3   OH2 5549   1.166   4.399   4.743 -0.8557 -0.0697  0.2928
 1848TIP3    H1 5550   1.185   4.308   4.764 -2.7827 -0.8252 -0.9869
 1848TIP3    H2 5551   1.172   4.445   4.827  0.8520 -1.1923  0.8429
 1849TIP3   OH2 5552   1.449   4.998   2.237 -0.4293  0.4349  0.5647
 1849TIP3    H1 5553   1.490   4.912   2.238 -0.0318  0.6109  0.0618
 1849TIP3    H2 5554   1.364   4.985   2.278 -0.4423 -0.2314  0.3349
 1850TIP3   OH2 5555   1.081   0.938   1.869 -0.4609 -0.4623  0.2921
 1850TIP3    H1 5556   1.030   0.954   1.948  2.0018 -2.0637  2.3638
 1850TIP3    H2 5557   1.094   1.025   1.832 -2.1737  0.2780  1.2798
 1851TIP3   OH2 5558   0.883   2.286   4.783  0.1624 -0.1502 -0.3000
 1851TIP3    H1 5559   0.931   2.310   4.862 -0.5019  0.1616  0.0143
 1851TIP3    H2 5560   0.882   2.190   4.784  0.9140 -0.1662 -0.3986
 1852TIP3   OH2 5561   0.955   1.289   2.379  0.0053 -0.1711 -0.1507
 1852TIP3    H1 5562   0.878   1.334   2.413 -1.0905 -0.9462 -1.5148
 1852TIP3    H2 5563   1.005   1.264   2.457 -0.2755  1.7479  0.6997
 1853TIP3   OH2 5564   0.365   1.235   2.636 -0.3667  0.6402 -0.6715
 1853TIP3    H1 5565   0.414   1.180   2.574 -0.3554 -0.0136 -0.1017
 1853TIP3    H2 5566   0.304   1.174   2.679 -0.8836  1.2219 -0.5554
 1854TIP3   OH2 5567   3.100   1.625   0.958 -0.1861  0.0244 -0.4348
 1854TIP3    H1 5568   3.128   1.548   0.909 -0.6460 -1.2222  1.1668
 1854TIP3    H2 5569   3.004   1.620   0.957 -0.2189  0.5590 -0.3016
 1855TIP3   OH2 5570   6.045   0.246   2.511 -0.4999  0.4246  0.1885
 1855TIP3    H1 5571   6.062   0.212   2.599  1.0747 -0.7883 -0.5390
 1855TIP3    H2 5572   5.984   0.319   2.525 -1.9015 -1.0050  2.0673
 1856TIP3   OH2 5573   5.569   3.915   0.906 -0.0017  0.7300  0.4157
 1856TIP3    H1 5574   5.581   3.887   0.997 -1.7685  1.5282  0.9401
 1856TIP3    H2 5575   5.580   3.835   0.855 -1.0723 -0.1628  1.5227
 1857TIP3   OH2 5576   5.224   5.909   1.350  0.2190 -0.2139 -0.0121
 1857TIP3    H1 5577   5.249   5.988   1.399 -0.5090  0.8976 -1.3588
 1857TIP3    H2 5578   5.147   5.936   1.300 -1.1724 -2.3332  0.8725
 1858TIP3   OH2 5579   4.529   5.335   0.610 -0.8141 -0.2903 -0.2796
 1858TIP3    H1 5580   4.503   5.267   0.547  0.1207 -1.4594  0.5707
 1858TIP3    H2 5581   4.580   5.397   0.558 -1.8167 -0.1096 -1.1007
 1859TIP3   OH2 5582   4.392   5.852   3.564 -0.0666 -0.0694  0.2611
 1859TIP3    H1 5583   4.325   5.785   3.575  0.5974 -0.6528  0.9239
 1859TIP3    H2 5584   4.453   5.837   3.636  0.1017  1.2593  0.4215
 1860TIP3   OH2 5585   0.243   3.529   4.336 -0.6485 -0.7850  0.0879
 1860TIP3    H1 5586   0.233   3.455   4.396  1.1367 -0.6780  0.5867
 1860TIP3    H2 5587   0.328   3.514   4.293  0.8741  1.9883  1.7854
 1861TIP3   OH2 5588   4.399   5.762   3.288  0.1570 -0.0126 -0.2439
 1861TIP3    H1 5589   4.304   5.769   3.283  0.2783  0.9882 -1.6356
 1861TIP3    H2 5590   4.423   5.810   3.367 -0.3815  1.3468 -0.8758
 1862TIP3   OH2 5591   5.940   0.073   5.073 -0.0089 -0.5240 -0.0085
 1862TIP3    H1 5592   5.995   0.015   5.019 -0.2618 -1.2662  0.5072
 1862TIP3    H2 5593   5.942   0.157   5.028  1.3344 -0.6103 -0.1445
 1863TIP3   OH2 5594   1.145   3.305   0.174  0.2883  0.4830  0.8706
 1863TIP3    H1 5595   1.166   3.391   0.209  0.5207 -0.0784  2.1607
 1863TIP3    H2 5596   1.051   3.295   0.189  0.0682  0.8905 -0.1655
 1864TIP3   OH2 5597   1.279   1.242   1.457 -0.2153  0.3029  0.3821
 1864TIP3    H1 5598   1.314   1.288   1.534 -0.8965  0.2588  0.7234
 1864TIP3    H2 5599   1.208   1.297   1.426  0.0192  0.2910 -0.1939
 1865TIP3   OH2 5600   4.033   3.773   4.024  0.2522  0.1621  0.0513
 1865TIP3    H1 5601   4.071   3.701   3.974  0.0276  0.4446 -0.5249
 1865TIP3    H2 5602   3.939   3.759   4.019  0.1004  1.5550 -1.6765
 1866TIP3   OH2 5603   5.154   4.046   4.656  0.4146  0.8520 -0.7675
 1866TIP3    H1 5604   5.209   4.009   4.588 -0.0859 -0.7758 -0.3353
 1866TIP3    H2 5605   5.099   4.110   4.610  0.2308 -0.0575 -1.8550
 1867TIP3   OH2 5606   3.699   2.130   4.726 -0.5436 -0.1963  0.3791
 1867TIP3    H1 5607   3.615   2.173   4.710 -0.5415 -0.7981 -1.5000
 1867TIP3    H2 5608   3.677   2.051   4.775 -1.1104 -0.3802 -0.1518
 1868TIP3   OH2 5609   5.130   3.289   3.505 -0.1967 -0.2197 -0.4099
 1868TIP3    H1 5610   5.103   3.204   3.540  0.2154 -0.2014 -0.0434
 1868TIP3    H2 5611   5.065   3.309   3.437 -1.0505 -0.2140  0.3910
 1869TIP3   OH2 5612   4.209   2.085   4.904  0.5924 -0.1063 -0.4787
 1869TIP3    H1 5613   4.146   2.133   4.958  0.2909  0.5440 -1.3737
 1869TIP3    H2 5614   4.212   2.134   4.822  0.1012 -1.7433 -1.5211
 1870TIP3   OH2 5615   5.610   2.341   2.030  0.2000  0.1392 -0.1990
 1870TIP3    H1 5616   5.543   2.329   1.963  0.5225 -3.2053 -0.0574
 1870TIP3    H2 5617   5.658   2.258   2.033  1.7253  0.9646  2.5487
 1871TIP3   OH2 5618   4.893   5.729   3.265  0.2247 -0.2090 -0.1876
 1871TIP3    H1 5619   4.830   5.753   3.333  0.9395 -0.1749  0.4783
 1871TIP3    H2 5620   4.897   5.805   3.207 -1.3006 -0.7005 -0.9828
 1872TIP3   OH2 5621   5.939   4.815   4.418 -0.5104 -0.2206  0.5631
 1872TIP3    H1 5622   5.955   4.883   4.483 -0.4822  0.3752 -0.0486
 1872TIP3    H2 5623   6.019   4.763   4.417  1.1452  2.0828 -1.7052
 1873TIP3   OH2 5624   1.104   5.508   1.605 -0.4527 -0.3799 -0.2399
 1873TIP3    H1 5625   1.170   5.573   1.582 -0.0963 -0.2942  0.9638
 1873TIP3    H2 5626   1.146   5.424   1.588  0.4440 -0.3607  1.6020
 1874TIP3   OH2 5627   2.517   0.315   3.546 -0.8045 -0.0189  0.2859
 1874TIP3    H1 5628   2.429   0.319   3.584 -0.4724  2.7127  1.0401
 1874TIP3    H2 5629   2.569   0.373   3.602  1.1741 -0.5569 -0.9048
 1875TIP3   OH2 5630   4.168   1.202   1.220  0.4417 -0.1291  0.3846
 1875TIP3    H1 5631   4.176   1.197   1.315  1.4411 -0.6797  0.2814
 1875TIP3    H2 5632   4.079   1.234   1.205  0.3392  0.1500  1.5041
 1876TIP3   OH2 5633   2.394   5.847   1.375  0.2767  0.0859 -0.1668
 1876TIP3    H1 5634   2.418   5.769   1.324  0.1827  1.4182 -2.3999
 1876TIP3    H2 5635   2.300   5.839   1.388  0.6094 -1.3187  1.7723
 1877TIP3   OH2 5636   4.176   4.786   3.614  0.1183 -0.0366  0.2734
 1877TIP3    H1 5637   4.129   4.831   3.685 -2.3658  0.8983 -1.7805
 1877TIP3    H2 5638   4.211   4.857   3.560  0.6118 -0.6939 -0.2863
 1878TIP3   OH2 5639   3.904   2.980   0.867 -0.1240  0.2350 -0.2877
 1878TIP3    H1 5640   3.819   2.979   0.823 -2.1126  3.6644  2.8449
 1878TIP3    H2 5641   3.951   3.053   0.825 -0.4486  0.9667  0.5812
 1879TIP3   OH2 5642  -0.002   1.117   5.080  0.0126  0.6024  0.1481
 1879TIP3    H1 5643  -0.043   1.032   5.065  0.4546  0.5342 -0.7143
 1879TIP3    H2 5644   0.071   1.098   5.140 -0.7433  0.6098  1.0924
 1880TIP3   OH2 5645   1.491   1.460   0.171  0.3524  0.2916 -0.2014
 1880TIP3    H1 5646   1.464   1.375   0.135 -0.7547  0.2903  0.5695
 1880TIP3    H2 5647   1.414   1.516   0.159  0.3752  0.6249  1.0366
 1881TIP3   OH2 5648   2.688   5.420   1.631  0.6000  0.6184  0.0163
 1881TIP3    H1 5649   2.692   5.503   1.584  1.0789  0.6735  0.1503
 1881TIP3    H2 5650   2.775   5.383   1.622 -0.0694 -0.7019 -1.5103
 1882TIP3   OH2 5651   3.712   1.945   2.760  0.2579  0.0538 -0.3346
 1882TIP3    H1 5652   3.630   1.905   2.732  0.2472  0.4371 -0.8634
 1882TIP3    H2 5653   3.721   1.919   2.852 -0.0261 -0.6919 -0.5100
 1883TIP3   OH2 5654   3.121   0.757   1.679 -0.0801 -0.1739 -0.1608
 1883TIP3    H1 5655   3.090   0.666   1.678  1.2411 -0.6428  0.4262
 1883TIP3    H2 5656   3.106   0.787   1.589 -4.1673  0.3470  0.4967
 1884TIP3   OH2 5657   2.615   4.820   1.146 -0.8102 -0.2595  0.7125
 1884TIP3    H1 5658   2.653   4.908   1.148  1.1234 -0.9397 -1.6828
 1884TIP3    H2 5659   2.523   4.834   1.127 -0.4043  1.2656 -0.3198
 1885TIP3   OH2 5660   0.791   0.673   1.113 -0.1230 -0.1744 -0.2443
 1885TIP3    H1 5661   0.859   0.610   1.090  0.4013 -0.1433  1.1030
 1885TIP3    H2 5662   0.733   0.626   1.173  0.3310  0.6207  0.8607
 1886TIP3   OH2 5663   3.670   0.001   1.720  0.0808 -0.0696 -0.1752
 1886TIP3    H1 5664   3.748  -0.042   1.685  0.3796  1.9055 -2.0898
 1886TIP3    H2 5665   3.703   0.070   1.776 -0.3747 -0.8834  1.1427
 1887TIP3   OH2 5666   2.254   3.565   1.106 -0.1329  0.2133  0.5039
 1887TIP3    H1 5667   2.280   3.500   1.041  0.4842  0.5945  0.3578
 1887TIP3    H2 5668   2.241   3.645   1.056 -0.9661  0.1914  0.6709
 1888TIP3   OH2 5669   5.787   4.383   1.696  1.0181  0.1507  0.3510
 1888TIP3    H1 5670   5.824   4.373   1.784  0.1312 -0.3812  0.6757
 1888TIP3    H2 5671   5.733   4.305   1.683 -2.5760  2.2404  1.2036
 1889TIP3   OH2 5672   1.455   5.829   4.988 -0.7618 -0.1774 -0.6158
 1889TIP3    H1 5673   1.421   5.893   5.051  1.4762 -0.2125  0.7553
 1889TIP3    H2 5674   1.550   5.840   4.992 -0.4954 -1.0174 -3.1816
 1890TIP3   OH2 5675   2.179   5.516   2.320 -0.4489  0.3302 -0.0623
 1890TIP3    H1 5676   2.117   5.540   2.388 -0.6679 -1.1250  0.2901
 1890TIP3    H2 5677   2.155   5.427   2.296  0.3474  0.4105 -1.2430
 1891TIP3   OH2 5678   4.282   0.078   2.870  0.5252  0.3265  0.0026
 1891TIP3    H1 5679   4.290  -0.016   2.855  2.2398  0.1466  1.7316
 1891TIP3    H2 5680   4.223   0.108   2.801  0.3125 -1.9242 -0.8744
 1892TIP3   OH2 5681   3.648   2.703   3.203  0.1504 -0.1502 -0.5946
 1892TIP3    H1 5682   3.566   2.661   3.179  0.4041 -1.4603  0.6736
 1892TIP3    H2 5683   3.706   2.631   3.227  1.7333  0.7275 -1.5596
 1893TIP3   OH2 5684   5.415   3.474   2.344 -0.3436  0.4357  0.2748
 1893TIP3    H1 5685   5.458   3.459   2.428 -0.1531 -0.5395  0.0184
 1893TIP3    H2 5686   5.324   3.494   2.367 -0.3027  0.1402  0.7076
 1894TIP3   OH2 5687   5.250   0.918   2.156 -0.1676  0.9531 -0.0092
 1894TIP3    H1 5688   5.219   0.947   2.242 -3.3156 -2.0218  0.0435
 1894TIP3    H2 5689   5.266   0.824   2.167  1.3752  0.8840 -2.2228
 1895TIP3   OH2 5690   0.298   5.252   1.947 -0.0992 -0.3097 -0.1302
 1895TIP3    H1 5691   0.260   5.242   1.859 -2.3047  0.0402  0.7275
 1895TIP3    H2 5692   0.230   5.296   1.998  0.9353 -0.9414  1.9040
 1896TIP3   OH2 5693   2.646   5.147   3.160  0.2858  0.1153  0.0752
 1896TIP3    H1 5694   2.587   5.219   3.141 -0.4422  0.3458  2.7404
 1896TIP3    H2 5695   2.596   5.068   3.138  0.7729  0.3318 -2.0359
 1897TIP3   OH2 5696   1.648   2.361   1.435 -0.0150  0.7450 -0.5589
 1897TIP3    H1 5697   1.678   2.379   1.524 -0.1851  1.3661 -0.6223
 1897TIP3    H2 5698   1.708   2.412   1.379  1.4637 -1.2856 -0.9497
 1898TIP3   OH2 5699   6.281   5.084   3.731 -0.1457 -0.2388 -0.3841
 1898TIP3    H1 5700   6.281   5.008   3.673  0.6245 -0.2456 -0.3919
 1898TIP3    H2 5701   6.190   5.111   3.736 -0.0870  0.5209 -2.5844
 1899TIP3   OH2 5702   5.970   1.302   3.684 -0.3967 -0.3438  0.8363
 1899TIP3    H1 5703   5.925   1.386   3.675  1.3227  0.5006 -0.3151
 1899TIP3    H2 5704   5.968   1.284   3.778 -2.1958  0.1509  0.9318
 1900TIP3   OH2 5705   5.515   0.739   4.347  0.0055 -0.3197  0.9428
 1900TIP3    H1 5706   5.606   0.770   4.348 -0.1463  0.1315  1.6951
 1900TIP3    H2 5707   5.507   0.691   4.265  0.8287 -0.0726  0.7071
 1901TIP3   OH2 5708   3.147   5.109   2.401  0.3849  0.6168 -0.3168
 1901TIP3    H1 5709   3.198   5.125   2.321  1.0300 -1.5360 -0.3873
 1901TIP3    H2 5710   3.125   5.016   2.398 -3.4145  1.3642 -0.1448
 1902TIP3   OH2 5711   1.252   4.334   3.634 -0.3618 -0.2778  0.6439
 1902TIP3    H1 5712   1.267   4.356   3.726 -0.8131  1.5619  0.3216
 1902TIP3    H2 5713   1.201   4.408   3.600 -1.4151 -1.5852 -0.7496
 1903TIP3   OH2 5714   3.226   1.426   3.508  0.3723  0.0538  0.1157
 1903TIP3    H1 5715   3.167   1.359   3.542  0.6991 -0.6124 -0.6058
 1903TIP3    H2 5716   3.168   1.486   3.460  0.4799 -2.0636 -2.9636
 1904TIP3   OH2 5717   2.082   5.915   1.123 -0.1018  0.1094 -0.2458
 1904TIP3    H1 5718   2.162   5.946   1.081  0.4657 -0.4981  0.3637
 1904TIP3    H2 5719   2.024   5.992   1.125  0.3268  0.4570 -1.0087
 1905TIP3   OH2 5720   2.814   2.293   1.198 -0.2937 -0.1522 -0.4744
 1905TIP3    H1 5721   2.756   2.244   1.139  0.8061  0.3961 -2.0543
 1905TIP3    H2 5722   2.879   2.334   1.141  0.2208  1.2493  1.0289
 1906TIP3   OH2 5723   3.840   1.006   2.462 -0.0379 -0.7146  0.1759
 1906TIP3    H1 5724   3.804   0.941   2.523 -1.4232 -1.1804 -1.0866
 1906TIP3    H2 5725   3.773   1.074   2.456 -1.0866 -1.8386 -2.5969
 1907TIP3   OH2 5726   1.603   3.440   3.447 -0.1963 -0.0051 -0.1120
 1907TIP3    H1 5727   1.651   3.466   3.368  0.1329 -0.1787  0.0304
 1907TIP3    H2 5728   1.532   3.385   3.415 -0.6018  0.6645 -0.3706
 1908TIP3   OH2 5729   3.436   4.330   2.553  0.6040 -0.3642 -0.2077
 1908TIP3    H1 5730   3.378   4.400   2.524  1.8395  1.5808  1.6407
 1908TIP3    H2 5731   3.386   4.284   2.620  0.4534  0.0097 -0.0573
 1909TIP3   OH2 5732   4.432   2.698   0.426 -0.2886  0.4403 -0.0700
 1909TIP3    H1 5733   4.481   2.616   0.431 -1.4383 -0.3433 -1.0403
 1909TIP3    H2 5734   4.377   2.698   0.505 -0.5679  0.0703 -0.2592
 1910TIP3   OH2 5735   2.339   0.605   4.917  0.3882  0.5113 -0.2717
 1910TIP3    H1 5736   2.317   0.529   4.969 -0.2735  0.9620  0.1150
 1910TIP3    H2 5737   2.377   0.667   4.979  0.4666  0.6868 -0.4927
 1911TIP3   OH2 5738   4.467   0.798   1.987 -0.5401  0.4092  0.1879
 1911TIP3    H1 5739   4.398   0.806   2.053  0.6481  0.7027  1.4637
 1911TIP3    H2 5740   4.548   0.792   2.039  0.2823 -1.3533 -1.2163
 1912TIP3   OH2 5741   4.633   1.579   2.721 -0.1228  0.0561  0.1514
 1912TIP3    H1 5742   4.663   1.582   2.812 -0.8852  0.0232  0.4086
 1912TIP3    H2 5743   4.545   1.541   2.726 -1.1196  2.1410 -0.3524
 1913TIP3   OH2 5744   1.559   5.551   3.010  0.0716 -0.1840 -0.5906
 1913TIP3    H1 5745   1.498   5.503   3.067 -0.3448  0.7264 -0.2457
 1913TIP3    H2 5746   1.503   5.598   2.948  0.4492  0.1048 -0.7206
 1914TIP3   OH2 5747   3.701   0.236   3.076  0.4039 -0.6384 -0.4455
 1914TIP3    H1 5748   3.667   0.261   3.162  0.3877  0.2260 -0.6928
 1914TIP3    H2 5749   3.623   0.227   3.021  0.5360  1.6967 -1.1061
 1915TIP3   OH2 5750   4.655   3.536   3.393 -0.2480 -0.2390  0.4337
 1915TIP3    H1 5751   4.610   3.576   3.319  0.1135 -0.6641 -0.0292
 1915TIP3    H2 5752   4.717   3.475   3.353 -1.7181 -2.2948  1.1092
 1916TIP3   OH2 5753   1.360   3.313   2.904 -0.6664 -1.1097  0.0900
 1916TIP3    H1 5754   1.397   3.301   2.991 -0.2428 -1.2211 -0.1043
 1916TIP3    H2 5755   1.390   3.237   2.854 -2.3673 -1.9845  0.3233
 1917TIP3   OH2 5756   2.662   2.566   2.238  0.4355  0.4206 -0.0097
 1917TIP3    H1 5757   2.611   2.511   2.297 -0.9474  1.6269 -0.0533
 1917TIP3    H2 5758   2.677   2.510   2.161 -0.1345 -0.2092  0.3277
 1918TIP3   OH2 5759   0.075   2.305   1.268  0.3281  0.4296 -0.3484
 1918TIP3    H1 5760   0.015   2.346   1.331  1.6139 -1.0332  1.9294
 1918TIP3    H2 5761   0.023   2.237   1.226 -0.5304  1.4000 -0.9230
 1919TIP3   OH2 5762   0.887   2.768   0.072  0.1051  0.1812  0.7309
 1919TIP3    H1 5763   0.942   2.692   0.053  1.4549  1.2413  0.2540
 1919TIP3    H2 5764   0.803   2.748   0.031  0.8442 -0.5065 -0.4835
 1920TIP3   OH2 5765   1.060   1.285   0.566 -0.4208 -0.0466 -0.1371
 1920TIP3    H1 5766   1.048   1.190   0.577 -2.0621  0.1999  0.4053
 1920TIP3    H2 5767   1.069   1.318   0.656 -2.0747  0.5601 -0.1690
 1921TIP3   OH2 5768   0.429   1.332   3.345  0.0967  0.2664  0.0446
 1921TIP3    H1 5769   0.366   1.381   3.397 -2.0851 -0.4940 -1.7346
 1921TIP3    H2 5770   0.376   1.281   3.284  2.4499  0.7410 -2.6091
 1922TIP3   OH2 5771   1.773   3.696   2.112  0.0575 -0.4247  0.0155
 1922TIP3    H1 5772   1.853   3.738   2.143  0.3601 -0.3803 -0.8144
 1922TIP3    H2 5773   1.740   3.753   2.043 -0.2628 -0.8583 -0.1964
 1923TIP3   OH2 5774   4.585   2.921   4.484 -0.3666 -0.3590  0.2605
 1923TIP3    H1 5775   4.527   2.895   4.556  0.5214 -0.0629  1.0910
 1923TIP3    H2 5776   4.526   2.927   4.408 -0.8871 -3.5837  0.2423
 1924TIP3   OH2 5777   1.627   5.652   0.739 -0.0801 -0.9570 -0.0366
 1924TIP3    H1 5778   1.670   5.632   0.823 -0.7649 -3.8466 -0.2726
 1924TIP3    H2 5779   1.534   5.655   0.760 -0.0899  3.1968  0.0821
 1925TIP3   OH2 5780   3.095   3.928   1.322  0.3109  0.0044  0.5809
 1925TIP3    H1 5781   3.138   3.911   1.238  0.6882 -0.1390  0.8015
 1925TIP3    H2 5782   3.056   3.844   1.347 -0.9654  0.3726 -0.1007
 1926TIP3   OH2 5783   6.347   1.626   2.115  0.3296  0.4393 -0.8340
 1926TIP3    H1 5784   6.252   1.617   2.108  0.4266 -0.6482 -0.9443
 1926TIP3    H2 5785   6.363   1.638   2.208  0.1701 -0.7568 -0.6364
 1927TIP3   OH2 5786   4.825   3.346   3.612 -0.5793 -0.5985  0.3264
 1927TIP3    H1 5787   4.782   3.430   3.630 -0.4234 -0.2180 -0.9837
 1927TIP3    H2 5788   4.824   3.300   3.696  0.6354  1.2974  1.4572
 1928TIP3   OH2 5789   5.431   0.245   4.946  0.0464  0.1169  0.1910
 1928TIP3    H1 5790   5.459   0.199   5.025  1.4747  0.6830  0.0418
 1928TIP3    H2 5791   5.481   0.326   4.947  1.1977 -0.5119 -2.0509
 1929TIP3   OH2 5792   3.405   4.058   0.002 -0.0168  0.1427 -0.0151
 1929TIP3    H1 5793   3.458   4.137   0.013  1.4560 -0.8677  0.3753
 1929TIP3    H2 5794   3.325   4.076   0.052  1.1206  0.6267  1.7023
 1930TIP3   OH2 5795   2.569   0.545   1.812  0.0738  0.1838 -0.5282
 1930TIP3    H1 5796   2.619   0.594   1.747 -1.8584 -0.1784 -2.4096
 1930TIP3    H2 5797   2.480   0.578   1.804 -0.0549  1.0662  2.9578
 1931TIP3   OH2 5798   6.251   5.318   4.032 -0.5054  0.0081 -0.4931
 1931TIP3    H1 5799   6.319   5.347   3.971 -0.2638 -0.1922 -0.3269
 1931TIP3    H2 5800   6.276   5.227   4.052  0.8084  0.7776  1.7614
 1932TIP3   OH2 5801   0.332   0.970   4.816  0.0498  0.3874 -0.6699
 1932TIP3    H1 5802   0.363   1.000   4.902 -0.7745  4.7406 -1.6188
 1932TIP3    H2 5803   0.411   0.949   4.767  0.5825 -1.2154  0.8036
 1933TIP3   OH2 5804   4.799   1.073   1.954  0.1245 -0.3809  0.8223
 1933TIP3    H1 5805   4.801   0.978   1.961  0.1857 -0.4065  0.4884
 1933TIP3    H2 5806   4.857   1.093   1.880 -0.5950 -0.1472  0.3075
 1934TIP3   OH2 5807   1.288   1.836   0.915 -0.4814  0.2106  0.6167
 1934TIP3    H1 5808   1.273   1.911   0.973 -3.4076  3.4391 -3.7219
 1934TIP3    H2 5809   1.330   1.873   0.838 -0.0733 -3.0867 -0.8983
 1935TIP3   OH2 5810   2.769   2.669   4.127 -0.2753 -0.2025  0.0875
 1935TIP3    H1 5811   2.703   2.638   4.190 -0.7605 -0.2787 -0.4556
 1935TIP3    H2 5812   2.726   2.738   4.078 -0.2970 -0.9198 -0.9460
 1936TIP3   OH2 5813   3.591   1.622   1.587 -0.2042 -0.8849  0.5291
 1936TIP3    H1 5814   3.599   1.578   1.502  1.1787 -1.6831  1.0441
 1936TIP3    H2 5815   3.546   1.704   1.567 -0.4019 -1.3090 -0.8888
 1937TIP3   OH2 5816   0.890   5.844   1.728 -0.4382  0.5757 -0.1300
 1937TIP3    H1 5817   0.853   5.758   1.748  0.0629  0.6310  1.0905
 1937TIP3    H2 5818   0.847   5.904   1.789  1.3195  0.7033  1.0659
 1938TIP3   OH2 5819   4.686   4.019   1.133  0.6169  0.6903 -0.2483
 1938TIP3    H1 5820   4.760   3.974   1.091 -0.2590 -0.8107 -0.2485
 1938TIP3    H2 5821   4.725   4.063   1.209  1.1751 -2.2463  1.3109
 1939TIP3   OH2 5822   3.349   0.475   2.681 -0.0217  0.1453 -0.1927
 1939TIP3    H1 5823   3.313   0.509   2.599 -0.8584 -0.1296  0.0492
 1939TIP3    H2 5824   3.379   0.387   2.660 -0.2155  0.0837 -0.2117
 1940TIP3   OH2 5825   5.815   2.043   4.475 -0.5857 -0.1238  0.3093
 1940TIP3    H1 5826   5.780   1.999   4.397  2.9569 -1.6535 -0.6448
 1940TIP3    H2 5827   5.858   1.973   4.524 -0.3330  1.2851  2.1959
 1941TIP3   OH2 5828   1.702   3.610   1.394  0.0726 -0.1580 -0.1580
 1941TIP3    H1 5829   1.743   3.570   1.318  0.8082 -3.3058  1.7240
 1941TIP3    H2 5830   1.766   3.675   1.424  0.6186 -0.2359 -1.1082
 1942TIP3   OH2 5831   5.213   3.291   2.934  0.1285 -0.2418  0.3106
 1942TIP3    H1 5832   5.209   3.366   2.994  0.9765 -0.8004  1.1000
 1942TIP3    H2 5833   5.288   3.241   2.964  0.7600 -0.4029 -1.4111
 1943TIP3   OH2 5834   2.886   4.203   2.848 -0.5126 -0.0978 -0.9333
 1943TIP3    H1 5835   2.829   4.185   2.923 -0.7320 -0.0440 -1.0861
 1943TIP3    H2 5836   2.884   4.299   2.839 -0.8917 -0.1415 -1.3233
 1944TIP3   OH2 5837   0.390   5.494   3.737  0.2824  0.2678  0.6289
 1944TIP3    H1 5838   0.357   5.422   3.790  2.1311 -0.8541  0.3657
 1944TIP3    H2 5839   0.316   5.521   3.683 -0.1896 -2.1980 -0.0526
 1945TIP3   OH2 5840   3.259   1.222   0.614  0.3350  0.1179  0.7521
 1945TIP3    H1 5841   3.188   1.255   0.558 -0.5866 -1.1590  1.1209
 1945TIP3    H2 5842   3.243   1.128   0.620  2.1413 -0.2239  0.7720
 1946TIP3   OH2 5843   4.946   0.292   3.890 -0.0419 -0.0355  0.3974
 1946TIP3    H1 5844   4.871   0.347   3.913 -0.1893  1.1505 -2.5273
 1946TIP3    H2 5845   5.016   0.321   3.949 -1.5946 -0.6392  2.6461
 1947TIP3   OH2 5846   5.111   4.394   0.158 -0.2899  0.2562 -0.1224
 1947TIP3    H1 5847   5.206   4.389   0.164 -0.3983 -0.8988  1.9891
 1947TIP3    H2 5848   5.086   4.321   0.100  0.0976  0.3065 -0.3504
 1948TIP3   OH2 5849   5.541   0.490   5.048  0.4810 -0.5158  0.6730
 1948TIP3    H1 5850   5.612   0.464   5.106  1.5884 -0.7061 -0.7087
 1948TIP3    H2 5851   5.514   0.576   5.079  2.0349  0.0215  0.6059
 1949TIP3   OH2 5852   3.236   5.497   0.457  0.1988 -0.0837 -0.1351
 1949TIP3    H1 5853   3.256   5.556   0.530 -1.8768  0.1091  0.3457
 1949TIP3    H2 5854   3.297   5.424   0.468  0.5698  0.3998  1.2385
 1950TIP3   OH2 5855   2.238   1.243   2.571 -0.6306  0.1287 -0.4680
 1950TIP3    H1 5856   2.243   1.150   2.592 -1.3932  0.1965  0.0939
 1950TIP3    H2 5857   2.320   1.263   2.526 -0.3391 -0.7489 -0.3397
 1951TIP3   OH2 5858   3.370   1.584   3.199 -0.0681  0.1567 -0.1648
 1951TIP3    H1 5859   3.391   1.673   3.226 -0.1865  0.2488 -0.3732
 1951TIP3    H2 5860   3.406   1.529   3.268  0.6009  0.3268 -0.3678
 1952TIP3   OH2 5861   3.333   5.471   0.899 -0.1159  0.1867 -0.2328
 1952TIP3    H1 5862   3.342   5.413   0.974  0.5645 -2.8413 -2.4898
 1952TIP3    H2 5863   3.422   5.502   0.881  0.2184 -1.2975 -1.3378
 1953TIP3   OH2 5864   6.241   1.831   0.078 -0.4015  0.2393  0.2268
 1953TIP3    H1 5865   6.335   1.812   0.075 -0.2089  0.9948  0.8911
 1953TIP3    H2 5866   6.215   1.809   0.168 -0.6509  0.8993  0.3273
 1954TIP3   OH2 5867   4.842   2.930   0.297 -0.2120  0.0349  0.1588
 1954TIP3    H1 5868   4.774   2.901   0.358  0.0557  0.8505  0.8721
 1954TIP3    H2 5869   4.881   2.849   0.264 -0.7321 -0.4264  0.6490
 1955TIP3   OH2 5870   1.496   4.074   2.721 -0.8486  0.1296  0.2108
 1955TIP3    H1 5871   1.447   3.995   2.743  0.5672 -1.3515 -1.6764
 1955TIP3    H2 5872   1.584   4.059   2.756 -1.1818  2.0915  2.1765
 1956TIP3   OH2 5873   1.503   5.255   0.672 -0.2018  0.4095 -0.0576
 1956TIP3    H1 5874   1.552   5.266   0.754  0.9235  0.6461 -0.7488
 1956TIP3    H2 5875   1.465   5.341   0.655  0.3966  0.6250 -0.3066
 1957TIP3   OH2 5876   0.542   3.916   4.886 -0.6039 -0.1813 -0.2324
 1957TIP3    H1 5877   0.451   3.913   4.857 -0.4631 -1.4165 -0.6202
 1957TIP3    H2 5878   0.566   3.824   4.897  0.3050  0.1680  0.8079
 1958TIP3   OH2 5879   4.668   1.029   2.650 -0.6515  0.0945 -0.0237
 1958TIP3    H1 5880   4.660   1.123   2.632  3.4007  0.4303 -1.0596
 1958TIP3    H2 5881   4.610   0.988   2.586 -0.3535  1.8506 -1.5281
 1959TIP3   OH2 5882   2.396   5.371   0.912  0.5234  0.4040 -0.4053
 1959TIP3    H1 5883   2.450   5.291   0.915  2.1664  1.4803  0.4071
 1959TIP3    H2 5884   2.358   5.377   1.000 -0.0992  0.2031 -0.6571
 1960TIP3   OH2 5885   3.519   3.795   4.067  0.1827  0.3651  0.1971
 1960TIP3    H1 5886   3.478   3.876   4.096 -1.0792 -0.2639  0.2554
 1960TIP3    H2 5887   3.445   3.740   4.039  1.1214 -0.1264 -1.4661
 1961TIP3   OH2 5888   1.039   0.124   1.559  0.5664 -0.1190  0.1362
 1961TIP3    H1 5889   0.994   0.207   1.541  0.3181 -0.2658  0.0739
 1961TIP3    H2 5890   1.132   0.144   1.549  0.4759 -0.0075 -0.5224
 1962TIP3   OH2 5891   0.068   0.185   0.824  0.1315 -0.6084  0.2497
 1962TIP3    H1 5892   0.100   0.174   0.914 -1.4646 -0.3439  0.8782
 1962TIP3    H2 5893  -0.011   0.239   0.833  0.2943 -0.0488 -1.3860
 1963TIP3   OH2 5894   2.207   0.794   0.457 -0.0405  0.2152  0.2912
 1963TIP3    H1 5895   2.132   0.853   0.462 -0.9288 -0.9769  2.2255
 1963TIP3    H2 5896   2.179   0.725   0.397  0.1565  0.6478 -0.2953
 1964TIP3   OH2 5897   4.288   3.950   3.792 -0.4790 -0.1915  0.3307
 1964TIP3    H1 5898   4.279   3.968   3.886  1.4595 -1.5822  0.8470
 1964TIP3    H2 5899   4.229   3.876   3.777  0.2507 -0.8867  0.7976
 1965TIP3   OH2 5900   4.531   3.153   3.299  0.0907 -0.2616 -0.1793
 1965TIP3    H1 5901   4.616   3.167   3.341 -0.5779 -0.7026  1.4226
 1965TIP3    H2 5902   4.511   3.060   3.316 -0.5272 -0.2744 -0.9022
 1966TIP3   OH2 5903   3.333   1.947   3.910  0.2055  0.8344 -0.0995
 1966TIP3    H1 5904   3.407   1.929   3.851 -0.1677  2.7885 -1.2508
 1966TIP3    H2 5905   3.256   1.919   3.861  0.0591 -0.0416  0.5997
 1967TIP3   OH2 5906   2.393   5.903   3.295 -0.4126  0.3393 -0.3607
 1967TIP3    H1 5907   2.416   5.825   3.244 -1.4328 -0.7762  0.8139
 1967TIP3    H2 5908   2.360   5.965   3.230  0.4003 -0.2069 -1.3152
 1968TIP3   OH2 5909   0.870   2.154   2.570  0.1242 -0.3871 -0.2309
 1968TIP3    H1 5910   0.817   2.082   2.534  0.7621 -1.5891  1.1564
 1968TIP3    H2 5911   0.894   2.207   2.494 -1.6716 -0.7413 -1.0930
 1969TIP3   OH2 5912   6.266   5.280   3.367  0.3013 -0.6406  0.0284
 1969TIP3    H1 5913   6.340   5.227   3.398  0.7013 -0.7818 -1.1281
 1969TIP3    H2 5914   6.258   5.350   3.431  0.6851 -1.2880  0.8019
 1970TIP3   OH2 5915   3.863   3.775   4.698  0.1554  0.2685  0.8304
 1970TIP3    H1 5916   3.840   3.804   4.786  3.8785  1.3340  1.6207
 1970TIP3    H2 5917   3.943   3.723   4.710  0.7336  0.3812 -1.8988
 1971TIP3   OH2 5918   4.283   4.311   4.956 -0.4316 -0.2079 -0.4237
 1971TIP3    H1 5919   4.207   4.306   5.013  0.3734 -2.3441  0.5342
 1971TIP3    H2 5920   4.247   4.323   4.868 -1.8388 -0.6699  0.0794
 1972TIP3   OH2 5921   3.069   3.862   4.246 -0.1900  0.1598 -0.1620
 1972TIP3    H1 5922   3.139   3.911   4.203 -0.0293 -0.2270 -0.3455
 1972TIP3    H2 5923   3.042   3.918   4.319  0.4707  0.2120  0.0483
 1973TIP3   OH2 5924   3.178   5.084   2.124  0.0128 -0.5443 -0.2604
 1973TIP3    H1 5925   3.106   5.021   2.131 -1.3347  0.8700 -0.5644
 1973TIP3    H2 5926   3.204   5.081   2.032  1.0825 -1.7988  0.0631
 1974TIP3   OH2 5927   2.214   4.506   3.347  0.5278 -0.3232  0.2761
 1974TIP3    H1 5928   2.249   4.595   3.353  1.4340 -0.7491  2.0774
 1974TIP3    H2 5929   2.119   4.517   3.350  0.6429  0.5520  0.9861
 1975TIP3   OH2 5930   3.457   5.779   4.226  0.5501  0.2603 -0.0993
 1975TIP3    H1 5931   3.361   5.776   4.230  0.6077 -0.3309  1.2147
 1975TIP3    H2 5932   3.478   5.730   4.146 -0.2077 -0.6505  0.2382
 1976TIP3   OH2 5933   4.677   1.312   4.645  0.1184 -0.0688  0.0727
 1976TIP3    H1 5934   4.664   1.403   4.619 -0.2563 -0.7317 -2.2835
 1976TIP3    H2 5935   4.754   1.314   4.702 -0.9521  1.9128  1.5697
 1977TIP3   OH2 5936   2.993   3.550   3.396 -0.0848  0.2725 -0.3508
 1977TIP3    H1 5937   3.056   3.512   3.456 -0.1388  1.5505  0.5510
 1977TIP3    H2 5938   2.912   3.556   3.447 -0.8168 -0.8856 -1.3345
 1978TIP3   OH2 5939   6.264   3.944   4.905  0.4320  0.5825 -1.3773
 1978TIP3    H1 5940   6.288   3.966   4.995 -2.3066  0.4430 -0.5501
 1978TIP3    H2 5941   6.249   4.029   4.863  0.3819  0.6064 -1.3106
 1979TIP3   OH2 5942   3.823   5.931   3.396 -0.1547  0.0870  0.2151
 1979TIP3    H1 5943   3.898   5.985   3.372  1.7305 -2.4753 -0.0784
 1979TIP3    H2 5944   3.861   5.859   3.447 -2.1562 -2.1332 -1.2310
 1980TIP3   OH2 5945   5.761   1.580   3.913  0.4497 -0.3633  0.4586
 1980TIP3    H1 5946   5.786   1.493   3.945 -1.3267 -0.7822  0.8147
 1980TIP3    H2 5947   5.807   1.589   3.830 -2.1768 -3.2809 -1.5189
 1981TIP3   OH2 5948   1.231   5.735   2.327  0.0563  0.0783 -0.0317
 1981TIP3    H1 5949   1.192   5.823   2.329 -1.5511 -0.5897  0.0912
 1981TIP3    H2 5950   1.278   5.731   2.244  1.8081  1.6919  0.8075
 1982TIP3   OH2 5951   0.499   5.115   4.802  0.0600  0.1669 -0.1112
 1982TIP3    H1 5952   0.409   5.147   4.812 -0.1039 -0.6427  1.2574
 1982TIP3    H2 5953   0.502   5.035   4.855  0.8900 -1.2401 -2.1460
 1983TIP3   OH2 5954   3.981   2.389   3.516 -0.0043  0.1994 -0.0126
 1983TIP3    H1 5955   3.924   2.392   3.593  0.8101 -3.3374  0.9033
 1983TIP3    H2 5956   4.058   2.439   3.541  0.6560 -1.6398  1.9605
 1984TIP3   OH2 5957   1.361   3.236   1.024 -0.2124  0.4825 -0.0913
 1984TIP3    H1 5958   1.274   3.246   0.985  0.5205  1.5989 -1.5268
 1984TIP3    H2 5959   1.407   3.178   0.964  0.5560  1.2821 -0.2997
 1985TIP3   OH2 5960   3.371   1.465   2.258 -0.0153  0.4791 -0.2385
 1985TIP3    H1 5961   3.461   1.454   2.226  0.4780  0.6350  1.0196
 1985TIP3    H2 5962   3.332   1.378   2.251  0.1319  0.4777 -1.0861
 1986TIP3   OH2 5963   3.774   4.363   4.133 -0.4075 -0.3127  0.5377
 1986TIP3    H1 5964   3.757   4.269   4.141  2.6741 -0.9762  0.5384
 1986TIP3    H2 5965   3.697   4.397   4.088 -1.0028 -3.0788 -0.7532
 1987TIP3   OH2 5966   3.040   0.436   1.207 -0.3082  0.2981 -0.1669
 1987TIP3    H1 5967   3.067   0.440   1.115  0.3015  1.9082  0.0423
 1987TIP3    H2 5968   3.122   0.443   1.256 -0.7236  0.7613  0.4811
 1988TIP3   OH2 5969   2.460   0.963   4.620 -0.0259  0.4416  0.3131
 1988TIP3    H1 5970   2.482   0.883   4.669 -0.9702  0.2316  0.4200
 1988TIP3    H2 5971   2.399   0.933   4.552  0.4160  0.9124 -0.2949
 1989TIP3   OH2 5972   2.426   3.804   3.929  0.7096  0.0606  0.6521
 1989TIP3    H1 5973   2.336   3.820   3.954  0.8350  0.5230  0.8081
 1989TIP3    H2 5974   2.474   3.882   3.956  1.3924 -0.7024  1.7564
 1990TIP3   OH2 5975   3.623   5.278   0.880  1.2017  0.1939 -0.3741
 1990TIP3    H1 5976   3.574   5.198   0.902 -1.1858  1.6221 -0.1049
 1990TIP3    H2 5977   3.683   5.290   0.953 -1.2497  0.7283  1.7126
 1991TIP3   OH2 5978   4.455   5.202   0.384  0.0651 -0.3116  0.0482
 1991TIP3    H1 5979   4.419   5.217   0.296 -1.8077 -0.7023  0.7025
 1991TIP3    H2 5980   4.537   5.155   0.369 -0.6955 -1.2288 -1.4592
 1992TIP3   OH2 5981   2.281   1.221   3.088 -0.2184  0.0310 -0.2012
 1992TIP3    H1 5982   2.205   1.229   3.029  0.8334  0.0394 -1.6118
 1992TIP3    H2 5983   2.278   1.130   3.118 -1.2643  0.2631  0.4492
 1993TIP3   OH2 5984   2.606   3.098   3.127 -0.3229  0.3905 -0.4352
 1993TIP3    H1 5985   2.589   3.099   3.221  0.0995 -1.5289 -0.3119
 1993TIP3    H2 5986   2.529   3.056   3.089 -0.0757  0.3047 -0.8467
 1994TIP3   OH2 5987   3.297   1.977   1.862  0.6652  0.7782 -0.1183
 1994TIP3    H1 5988   3.277   2.064   1.829 -2.1714  0.6360  0.9366
 1994TIP3    H2 5989   3.334   1.930   1.787  0.0338  2.2037 -1.3612
 1995TIP3   OH2 5990   4.874   3.122   4.235 -0.0867  0.3396 -0.3439
 1995TIP3    H1 5991   4.841   3.194   4.290 -0.3255  0.7184 -0.9723
 1995TIP3    H2 5992   4.926   3.165   4.168  3.2212 -0.3292  1.5696
 1996TIP3   OH2 5993   5.439   1.328   3.624 -0.1020  0.2487 -0.1088
 1996TIP3    H1 5994   5.400   1.308   3.709  0.3605 -0.8024 -0.1344
 1996TIP3    H2 5995   5.479   1.414   3.636  0.8814 -0.3418  1.0688
 1997TIP3   OH2 5996   5.506   2.642   0.186  0.6903  0.1826  0.6079
 1997TIP3    H1 5997   5.541   2.707   0.247  1.0294  0.4321  0.1541
 1997TIP3    H2 5998   5.578   2.580   0.173  0.3023 -0.4161  1.2023
 1998TIP3   OH2 5999   4.026   3.254   3.911  0.0486 -0.5426  0.0583
 1998TIP3    H1 6000   3.999   3.167   3.883  1.0142 -1.3512  1.4998
 1998TIP3    H2 6001   4.025   3.307   3.831 -1.0918 -1.7175 -0.7385
 1999TIP3   OH2 6002   3.436   3.870   0.379  0.4167 -0.2983  0.5174
 1999TIP3    H1 6003   3.356   3.888   0.331  0.2212 -3.4016 -0.5467
 1999TIP3    H2 6004   3.407   3.830   0.461  0.8636  1.9539  1.8763
 2000TIP3   OH2 6005   0.382   1.477   4.950 -0.5600 -0.3448 -0.3234
 2000TIP3    H1 6006   0.456   1.537   4.938 -1.5643  0.6075 -2.3436
 2000TIP3    H2 6007   0.315   1.530   4.993 -1.2065 -0.1777 -1.4936
 2001TIP3   OH2 6008   5.803   5.719   3.028  0.2915 -0.0829 -0.5356
 2001TIP3    H1 6009   5.829   5.752   3.113 -1.3844  1.3827 -0.5235
 2001TIP3    H2 6010   5.812   5.624   3.035 -0.1108 -0.0224  1.3954
 2002TIP3   OH2 6011   6.252   3.616   1.907 -0.1126  0.4627  0.1633
 2002TIP3    H1 6012   6.268   3.670   1.830 -1.7731  0.1193 -0.4579
 2002TIP3    H2 6013   6.157   3.600   1.906  0.0595 -0.8233  1.4230
 2003TIP3   OH2 6014   3.362   4.509   0.626 -0.1836 -0.0885 -0.1357
 2003TIP3    H1 6015   3.402   4.432   0.666  0.2746  0.0898 -0.2498
 2003TIP3    H2 6016   3.368   4.577   0.693 -1.4704 -0.4030  0.3400
 2004TIP3   OH2 6017   0.190   3.548   4.866 -0.4533 -0.3878 -0.8944
 2004TIP3    H1 6018   0.191   3.570   4.773  0.5432  1.0613 -0.5742
 2004TIP3    H2 6019   0.250   3.474   4.874 -0.7483 -0.6883 -1.4361
 2005TIP3   OH2 6020   1.671   2.265   3.740  0.1127 -0.2919 -0.2823
 2005TIP3    H1 6021   1.638   2.282   3.828 -0.3355 -0.5488 -0.3940
 2005TIP3    H2 6022   1.593   2.240   3.690  0.4757 -0.9099 -0.5533
 2006TIP3   OH2 6023   5.250   2.132   3.889 -0.2515 -0.3835  0.4140
 2006TIP3    H1 6024   5.182   2.129   3.822 -0.2436 -0.3737  0.4054
 2006TIP3    H2 6025   5.276   2.041   3.901 -0.5438 -0.4284  0.7027
 2007TIP3   OH2 6026   3.498   2.675   2.603  0.1564 -0.2062 -0.1407
 2007TIP3    H1 6027   3.488   2.754   2.655 -1.2469 -0.6319  0.3001
 2007TIP3    H2 6028   3.413   2.665   2.559  0.4093 -1.3031 -0.4124
 2008TIP3   OH2 6029   3.507   1.239   3.653  0.1592  0.6090  0.1752
 2008TIP3    H1 6030   3.543   1.177   3.590 -0.2491  0.5745 -0.0201
 2008TIP3    H2 6031   3.554   1.320   3.636 -0.8442  0.9526 -1.0179
 2009TIP3   OH2 6032   1.883   2.153   4.884  0.1941 -0.4200  0.3149
 2009TIP3    H1 6033   1.849   2.200   4.961  1.0297  1.0876 -0.2075
 2009TIP3    H2 6034   1.917   2.222   4.827 -0.5752 -1.4913 -1.5215
 2010TIP3   OH2 6035   0.811   1.849   0.872 -0.3024  0.3850 -0.2898
 2010TIP3    H1 6036   0.781   1.933   0.908 -2.6554  0.4094 -2.0649
 2010TIP3    H2 6037   0.760   1.784   0.920 -0.3315  0.1402 -0.6535
 2011TIP3   OH2 6038   1.336   4.679   2.079 -0.4062  0.2141  0.4820
 2011TIP3    H1 6039   1.241   4.693   2.079 -0.1775  1.9495  0.0612
 2011TIP3    H2 6040   1.361   4.680   1.987  0.0754  0.0503  0.6047
 2012TIP3   OH2 6041   5.236   2.661   2.803  0.1888  0.4840  0.0732
 2012TIP3    H1 6042   5.165   2.691   2.860  0.2346 -0.1670  0.4738
 2012TIP3    H2 6043   5.195   2.652   2.717 -0.4845 -0.8573  0.5028
 2013TIP3   OH2 6044   0.771   2.357   3.721 -0.0169  0.5506 -0.3147
 2013TIP3    H1 6045   0.765   2.415   3.645  0.8748  2.4259  0.9503
 2013TIP3    H2 6046   0.777   2.417   3.796  1.5872 -1.1838  1.0304
 2014TIP3   OH2 6047   3.484   3.659   1.560 -0.2262  0.0285 -0.0906
 2014TIP3    H1 6048   3.424   3.729   1.536  0.4720  0.8885  0.6286
 2014TIP3    H2 6049   3.569   3.702   1.569  0.5348 -1.1608 -1.1295
 2015TIP3   OH2 6050   0.834   4.229   4.837  0.1383  0.1173 -0.3353
 2015TIP3    H1 6051   0.773   4.163   4.804  0.6200 -0.4543 -0.0919
 2015TIP3    H2 6052   0.900   4.179   4.885 -0.9211  0.9366  2.1263
 2016TIP3   OH2 6053   5.098   4.881   3.847  0.1163  0.4835  0.0002
 2016TIP3    H1 6054   5.053   4.834   3.918 -1.0808  1.1137 -0.3044
 2016TIP3    H2 6055   5.078   4.973   3.864  0.8904  0.7368 -0.4440
 2017TIP3   OH2 6056   0.453   5.386   0.870  0.0681  0.6055 -0.6688
 2017TIP3    H1 6057   0.525   5.446   0.849  0.2105  1.0947  1.0998
 2017TIP3    H2 6058   0.378   5.443   0.884 -0.2996  0.1991 -0.9531
 2018TIP3   OH2 6059   0.494   1.740   2.051 -0.1835  0.1903  0.2645
 2018TIP3    H1 6060   0.530   1.743   2.139  0.1043  0.3568  0.1424
 2018TIP3    H2 6061   0.523   1.656   2.016  3.4308  1.8527 -1.2224
 2019TIP3   OH2 6062   4.866   3.565   2.471 -0.0470 -0.4717 -0.4922
 2019TIP3    H1 6063   4.860   3.470   2.459 -1.5987 -0.8319  2.3370
 2019TIP3    H2 6064   4.940   3.577   2.531 -0.3785  0.0141 -0.1743
 2020TIP3   OH2 6065   0.428   4.460   4.445 -0.4370  0.3282 -0.4795
 2020TIP3    H1 6066   0.505   4.445   4.390 -0.8145  1.5982 -1.4050
 2020TIP3    H2 6067   0.464   4.482   4.531  0.2638  1.1633 -0.9688
 2021TIP3   OH2 6068   3.712   4.056   4.308  0.6861  0.1547  0.1572
 2021TIP3    H1 6069   3.621   4.052   4.279  0.3142 -2.1789  1.4302
 2021TIP3    H2 6070   3.761   4.013   4.238  0.6372  0.1470  0.1275
 2022TIP3   OH2 6071   5.386   3.200   0.511  0.0020  0.3895  0.2609
 2022TIP3    H1 6072   5.398   3.258   0.586 -1.3520  2.7134 -1.1653
 2022TIP3    H2 6073   5.356   3.117   0.548  1.4648  0.7555  2.3795
 2023TIP3   OH2 6074   6.089   0.348   3.640 -0.0641  0.2481  0.2405
 2023TIP3    H1 6075   6.160   0.350   3.576  0.4445 -1.2515  0.7188
 2023TIP3    H2 6076   6.121   0.292   3.710 -1.2785  0.4851  1.0207
 2024TIP3   OH2 6077   4.872   4.108   4.681 -0.1568 -0.0018  0.2260
 2024TIP3    H1 6078   4.901   4.029   4.637 -0.4775  0.3827 -0.7168
 2024TIP3    H2 6079   4.881   4.177   4.615 -3.4142  0.1021 -0.2881
 2025TIP3   OH2 6080   3.493   1.700   0.137 -0.1120  0.3261  0.2490
 2025TIP3    H1 6081   3.584   1.729   0.141 -0.0117 -0.0606  1.0038
 2025TIP3    H2 6082   3.479   1.654   0.220 -0.6902 -0.5199 -0.2983
 2026TIP3   OH2 6083   2.699   5.933   0.481 -0.0034  0.3506 -0.5487
 2026TIP3    H1 6084   2.663   5.858   0.528 -2.4727 -0.0596 -2.8258
 2026TIP3    H2 6085   2.753   5.979   0.545  1.7200 -3.3588  0.9321
 2027TIP3   OH2 6086   5.971   5.496   2.399 -0.2554  0.8087  0.1508
 2027TIP3    H1 6087   5.939   5.416   2.357 -0.4314  0.0561  1.6284
 2027TIP3    H2 6088   6.059   5.509   2.364  0.7054 -1.3654  1.5207
 2028TIP3   OH2 6089   4.146   1.977   4.032  0.1913 -0.2687 -0.0691
 2028TIP3    H1 6090   4.205   2.045   4.065 -1.3343  1.3002 -0.4421
 2028TIP3    H2 6091   4.107   1.939   4.111  1.1191 -0.8269  0.1448
 2029TIP3   OH2 6092   1.887   2.937   0.091 -0.4256  0.2879  0.9796
 2029TIP3    H1 6093   1.869   2.954  -0.001 -0.3643 -0.5161  0.8067
 2029TIP3    H2 6094   1.845   3.009   0.138  0.3998  1.2475  0.2719
 2030TIP3   OH2 6095   1.398   2.639   2.520 -0.2937 -0.6985  0.3287
 2030TIP3    H1 6096   1.408   2.733   2.513  1.6035 -0.8394  0.6174
 2030TIP3    H2 6097   1.315   2.627   2.567 -0.7148  0.7861  0.0161
 2031TIP3   OH2 6098   3.848   4.082   4.049 -0.3191  0.1730  0.0503
 2031TIP3    H1 6099   3.893   4.162   4.022 -1.1153 -0.1914 -2.5303
 2031TIP3    H2 6100   3.919   4.020   4.065  0.2127  0.6316 -0.4769
 2032TIP3   OH2 6101   3.786   0.287   1.441 -0.5521  0.2910  0.0396
 2032TIP3    H1 6102   3.740   0.256   1.363 -0.0484  0.1484 -0.2038
 2032TIP3    H2 6103   3.777   0.382   1.437  1.5542  0.4903 -1.5372
 2033TIP3   OH2 6104   5.842   1.998   4.064 -0.6070 -0.0584 -0.0613
 2033TIP3    H1 6105   5.813   2.003   3.973 -3.2530 -1.3906  0.6058
 2033TIP3    H2 6106   5.909   2.065   4.071 -0.8245  0.5815 -2.7965
 2034TIP3   OH2 6107   3.876   4.057   1.177  0.1645 -0.0397  0.1129
 2034TIP3    H1 6108   3.969   4.075   1.163  0.5948 -2.0966  0.0332
 2034TIP3    H2 6109   3.873   3.963   1.198 -2.0270 -0.3590 -1.3519
 2035TIP3   OH2 6110   5.146   3.298   2.347  0.0007  0.3955 -0.1823
 2035TIP3    H1 6111   5.193   3.317   2.428 -0.6314  0.2772  0.2152
 2035TIP3    H2 6112   5.122   3.384   2.313  0.6615  0.4676 -0.4906
 2036TIP3   OH2 6113   3.561   1.930   4.049  0.2786  0.2407  0.0440
 2036TIP3    H1 6114   3.641   1.924   3.996  0.4438  0.1241  0.3032
 2036TIP3    H2 6115   3.497   1.972   3.992 -0.1018 -1.4924 -0.8858
 2037TIP3   OH2 6116   5.797   4.197   3.184  0.5810 -0.1460  0.3381
 2037TIP3    H1 6117   5.736   4.129   3.153  0.8580  0.1105 -0.8074
 2037TIP3    H2 6118   5.865   4.148   3.230 -0.2006 -0.4822  1.1774
 2038TIP3   OH2 6119   1.273   3.013   0.558 -0.0746  0.2621  0.2455
 2038TIP3    H1 6120   1.212   2.958   0.508 -0.7404 -0.3326  1.6511
 2038TIP3    H2 6121   1.294   3.086   0.499 -1.0549 -0.2584 -0.7797
 2039TIP3   OH2 6122   4.888   2.361   2.694  0.1359  0.5443  0.1131
 2039TIP3    H1 6123   4.903   2.268   2.677 -1.9403 -0.2531  2.1819
 2039TIP3    H2 6124   4.813   2.383   2.639  0.8393  1.1390 -0.6389
 2040TIP3   OH2 6125   6.325   4.365   3.375 -0.2913 -0.2539 -0.3322
 2040TIP3    H1 6126   6.288   4.431   3.316  0.4639  0.6970  0.2189
 2040TIP3    H2 6127   6.420   4.378   3.369 -0.1929 -0.2634  0.9198
 2041TIP3   OH2 6128   1.817   1.203   3.183 -0.1529  0.5098  0.0391
 2041TIP3    H1 6129   1.783   1.131   3.129 -0.7693  1.8222 -1.3828
 2041TIP3    H2 6130   1.740   1.244   3.221  0.2584 -0.1945  1.7275
 2042TIP3   OH2 6131   3.462   2.997   1.246 -0.2569  0.4995  1.0086
 2042TIP3    H1 6132   3.422   3.083   1.260  1.3433  1.3940  0.2690
 2042TIP3    H2 6133   3.427   2.943   1.317 -1.5802  1.6444  1.2679
 2043TIP3   OH2 6134   5.776   4.959   1.048  0.0223 -0.4833  0.1150
 2043TIP3    H1 6135   5.820   5.031   1.001 -0.5895 -0.7233 -0.8676
 2043TIP3    H2 6136   5.738   5.000   1.125 -0.1338  0.2180 -0.3222
 2044TIP3   OH2 6137   4.072   2.573   1.723 -0.2472  0.4119 -0.6528
 2044TIP3    H1 6138   4.025   2.653   1.699 -2.8559 -0.9874 -0.6218
 2044TIP3    H2 6139   4.007   2.522   1.773  2.0369 -0.7854  1.2849
 2045TIP3   OH2 6140   0.041   2.612   0.670  0.1870 -0.0218  0.3363
 2045TIP3    H1 6141   0.047   2.577   0.758 -0.2547 -0.8976  0.0274
 2045TIP3    H2 6142   0.002   2.542   0.618  1.1872  0.1800 -0.7277
 2046TIP3   OH2 6143   2.368   4.285   2.856  0.4246 -0.1051  0.1989
 2046TIP3    H1 6144   2.459   4.307   2.877  0.4251 -1.3215  1.6554
 2046TIP3    H2 6145   2.333   4.247   2.937 -1.0090 -0.7973 -0.6984
 2047TIP3   OH2 6146   4.174   4.561   4.656 -0.1447 -0.4199  0.2119
 2047TIP3    H1 6147   4.134   4.479   4.687 -0.5136 -0.7618 -1.1200
 2047TIP3    H2 6148   4.160   4.560   4.562  0.6285  0.7756  0.0730
 2048TIP3   OH2 6149   1.048   2.423   3.943  0.3161  0.4054  0.3337
 2048TIP3    H1 6150   1.075   2.338   3.908 -1.0021  0.2648 -0.3965
 2048TIP3    H2 6151   1.003   2.402   4.024  1.6474  0.5789  1.1432
 2049TIP3   OH2 6152   3.780   2.547   3.993  0.2372 -0.4792  0.4724
 2049TIP3    H1 6153   3.712   2.587   4.046 -0.6708 -0.7907 -0.4243
 2049TIP3    H2 6154   3.844   2.513   4.056 -0.6023 -0.4838  1.3385
 2050TIP3   OH2 6155   4.278   3.466   4.616  0.5008 -0.2712  0.3814
 2050TIP3    H1 6156   4.245   3.381   4.588  0.4216 -0.0581 -0.1917
 2050TIP3    H2 6157   4.293   3.514   4.534  1.9671 -0.2632  0.6243
 2051TIP3   OH2 6158   3.102   5.321   5.022  0.0203  0.1812  0.0260
 2051TIP3    H1 6159   3.089   5.231   5.053  1.6826  0.1757  0.8341
 2051TIP3    H2 6160   3.197   5.329   5.013 -0.1733  1.5101 -1.1487
 2052TIP3   OH2 6161   4.939   5.194   1.599 -0.0826 -0.1142  0.3136
 2052TIP3    H1 6162   4.965   5.284   1.618 -1.2535  0.6530 -1.4509
 2052TIP3    H2 6163   5.009   5.140   1.636  0.1563  1.4376  2.2631
 2053TIP3   OH2 6164   1.364   3.389   2.059 -0.1149  0.1476  0.0646
 2053TIP3    H1 6165   1.301   3.455   2.029  2.5728  3.3966  0.9310
 2053TIP3    H2 6166   1.367   3.401   2.154  1.7845  0.1671  0.0430
 2054TIP3   OH2 6167   1.474   4.317   4.828  0.3819 -0.1027 -0.1243
 2054TIP3    H1 6168   1.425   4.359   4.899 -0.5546 -0.7920 -0.3472
 2054TIP3    H2 6169   1.415   4.250   4.794  1.1584 -0.3767 -0.9771
 2055TIP3   OH2 6170   6.296   3.890   1.839  0.2302 -0.7618  0.3726
 2055TIP3    H1 6171   6.381   3.914   1.802 -0.5393  0.2666 -0.8000
 2055TIP3    H2 6172   6.317   3.826   1.907  1.9665 -0.2112  0.4007
 2056TIP3   OH2 6173   1.972   4.252   1.296 -0.4110  0.1734  0.0578
 2056TIP3    H1 6174   1.925   4.231   1.215  0.6530  1.1194 -0.8361
 2056TIP3    H2 6175   2.046   4.192   1.296 -0.4335  0.1439  0.3663
 2057TIP3   OH2 6176   5.811   2.382   4.192 -0.4225 -0.3753 -0.6423
 2057TIP3    H1 6177   5.737   2.321   4.188 -0.4225 -0.4682  0.4898
 2057TIP3    H2 6178   5.860   2.355   4.270  0.2044  0.3635 -0.7713
 2058TIP3   OH2 6179   1.535   4.174   3.181  0.1886  0.2264 -0.0863
 2058TIP3    H1 6180   1.465   4.133   3.231 -0.1362  0.7892 -0.0673
 2058TIP3    H2 6181   1.508   4.266   3.174  0.0336  0.0858 -1.6201
 2059TIP3   OH2 6182   3.192   4.392   1.269  0.5662 -0.1339 -0.0725
 2059TIP3    H1 6183   3.286   4.380   1.276  0.4106 -1.3985  0.1769
 2059TIP3    H2 6184   3.168   4.444   1.345  0.8679 -1.1856  0.7758
 2060TIP3   OH2 6185   3.542   4.383   2.289 -0.2771 -0.2148 -0.4160
 2060TIP3    H1 6186   3.497   4.331   2.355 -0.8657  1.3171  0.4407
 2060TIP3    H2 6187   3.609   4.430   2.338 -0.1229  0.2559 -1.0727
 2061TIP3   OH2 6188   5.923   1.649   0.871  0.2891 -0.2817 -0.0806
 2061TIP3    H1 6189   5.985   1.581   0.897  0.0284 -0.1623  0.8770
 2061TIP3    H2 6190   5.977   1.718   0.831  0.6942 -0.4549  0.1702
 2062TIP3   OH2 6191   1.881   5.760   3.742  0.7572 -0.1613 -0.2109
 2062TIP3    H1 6192   1.878   5.731   3.651  0.0619  2.4024 -1.0969
 2062TIP3    H2 6193   1.973   5.785   3.756  1.4443 -2.8365  0.6719
 2063TIP3   OH2 6194   6.134   3.635   4.949 -0.0729 -0.1677 -0.1373
 2063TIP3    H1 6195   6.203   3.570   4.953 -0.6867 -0.8564 -0.5663
 2063TIP3    H2 6196   6.173   3.714   4.987  0.8372 -0.6326 -0.0910
 2064TIP3   OH2 6197   0.335   1.665   1.012  1.1592 -0.0278 -0.1555
 2064TIP3    H1 6198   0.364   1.640   1.099  1.7342  3.1673  0.7145
 2064TIP3    H2 6199   0.401   1.630   0.953  0.9697 -1.8950  0.6677
 2065TIP3   OH2 6200   4.227   4.541   4.396  0.1783  0.1905 -0.0233
 2065TIP3    H1 6201   4.306   4.507   4.353  0.0634  0.7892 -0.7296
 2065TIP3    H2 6202   4.234   4.636   4.387 -0.1846  0.2928  0.7110
 2066TIP3   OH2 6203   3.426   0.431   2.023  0.1077 -0.6656  0.6171
 2066TIP3    H1 6204   3.345   0.384   2.042 -0.4138 -0.3634 -0.7904
 2066TIP3    H2 6205   3.454   0.398   1.938  0.0201  1.1325 -0.1666
 2067TIP3   OH2 6206   4.603   1.009   3.787  0.0179 -0.6202 -0.0270
 2067TIP3    H1 6207   4.643   1.070   3.850 -2.0403 -0.7874  1.5599
 2067TIP3    H2 6208   4.588   1.062   3.709 -0.8425  0.6871  0.9819
 2068TIP3   OH2 6209   2.819   5.948   1.324 -0.2641  0.4537 -0.6735
 2068TIP3    H1 6210   2.899   5.977   1.369  0.9417 -0.8584 -1.8815
 2068TIP3    H2 6211   2.750   5.959   1.390  0.8104  1.9699  0.2886
 2069TIP3   OH2 6212   4.156   4.026   2.389 -0.1387  0.6869 -0.4448
 2069TIP3    H1 6213   4.236   4.071   2.415 -0.1510  0.0692  0.7021
 2069TIP3    H2 6214   4.167   4.013   2.294  0.5635  1.6697 -0.5208
 2070TIP3   OH2 6215   1.117   2.549   2.928  0.5069  0.0867 -0.2419
 2070TIP3    H1 6216   1.066   2.522   3.005  0.2175 -1.4790 -0.9362
 2070TIP3    H2 6217   1.059   2.607   2.880  0.2607  0.1670  0.1443
 2071TIP3   OH2 6218   3.547   4.575   3.033 -0.0393 -0.7335 -0.3887
 2071TIP3    H1 6219   3.466   4.528   3.051 -0.9268  0.4934 -1.0371
 2071TIP3    H2 6220   3.589   4.525   2.963 -0.3901 -1.1919 -0.2769
 2072TIP3   OH2 6221   4.645   1.049   0.247  0.5784 -0.6720 -0.2456
 2072TIP3    H1 6222   4.586   0.974   0.252 -0.1357 -0.0365  1.5821
 2072TIP3    H2 6223   4.633   1.082   0.158 -1.1345 -1.1225 -0.2286
 2073TIP3   OH2 6224   5.189   5.539   2.199  0.0919  0.0443 -0.4336
 2073TIP3    H1 6225   5.278   5.570   2.180  0.0314 -0.3913 -1.5091
 2073TIP3    H2 6226   5.136   5.574   2.127 -0.6168  0.3129  0.2061
 2074TIP3   OH2 6227   2.774   3.677   1.800  0.1212 -0.0157 -0.2053
 2074TIP3    H1 6228   2.860   3.676   1.756 -0.4187 -0.1210 -1.3067
 2074TIP3    H2 6229   2.714   3.710   1.733 -0.6924  0.1002  0.5699
 2075TIP3   OH2 6230   3.767   0.715   4.202 -0.1463  0.1570  0.6376
 2075TIP3    H1 6231   3.806   0.629   4.217 -1.9362 -0.9277 -0.5561
 2075TIP3    H2 6232   3.841   0.776   4.205  1.1973 -1.4273  1.2958
 2076TIP3   OH2 6233   2.806   0.660   4.617  0.3423 -0.4739  0.1059
 2076TIP3    H1 6234   2.718   0.656   4.656  0.6702 -1.6322  0.7654
 2076TIP3    H2 6235   2.863   0.621   4.683  1.1782 -0.8426 -0.8220
 2077TIP3   OH2 6236   5.018   4.734   2.136  0.1095  0.2259  0.0299
 2077TIP3    H1 6237   4.980   4.762   2.219  0.8902 -0.4239  0.6214
 2077TIP3    H2 6238   4.997   4.805   2.075  0.7717  1.4081  1.1194
 2078TIP3   OH2 6239   0.240   2.170   2.735  0.5528 -0.8791  0.7092
 2078TIP3    H1 6240   0.318   2.124   2.705  2.1950  1.6234  0.8175
 2078TIP3    H2 6241   0.173   2.102   2.744  2.0577 -2.7869 -1.5298
 2079TIP3   OH2 6242   1.743   4.785   2.173 -0.4627  0.2189  0.0433
 2079TIP3    H1 6243   1.739   4.854   2.107  0.0450  0.6621  0.4687
 2079TIP3    H2 6244   1.800   4.820   2.242 -0.1424 -0.6476  0.2386
 2080TIP3   OH2 6245   4.821   4.368   0.487 -0.0042 -0.1353 -0.0251
 2080TIP3    H1 6246   4.772   4.403   0.412 -2.3976 -0.9779  1.0212
 2080TIP3    H2 6247   4.854   4.284   0.456 -0.3406 -0.1436 -0.3696
 2081TIP3   OH2 6248   1.523   4.830   3.720  0.2000 -0.1833  0.0154
 2081TIP3    H1 6249   1.576   4.799   3.647  2.3100 -1.5499  1.9658
 2081TIP3    H2 6250   1.554   4.920   3.735 -0.8201  0.4071 -1.1866
 2082TIP3   OH2 6251   1.844   3.994   3.949  0.2672  0.6415 -0.2336
 2082TIP3    H1 6252   1.765   3.952   3.983 -0.8741  0.6654 -2.6152
 2082TIP3    H2 6253   1.915   3.938   3.979 -0.2450  2.0188  4.1929
 2083TIP3   OH2 6254   1.290   5.934   1.775 -0.0686 -0.1081  0.8165
 2083TIP3    H1 6255   1.381   5.963   1.780 -0.0075 -0.1722  0.1479
 2083TIP3    H2 6256   1.271   5.902   1.863  0.0485  1.3697  1.4198
 2084TIP3   OH2 6257   1.688   5.996   2.279 -0.0899  0.5340 -0.0918
 2084TIP3    H1 6258   1.750   6.000   2.352  1.0674  2.4049 -1.1063
 2084TIP3    H2 6259   1.668   5.903   2.270  2.7739 -0.2056  0.1543
 2085TIP3   OH2 6260   1.392   3.477   1.134  0.5369 -0.0780  0.0065
 2085TIP3    H1 6261   1.360   3.394   1.099 -0.3806 -0.8933  2.5344
 2085TIP3    H2 6262   1.331   3.543   1.102 -1.8290 -1.1447  2.0287
 2086TIP3   OH2 6263   0.918   5.358   2.580 -0.1927 -0.0231  0.1738
 2086TIP3    H1 6264   0.889   5.377   2.490 -0.2545  2.4979  0.6560
 2086TIP3    H2 6265   0.970   5.278   2.572  0.4121  0.5274 -2.2510
 2087TIP3   OH2 6266   5.006   1.708   0.924 -0.1271  0.3118 -0.5379
 2087TIP3    H1 6267   4.966   1.751   1.000  0.2321  0.9509 -0.7026
 2087TIP3    H2 6268   4.977   1.759   0.849 -0.8540 -0.5928 -0.8931
 2088TIP3   OH2 6269   1.175   1.019   4.427  0.4144 -0.1414 -0.2272
 2088TIP3    H1 6270   1.263   0.986   4.443  0.0411 -0.9686  0.1949
 2088TIP3    H2 6271   1.118   0.947   4.453 -0.3486 -0.1275 -1.7535
 2089TIP3   OH2 6272   6.302   0.229   1.235 -0.0806  0.2052  0.4604
 2089TIP3    H1 6273   6.258   0.196   1.156 -1.7924  1.1736  0.9642
 2089TIP3    H2 6274   6.340   0.151   1.276  0.5011 -0.3697 -1.0890
 2090TIP3   OH2 6275   1.710   4.609   1.771  0.2002 -0.6905  0.2544
 2090TIP3    H1 6276   1.754   4.694   1.767  0.5696 -0.8984 -0.1267
 2090TIP3    H2 6277   1.680   4.602   1.862 -1.2713  0.5601 -0.1069
 2091TIP3   OH2 6278   1.102   1.769   1.297  0.5192 -0.1249  0.5033
 2091TIP3    H1 6279   1.152   1.849   1.283 -1.3221  1.0235  0.2110
 2091TIP3    H2 6280   1.126   1.713   1.224 -0.1761  1.2498 -0.8427
 2092TIP3   OH2 6281   6.119   4.772   2.786  0.3193 -0.0013 -0.2690
 2092TIP3    H1 6282   6.031   4.739   2.769  0.7360 -0.7380 -1.1028
 2092TIP3    H2 6283   6.108   4.840   2.852 -0.6545 -1.3940  1.0483
 2093TIP3   OH2 6284   5.105   2.853   3.873  0.3215 -0.7223  0.0740
 2093TIP3    H1 6285   5.050   2.890   3.942  0.7717  0.1516 -0.0230
 2093TIP3    H2 6286   5.193   2.884   3.893  0.0988  1.8427 -2.3613
 2094TIP3   OH2 6287   3.212   4.735   0.987  0.2345  0.3933 -0.0406
 2094TIP3    H1 6288   3.272   4.673   0.947 -0.9306 -1.7108  1.3075
 2094TIP3    H2 6289   3.133   4.732   0.933 -0.6555 -1.0701  1.2565
 2095TIP3   OH2 6290   5.644   2.243   3.107  0.2032  0.2688  0.0971
 2095TIP3    H1 6291   5.631   2.262   3.015 -0.9464 -1.4927 -0.1491
 2095TIP3    H2 6292   5.600   2.314   3.153 -0.3930  0.4334 -0.7149
 2096TIP3   OH2 6293   0.476   1.227   2.880 -0.7327  0.6233  0.2118
 2096TIP3    H1 6294   0.421   1.247   2.805  0.1056  0.4147 -0.4716
 2096TIP3    H2 6295   0.517   1.143   2.859 -2.7775 -0.9899  2.2344
 2097TIP3   OH2 6296   2.486   3.796   5.145  0.7671 -0.0235  0.0904
 2097TIP3    H1 6297   2.560   3.850   5.118  0.6362  0.3108  0.3892
 2097TIP3    H2 6298   2.515   3.753   5.226  0.8699 -0.4028 -0.1435
 2098TIP3   OH2 6299   2.725   0.555   0.341  0.3049  0.2802  0.4605
 2098TIP3    H1 6300   2.709   0.463   0.322 -1.0000  0.8126 -1.1637
 2098TIP3    H2 6301   2.662   0.576   0.410 -1.1391  0.5611 -0.9111
 2099TIP3   OH2 6302   5.010   5.470   1.757 -0.1265  0.1013 -0.3257
 2099TIP3    H1 6303   4.997   5.558   1.722 -0.8652  0.2485  0.3064
 2099TIP3    H2 6304   4.922   5.436   1.772  0.1599 -0.2373  0.6889
 2100TIP3   OH2 6305   3.204   4.189   3.904  0.2663  0.1628  0.2656
 2100TIP3    H1 6306   3.177   4.218   3.817 -0.1751  1.1572  0.7276
 2100TIP3    H2 6307   3.123   4.192   3.956  0.6997  0.4068  0.9283
 2101TIP3   OH2 6308   2.564   5.253   0.177  0.1269  0.6608 -0.1427
 2101TIP3    H1 6309   2.658   5.252   0.196  0.7936  1.8700 -2.9016
 2101TIP3    H2 6310   2.547   5.166   0.139  0.2794  0.6503 -0.1890
 2102TIP3   OH2 6311   0.434   3.013   0.893 -0.1112 -0.3484 -0.0486
 2102TIP3    H1 6312   0.425   3.087   0.832  0.1882 -0.9454 -0.8229
 2102TIP3    H2 6313   0.352   2.965   0.883 -0.5785  0.2054  0.9229
 2103TIP3   OH2 6314   2.407   5.211   1.692 -0.3453  0.2140  0.2417
 2103TIP3    H1 6315   2.448   5.191   1.608 -1.8660  0.5757 -0.6196
 2103TIP3    H2 6316   2.413   5.130   1.742 -0.0100 -0.2054 -0.4688
 2104TIP3   OH2 6317   0.836   5.789   3.152  0.2092  0.0089  0.0033
 2104TIP3    H1 6318   0.844   5.769   3.246  0.8760 -1.6851 -0.3702
 2104TIP3    H2 6319   0.877   5.714   3.109  1.6753  1.6773 -1.6256
 2105TIP3   OH2 6320   2.318   4.744   4.558 -0.3173 -0.1514 -0.4779
 2105TIP3    H1 6321   2.364   4.828   4.559 -0.7619  0.1072 -1.0433
 2105TIP3    H2 6322   2.253   4.753   4.488 -4.0571  1.0319  2.7490
 2106TIP3   OH2 6323   4.082   2.894   4.574  0.2767  0.5101  0.1839
 2106TIP3    H1 6324   4.034   2.868   4.652 -0.0549 -0.1610 -0.2352
 2106TIP3    H2 6325   4.147   2.957   4.605 -0.2046  0.6613  0.9139
 2107TIP3   OH2 6326   5.225   5.060   2.625 -0.4606 -0.2712 -0.9119
 2107TIP3    H1 6327   5.224   4.972   2.588 -0.2979 -1.1892  1.1465
 2107TIP3    H2 6328   5.140   5.097   2.601 -1.9252 -2.2237  0.9208
 2108TIP3   OH2 6329   5.793   2.592   2.679 -0.0280 -0.4529  0.2085
 2108TIP3    H1 6330   5.699   2.609   2.681  0.4082  2.3999  1.0540
 2108TIP3    H2 6331   5.822   2.603   2.770  1.4258  1.0419 -0.3856
 2109TIP3   OH2 6332   5.772   0.713   1.133 -0.1762  0.1509 -0.1232
 2109TIP3    H1 6333   5.736   0.758   1.209  2.2866  0.6603  0.8641
 2109TIP3    H2 6334   5.703   0.654   1.104 -2.1794  1.9180  0.7963
 2110TIP3   OH2 6335   0.538   3.550   3.741 -0.4486  0.4376  0.5812
 2110TIP3    H1 6336   0.575   3.634   3.768 -2.4644  1.6474 -0.2038
 2110TIP3    H2 6337   0.531   3.557   3.645 -1.5191 -0.2442  0.6038
 2111TIP3   OH2 6338   1.837   0.164   2.923  0.4500  0.3986  0.1604
 2111TIP3    H1 6339   1.817   0.226   2.853  1.1461 -0.3260 -0.7055
 2111TIP3    H2 6340   1.905   0.108   2.886 -1.1898 -1.8498  0.3654
 2112TIP3   OH2 6341   4.514   2.357   4.305 -0.6058  0.9664 -0.1815
 2112TIP3    H1 6342   4.560   2.279   4.273 -0.3523  0.9297  0.2735
 2112TIP3    H2 6343   4.514   2.348   4.400  1.8351  2.8410  0.0932
 2113TIP3   OH2 6344   5.986   1.215   1.968 -0.1697 -0.7608 -0.0326
 2113TIP3    H1 6345   5.998   1.213   2.063  1.6851  0.0248 -0.2109
 2113TIP3    H2 6346   5.948   1.301   1.951  1.3629 -0.0779 -0.1493
 2114TIP3   OH2 6347   0.542   0.283   1.835 -0.0382 -0.5715 -0.0239
 2114TIP3    H1 6348   0.484   0.291   1.759  1.2248  1.6966 -0.8518
 2114TIP3    H2 6349   0.491   0.318   1.908 -0.8712 -1.7618 -0.0033
 2115TIP3   OH2 6350   2.454   5.851   0.823  0.3881  0.2047  0.4988
 2115TIP3    H1 6351   2.402   5.871   0.746  1.9701 -1.2328 -1.0432
 2115TIP3    H2 6352   2.542   5.884   0.802  0.9241 -0.5140  1.5238
 2116TIP3   OH2 6353   0.629   5.705   1.798 -0.0218  0.0781  0.2991
 2116TIP3    H1 6354   0.551   5.761   1.802 -0.2144 -0.0735 -0.9234
 2116TIP3    H2 6355   0.612   5.646   1.724  1.6702  0.6838 -0.6294
 2117TIP3   OH2 6356   4.094   3.827   0.865 -0.3065  1.2549 -0.0201
 2117TIP3    H1 6357   4.038   3.804   0.939 -0.6529 -1.5620 -1.0178
 2117TIP3    H2 6358   4.043   3.802   0.788  1.8348 -0.4347 -1.0029
 2118TIP3   OH2 6359   3.587   5.946   1.847  0.2623 -0.0451 -0.0861
 2118TIP3    H1 6360   3.519   5.998   1.805  2.0136  1.1381 -1.5776
 2118TIP3    H2 6361   3.577   5.966   1.940 -1.3544  0.1425 -0.2613
 2119TIP3   OH2 6362   5.168   2.145   2.960 -0.2434 -0.6796 -0.5569
 2119TIP3    H1 6363   5.080   2.184   2.964 -0.6601 -1.5864 -0.5235
 2119TIP3    H2 6364   5.226   2.218   2.941 -0.9156  0.0676  0.2040
 2120TIP3   OH2 6365   6.286   3.696   0.152 -0.2262  0.5482 -0.2400
 2120TIP3    H1 6366   6.284   3.766   0.218  1.7573  0.6001 -0.1851
 2120TIP3    H2 6367   6.200   3.702   0.110 -2.9371 -1.4000  4.2158
 2121TIP3   OH2 6368   6.343   5.259   2.308 -0.2941  0.0057  0.6422
 2121TIP3    H1 6369   6.299   5.175   2.326 -1.4316  0.3647 -0.3360
 2121TIP3    H2 6370   6.407   5.267   2.378  1.8054 -3.0010 -0.6982
 2122TIP3   OH2 6371   2.555   1.305   1.491 -0.1856  0.2522  0.2427
 2122TIP3    H1 6372   2.521   1.389   1.521 -0.5806  0.5507 -0.9661
 2122TIP3    H2 6373   2.484   1.268   1.438 -0.5682 -1.5179  1.9046
 2123TIP3   OH2 6374   5.074   4.773   0.694 -0.8061  0.1047 -0.2481
 2123TIP3    H1 6375   5.140   4.764   0.762 -0.8274  1.5011  0.0014
 2123TIP3    H2 6376   5.062   4.685   0.660  0.4012 -0.3509  0.4325
 2124TIP3   OH2 6377   4.734   4.352   4.510  0.1094  0.6715 -0.1596
 2124TIP3    H1 6378   4.778   4.333   4.427  0.0783 -1.1621  0.2186
 2124TIP3    H2 6379   4.744   4.447   4.520  1.4843  0.7109 -1.4785
 2125TIP3   OH2 6380   4.373   2.101   2.826  0.0794  0.4964  0.3880
 2125TIP3    H1 6381   4.341   2.033   2.767 -3.0621  2.6292 -0.6466
 2125TIP3    H2 6382   4.316   2.095   2.903 -0.8515  2.3902 -0.0857
 2126TIP3   OH2 6383   1.928   2.008   1.268 -0.0596 -0.2935 -0.2705
 2126TIP3    H1 6384   1.874   1.962   1.204 -0.1741 -0.7950  0.1730
 2126TIP3    H2 6385   1.874   2.010   1.347  0.0034  0.4880 -0.2376
 2127TIP3   OH2 6386   0.878   3.375   2.621 -0.2285 -0.3940  0.1595
 2127TIP3    H1 6387   0.859   3.432   2.696  0.1756  0.9679 -0.7356
 2127TIP3    H2 6388   0.972   3.358   2.627  0.1388  1.0434 -0.8776
 2128TIP3   OH2 6389   0.423   0.541   2.891 -0.2834 -0.0042 -0.1363
 2128TIP3    H1 6390   0.412   0.491   2.972  2.1980  0.2637  0.4609
 2128TIP3    H2 6391   0.475   0.618   2.917 -2.0393  1.7388 -1.4577
 2129TIP3   OH2 6392   3.515   3.290   4.323  0.1153  0.5272  0.4083
 2129TIP3    H1 6393   3.560   3.374   4.330  0.0888  0.4096  2.9886
 2129TIP3    H2 6394   3.585   3.225   4.336 -0.3886  0.2898  2.1636
 2130TIP3   OH2 6395   4.112   3.678   1.227 -0.3652 -0.3132  0.0136
 2130TIP3    H1 6396   4.018   3.666   1.238 -0.3573 -2.0414 -1.3750
 2130TIP3    H2 6397   4.152   3.613   1.283 -0.0686 -0.9399 -0.8990
 2131TIP3   OH2 6398   2.377   2.702   0.299  0.2891 -0.1587  0.0663
 2131TIP3    H1 6399   2.362   2.796   0.314  0.0184 -0.1955  0.0152
 2131TIP3    H2 6400   2.320   2.679   0.227  2.1195  0.1732 -1.5760
 2132TIP3   OH2 6401   2.468   2.128   0.767  0.3320 -0.3808 -0.1674
 2132TIP3    H1 6402   2.485   2.036   0.746  0.6552  0.0973 -2.3047
 2132TIP3    H2 6403   2.554   2.164   0.789  0.3524 -0.3945 -0.2232
 2133TIP3   OH2 6404   5.979   3.180   5.117 -0.0910 -0.4810  0.0945
 2133TIP3    H1 6405   5.952   3.099   5.160 -0.9694 -0.5741 -0.6093
 2133TIP3    H2 6406   5.928   3.182   5.036  0.6857  0.2667 -0.3862
 2134TIP3   OH2 6407   3.052   0.911   4.311  0.2066  0.1193  0.3640
 2134TIP3    H1 6408   3.063   0.818   4.329  0.7971  0.5587  2.5752
 2134TIP3    H2 6409   3.141   0.943   4.296  0.0142  0.3617 -0.3069
 2135TIP3   OH2 6410   5.446   4.605   0.248 -0.3957 -0.7604  0.7337
 2135TIP3    H1 6411   5.435   4.519   0.206 -0.4180  0.9093 -3.1760
 2135TIP3    H2 6412   5.540   4.617   0.255 -0.3647 -0.7174  0.2886
 2136TIP3   OH2 6413   1.053   2.184   0.733  0.2413 -1.0103  0.0204
 2136TIP3    H1 6414   1.072   2.152   0.645  0.4702  0.7332 -0.5999
 2136TIP3    H2 6415   1.130   2.235   0.758 -0.7413  0.4227  0.2721
 2137TIP3   OH2 6416   3.895   4.356   0.399  0.3221 -0.7559 -0.1053
 2137TIP3    H1 6417   3.819   4.359   0.342  0.0281 -1.9897  0.1773
 2137TIP3    H2 6418   3.859   4.349   0.487  0.7587  1.7165  0.3476
 2138TIP3   OH2 6419   4.821   1.584   0.307 -0.3205 -0.4222 -0.1402
 2138TIP3    H1 6420   4.861   1.557   0.389  1.8137 -0.5266 -1.1419
 2138TIP3    H2 6421   4.840   1.678   0.301  0.9555 -0.7167 -1.2069
 2139TIP3   OH2 6422   0.346   2.796   2.415  0.2510  0.0365  0.1954
 2139TIP3    H1 6423   0.349   2.722   2.354 -1.1730  1.4019 -1.6624
 2139TIP3    H2 6424   0.305   2.761   2.493  0.9449 -1.4716 -0.0665
 2140TIP3   OH2 6425   2.783   2.738   0.396 -0.6657 -0.0665 -0.1627
 2140TIP3    H1 6426   2.746   2.809   0.344 -1.4458 -0.6767 -0.4722
 2140TIP3    H2 6427   2.786   2.771   0.485 -1.3370  0.2406 -0.2514
 2141TIP3   OH2 6428   0.585   4.968   1.216 -0.0002  0.3463  1.2264
 2141TIP3    H1 6429   0.645   4.982   1.289  0.1119  0.8184  1.0552
 2141TIP3    H2 6430   0.641   4.938   1.145 -0.1003 -0.0590  1.3202
 2142TIP3   OH2 6431   6.278   2.620   1.384 -0.3109 -0.1752  0.3818
 2142TIP3    H1 6432   6.282   2.707   1.425  1.4896  1.1136 -2.2710
 2142TIP3    H2 6433   6.320   2.562   1.448 -0.7914  1.0439  1.8544
 2143TIP3   OH2 6434   0.639   0.359   2.236 -0.8277  0.1360 -0.4338
 2143TIP3    H1 6435   0.704   0.348   2.167  0.3548  1.1934  0.4713
 2143TIP3    H2 6436   0.659   0.290   2.299 -1.5352 -0.4578 -0.8399
 2144TIP3   OH2 6437   1.049   0.399   4.779  0.5006 -0.2163 -0.2770
 2144TIP3    H1 6438   1.018   0.416   4.868 -2.6058 -2.3096 -0.8258
 2144TIP3    H2 6439   1.094   0.315   4.785  0.3001 -0.3530 -0.6939
 2145TIP3   OH2 6440   3.617   4.227   3.312 -0.5780 -0.7287 -1.0619
 2145TIP3    H1 6441   3.607   4.225   3.407  0.8767 -1.6415 -0.8885
 2145TIP3    H2 6442   3.697   4.176   3.295  0.3765  1.1509 -2.6093
 2146TIP3   OH2 6443   1.084   3.194   0.930  0.2560 -0.6448 -0.4662
 2146TIP3    H1 6444   0.991   3.215   0.922  0.2322  0.7945  2.2908
 2146TIP3    H2 6445   1.120   3.211   0.843 -1.7032  0.9089 -1.0528
 2147TIP3   OH2 6446   2.689   3.900   0.995 -0.5036 -0.6660  0.9244
 2147TIP3    H1 6447   2.707   3.841   0.922 -1.0786  0.5703 -0.2812
 2147TIP3    H2 6448   2.593   3.905   0.998 -0.4674  0.6635  0.5776
 2148TIP3   OH2 6449   0.431   0.780   1.911  0.1258 -0.2461 -0.4228
 2148TIP3    H1 6450   0.346   0.743   1.937  2.0302 -3.2502  2.1610
 2148TIP3    H2 6451   0.464   0.720   1.845 -0.3841  1.9414 -2.8475
 2149TIP3   OH2 6452   0.968   4.663   5.097  0.4571  0.0257  0.4013
 2149TIP3    H1 6453   0.937   4.743   5.140 -5.7676 -1.5239 -0.2475
 2149TIP3    H2 6454   0.984   4.691   5.006  1.7729  1.0552  0.9104
 2150TIP3   OH2 6455   0.689   4.299   3.370 -0.3417  0.1235 -0.3589
 2150TIP3    H1 6456   0.626   4.371   3.364 -0.8130 -0.0752  1.6778
 2150TIP3    H2 6457   0.774   4.342   3.365 -0.5351  1.2343  3.3068
 2151TIP3   OH2 6458   2.685   4.939   0.737 -0.1636 -0.0066 -0.2018
 2151TIP3    H1 6459   2.651   4.968   0.822 -1.3495 -0.7626 -0.3881
 2151TIP3    H2 6460   2.683   5.017   0.683 -2.4584 -0.1459 -0.4392
 2152TIP3   OH2 6461   1.720   3.115   0.512 -0.1456 -0.2136  0.4516
 2152TIP3    H1 6462   1.669   3.050   0.463 -0.5591  0.2538  0.2585
 2152TIP3    H2 6463   1.659   3.187   0.528  0.7499  0.8789 -0.7885
 2153TIP3   OH2 6464   4.993   3.232   2.774  0.1551 -0.3747 -0.0343
 2153TIP3    H1 6465   5.058   3.246   2.842  1.9035 -0.8978 -1.4963
 2153TIP3    H2 6466   4.945   3.315   2.768  1.1629  0.2701  0.6166
 2154TIP3   OH2 6467   4.816   2.887   2.400  0.5787 -0.4235 -0.0716
 2154TIP3    H1 6468   4.765   2.963   2.372  1.2520 -0.8000 -2.6386
 2154TIP3    H2 6469   4.901   2.924   2.426 -0.1255 -0.0426  1.8368
 2155TIP3   OH2 6470   1.434   5.601   3.697  0.2914  0.3693  0.2736
 2155TIP3    H1 6471   1.360   5.606   3.635  0.2766 -1.3742  0.1050
 2155TIP3    H2 6472   1.412   5.528   3.755  1.0803  0.9463  1.3325
 2156TIP3   OH2 6473   3.810   2.167   3.423 -0.7382  0.5469  0.2136
 2156TIP3    H1 6474   3.749   2.186   3.493 -1.2162 -1.5212  0.4359
 2156TIP3    H2 6475   3.883   2.228   3.436 -0.2623 -0.5121  3.2286
 2157TIP3   OH2 6476   3.170   0.332   2.403  0.0280  0.3432  0.4602
 2157TIP3    H1 6477   3.118   0.322   2.483 -0.8884  0.4161 -0.1151
 2157TIP3    H2 6478   3.203   0.244   2.385  2.4375  0.7676  2.3435
 2158TIP3   OH2 6479   4.462   4.045   0.671 -0.4617 -0.3733 -0.4399
 2158TIP3    H1 6480   4.531   4.071   0.733 -0.3264  0.1950 -0.8224
 2158TIP3    H2 6481   4.395   4.112   0.681 -1.0592 -1.0331  0.0700
 2159TIP3   OH2 6482   1.346   5.833   1.224 -0.0594 -0.0901 -0.2032
 2159TIP3    H1 6483   1.271   5.793   1.268  0.3607 -0.8892 -0.1876
 2159TIP3    H2 6484   1.391   5.882   1.292 -0.1914 -0.1670 -0.0609
 2160TIP3   OH2 6485   1.614   0.861   1.657  0.0858 -0.2076  0.1376
 2160TIP3    H1 6486   1.704   0.869   1.625  0.8281  0.4641  2.2272
 2160TIP3    H2 6487   1.621   0.806   1.735 -1.3156 -0.0882  0.3697
 2161TIP3   OH2 6488   0.413   2.513   3.531 -0.1721 -0.2388 -0.3274
 2161TIP3    H1 6489   0.423   2.440   3.593 -1.0600  1.3601  1.8192
 2161TIP3    H2 6490   0.496   2.559   3.536  0.0421 -0.5456 -0.9636
 2162TIP3   OH2 6491   1.357   4.398   4.384  0.1517  0.4495  0.1949
 2162TIP3    H1 6492   1.359   4.456   4.308  0.0853  0.1897 -0.0066
 2162TIP3    H2 6493   1.420   4.329   4.363 -0.3333  0.0338  0.1009
 2163TIP3   OH2 6494   6.118   0.616   2.205 -0.6623  0.7647 -0.3989
 2163TIP3    H1 6495   6.049   0.681   2.196 -0.7816  0.6014 -0.7077
 2163TIP3    H2 6496   6.190   0.662   2.249  0.4197  1.9981 -3.2419
 2164TIP3   OH2 6497   4.857   4.659   0.986 -0.0048 -0.4257  0.7995
 2164TIP3    H1 6498   4.847   4.702   1.071  0.2395 -0.6391  0.9381
 2164TIP3    H2 6499   4.860   4.731   0.923  2.1770 -0.1052  1.1874
 2165TIP3   OH2 6500   1.638   4.514   4.262 -0.0759  0.7237  0.4936
 2165TIP3    H1 6501   1.563   4.459   4.283  0.0904  0.4608  0.3947
 2165TIP3    H2 6502   1.628   4.534   4.169  0.3073  0.1791  0.3301
 2166TIP3   OH2 6503   2.277   0.601   1.885  0.3732  0.2884  0.3158
 2166TIP3    H1 6504   2.193   0.556   1.894 -0.5913  2.3887  3.6569
 2166TIP3    H2 6505   2.330   0.568   1.957  1.8766  0.2084 -0.7703
 2167TIP3   OH2 6506   5.877   0.417   3.198  0.7331 -0.0016  0.0622
 2167TIP3    H1 6507   5.903   0.448   3.285 -0.4877  1.2747  0.0136
 2167TIP3    H2 6508   5.835   0.332   3.215  1.8308 -0.4792  0.5119
 2168TIP3   OH2 6509   4.013   0.798   1.190 -0.2622  0.3564 -0.3197
 2168TIP3    H1 6510   3.961   0.860   1.241  0.1511  1.6248 -1.3542
 2168TIP3    H2 6511   3.965   0.787   1.108 -0.6291 -1.1937  0.0769
 2169TIP3   OH2 6512   4.720   2.545   3.283  0.2408  0.1380  0.1495
 2169TIP3    H1 6513   4.650   2.481   3.274  0.7657 -0.6817  1.6129
 2169TIP3    H2 6514   4.736   2.550   3.378  2.8019 -0.4153 -0.1876
 2170TIP3   OH2 6515   3.561   2.982   3.209 -0.6484 -0.5974  0.4196
 2170TIP3    H1 6516   3.556   2.886   3.209 -0.0864 -0.6300  0.4144
 2170TIP3    H2 6517   3.631   3.002   3.147 -0.6943 -0.1842  0.4977
 2171TIP3   OH2 6518   0.293   5.584   4.398  0.3800  0.1321 -0.1793
 2171TIP3    H1 6519   0.311   5.671   4.363 -0.7889  0.2601 -0.4998
 2171TIP3    H2 6520   0.254   5.600   4.484 -0.6723 -0.0235 -0.6111
 2172TIP3   OH2 6521   1.060   5.572   3.258 -0.5530 -0.7730 -0.0105
 2172TIP3    H1 6522   1.112   5.579   3.338 -0.9246 -1.5023  0.2997
 2172TIP3    H2 6523   0.982   5.523   3.284 -1.9236  1.1504 -0.2179
 2173TIP3   OH2 6524   5.180   5.971   0.915  0.2644 -0.2765 -0.1537
 2173TIP3    H1 6525   5.163   6.054   0.870 -0.9435 -0.1992  0.3955
 2173TIP3    H2 6526   5.152   5.904   0.853 -0.8082 -0.1900  0.2164
 2174TIP3   OH2 6527   4.323   2.623   1.030 -0.1389  0.2010 -0.6408
 2174TIP3    H1 6528   4.266   2.696   1.007 -1.0741 -1.0426 -2.4791
 2174TIP3    H2 6529   4.266   2.546   1.030  1.0161 -0.7012  0.2394
 2175TIP3   OH2 6530   2.937   1.043   0.074  0.5424  0.1947 -0.3169
 2175TIP3    H1 6531   2.912   0.965   0.123  1.1609  0.8951  1.1648
 2175TIP3    H2 6532   2.972   1.009  -0.009 -0.2489 -1.0216 -0.1867
 2176TIP3   OH2 6533   5.832   0.933   1.636 -0.3240  0.1608  0.3395
 2176TIP3    H1 6534   5.826   0.865   1.704  0.2447  0.2443  0.4771
 2176TIP3    H2 6535   5.797   1.012   1.677 -1.2713 -0.1148  0.0804
 2177TIP3   OH2 6536   1.311   5.237   4.553  0.5016 -0.1028 -0.0428
 2177TIP3    H1 6537   1.365   5.218   4.477  0.1800 -0.0215 -0.2927
 2177TIP3    H2 6538   1.352   5.188   4.624 -0.0786 -1.4229 -0.5851
 2178TIP3   OH2 6539   1.844   0.164   1.878  0.0999 -0.5274 -0.3434
 2178TIP3    H1 6540   1.793   0.097   1.832  0.4442 -1.1371  0.1522
 2178TIP3    H2 6541   1.923   0.174   1.826 -0.0121 -0.4041 -0.4915
 2179TIP3   OH2 6542   0.419   3.006   3.066  0.0023 -0.0582  0.4070
 2179TIP3    H1 6543   0.494   3.008   3.126 -0.7827 -0.3420  1.4429
 2179TIP3    H2 6544   0.398   3.098   3.053  0.1620  0.0094  0.6030
 2180TIP3   OH2 6545   4.897   1.004   1.017  0.3320 -0.0011 -0.1174
 2180TIP3    H1 6546   4.907   0.914   1.048  0.3656 -0.5241 -1.5813
 2180TIP3    H2 6547   4.986   1.036   1.003  0.3419  0.4562  0.8646
 2181TIP3   OH2 6548   3.019   0.765   1.422 -0.0558 -0.5060  0.1101
 2181TIP3    H1 6549   2.960   0.695   1.452 -2.0286  0.7465 -0.6577
 2181TIP3    H2 6550   3.022   0.755   1.327  2.7135 -1.8032  0.2423
 2182TIP3   OH2 6551   4.023   5.180   4.993  0.0466  0.3309  0.0291
 2182TIP3    H1 6552   4.034   5.106   5.053  1.2217  0.2582 -0.2520
 2182TIP3    H2 6553   4.112   5.204   4.967 -0.4218 -0.3443 -2.5070
 2183TIP3   OH2 6554   3.525   3.027   3.918  0.3423 -0.0647  0.3068
 2183TIP3    H1 6555   3.461   2.957   3.928 -0.7552  0.8572 -0.0049
 2183TIP3    H2 6556   3.511   3.060   3.829  0.0432  1.2825  0.8264
 2184TIP3   OH2 6557   5.232   1.359   1.718  0.4347  0.1679  0.1826
 2184TIP3    H1 6558   5.299   1.308   1.763 -1.3087 -0.0592  2.6923
 2184TIP3    H2 6559   5.243   1.448   1.751 -0.6806  0.0589  0.9028
 2185TIP3   OH2 6560   4.825   2.613   0.504  0.1954  0.0179  0.0045
 2185TIP3    H1 6561   4.746   2.667   0.504  0.8468  1.0219 -1.1849
 2185TIP3    H2 6562   4.881   2.653   0.570  0.0348 -0.2063  0.2787
 2186TIP3   OH2 6563   0.956   5.929   0.590  0.1129  0.1985  0.2234
 2186TIP3    H1 6564   0.892   5.918   0.660 -0.6718 -1.3808 -0.6742
 2186TIP3    H2 6565   0.912   5.983   0.525 -0.2137 -0.6086 -0.2441
 2187TIP3   OH2 6566   1.491   4.085   0.343  0.0174 -0.0298 -0.2889
 2187TIP3    H1 6567   1.453   4.033   0.273 -2.4145  0.7867  0.3230
 2187TIP3    H2 6568   1.579   4.107   0.312 -0.2794 -1.2863 -2.1874
 2188TIP3   OH2 6569   2.388   2.088   4.542  0.3446 -0.8040  0.0019
 2188TIP3    H1 6570   2.341   2.120   4.465 -1.0247 -1.5709  0.4885
 2188TIP3    H2 6571   2.370   1.995   4.545 -1.4445 -0.4856  2.4215
 2189TIP3   OH2 6572   5.694   3.456   1.943 -0.9050  0.2190  0.4089
 2189TIP3    H1 6573   5.649   3.501   1.871 -0.0912 -0.2221 -0.3841
 2189TIP3    H2 6574   5.711   3.368   1.910  0.0209  0.1974  0.9131
 2190TIP3   OH2 6575   5.750   3.492   1.208  0.3346  0.6923  0.1842
 2190TIP3    H1 6576   5.845   3.502   1.217  0.7769 -0.7190 -2.1610
 2190TIP3    H2 6577   5.738   3.402   1.176 -1.9249  0.3480  1.7666
 2191TIP3   OH2 6578   1.517   0.114   0.424 -0.0609 -0.1857  0.3606
 2191TIP3    H1 6579   1.590   0.060   0.456  0.3428  0.0683 -0.1251
 2191TIP3    H2 6580   1.538   0.131   0.332  0.6978  2.2119  0.9105
 2192TIP3   OH2 6581   5.833   5.566   1.243 -0.9427  0.1809 -0.2851
 2192TIP3    H1 6582   5.871   5.560   1.155 -0.7308 -1.5789 -0.1187
 2192TIP3    H2 6583   5.909   5.572   1.301 -1.0711  0.9692 -0.1927
 2193TIP3   OH2 6584   2.818   4.699   5.003 -0.4858  0.4012  0.3431
 2193TIP3    H1 6585   2.887   4.739   4.950 -1.7491  0.0998 -1.6331
 2193TIP3    H2 6586   2.862   4.631   5.053  0.9892  1.5912  0.7248
 2194TIP3   OH2 6587   2.646   0.190   4.758 -0.3353 -0.5367  0.0285
 2194TIP3    H1 6588   2.678   0.127   4.822  1.9819  0.1186 -0.3941
 2194TIP3    H2 6589   2.629   0.270   4.809  2.1041  0.1831 -0.1568
 2195TIP3   OH2 6590   2.710   0.765   3.482  0.1549 -0.1315  0.2667
 2195TIP3    H1 6591   2.626   0.736   3.446  0.3157 -3.0722  1.9858
 2195TIP3    H2 6592   2.768   0.769   3.406 -0.5790 -2.0069 -0.4592
 2196TIP3   OH2 6593   2.389   5.804   0.512 -1.0843  0.1753  0.0735
 2196TIP3    H1 6594   2.475   5.767   0.533 -1.4501 -0.8026 -0.1172
 2196TIP3    H2 6595   2.328   5.732   0.526 -2.1208  1.3569  2.0297
 2197TIP3   OH2 6596   3.426   1.530   2.907  0.0109 -0.0454  0.4747
 2197TIP3    H1 6597   3.513   1.534   2.948 -0.4135  1.0853  1.3196
 2197TIP3    H2 6598   3.365   1.525   2.981 -0.7363  1.2716 -0.0151
 2198TIP3   OH2 6599   2.220   2.434   2.737 -0.0443 -0.1576 -0.3434
 2198TIP3    H1 6600   2.146   2.494   2.745 -0.1854 -0.0315 -2.1734
 2198TIP3    H2 6601   2.220   2.408   2.645  0.7163 -2.0674  0.1415
 2199TIP3   OH2 6602   3.804   3.458   2.011 -0.1873 -0.1564  0.5443
 2199TIP3    H1 6603   3.891   3.480   1.976 -0.2414 -0.9990 -0.1437
 2199TIP3    H2 6604   3.778   3.536   2.060  1.1323 -0.0375  1.1128
 2200TIP3   OH2 6605   4.533   3.302   4.127 -0.2846 -0.0144 -0.5135
 2200TIP3    H1 6606   4.515   3.230   4.065 -0.3534  0.1506 -0.6849
 2200TIP3    H2 6607   4.547   3.258   4.211  1.0260 -0.3521 -0.8839
 2201TIP3   OH2 6608   1.620   0.064   1.670  0.1585  0.2886 -0.1860
 2201TIP3    H1 6609   1.528   0.049   1.646  1.0700 -1.6665 -3.0534
 2201TIP3    H2 6610   1.637   0.154   1.644 -0.9254  0.6381  0.2756
 2202TIP3   OH2 6611   0.061   0.444   2.893  0.3113 -0.3645 -0.3911
 2202TIP3    H1 6612   0.021   0.359   2.875  2.7926 -1.6570 -0.2488
 2202TIP3    H2 6613   0.146   0.440   2.850  1.5737  1.0427  1.7889
 2203TIP3   OH2 6614   4.384   1.377   2.123 -0.2550 -0.3751 -0.1646
 2203TIP3    H1 6615   4.397   1.363   2.216  0.1519  0.2620 -0.1219
 2203TIP3    H2 6616   4.290   1.360   2.108 -0.4766  0.2777  0.4886
 2204TIP3   OH2 6617   0.339   4.573   0.570 -0.0809  0.1978 -0.4260
 2204TIP3    H1 6618   0.383   4.638   0.515 -0.8498  1.2817  0.1890
 2204TIP3    H2 6619   0.335   4.495   0.515 -0.3906  1.0923 -1.7549
 2205TIP3   OH2 6620   1.995   1.954   5.017 -0.1453 -0.2364  0.8081
 2205TIP3    H1 6621   2.008   1.999   5.100  0.6714  0.7319  0.1783
 2205TIP3    H2 6622   1.972   2.023   4.955 -1.2910 -1.0126  0.3277
 2206TIP3   OH2 6623   1.543   0.921   2.557 -0.6405  0.0301  0.0489
 2206TIP3    H1 6624   1.454   0.901   2.526 -0.6017 -0.6312  0.3252
 2206TIP3    H2 6625   1.544   1.016   2.567 -0.9196  0.1665 -1.1270
 2207TIP3   OH2 6626   0.302   2.047   2.209 -0.3739 -0.8443 -0.3419
 2207TIP3    H1 6627   0.240   2.118   2.191  0.1411  0.3234  1.9992
 2207TIP3    H2 6628   0.388   2.085   2.188 -0.1454 -1.0172  0.2660
 2208TIP3   OH2 6629   5.301   2.482   0.988 -0.0247  0.3185  0.2480
 2208TIP3    H1 6630   5.223   2.526   1.022  0.5530  0.8068  0.9749
 2208TIP3    H2 6631   5.274   2.447   0.904 -0.6691  1.6252 -0.1196
 2209TIP3   OH2 6632   1.599   1.952   4.563 -0.6259  0.4110 -0.6256
 2209TIP3    H1 6633   1.526   1.928   4.506  0.1736 -0.5226 -1.2739
 2209TIP3    H2 6634   1.583   1.904   4.644  0.4411 -1.6389 -1.5657
 2210TIP3   OH2 6635   3.422   1.745   0.645 -0.3741 -0.2646 -0.2268
 2210TIP3    H1 6636   3.478   1.822   0.639 -0.7857  0.1723  1.2556
 2210TIP3    H2 6637   3.348   1.773   0.697  0.0401 -1.9657  1.3725
 2211TIP3   OH2 6638   1.343   5.085   0.524 -0.4056  0.1082  0.3954
 2211TIP3    H1 6639   1.429   5.071   0.486 -0.4426 -0.6481  0.5838
 2211TIP3    H2 6640   1.358   5.151   0.591 -0.3824  1.6450 -1.0484
 2212TIP3   OH2 6641   2.160   5.040   0.173  0.0615  0.2740  0.3712
 2212TIP3    H1 6642   2.191   4.997   0.252 -0.0005  1.4823  1.0895
 2212TIP3    H2 6643   2.085   5.092   0.202 -0.8434 -0.3459 -0.7666
 2213TIP3   OH2 6644   5.095   0.831   2.418 -0.1808  0.2907 -0.0424
 2213TIP3    H1 6645   5.142   0.859   2.496 -0.5300  0.9481 -0.0531
 2213TIP3    H2 6646   5.107   0.737   2.415 -0.2199  0.2474  0.8436
 2214TIP3   OH2 6647   1.510   0.198   1.366 -0.4881 -0.6987 -0.2476
 2214TIP3    H1 6648   1.517   0.257   1.292 -0.9847  0.0715  0.2958
 2214TIP3    H2 6649   1.600   0.176   1.389 -0.2789  0.0915 -0.2770
 2215TIP3   OH2 6650   0.817   3.249   3.170 -0.4016  0.0287  0.1167
 2215TIP3    H1 6651   0.767   3.287   3.242 -0.0950  0.4193  0.1236
 2215TIP3    H2 6652   0.770   3.277   3.091  0.0588  0.7774  0.1008
 2216TIP3   OH2 6653   1.839   2.217   0.278  0.0050  0.1152  0.0887
 2216TIP3    H1 6654   1.921   2.254   0.247  0.3761 -1.4169 -0.8754
 2216TIP3    H2 6655   1.838   2.128   0.243 -1.6770 -0.1855  0.7924
 2217TIP3   OH2 6656   4.224   4.336   2.750  0.1418  0.3783  0.2916
 2217TIP3    H1 6657   4.160   4.293   2.693  0.7773 -0.3459  0.1169
 2217TIP3    H2 6658   4.258   4.408   2.697 -0.8001  1.0200  0.5248
 2218TIP3   OH2 6659   5.127   0.803   0.302 -0.2020  0.2756  1.0948
 2218TIP3    H1 6660   5.115   0.773   0.393  1.4661  1.4767  1.7702
 2218TIP3    H2 6661   5.214   0.844   0.302  0.1331 -0.3030 -1.2324
 2219TIP3   OH2 6662   6.268   3.224   4.712 -0.8963  0.2153  0.1696
 2219TIP3    H1 6663   6.277   3.268   4.797  0.6018 -0.8379  0.6075
 2219TIP3    H2 6664   6.288   3.292   4.648 -0.8924  0.7438  0.7193
 2220TIP3   OH2 6665   4.963   4.606   4.538  0.2510  0.1747  0.0114
 2220TIP3    H1 6666   4.959   4.545   4.611 -2.8995  1.4221  1.0342
 2220TIP3    H2 6667   4.874   4.608   4.503  0.4321  3.3928 -0.5748
 2221TIP3   OH2 6668   0.230   3.286   4.971 -0.5130  0.2647 -0.1148
 2221TIP3    H1 6669   0.223   3.217   4.906  0.3333 -0.5580  0.6439
 2221TIP3    H2 6670   0.237   3.240   5.055 -0.5701  1.2769  0.4635
 2222TIP3   OH2 6671   3.664   1.957   1.562 -0.3765 -1.0529  0.4369
 2222TIP3    H1 6672   3.635   2.041   1.526 -0.6722 -0.6642  1.5349
 2222TIP3    H2 6673   3.700   1.910   1.487  0.2142  0.2314 -0.1215
 2223TIP3   OH2 6674   0.548   4.454   4.152  0.0772 -0.3632  0.6026
 2223TIP3    H1 6675   0.607   4.528   4.165  2.1393 -2.1178  1.8558
 2223TIP3    H2 6676   0.468   4.479   4.198  0.7137  1.0863  0.9699
 2224TIP3   OH2 6677   3.343   3.018   4.707  0.0815  0.8312 -0.3279
 2224TIP3    H1 6678   3.337   3.108   4.739 -3.1602  0.1460  1.3984
 2224TIP3    H2 6679   3.386   2.971   4.779 -1.4866  0.4320  0.3982
 2225TIP3   OH2 6680   2.430   2.200   0.501 -0.1402 -0.5527 -0.3880
 2225TIP3    H1 6681   2.456   2.171   0.588 -0.3585 -2.6058 -0.9608
 2225TIP3    H2 6682   2.377   2.278   0.516 -1.4197 -1.7176  1.4446
 2226TIP3   OH2 6683   5.448   3.432   2.750 -0.2005  0.6368  0.1805
 2226TIP3    H1 6684   5.469   3.504   2.810  1.5734  2.5597 -2.5095
 2226TIP3    H2 6685   5.528   3.381   2.744  0.0096  1.0663 -1.1948
 2227TIP3   OH2 6686   6.171   4.498   1.038 -0.5330  0.5445 -0.6446
 2227TIP3    H1 6687   6.166   4.580   1.088  0.5802 -1.3050  2.7882
 2227TIP3    H2 6688   6.105   4.441   1.078  1.6939 -1.6568  0.1513
 2228TIP3   OH2 6689   3.340   3.853   1.399  0.5243 -0.1342  0.5023
 2228TIP3    H1 6690   3.254   3.886   1.374 -0.2765 -2.0002  0.6709
 2228TIP3    H2 6691   3.370   3.803   1.323  0.6392 -0.9888  1.0937
 2229TIP3   OH2 6692   5.150   5.299   0.653 -0.2662  0.6632 -0.0024
 2229TIP3    H1 6693   5.207   5.324   0.725  0.9250  0.2399 -0.7779
 2229TIP3    H2 6694   5.097   5.227   0.688  1.1645 -0.3745  0.0918
 2230TIP3   OH2 6695   3.631   5.722   1.998  0.0019 -0.4814  0.5137
 2230TIP3    H1 6696   3.560   5.678   2.045 -1.1471  0.1931 -0.5357
 2230TIP3    H2 6697   3.589   5.763   1.923  1.5780 -0.3682 -0.3595
 2231TIP3   OH2 6698   1.487   3.928   3.071 -0.3603  0.5838 -0.0902
 2231TIP3    H1 6699   1.535   4.008   3.093  0.1548  0.7291 -1.6732
 2231TIP3    H2 6700   1.395   3.952   3.085 -0.1118  0.7547  1.5343
 2232TIP3   OH2 6701   4.763   0.184   2.190  0.0085  0.2132  0.3226
 2232TIP3    H1 6702   4.763   0.175   2.286  0.2141  0.6189  0.3623
 2232TIP3    H2 6703   4.693   0.126   2.161  0.1139 -0.1131  0.7017
 2233TIP3   OH2 6704   3.791   2.628   2.383  0.3500  0.2715 -0.3563
 2233TIP3    H1 6705   3.848   2.554   2.363 -0.7703 -0.5230 -0.7327
 2233TIP3    H2 6706   3.848   2.691   2.427  0.7768 -2.0961  2.8906
 2234TIP3   OH2 6707   5.247   0.735   4.501  0.0920  0.3171 -0.3984
 2234TIP3    H1 6708   5.310   0.794   4.460 -0.4002  0.7891 -0.4815
 2234TIP3    H2 6709   5.275   0.648   4.474  1.3144  0.4421  0.3854
 2235TIP3   OH2 6710   2.348   2.884   3.186  0.3424 -0.5121 -0.1745
 2235TIP3    H1 6711   2.398   2.804   3.167  0.8694 -1.0414  2.8950
 2235TIP3    H2 6712   2.258   2.853   3.196  0.4144 -0.6053  0.2115
 2236TIP3   OH2 6713   6.070   0.586   4.516  0.1847 -0.0412  0.3063
 2236TIP3    H1 6714   6.154   0.574   4.472  0.0588 -1.2020  0.3667
 2236TIP3    H2 6715   6.089   0.576   4.609 -0.3308 -2.3661  0.2111
 2237TIP3   OH2 6716   5.361   5.563   3.572  0.4055 -0.7873  0.5869
 2237TIP3    H1 6717   5.402   5.645   3.544 -0.0802 -0.1452  1.6718
 2237TIP3    H2 6718   5.377   5.502   3.500 -0.8078  0.7792 -1.1134
 2238TIP3   OH2 6719   2.182   5.362   1.097 -0.0238 -0.3317  0.2182
 2238TIP3    H1 6720   2.109   5.410   1.059  0.7289  0.4378 -0.2902
 2238TIP3    H2 6721   2.218   5.421   1.163  0.0546 -0.7727  0.5805
 2239TIP3   OH2 6722   4.809   4.927   5.075 -0.0931  0.3615 -0.0680
 2239TIP3    H1 6723   4.819   4.839   5.113 -1.7533  0.4079  0.5645
 2239TIP3    H2 6724   4.745   4.916   5.005  0.4043  0.9072 -0.6212
 2240TIP3   OH2 6725   4.693   1.588   1.121 -0.1183 -0.4462  0.0658
 2240TIP3    H1 6726   4.756   1.624   1.183 -0.6774 -0.4476  0.6457
 2240TIP3    H2 6727   4.734   1.506   1.091  0.0520 -0.5748  0.6223
 2241TIP3   OH2 6728   2.119   1.144   4.892  0.1775  0.0197  0.5552
 2241TIP3    H1 6729   2.060   1.080   4.854  0.6454 -0.0421 -0.0895
 2241TIP3    H2 6730   2.093   1.227   4.852  0.0639  0.1077  0.8122
 2242TIP3   OH2 6731   4.913   5.432   5.144  0.0529  0.0806 -0.2750
 2242TIP3    H1 6732   4.935   5.453   5.054 -1.4091 -0.4742 -0.7768
 2242TIP3    H2 6733   4.896   5.338   5.144  0.0604  0.0695  0.5853
 2243TIP3   OH2 6734   6.025   1.323   4.820 -0.2429  0.2312 -0.5928
 2243TIP3    H1 6735   6.023   1.318   4.724  1.3181 -2.2499 -0.5844
 2243TIP3    H2 6736   6.100   1.269   4.845 -0.2696  1.2644  2.0381
 2244TIP3   OH2 6737   0.407   2.983   2.226  0.1561  0.4302  0.4835
 2244TIP3    H1 6738   0.408   2.934   2.309  0.0227 -0.2722  0.0845
 2244TIP3    H2 6739   0.332   2.946   2.178 -0.0525  1.1601  0.2432
 2245TIP3   OH2 6740   0.025   4.070   4.474  0.1890  0.1899  0.0027
 2245TIP3    H1 6741  -0.057   4.081   4.424  0.0182  1.4939  0.5417
 2245TIP3    H2 6742   0.074   4.004   4.424 -0.4485  0.6513 -1.2949
 2246TIP3   OH2 6743   5.257   3.643   4.618  0.2052 -0.1196 -0.1292
 2246TIP3    H1 6744   5.200   3.573   4.650 -0.0302  0.6318  1.2086
 2246TIP3    H2 6745   5.202   3.693   4.557  0.1990 -0.7752 -0.6597
 2247TIP3   OH2 6746   0.553   2.403   0.242  0.3558  0.8834  0.2872
 2247TIP3    H1 6747   0.472   2.455   0.243 -1.7866 -2.1381 -0.8371
 2247TIP3    H2 6748   0.579   2.401   0.150  0.4821  0.1002  0.3340
 2248TIP3   OH2 6749   5.500   4.038   3.622 -0.7920 -0.6465  0.1380
 2248TIP3    H1 6750   5.533   4.070   3.706 -2.5998  1.1178  0.2641
 2248TIP3    H2 6751   5.579   4.020   3.570  0.3966  1.7856  0.9541
 2249TIP3   OH2 6752   6.032   5.101   3.415 -0.0576  0.1363  0.3830
 2249TIP3    H1 6753   6.092   5.172   3.390  0.5180  0.1607  1.7607
 2249TIP3    H2 6754   6.022   5.110   3.509 -2.7932  0.5264  0.1329
 2250TIP3   OH2 6755   2.789   5.272   4.352  0.3840 -0.1624  0.2560
 2250TIP3    H1 6756   2.835   5.258   4.434 -0.2345 -1.8580  0.3455
 2250TIP3    H2 6757   2.849   5.326   4.300  1.2157  0.0700  1.4269
 2251TIP3   OH2 6758   0.428   1.690   3.354  0.4896 -0.4976 -0.7385
 2251TIP3    H1 6759   0.358   1.701   3.419  0.4329  0.7259 -0.9843
 2251TIP3    H2 6760   0.412   1.760   3.290  1.4511 -0.7276 -1.2420
 2252TIP3   OH2 6761   2.547   2.533   4.293 -0.3128 -0.5592  0.4488
 2252TIP3    H1 6762   2.567   2.440   4.300 -0.5066 -0.5532  1.2093
 2252TIP3    H2 6763   2.502   2.554   4.375  1.5728  0.6686  1.2363
 2253TIP3   OH2 6764   3.027   5.921   1.534  0.0336 -0.1026 -0.5876
 2253TIP3    H1 6765   3.029   5.961   1.620 -0.7049 -0.9984 -0.1365
 2253TIP3    H2 6766   3.105   5.956   1.489  0.3412  0.4786  0.3730
 2254TIP3   OH2 6767   2.136   5.810   1.479 -0.4375 -0.2587  0.2548
 2254TIP3    H1 6768   2.052   5.830   1.522 -0.6156 -0.2748 -0.0875
 2254TIP3    H2 6769   2.159   5.723   1.512 -0.0053  0.1979  1.2036
 2255TIP3   OH2 6770   6.234   3.846   4.049 -0.1384  0.4579  0.6523
 2255TIP3    H1 6771   6.251   3.937   4.075 -0.9456 -0.0180  3.0897
 2255TIP3    H2 6772   6.305   3.796   4.090  0.2944 -0.0275 -0.6634
 2256TIP3   OH2 6773   5.283   2.004   0.373 -0.4305  0.3932  0.2168
 2256TIP3    H1 6774   5.283   1.911   0.350 -0.2037  0.6230 -0.7447
 2256TIP3    H2 6775   5.364   2.038   0.336 -0.4027  0.9308  0.7614
 2257TIP3   OH2 6776   5.539   1.964   0.533 -0.1268 -0.2617 -0.1695
 2257TIP3    H1 6777   5.493   1.883   0.509 -1.6136  0.1963  1.0226
 2257TIP3    H2 6778   5.532   2.019   0.455 -0.9124 -0.4998 -0.2752
 2258TIP3   OH2 6779   3.510   5.338   3.791  0.0363  0.4588 -0.0133
 2258TIP3    H1 6780   3.434   5.395   3.793 -1.0937 -0.8190 -2.2821
 2258TIP3    H2 6781   3.486   5.264   3.848 -1.1007 -0.6261 -1.8056
 2259TIP3   OH2 6782   0.463   4.138   3.312 -0.3163 -0.1122  0.4576
 2259TIP3    H1 6783   0.528   4.191   3.357 -0.9348  0.6344  0.4979
 2259TIP3    H2 6784   0.437   4.072   3.376  1.3514 -1.2550 -0.0068
 2260TIP3   OH2 6785   2.285   2.039   1.255 -0.1371 -0.4477  0.0281
 2260TIP3    H1 6786   2.287   2.129   1.287 -0.2788 -0.8138  1.1182
 2260TIP3    H2 6787   2.192   2.015   1.259 -0.4810  0.1469 -2.6443
 2261TIP3   OH2 6788   5.500   0.672   0.424  0.0068  0.0500 -0.4551
 2261TIP3    H1 6789   5.594   0.665   0.437 -0.0407 -0.2924 -0.2660
 2261TIP3    H2 6790   5.463   0.665   0.512 -0.2205 -0.4013 -0.5813
 2262TIP3   OH2 6791   2.223   5.106   4.390  0.0892  0.1865 -0.1822
 2262TIP3    H1 6792   2.198   5.188   4.346 -0.5231  1.6609  2.6733
 2262TIP3    H2 6793   2.143   5.054   4.392  0.2188 -0.0604 -1.1045
 2263TIP3   OH2 6794   3.357   1.428   4.427  0.5769 -0.1791 -0.7311
 2263TIP3    H1 6795   3.423   1.497   4.434  0.9419 -0.5380 -0.5447
 2263TIP3    H2 6796   3.283   1.469   4.382  0.4005  0.6080  0.2437
 2264TIP3   OH2 6797   6.221   5.508   2.259  0.0698 -0.2124  0.7159
 2264TIP3    H1 6798   6.245   5.416   2.269 -0.3059 -0.5106 -0.9034
 2264TIP3    H2 6799   6.176   5.512   2.175  0.5907  1.5610  0.4940
 2265TIP3   OH2 6800   1.999   5.565   2.518 -0.0764 -0.2167  0.1319
 2265TIP3    H1 6801   1.977   5.653   2.488 -0.0444  0.1178  1.0739
 2265TIP3    H2 6802   1.973   5.563   2.610  0.4399 -1.0131  0.2739
 2266TIP3   OH2 6803   4.365   2.954   2.558 -0.6459  0.0970 -0.0374
 2266TIP3    H1 6804   4.347   2.972   2.465 -1.8345 -0.7694  0.0111
 2266TIP3    H2 6805   4.323   2.870   2.575  0.4930 -0.2867  1.0299
 2267TIP3   OH2 6806   6.240   5.311   2.740 -0.2815  0.3038  0.0539
 2267TIP3    H1 6807   6.212   5.252   2.670 -1.0720  1.8559 -0.9912
 2267TIP3    H2 6808   6.158   5.347   2.775  0.1450  0.1723  1.2633
 2268TIP3   OH2 6809   2.015   4.427   0.244 -0.2613 -0.4284 -0.6521
 2268TIP3    H1 6810   2.090   4.477   0.212 -0.4406  0.2606 -0.0300
 2268TIP3    H2 6811   1.943   4.452   0.186 -0.5337  0.6494  0.1177
 2269TIP3   OH2 6812   2.834   0.207   1.673 -0.0274  0.4571  0.1811
 2269TIP3    H1 6813   2.882   0.206   1.756 -0.3969 -0.4871  0.3969
 2269TIP3    H2 6814   2.746   0.236   1.697 -0.5877 -1.3031  0.4076
 2270TIP3   OH2 6815   2.967   2.147  -0.026 -0.0095  0.0421  0.1443
 2270TIP3    H1 6816   2.884   2.193  -0.027 -1.1787 -1.9662  0.0324
 2270TIP3    H2 6817   2.970   2.104   0.060 -0.9395 -2.9325 -1.1722
 2271TIP3   OH2 6818   6.204   2.763   2.619  0.4133  0.0947  0.0458
 2271TIP3    H1 6819   6.184   2.676   2.583 -0.3623 -0.3193  1.3593
 2271TIP3    H2 6820   6.289   2.752   2.661  1.2973  0.5661 -1.5552
 2272TIP3   OH2 6821   4.608   1.420   3.914 -0.5353  0.7676  0.0674
 2272TIP3    H1 6822   4.659   1.440   3.993 -0.7684  0.0383  0.4112
 2272TIP3    H2 6823   4.524   1.388   3.947  0.3239 -2.2221 -0.3825
 2273TIP3   OH2 6824   0.382   0.636   0.209  0.2449 -0.2020 -0.6869
 2273TIP3    H1 6825   0.411   0.678   0.290  0.8092 -1.5885 -0.1311
 2273TIP3    H2 6826   0.462   0.596   0.174  0.0892  0.7251 -2.1590
 2274TIP3   OH2 6827   6.346   5.756   2.169  0.6508 -0.3213 -0.4859
 2274TIP3    H1 6828   6.292   5.687   2.208  0.8611 -0.2474 -0.0568
 2274TIP3    H2 6829   6.288   5.831   2.162  0.6758 -0.2648 -0.0963
 2275TIP3   OH2 6830   0.441   3.899   2.405 -0.2116  0.0757 -0.2190
 2275TIP3    H1 6831   0.501   3.920   2.334 -0.4718 -0.4421 -0.6042
 2275TIP3    H2 6832   0.363   3.950   2.387  0.2361  1.0236  0.4801
 2276TIP3   OH2 6833   5.067   1.130   0.237  0.0010  0.6507 -0.9237
 2276TIP3    H1 6834   5.146   1.135   0.292  0.0911 -0.2084 -0.9570
 2276TIP3    H2 6835   5.001   1.092   0.294  0.6821 -2.3630 -1.9716
 2277TIP3   OH2 6836   5.645   0.868   0.582 -0.3089  0.0026 -0.3456
 2277TIP3    H1 6837   5.714   0.904   0.527  0.1095  2.1382  1.4269
 2277TIP3    H2 6838   5.689   0.847   0.665 -1.6519  1.1098  0.7078
 2278TIP3   OH2 6839   4.716   4.597   3.285  0.2241  0.0237 -0.2150
 2278TIP3    H1 6840   4.670   4.533   3.339 -0.4838  0.9776  0.3583
 2278TIP3    H2 6841   4.651   4.625   3.221 -0.1866  1.6917  0.8659
 2279TIP3   OH2 6842   1.272   1.222   0.284 -0.3078  0.0079 -0.1761
 2279TIP3    H1 6843   1.262   1.265   0.369 -0.4595 -0.9385  0.2946
 2279TIP3    H2 6844   1.210   1.267   0.227 -3.8174 -2.3798  1.3845
 2280TIP3   OH2 6845   3.550   2.805   2.890  0.0367 -0.6071 -0.1029
 2280TIP3    H1 6846   3.632   2.847   2.913 -0.8900  0.3108  1.6567
 2280TIP3    H2 6847   3.535   2.740   2.959 -0.8543 -0.5575 -0.2284
 2281TIP3   OH2 6848   0.555   5.978   1.582 -0.3500  0.1589  0.0050
 2281TIP3    H1 6849   0.631   6.025   1.615  0.0906 -0.6383  0.1503
 2281TIP3    H2 6850   0.514   5.941   1.660 -0.4913  0.0070 -0.1420
 2282TIP3   OH2 6851   0.688   0.572   1.908  0.3012  0.2993  0.3267
 2282TIP3    H1 6852   0.656   0.662   1.903  0.6633  0.5142  1.6389
 2282TIP3    H2 6853   0.608   0.518   1.908  0.1077  0.5213 -1.6455
 2283TIP3   OH2 6854   5.483   1.615   3.880 -0.1468 -0.2848  0.0996
 2283TIP3    H1 6855   5.502   1.601   3.787  0.3962 -0.0866  0.1760
 2283TIP3    H2 6856   5.565   1.595   3.925 -0.9642 -2.4325  0.7648
 2284TIP3   OH2 6857   4.537   3.090   3.044  0.1488  0.1050  0.1347
 2284TIP3    H1 6858   4.518   3.116   3.135  0.3382 -3.0376  1.1849
 2284TIP3    H2 6859   4.570   3.001   3.051  4.4058  1.1688 -2.6405
 2285TIP3   OH2 6860   1.793   5.568   1.381 -0.2627 -0.1612 -0.0609
 2285TIP3    H1 6861   1.805   5.483   1.339  1.0771  0.0247 -0.1044
 2285TIP3    H2 6862   1.784   5.547   1.474 -0.3948 -0.3790 -0.1209
 2286TIP3   OH2 6863   1.589   5.605   3.472 -0.4582  0.7692 -0.3158
 2286TIP3    H1 6864   1.520   5.590   3.407  0.5600 -1.3209 -1.0235
 2286TIP3    H2 6865   1.549   5.582   3.556 -0.6729 -0.3751 -0.7119
 2287TIP3   OH2 6866   1.301   2.208   3.920 -0.6536 -0.1593  0.0565
 2287TIP3    H1 6867   1.366   2.148   3.957 -0.1277 -0.9090 -1.9610
 2287TIP3    H2 6868   1.320   2.292   3.962  1.3196 -0.4724 -0.1141
 2288TIP3   OH2 6869   3.547   0.886   4.806  0.2594  0.1230  0.2665
 2288TIP3    H1 6870   3.547   0.965   4.752 -0.2953  0.5986  0.9443
 2288TIP3    H2 6871   3.616   0.901   4.870 -0.6474  0.6146  1.1594
 2289TIP3   OH2 6872   2.732   4.990   0.384  0.3690 -0.2955 -0.1186
 2289TIP3    H1 6873   2.764   5.045   0.455  0.8536 -0.1407 -0.4567
 2289TIP3    H2 6874   2.751   4.900   0.413 -0.4250 -0.2913  0.4326
 2290TIP3   OH2 6875   5.573   5.126   2.597 -0.6410 -0.2053 -0.0998
 2290TIP3    H1 6876   5.548   5.218   2.584 -1.7887 -0.0993  2.3994
 2290TIP3    H2 6877   5.657   5.130   2.642 -2.2968 -0.1736  3.2613
 2291TIP3   OH2 6878   3.338   4.664   3.364  0.4639 -0.5636  0.6849
 2291TIP3    H1 6879   3.350   4.757   3.347 -0.4631 -0.5281  0.1752
 2291TIP3    H2 6880   3.307   4.628   3.281  1.2462 -1.4209  0.7463
 2292TIP3   OH2 6881   0.993   2.476   0.512 -0.0974  0.0535 -0.2509
 2292TIP3    H1 6882   1.042   2.483   0.594 -0.6505  0.7336  0.0315
 2292TIP3    H2 6883   0.955   2.563   0.499  1.1588  0.3974 -1.9856
 2293TIP3   OH2 6884   1.339   0.783   2.275 -0.7501  0.0518 -0.9027
 2293TIP3    H1 6885   1.281   0.858   2.288 -1.4172 -0.5184 -0.5688
 2293TIP3    H2 6886   1.281   0.707   2.271  0.0530 -0.7434  1.1245
 2294TIP3   OH2 6887   5.340   4.197   0.280  0.1050  0.0169  0.0285
 2294TIP3    H1 6888   5.379   4.246   0.207 -1.3534  0.3608 -0.5494
 2294TIP3    H2 6889   5.359   4.105   0.259 -0.6046  0.0834 -0.9939
 2295TIP3   OH2 6890   4.080   5.646   5.088 -0.3713  0.7140  0.4113
 2295TIP3    H1 6891   4.149   5.619   5.028 -1.2447  0.0021 -0.2940
 2295TIP3    H2 6892   4.019   5.572   5.090 -1.7632  1.7993  0.0294
 2296TIP3   OH2 6893   1.165   4.763   0.054 -0.0836 -0.4458 -0.4039
 2296TIP3    H1 6894   1.143   4.748   0.146  0.6163  0.6087 -0.0446
 2296TIP3    H2 6895   1.082   4.758   0.008 -1.0555  2.6128  0.7858
 2297TIP3   OH2 6896   5.227   0.964   0.040 -0.1706 -0.0144 -0.1274
 2297TIP3    H1 6897   5.263   0.876   0.035 -0.5186 -0.1004 -1.7285
 2297TIP3    H2 6898   5.136   0.951   0.065  0.5263  0.1343  2.8050
 2298TIP3   OH2 6899   5.933   4.657   0.933  0.5756 -0.7144 -0.4741
 2298TIP3    H1 6900   6.008   4.614   0.892  1.5291 -1.9735  2.3996
 2298TIP3    H2 6901   5.971   4.725   0.989 -0.6139  0.1189 -0.6273
 2299TIP3   OH2 6902   1.747   0.342   2.757  0.2747  0.0455  0.1877
 2299TIP3    H1 6903   1.652   0.342   2.748  0.2863 -0.8780 -0.0646
 2299TIP3    H2 6904   1.778   0.390   2.680  0.0450 -0.4571 -0.2247
 2300TIP3   OH2 6905   1.492   4.982   1.497 -0.5735 -0.2574  0.2202
 2300TIP3    H1 6906   1.499   4.989   1.592 -3.5253  0.5917  0.4724
 2300TIP3    H2 6907   1.565   5.033   1.463 -0.1446  0.3969  2.0339
 2301TIP3   OH2 6908   5.272   5.137   4.124  0.1124  0.8092 -0.4707
 2301TIP3    H1 6909   5.240   5.048   4.115  0.8778  0.3316  1.1247
 2301TIP3    H2 6910   5.357   5.137   4.081  1.3907 -0.0479  1.8748
 2302TIP3   OH2 6911   3.899   4.673   0.642 -0.3803 -0.3225 -0.3881
 2302TIP3    H1 6912   3.892   4.702   0.733  1.4344  0.9714 -0.5930
 2302TIP3    H2 6913   3.810   4.650   0.616 -1.0043 -0.2444  1.5519
 2303TIP3   OH2 6914   1.035   4.741   2.919  0.7180  0.1193  0.0583
 2303TIP3    H1 6915   1.059   4.782   2.835  2.5898 -0.4715  0.2621
 2303TIP3    H2 6916   0.985   4.808   2.965 -1.0631  0.1907 -1.8209
 2304TIP3   OH2 6917   5.875   4.966   4.676  0.3286  0.2512 -0.0195
 2304TIP3    H1 6918   5.841   5.056   4.672 -1.1454 -0.2790  0.0160
 2304TIP3    H2 6919   5.797   4.911   4.684  0.9602 -1.2557 -2.9051
 2305TIP3   OH2 6920   3.412   1.743   2.451 -0.3534  0.0003  0.0542
 2305TIP3    H1 6921   3.364   1.825   2.442 -0.1033  0.1379 -0.0371
 2305TIP3    H2 6922   3.364   1.681   2.396 -0.3709  0.1592 -0.1098
 2306TIP3   OH2 6923   5.436   0.741   4.079  0.0800  0.0722  0.0404
 2306TIP3    H1 6924   5.461   0.649   4.090  1.8272  0.7149  2.2427
 2306TIP3    H2 6925   5.349   0.746   4.120 -0.0122 -0.5665 -0.0533
 2307TIP3   OH2 6926   5.968   4.079   2.663  0.2346  0.5690  0.2360
 2307TIP3    H1 6927   6.047   4.080   2.609 -0.5760  0.1153 -0.9744
 2307TIP3    H2 6928   6.001   4.096   2.752  1.8791 -1.1366  0.0124
 2308TIP3   OH2 6929   1.559   4.260   3.722 -0.6729  0.2362  0.0017
 2308TIP3    H1 6930   1.472   4.231   3.694 -0.4942  0.7219 -1.1033
 2308TIP3    H2 6931   1.617   4.189   3.694 -0.5016  0.6959 -0.8377
 2309TIP3   OH2 6932   5.536   0.110   2.029 -0.0910  0.6402  0.3406
 2309TIP3    H1 6933   5.523   0.182   1.967 -0.1339  0.3261 -0.0245
 2309TIP3    H2 6934   5.448   0.072   2.040  0.0140  0.3186  0.1159
 2310TIP3   OH2 6935   2.396   4.608   0.108 -0.3301  0.0367 -0.1108
 2310TIP3    H1 6936   2.453   4.685   0.103  0.3552 -0.4462  0.0827
 2310TIP3    H2 6937   2.316   4.640   0.148 -0.5629  0.9318 -1.2746
 2311TIP3   OH2 6938   3.310   5.686   1.567  0.3626 -0.1374  0.0905
 2311TIP3    H1 6939   3.228   5.665   1.611 -0.8882  0.7509 -1.6721
 2311TIP3    H2 6940   3.332   5.606   1.518 -0.3925  0.1489 -0.7518
 2312TIP3   OH2 6941   1.713   5.478   4.721  0.1555 -0.0770 -0.2983
 2312TIP3    H1 6942   1.775   5.550   4.710 -0.8317  0.6851 -1.1179
 2312TIP3    H2 6943   1.700   5.443   4.633  1.0107 -1.6254  0.1519
 2313TIP3   OH2 6944   0.878   4.908   1.696 -0.1669  0.2454  0.1513
 2313TIP3    H1 6945   0.954   4.851   1.689  0.4312  1.0786 -0.2575
 2313TIP3    H2 6946   0.812   4.867   1.640 -0.2522 -0.8215  1.0014
 2314TIP3   OH2 6947   5.446   0.205   2.667  0.0353  0.2967 -0.9194
 2314TIP3    H1 6948   5.449   0.300   2.664  2.1802  0.3712  0.4834
 2314TIP3    H2 6949   5.505   0.177   2.597  2.0066  0.1844  0.6824
 2315TIP3   OH2 6950   2.963   5.513   4.840 -0.2368 -0.3337  0.1433
 2315TIP3    H1 6951   3.019   5.515   4.763 -0.9558 -0.0189 -0.3784
 2315TIP3    H2 6952   2.979   5.427   4.879 -1.4609 -1.4158 -1.5768
 2316TIP3   OH2 6953   3.331   2.693   2.116  0.0639  0.1366  0.1078
 2316TIP3    H1 6954   3.351   2.606   2.150 -2.0459  0.3310  2.1176
 2316TIP3    H2 6955   3.393   2.751   2.160  0.1944 -0.1209  0.2643
 2317TIP3   OH2 6956   2.405   3.122   2.839  0.0242  0.0485 -0.3388
 2317TIP3    H1 6957   2.413   3.189   2.771  0.6929  0.8167  0.4811
 2317TIP3    H2 6958   2.394   3.171   2.921 -1.5712 -0.8685  0.0403
 2318TIP3   OH2 6959   3.140   0.809   4.621 -0.1984 -0.2091  0.6933
 2318TIP3    H1 6960   3.209   0.784   4.560 -0.0689  0.4597  0.5600
 2318TIP3    H2 6961   3.111   0.895   4.591 -0.4052 -0.0484  1.3336
 2319TIP3   OH2 6962   6.001   4.331   2.483  0.0419 -0.1577  0.2293
 2319TIP3    H1 6963   6.086   4.364   2.454 -0.6182  1.7947  0.3735
 2319TIP3    H2 6964   5.984   4.254   2.428  0.4091  1.3570 -2.1215
 2320TIP3   OH2 6965   0.661   1.439   2.135  0.4756 -0.0498  0.1996
 2320TIP3    H1 6966   0.731   1.459   2.073  0.2387 -0.5254 -0.2224
 2320TIP3    H2 6967   0.585   1.418   2.080  0.5409 -1.4942  0.6338
 2321TIP3   OH2 6968   2.791   5.715   0.946 -0.1830  0.3974 -0.2925
 2321TIP3    H1 6969   2.833   5.731   1.030 -1.4219  2.0047  0.0880
 2321TIP3    H2 6970   2.710   5.668   0.968  0.0139 -0.1362 -0.6991
 2322TIP3   OH2 6971   4.635   5.514   3.470 -0.7453  0.1877 -0.1627
 2322TIP3    H1 6972   4.691   5.591   3.464 -0.3467 -0.1812 -1.9621
 2322TIP3    H2 6973   4.577   5.532   3.544  0.1380  1.6570  0.2174
 2323TIP3   OH2 6974   1.262   0.941   0.339 -0.0969  0.3932 -0.0721
 2323TIP3    H1 6975   1.233   0.933   0.430  1.5039  0.0198  0.4218
 2323TIP3    H2 6976   1.265   1.035   0.323  1.2623  0.5218  0.8243
 2324TIP3   OH2 6977   1.776   2.716   0.476 -0.0013 -0.5932 -0.6353
 2324TIP3    H1 6978   1.825   2.668   0.410  1.6000 -0.7294  0.6003
 2324TIP3    H2 6979   1.744   2.793   0.431 -0.4122 -1.5177 -1.9904
 2325TIP3   OH2 6980   1.077   4.636   0.296  0.5799 -0.3350  0.0278
 2325TIP3    H1 6981   1.091   4.553   0.343 -1.9571  0.4533  2.4623
 2325TIP3    H2 6982   1.024   4.688   0.356  0.1886  2.2220 -2.3552
 2326TIP3   OH2 6983   0.067   3.664   4.197 -0.2978  0.3999  0.0490
 2326TIP3    H1 6984   0.118   3.735   4.160 -0.2140  0.9577  1.1885
 2326TIP3    H2 6985   0.123   3.627   4.266 -0.4552 -0.5884 -0.3268
 2327TIP3   OH2 6986   1.085   1.549   1.091  0.4120 -0.5006  0.4607
 2327TIP3    H1 6987   0.996   1.554   1.056 -0.3176 -2.9314  1.7094
 2327TIP3    H2 6988   1.135   1.503   1.024  0.4083 -0.3113  0.3257
 2328TIP3   OH2 6989   3.193   4.219   4.326  0.1203  0.2588 -0.9460
 2328TIP3    H1 6990   3.114   4.187   4.369  1.8963 -1.8458  1.0316
 2328TIP3    H2 6991   3.162   4.263   4.248 -3.0480  0.4625  0.2887
 2329TIP3   OH2 6992   5.871   1.321   2.666  0.5947  0.1353  0.0816
 2329TIP3    H1 6993   5.840   1.396   2.717  2.2420  1.8389 -1.2817
 2329TIP3    H2 6994   5.884   1.252   2.731 -3.4543  0.0332  1.0684
 2330TIP3   OH2 6995   4.091   4.830   3.235  0.0386 -0.3925  0.7499
 2330TIP3    H1 6996   4.098   4.915   3.191  0.9898 -0.0931  1.4377
 2330TIP3    H2 6997   4.002   4.800   3.216 -0.0447  0.3863 -0.1677
 2331TIP3   OH2 6998   2.638   1.323   1.868  0.2433  0.6720  0.4502
 2331TIP3    H1 6999   2.595   1.408   1.856  0.5151  0.7138 -0.2735
 2331TIP3    H2 7000   2.721   1.331   1.821  0.7722  0.3783  1.3051
 2332TIP3   OH2 7001   3.809   1.893   3.695  0.5098 -0.4138  0.0854
 2332TIP3    H1 7002   3.830   1.968   3.752  2.2922 -0.3943 -0.5389
 2332TIP3    H2 7003   3.875   1.827   3.716 -0.4898 -1.4853 -0.0266
 2333TIP3   OH2 7004   4.378   5.361   3.747 -0.2725  0.0871  0.2219
 2333TIP3    H1 7005   4.454   5.307   3.723  0.3594  1.0920 -0.0984
 2333TIP3    H2 7006   4.416   5.436   3.793 -0.9683  1.1771 -0.9382
 2334TIP3   OH2 7007   6.328   0.105   2.038  0.4759  0.2515  0.5574
 2334TIP3    H1 7008   6.394   0.147   2.092  1.4472 -1.1648  0.5388
 2334TIP3    H2 7009   6.299   0.029   2.089 -2.4124  1.6985  1.3192
 2335TIP3   OH2 7010   4.243   0.403   0.264 -0.4112  0.4241  0.6986
 2335TIP3    H1 7011   4.267   0.332   0.322 -1.3950  0.0217  0.6288
 2335TIP3    H2 7012   4.207   0.470   0.321  0.2599  0.7654  0.7338
 2336TIP3   OH2 7013   3.760   0.265   1.849 -0.4092 -0.2058  0.6042
 2336TIP3    H1 7014   3.759   0.270   1.945  0.4570 -0.3780  0.6303
 2336TIP3    H2 7015   3.836   0.317   1.824  2.4476 -4.0695  0.3120
 2337TIP3   OH2 7016   0.082   3.727   3.025 -0.3060  0.2046 -0.3962
 2337TIP3    H1 7017   0.138   3.689   2.958 -0.6744  1.3941 -1.4214
 2337TIP3    H2 7018   0.033   3.796   2.979 -2.5336 -0.7196  0.4667
 2338TIP3   OH2 7019   5.434   5.593   3.252  0.8475  0.3692 -0.7767
 2338TIP3    H1 7020   5.400   5.665   3.305 -0.1944  1.3849 -2.7054
 2338TIP3    H2 7021   5.458   5.634   3.169  1.6901 -1.2726 -1.3850
 2339TIP3   OH2 7022   0.400   5.527   0.126  0.4270 -0.0060 -0.1506
 2339TIP3    H1 7023   0.380   5.608   0.173 -2.0156 -0.0394 -0.9735
 2339TIP3    H2 7024   0.431   5.556   0.040  0.7208  0.0538 -0.0246
 2340TIP3   OH2 7025   5.436   3.008   4.741 -0.9811 -0.0352  0.8907
 2340TIP3    H1 7026   5.480   3.037   4.660  0.7011  0.0457  1.7907
 2340TIP3    H2 7027   5.347   2.987   4.713 -1.0456  1.9245 -0.6144
 2341TIP3   OH2 7028   0.419   1.491   1.931 -0.0106  0.0618  0.0425
 2341TIP3    H1 7029   0.342   1.538   1.901 -0.4532 -0.5477  0.1857
 2341TIP3    H2 7030   0.426   1.415   1.873  0.7534  0.3501 -0.2597
 2342TIP3   OH2 7031   6.262   1.752   4.029 -0.0951 -0.1161  0.0682
 2342TIP3    H1 7032   6.177   1.749   3.985 -0.2738  1.0903  0.3062
 2342TIP3    H2 7033   6.301   1.667   4.010 -2.1095 -1.4686  1.4713
 2343TIP3   OH2 7034   1.342   1.938   4.880 -0.2868 -0.4455  0.0854
 2343TIP3    H1 7035   1.423   1.888   4.867  1.0801  1.4229  0.8679
 2343TIP3    H2 7036   1.323   1.976   4.794 -0.2687 -0.8208 -0.0826
 2344TIP3   OH2 7037   2.684   5.615   2.631 -0.3556 -0.0162  0.0546
 2344TIP3    H1 7038   2.598   5.619   2.589 -0.7806 -1.7653  0.6775
 2344TIP3    H2 7039   2.746   5.604   2.559 -0.9469 -1.5865 -0.2401
 2345TIP3   OH2 7040   1.432   5.867   0.955  0.4661 -0.2470 -0.0055
 2345TIP3    H1 7041   1.528   5.869   0.957  0.5064  2.9949  0.4681
 2345TIP3    H2 7042   1.406   5.858   1.046  0.3389  0.1313 -0.0039
 2346TIP3   OH2 7043   3.696   5.036   3.225  0.1337  0.1755 -0.2911
 2346TIP3    H1 7044   3.698   5.109   3.288 -0.8502  1.0993 -1.2810
 2346TIP3    H2 7045   3.705   4.958   3.279  0.7844  1.0062  0.8511
 2347TIP3   OH2 7046   0.746   5.677   3.408 -0.2148  0.6007  0.8360
 2347TIP3    H1 7047   0.698   5.616   3.465  1.2191 -0.2643  1.1668
 2347TIP3    H2 7048   0.806   5.723   3.467 -0.0225  1.0370  0.3046
 2348TIP3   OH2 7049   3.773   1.427   4.383 -0.1225 -0.3231  0.0344
 2348TIP3    H1 7050   3.817   1.420   4.298  2.3888  0.4945  1.1841
 2348TIP3    H2 7051   3.818   1.364   4.439  1.7679  2.5847  2.0446
 2349TIP3   OH2 7052   4.224   5.903   4.772 -0.2545 -0.2323 -0.5986
 2349TIP3    H1 7053   4.217   5.986   4.724 -1.6270 -0.8153 -1.4657
 2349TIP3    H2 7054   4.318   5.892   4.787 -0.0280  1.3580 -0.6759
 2350TIP3   OH2 7055   1.488   4.080   0.020  0.1151  0.3480  0.4693
 2350TIP3    H1 7056   1.555   4.103   0.085 -0.3706 -0.5533  1.3338
 2350TIP3    H2 7057   1.489   3.984   0.019 -0.1654  0.3452 -0.5820
 2351TIP3   OH2 7058   0.753   2.431   4.192  0.1099 -0.9695 -0.3034
 2351TIP3    H1 7059   0.838   2.443   4.234  0.2588 -0.3724 -0.7727
 2351TIP3    H2 7060   0.756   2.342   4.156  0.8554 -0.6533 -1.0380
 2352TIP3   OH2 7061   4.135   3.627   3.463 -0.3026 -0.3931  0.3232
 2352TIP3    H1 7062   4.188   3.642   3.384 -1.7502  2.5238 -0.2183
 2352TIP3    H2 7063   4.068   3.564   3.436 -1.8248  1.8193 -1.4279
 2353TIP3   OH2 7064   5.989   1.118   2.233 -0.0186 -0.5838 -0.1440
 2353TIP3    H1 7065   6.050   1.160   2.294  1.5266  1.3515 -2.7829
 2353TIP3    H2 7066   6.021   1.028   2.225  1.5835 -0.0293 -0.2977
 2354TIP3   OH2 7067   3.051   1.703   4.477 -0.4821 -0.2997  0.3984
 2354TIP3    H1 7068   3.049   1.655   4.560  2.4696  0.9991  1.3440
 2354TIP3    H2 7069   3.088   1.640   4.415  0.4222 -0.2818  0.8924
 2355TIP3   OH2 7070   1.008   3.816   3.362 -0.4572  0.5646 -0.4751
 2355TIP3    H1 7071   0.966   3.788   3.444 -1.0026  0.1346 -0.8897
 2355TIP3    H2 7072   0.938   3.859   3.314 -1.0935 -2.0887 -2.1286
 2356TIP3   OH2 7073   0.817   0.446   2.509  0.6226  0.1556  0.3307
 2356TIP3    H1 7074   0.781   0.362   2.483 -0.6708 -0.2942  3.1727
 2356TIP3    H2 7075   0.902   0.425   2.548  0.2629  0.1141  1.1178
 2357TIP3   OH2 7076   1.401   5.551   1.350  0.5027  0.2284 -0.4627
 2357TIP3    H1 7077   1.446   5.602   1.417 -0.4108 -0.5554  0.7954
 2357TIP3    H2 7078   1.314   5.591   1.344  0.1874 -0.4199 -0.3200
 2358TIP3   OH2 7079   3.030   0.490   1.702 -0.2370 -0.3614  0.2621
 2358TIP3    H1 7080   3.030   0.432   1.778  2.4433 -1.6197 -0.5734
 2358TIP3    H2 7081   3.093   0.450   1.642  0.1228  2.3069 -1.2641
 2359TIP3   OH2 7082   5.526   4.464   5.083  0.0105 -0.1767  0.4502
 2359TIP3    H1 7083   5.448   4.501   5.041 -1.0902 -2.2071  0.5813
 2359TIP3    H2 7084   5.565   4.538   5.129 -1.5201  1.0254 -0.0713
 2360TIP3   OH2 7085   5.723   2.098   2.074 -0.4407 -0.0623  0.2263
 2360TIP3    H1 7086   5.755   2.026   2.130  1.8527  0.8458  0.1917
 2360TIP3    H2 7087   5.768   2.084   1.991 -0.6350  0.9223 -0.0450
 2361TIP3   OH2 7088   4.777   2.939   5.122 -0.3815 -0.9343  0.0988
 2361TIP3    H1 7089   4.778   2.947   5.027  0.2890 -0.3279  0.1468
 2361TIP3    H2 7090   4.752   3.026   5.154  0.0164 -0.9565  0.4857
 2362TIP3   OH2 7091   0.543   3.046   4.665 -0.0669  0.3857  0.3051
 2362TIP3    H1 7092   0.572   3.030   4.575  1.5736  1.2036  0.6398
 2362TIP3    H2 7093   0.509   2.961   4.694  1.3541 -0.4791 -0.4033
 2363TIP3   OH2 7094   4.253   2.327   1.741 -0.1110 -0.1239  0.0891
 2363TIP3    H1 7095   4.189   2.386   1.701 -1.1509 -1.3159 -0.0902
 2363TIP3    H2 7096   4.202   2.250   1.765  1.3063 -1.1998 -0.2257
 2364TIP3   OH2 7097   0.927   2.712   4.072  0.5266  0.3376  0.2168
 2364TIP3    H1 7098   0.988   2.785   4.075  1.4807 -0.4476  0.4910
 2364TIP3    H2 7099   0.914   2.687   4.163 -1.7030  1.6775  0.3223
 2365TIP3   OH2 7100   1.214   3.383   3.999 -0.0686  0.8701 -0.5841
 2365TIP3    H1 7101   1.248   3.453   4.054 -1.5491  0.9041  0.3503
 2365TIP3    H2 7102   1.220   3.304   4.054 -1.3559  0.8620 -0.4204
 2366TIP3   OH2 7103   2.128   0.220   2.686  0.0398  0.7455 -0.3400
 2366TIP3    H1 7104   2.060   0.168   2.730 -0.1505  0.4751 -0.9404
 2366TIP3    H2 7105   2.206   0.164   2.687 -0.1440  0.4721 -0.9183
 2367TIP3   OH2 7106   4.287   5.075   1.293  0.2274  0.6916  0.2303
 2367TIP3    H1 7107   4.280   5.139   1.222 -0.9926  0.7952  0.4236
 2367TIP3    H2 7108   4.308   5.128   1.370 -0.4584  0.8358  0.3266
 2368TIP3   OH2 7109   4.562   1.647   1.431  0.2867  0.2422 -0.0657
 2368TIP3    H1 7110   4.547   1.704   1.356  1.4734 -1.3513 -1.5735
 2368TIP3    H2 7111   4.514   1.567   1.411 -0.6166  0.3188  1.6041
 2369TIP3   OH2 7112   5.954   1.438   3.376  0.4658  0.4932  0.0643
 2369TIP3    H1 7113   5.973   1.454   3.284  0.0551 -0.3667 -0.1914
 2369TIP3    H2 7114   5.859   1.448   3.383  0.3309 -0.6548  0.1110
 2370TIP3   OH2 7115   1.581   1.353   3.305 -0.0799 -0.1915  0.4902
 2370TIP3    H1 7116   1.529   1.318   3.378 -1.3221 -0.2759 -0.3937
 2370TIP3    H2 7117   1.520   1.408   3.256  0.5924 -0.4920 -0.7390
 2371TIP3   OH2 7118   5.602   2.548   3.945 -0.1784  0.4686  0.5565
 2371TIP3    H1 7119   5.532   2.488   3.972  0.8937 -0.6975  0.8496
 2371TIP3    H2 7120   5.665   2.493   3.899 -0.3304  1.8396 -1.3977
 2372TIP3   OH2 7121   1.767   4.096   2.854 -0.0077  0.1415 -0.3666
 2372TIP3    H1 7122   1.792   4.149   2.778 -1.0791 -0.9445 -1.5184
 2372TIP3    H2 7123   1.851   4.066   2.890  0.5226  0.1443 -1.5323
 2373TIP3   OH2 7124   1.810   1.697   2.981 -0.2568 -0.2726  0.0985
 2373TIP3    H1 7125   1.832   1.610   3.014  0.4924 -0.3165 -0.5003
 2373TIP3    H2 7126   1.828   1.756   3.054  1.4537 -0.3602 -0.2171
 2374TIP3   OH2 7127   0.939   5.600   2.101  0.0487  0.3428  0.3942
 2374TIP3    H1 7128   0.877   5.553   2.045 -0.3313 -0.1228  1.1742
 2374TIP3    H2 7129   0.923   5.563   2.188  0.1394  1.5305  0.9255
 2375TIP3   OH2 7130   3.428   3.584   1.237 -0.2793  0.4599 -0.4289
 2375TIP3    H1 7131   3.344   3.593   1.192  0.2306  4.3422 -0.9636
 2375TIP3    H2 7132   3.413   3.517   1.303 -3.3234 -0.0246 -1.4489
 2376TIP3   OH2 7133   5.439   5.410   1.285 -0.3184 -0.0608  0.4015
 2376TIP3    H1 7134   5.506   5.459   1.334  0.8679 -1.1538 -0.0852
 2376TIP3    H2 7135   5.359   5.462   1.297  0.1637  0.3033  2.5750
 2377TIP3   OH2 7136   0.775   3.969   4.082 -0.0456 -0.0189 -0.0276
 2377TIP3    H1 7137   0.780   3.985   4.177 -1.5056  1.6899 -0.1759
 2377TIP3    H2 7138   0.760   4.056   4.044 -0.7680 -0.8339 -1.7167
 2378TIP3   OH2 7139   5.727   4.691   0.187 -0.2565 -0.9854  0.0064
 2378TIP3    H1 7140   5.713   4.654   0.100 -1.0465  0.8415 -0.6762
 2378TIP3    H2 7141   5.681   4.775   0.186 -0.0031 -0.7697  2.0809
 2379TIP3   OH2 7142   5.918   0.370   1.763  0.1701  0.2432 -0.0969
 2379TIP3    H1 7143   5.911   0.277   1.786 -0.0027  0.1989 -0.3218
 2379TIP3    H2 7144   5.947   0.412   1.844  0.9219 -0.1018 -0.1821
 2380TIP3   OH2 7145   4.671   0.903   3.332 -0.0375  0.1967  0.1956
 2380TIP3    H1 7146   4.638   0.983   3.292 -0.8013  0.1437  0.7057
 2380TIP3    H2 7147   4.692   0.846   3.258 -1.3559  0.1258 -0.1428
 2381TIP3   OH2 7148   4.317   4.694   1.816 -0.0677  0.1246 -0.5071
 2381TIP3    H1 7149   4.301   4.788   1.808 -0.3076  0.1468  0.1503
 2381TIP3    H2 7150   4.246   4.663   1.872  0.1898 -0.3991 -0.4658
 2382TIP3   OH2 7151   3.996   3.121   4.394  0.3857 -0.4788 -0.0184
 2382TIP3    H1 7152   3.963   3.124   4.304 -0.0795  0.8763  0.1688
 2382TIP3    H2 7153   4.048   3.040   4.398 -1.0275 -1.4742 -0.9805
 2383TIP3   OH2 7154   2.936   3.405   4.293 -0.2667 -0.6591  0.2114
 2383TIP3    H1 7155   3.029   3.394   4.313 -0.4341 -2.7142  0.0361
 2383TIP3    H2 7156   2.894   3.328   4.332 -1.4398 -1.5210 -2.5601
 2384TIP3   OH2 7157   2.344   2.389   2.146  0.6932 -0.3285  0.1491
 2384TIP3    H1 7158   2.353   2.480   2.118  3.0227  0.4607  2.9424
 2384TIP3    H2 7159   2.348   2.339   2.065  0.1099  1.9813 -1.4217
 2385TIP3   OH2 7160   2.821   3.741   1.177 -0.3144 -0.5766 -0.6180
 2385TIP3    H1 7161   2.834   3.786   1.260  0.7603  0.1696 -1.1746
 2385TIP3    H2 7162   2.772   3.803   1.124  1.2667  0.0295 -1.4267
 2386TIP3   OH2 7163   2.535   0.598   4.678 -0.1120 -0.0207 -0.3463
 2386TIP3    H1 7164   2.452   0.641   4.656 -1.5139 -1.4642  1.7077
 2386TIP3    H2 7165   2.564   0.644   4.757  0.2636 -0.5003 -0.2074
 2387TIP3   OH2 7166   5.668   5.681   0.014 -0.1321  0.7166 -0.1737
 2387TIP3    H1 7167   5.661   5.636  -0.070  0.1812  0.4076 -0.0394
 2387TIP3    H2 7168   5.656   5.612   0.079  0.4463  0.8087  0.0362
 2388TIP3   OH2 7169   4.495   4.767   2.656  0.0554 -0.2020 -0.3717
 2388TIP3    H1 7170   4.484   4.827   2.730  0.3388 -0.1783 -0.3456
 2388TIP3    H2 7171   4.431   4.697   2.672  1.7897 -1.5324  1.2769
 2389TIP3   OH2 7172   1.270   2.383   4.369 -0.7625  0.1970 -0.0934
 2389TIP3    H1 7173   1.230   2.413   4.451 -1.5013 -0.2951 -0.2581
 2389TIP3    H2 7174   1.350   2.339   4.396 -0.3088  1.2058  0.2504
 2390TIP3   OH2 7175   0.107   5.794   1.625 -0.1329  0.0420  0.7068
 2390TIP3    H1 7176   0.162   5.852   1.572 -0.9213 -0.3146 -0.5415
 2390TIP3    H2 7177   0.114   5.829   1.714  0.7317  1.0329  0.2708
 2391TIP3   OH2 7178   4.502   2.482   1.202 -0.4304 -0.5078 -0.1794
 2391TIP3    H1 7179   4.422   2.511   1.157  0.6858  2.6946 -0.3879
 2391TIP3    H2 7180   4.490   2.513   1.292  1.2165  1.7268 -0.6281
 2392TIP3   OH2 7181   0.946   2.466   3.447 -0.2958 -0.3319  0.4457
 2392TIP3    H1 7182   0.973   2.375   3.439  0.6296 -0.0766  0.4587
 2392TIP3    H2 7183   0.969   2.490   3.537  0.8690  0.3215  0.0028
 2393TIP3   OH2 7184   1.398   3.495   4.392 -0.0246 -0.3197  0.0473
 2393TIP3    H1 7185   1.355   3.515   4.309 -0.7940  0.9460  0.7264
 2393TIP3    H2 7186   1.416   3.580   4.432  1.8506 -0.8427  0.4512
 2394TIP3   OH2 7187   3.219   5.010   1.026 -0.5911 -0.0853  0.2299
 2394TIP3    H1 7188   3.231   4.917   1.044  1.7128  0.3174  1.1195
 2394TIP3    H2 7189   3.168   5.013   0.945  0.8693 -2.1498 -0.8428
 2395TIP3   OH2 7190   4.980   0.126   0.632  0.4161 -0.5521 -0.5983
 2395TIP3    H1 7191   4.911   0.173   0.586  0.1689  0.1330  0.4356
 2395TIP3    H2 7192   5.026   0.194   0.682  0.1929 -1.3587  0.7491
 2396TIP3   OH2 7193   2.395   2.327   1.576  0.7907 -0.2908 -0.5795
 2396TIP3    H1 7194   2.302   2.317   1.559  0.4555  2.4144 -0.8727
 2396TIP3    H2 7195   2.438   2.280   1.505 -0.4074  0.2497 -1.7121
 2397TIP3   OH2 7196   1.088   3.910   1.530  0.0161 -0.0318 -0.6226
 2397TIP3    H1 7197   1.054   3.822   1.549  1.4556 -0.3605  0.5882
 2397TIP3    H2 7198   1.179   3.896   1.504 -0.2834  0.9616 -2.3799
 2398TIP3   OH2 7199   2.635   3.762   1.574 -0.2153 -0.9206  0.4694
 2398TIP3    H1 7200   2.682   3.837   1.536 -2.8786  0.9602  0.5777
 2398TIP3    H2 7201   2.577   3.732   1.504 -1.3781 -0.8532  1.3791
 2399TIP3   OH2 7202   5.133   3.378   5.040  0.5045  0.4600 -0.1973
 2399TIP3    H1 7203   5.150   3.303   4.982  0.6439  0.5036 -0.2136
 2399TIP3    H2 7204   5.217   3.423   5.045  0.2829  0.9239 -0.6231
 2400TIP3   OH2 7205   0.761   0.730   0.671  0.7908  0.3456  0.2406
 2400TIP3    H1 7206   0.801   0.743   0.758  1.0159  0.2203  0.1568
 2400TIP3    H2 7207   0.747   0.819   0.638  0.2788  0.4015  0.5979
 2401TIP3   OH2 7208   5.959   5.933   4.394  0.3663 -0.3001 -1.0511
 2401TIP3    H1 7209   5.873   5.973   4.398  0.0770 -0.9724  0.0018
 2401TIP3    H2 7210   6.019   6.002   4.422 -0.3613 -1.0977  3.2555
 2402TIP3   OH2 7211   3.194   0.344   4.355  0.2175 -0.2850 -0.3892
 2402TIP3    H1 7212   3.243   0.402   4.296 -2.0950 -0.1388 -2.3218
 2402TIP3    H2 7213   3.150   0.282   4.296 -2.2664 -0.0976  1.1359
 2403TIP3   OH2 7214   2.438   2.681   4.983  0.4944 -0.2751 -0.1905
 2403TIP3    H1 7215   2.392   2.762   5.000 -2.2648 -1.2469 -2.3023
 2403TIP3    H2 7216   2.477   2.693   4.897  0.7533 -0.9176 -0.1712
 2404TIP3   OH2 7217   3.448   5.316   2.609 -0.4977  0.0877  0.5037
 2404TIP3    H1 7218   3.486   5.230   2.625 -2.9424 -1.1504  0.1727
 2404TIP3    H2 7219   3.416   5.345   2.695 -1.2716 -0.1973  0.3250
 2405TIP3   OH2 7220   0.902   5.401   2.326 -0.7458  0.3732 -0.1146
 2405TIP3    H1 7221   0.992   5.368   2.330 -1.3989 -1.3877  1.7516
 2405TIP3    H2 7222   0.858   5.343   2.263 -0.3643  1.9392 -1.8962
 2406TIP3   OH2 7223   2.131   0.980   5.117 -0.5901  0.0238 -0.2749
 2406TIP3    H1 7224   2.166   1.047   5.058  0.4789 -1.1478 -1.0362
 2406TIP3    H2 7225   2.036   0.987   5.110 -0.5558  2.3754  0.7557
 2407TIP3   OH2 7226   6.224   5.798   4.421  1.1008 -0.7262 -0.4950
 2407TIP3    H1 7227   6.237   5.748   4.341 -0.2100 -1.2309 -0.4033
 2407TIP3    H2 7228   6.133   5.827   4.418  1.6257  1.0592 -0.1963
 2408TIP3   OH2 7229   1.118   0.021   0.595 -0.0168  0.2127 -0.0167
 2408TIP3    H1 7230   1.057  -0.052   0.586  0.4232 -0.0763 -0.8680
 2408TIP3    H2 7231   1.143   0.042   0.504  0.9485  0.4795  0.2961
 2409TIP3   OH2 7232   4.003   0.179   2.764 -0.6935 -0.3257 -0.6776
 2409TIP3    H1 7233   4.010   0.112   2.696 -0.3844 -0.6142 -0.3689
 2409TIP3    H2 7234   3.927   0.153   2.815 -1.4775  0.3989 -1.4497
 2410TIP3   OH2 7235   2.393   3.747   0.599 -0.7083 -0.0495 -0.2780
 2410TIP3    H1 7236   2.415   3.777   0.511 -2.5386  0.7600 -0.4991
 2410TIP3    H2 7237   2.463   3.782   0.654  1.0708 -1.5018 -1.5100
 2411TIP3   OH2 7238   4.407   1.833   2.597  0.3732 -0.1190  0.2936
 2411TIP3    H1 7239   4.325   1.791   2.621  0.2311 -0.2584 -0.4096
 2411TIP3    H2 7240   4.470   1.761   2.590  0.2035 -0.1925 -0.6016
 2412TIP3   OH2 7241   2.752   1.824   2.430  0.7457  0.0206  0.3887
 2412TIP3    H1 7242   2.713   1.755   2.376 -0.6797 -0.3168  1.7744
 2412TIP3    H2 7243   2.755   1.900   2.373  2.4736 -1.1621 -1.2358
 2413TIP3   OH2 7244   5.285   3.519   4.138  0.3488  0.4841  0.3087
 2413TIP3    H1 7245   5.285   3.453   4.208 -0.8195 -1.1162 -1.1102
 2413TIP3    H2 7246   5.374   3.517   4.102 -0.2360 -2.0897 -1.2183
 2414TIP3   OH2 7247   5.597   3.333   3.195 -0.0913  0.4222 -0.3539
 2414TIP3    H1 7248   5.537   3.325   3.121 -0.8794  0.8222  0.2265
 2414TIP3    H2 7249   5.684   3.339   3.154 -0.6053  1.8595 -1.3261
 2415TIP3   OH2 7250   0.298   3.240   1.572 -0.5372 -0.0638 -0.6265
 2415TIP3    H1 7251   0.289   3.311   1.509  0.7484 -0.9660 -1.9113
 2415TIP3    H2 7252   0.241   3.171   1.539  1.7231 -1.3610 -2.1553
 2416TIP3   OH2 7253   1.014   2.131   3.861  0.4191 -0.2054  0.2061
 2416TIP3    H1 7254   0.998   2.101   3.772  2.0747 -4.4728  1.1297
 2416TIP3    H2 7255   1.108   2.120   3.874  0.2730  0.5885  2.4265
 2417TIP3   OH2 7256   3.744   1.646   3.404 -0.0931  0.0918 -0.2501
 2417TIP3    H1 7257   3.652   1.665   3.419 -0.1575 -0.2502 -0.2100
 2417TIP3    H2 7258   3.789   1.729   3.422 -0.5543  0.7676 -1.9969
 2418TIP3   OH2 7259   2.165   0.690   0.949  0.4093 -0.1112 -0.3703
 2418TIP3    H1 7260   2.259   0.681   0.966  0.5079 -0.3258 -1.0198
 2418TIP3    H2 7261   2.140   0.770   0.997  1.2229  0.7605 -1.3398
 2419TIP3   OH2 7262   0.341   5.942   3.048 -0.5782 -0.0247 -0.2278
 2419TIP3    H1 7263   0.431   5.909   3.043 -0.9597 -0.8697 -2.5631
 2419TIP3    H2 7264   0.349   6.035   3.029 -0.2261 -0.1797 -0.8689
 2420TIP3   OH2 7265   0.694   3.777   1.280 -0.0609 -0.0486 -0.2745
 2420TIP3    H1 7266   0.700   3.840   1.208 -1.0371 -0.3936 -0.6784
 2420TIP3    H2 7267   0.625   3.717   1.253  0.1702 -0.7082  0.5600
 2421TIP3   OH2 7268   3.795   4.274   2.188 -0.0862  0.5665 -0.2872
 2421TIP3    H1 7269   3.802   4.187   2.148 -1.0174  1.7252 -3.3037
 2421TIP3    H2 7270   3.710   4.274   2.232 -1.2221  0.6230 -2.3583
 2422TIP3   OH2 7271   4.116   0.603   4.685  0.2298 -0.1088  0.5013
 2422TIP3    H1 7272   4.197   0.633   4.643  0.4589 -1.3193  0.0576
 2422TIP3    H2 7273   4.101   0.516   4.649 -0.3212 -0.6249  1.9125
 2423TIP3   OH2 7274   2.086   0.041   3.111 -0.3857 -0.3924 -0.2333
 2423TIP3    H1 7275   2.112  -0.001   3.029  0.8038  1.8208 -1.0839
 2423TIP3    H2 7276   2.141  -0.000   3.177 -0.2194 -1.1026 -0.8004
 2424TIP3   OH2 7277   0.118   4.222   1.548  0.3735  0.1092  0.1292
 2424TIP3    H1 7278   0.176   4.254   1.617 -2.0277  0.7643  1.9757
 2424TIP3    H2 7279   0.077   4.144   1.585 -0.1602 -0.1788 -1.0224
 2425TIP3   OH2 7280   1.955   1.781   1.984 -0.2570  0.4145  0.2940
 2425TIP3    H1 7281   1.993   1.868   1.981  0.5098  0.0877  0.2496
 2425TIP3    H2 7282   2.029   1.722   1.996 -0.8219 -0.1909  0.9659
 2426TIP3   OH2 7283   4.161   3.406   1.352 -0.2612 -0.4010 -0.3829
 2426TIP3    H1 7284   4.121   3.322   1.373 -0.1456 -0.3032  0.2470
 2426TIP3    H2 7285   4.214   3.389   1.274  0.6623 -1.1806  0.3912
 2427TIP3   OH2 7286   4.248   0.158   2.273 -0.3060  0.3838  0.4047
 2427TIP3    H1 7287   4.165   0.119   2.245 -0.2452  0.0441  0.6945
 2427TIP3    H2 7288   4.314   0.117   2.216  0.0419 -1.5954  2.1268
 2428TIP3   OH2 7289   3.909   0.546   2.587 -0.2858 -0.0713  0.1227
 2428TIP3    H1 7290   3.875   0.513   2.670  0.1715 -1.9163 -0.3713
 2428TIP3    H2 7291   3.848   0.513   2.521  1.6278 -2.3746 -0.6494
 2429TIP3   OH2 7292   5.187   2.288   4.105  0.2437  0.6303 -0.5009
 2429TIP3    H1 7293   5.191   2.224   4.176 -0.8266  1.5359  0.4137
 2429TIP3    H2 7294   5.222   2.241   4.029 -3.0184 -2.0675 -0.5728
 2430TIP3   OH2 7295   0.300   4.397   3.829  0.5378  0.2965 -0.1401
 2430TIP3    H1 7296   0.306   4.364   3.739  3.4701 -1.2545  0.4896
 2430TIP3    H2 7297   0.297   4.318   3.883 -0.7290  1.2046  1.1707
 2431TIP3   OH2 7298   4.049   1.722   1.042 -1.0330  0.2183 -0.3291
 2431TIP3    H1 7299   4.027   1.629   1.040 -2.2552  0.3172  2.5456
 2431TIP3    H2 7300   4.122   1.727   1.104 -2.7220  1.3144  1.7424
 2432TIP3   OH2 7301   4.915   1.792   2.766  0.4229  0.1066 -0.1234
 2432TIP3    H1 7302   4.947   1.715   2.719 -1.2315 -0.7289  0.0403
 2432TIP3    H2 7303   4.992   1.847   2.777  1.4995 -1.1759 -0.9187
 2433TIP3   OH2 7304   5.910   2.462   5.160 -0.3250  0.7084  0.4098
 2433TIP3    H1 7305   5.997   2.487   5.130  0.2693  0.4449  1.8383
 2433TIP3    H2 7306   5.857   2.541   5.148  0.3641  1.1888  0.4791
 2434TIP3   OH2 7307   6.305   2.072   2.974  0.5959  0.0841 -0.2726
 2434TIP3    H1 7308   6.396   2.091   2.999  0.5253  0.1692 -0.0798
 2434TIP3    H2 7309   6.311   2.046   2.882  0.4924  2.5171 -1.0218
 2435TIP3   OH2 7310   0.548   0.522   3.886  0.0232  0.0833  0.8722
 2435TIP3    H1 7311   0.487   0.490   3.952  0.2378  1.5152  1.7990
 2435TIP3    H2 7312   0.522   0.613   3.870  0.3144 -0.0672 -0.6261
 2436TIP3   OH2 7313   4.127   5.835   1.867  0.2363 -0.2209 -0.5203
 2436TIP3    H1 7314   4.064   5.895   1.907 -0.4938 -1.5214  0.3496
 2436TIP3    H2 7315   4.203   5.889   1.849 -0.6069  1.0910 -0.3031
 2437TIP3   OH2 7316   3.569   1.685   4.192  0.4832  0.6227 -0.0044
 2437TIP3    H1 7317   3.583   1.702   4.285 -1.0056 -0.8397  0.5337
 2437TIP3    H2 7318   3.557   1.772   4.153 -0.9838  1.1658  1.5502
 2438TIP3   OH2 7319   1.225   4.920   2.405  0.5525  0.3495 -0.2185
 2438TIP3    H1 7320   1.162   4.944   2.338  1.5885 -1.5624 -2.0027
 2438TIP3    H2 7321   1.204   4.829   2.428  2.3222 -0.1974 -0.5568
 2439TIP3   OH2 7322   3.412   0.985   1.969 -0.1129  0.0067  0.3675
 2439TIP3    H1 7323   3.348   0.958   2.034  0.8747 -0.1773  1.2931
 2439TIP3    H2 7324   3.376   1.066   1.932 -1.6411 -0.9516 -0.2941
 2440TIP3   OH2 7325   4.570   2.112   2.189 -0.0254 -0.3167  0.2479
 2440TIP3    H1 7326   4.515   2.130   2.265 -1.0159  0.5115 -0.6191
 2440TIP3    H2 7327   4.658   2.138   2.215 -0.1651 -0.9898  1.4344
 2441TIP3   OH2 7328   3.512   2.122   1.145  0.0943 -0.0431  0.3797
 2441TIP3    H1 7329   3.478   2.103   1.058 -0.9749  0.0662  0.7593
 2441TIP3    H2 7330   3.588   2.065   1.155 -0.1960 -0.5646 -0.3552
 2442TIP3   OH2 7331   1.988   3.138   0.448 -0.4868  0.2532 -0.3899
 2442TIP3    H1 7332   2.029   3.080   0.512 -0.6691 -1.7161 -1.9197
 2442TIP3    H2 7333   1.895   3.138   0.471 -0.2588  1.2619  0.5639
 2443TIP3   OH2 7334   1.883   2.253   3.563  0.0920 -0.2434  0.1020
 2443TIP3    H1 7335   1.960   2.233   3.617 -0.6838 -1.6516  0.7427
 2443TIP3    H2 7336   1.811   2.263   3.625 -0.7670 -1.6619 -0.6072
 2444TIP3   OH2 7337   5.319   2.723   4.871  0.0871 -0.5336 -0.0144
 2444TIP3    H1 7338   5.246   2.782   4.853 -0.4989 -0.8021  1.3958
 2444TIP3    H2 7339   5.279   2.637   4.882  0.5233 -0.5919  1.3041
 2445TIP3   OH2 7340   5.325   2.463   0.251 -0.0440  0.7149 -0.1568
 2445TIP3    H1 7341   5.396   2.525   0.231  1.1776 -0.0557  1.5357
 2445TIP3    H2 7342   5.303   2.481   0.342 -2.0743  0.9218 -0.6423
 2446TIP3   OH2 7343   1.005   4.066   2.555 -0.5422  0.2099 -0.6840
 2446TIP3    H1 7344   1.047   3.980   2.552  0.5580  0.7550 -3.1170
 2446TIP3    H2 7345   1.051   4.111   2.626  1.4313 -0.0397 -1.7121
 2447TIP3   OH2 7346   3.940   5.856   4.171 -0.2793 -0.1523 -0.1835
 2447TIP3    H1 7347   3.845   5.854   4.168 -0.3086 -2.7795  0.3173
 2447TIP3    H2 7348   3.963   5.944   4.139 -2.8762  1.3131  1.5805
 2448TIP3   OH2 7349   0.289   0.885   1.170 -0.4358  0.0319 -0.3613
 2448TIP3    H1 7350   0.321   0.931   1.093 -0.0871 -1.3478 -1.0577
 2448TIP3    H2 7351   0.244   0.808   1.136  0.2123 -0.9083  0.8203
 2449TIP3   OH2 7352   6.043   5.106   2.157 -0.0036 -0.1909 -0.1579
 2449TIP3    H1 7353   6.055   5.011   2.157  1.3740 -0.0464  0.7839
 2449TIP3    H2 7354   6.098   5.136   2.085  0.2429 -0.0420  0.0919
 2450TIP3   OH2 7355   2.497   4.355   4.674  0.6099  0.1384  0.6796
 2450TIP3    H1 7356   2.458   4.443   4.666  1.0626  0.1895 -1.3618
 2450TIP3    H2 7357   2.570   4.367   4.734  0.1450  0.9739  1.0969
 2451TIP3   OH2 7358   3.918   1.420   0.530  0.3261  1.1453  0.2269
 2451TIP3    H1 7359   3.865   1.340   0.532 -0.0120  1.0377 -4.0328
 2451TIP3    H2 7360   3.864   1.486   0.573 -0.4179 -0.3329  1.6802
 2452TIP3   OH2 7361   4.959   2.704   4.625 -0.3345  0.1293 -0.0397
 2452TIP3    H1 7362   4.866   2.725   4.615 -0.1733  0.5264 -0.8457
 2452TIP3    H2 7363   4.976   2.714   4.718 -0.2190  4.1175 -0.3032
 2453TIP3   OH2 7364   5.956   0.397   0.383  0.2119 -0.3720  0.3711
 2453TIP3    H1 7365   5.980   0.449   0.307 -0.8485 -2.0338 -1.1627
 2453TIP3    H2 7366   6.026   0.415   0.447  0.9283  1.3306 -0.8080
 2454TIP3   OH2 7367   2.120   3.651   0.231  0.2611  0.1274  0.1827
 2454TIP3    H1 7368   2.097   3.626   0.141  0.0059  1.0218 -0.0090
 2454TIP3    H2 7369   2.072   3.588   0.285 -0.3359  0.1553 -0.2906
 2455TIP3   OH2 7370   4.968   4.197   4.928  0.4481 -0.9237 -0.0166
 2455TIP3    H1 7371   4.950   4.154   4.845 -2.0413  1.7364 -1.0402
 2455TIP3    H2 7372   4.896   4.169   4.985 -0.8595  1.1906 -0.5114
 2456TIP3   OH2 7373   0.092   3.076   4.410  0.1743 -0.4216 -0.0937
 2456TIP3    H1 7374   0.034   3.024   4.466 -0.2499 -0.8743 -0.9394
 2456TIP3    H2 7375   0.132   3.012   4.351 -1.8902  0.3943 -2.5144
 2457TIP3   OH2 7376   3.896   3.352   2.532  0.7232 -0.2116 -0.5217
 2457TIP3    H1 7377   3.969   3.294   2.555 -0.8320 -1.5567  1.3805
 2457TIP3    H2 7378   3.858   3.314   2.454  0.2301 -1.3334  0.2375
 2458TIP3   OH2 7379   2.170   5.654   1.019  0.6081  0.0769 -0.1315
 2458TIP3    H1 7380   2.132   5.712   1.085  0.3805  0.3074 -0.4633
 2458TIP3    H2 7381   2.264   5.670   1.024  0.5614  0.3298 -0.0889
 2459TIP3   OH2 7382   1.076   1.702   1.598 -0.1123  0.0267 -0.6188
 2459TIP3    H1 7383   1.081   1.717   1.504 -2.1718  0.2643 -0.7509
 2459TIP3    H2 7384   1.018   1.771   1.630  0.0995 -0.3899  0.7336
 2460TIP3   OH2 7385   0.689   5.706   3.867 -0.0600 -0.5309  0.2887
 2460TIP3    H1 7386   0.665   5.708   3.959  0.3887 -1.7795  0.4592
 2460TIP3    H2 7387   0.608   5.722   3.820 -0.1999  0.6244  0.8977
 2461TIP3   OH2 7388   4.019   2.156   0.145 -0.1354  0.2978  0.2574
 2461TIP3    H1 7389   4.045   2.075   0.100 -1.8831 -1.8887  2.8333
 2461TIP3    H2 7390   4.100   2.205   0.155  1.2969 -1.8499 -0.1253
 2462TIP3   OH2 7391   1.122   1.456   2.211 -0.1146  0.0875 -0.1833
 2462TIP3    H1 7392   1.048   1.409   2.249 -1.8882  1.8302 -1.2686
 2462TIP3    H2 7393   1.121   1.431   2.118  0.7517  0.0475 -0.1904
 2463TIP3   OH2 7394   3.277   0.388   3.586  0.0765  0.0050  0.1237
 2463TIP3    H1 7395   3.215   0.343   3.529 -0.1682  0.2829  0.1663
 2463TIP3    H2 7396   3.228   0.406   3.666  0.2484  0.1155  0.2054
 2464TIP3   OH2 7397   1.132   3.809   2.590 -0.1835 -0.4477  0.1416
 2464TIP3    H1 7398   1.152   3.811   2.496 -0.5370 -0.2585  0.0658
 2464TIP3    H2 7399   1.213   3.838   2.632  0.3333 -1.5673 -0.0336
 2465TIP3   OH2 7400   4.961   3.802   2.074  0.1775 -0.3392  0.2804
 2465TIP3    H1 7401   5.051   3.835   2.079 -0.0172  0.3262 -0.3946
 2465TIP3    H2 7402   4.911   3.876   2.040 -0.6773 -0.6125  0.9224
 2466TIP3   OH2 7403   1.800   1.654   3.927 -0.4503  0.8712  0.3443
 2466TIP3    H1 7404   1.809   1.729   3.869 -1.6609  0.0721 -0.9722
 2466TIP3    H2 7405   1.721   1.672   3.978 -0.4812  0.7066  0.3574
 2467TIP3   OH2 7406   4.291   1.816   4.972  0.2101  0.7055 -0.2763
 2467TIP3    H1 7407   4.268   1.906   4.947 -0.3326  0.3533 -1.0948
 2467TIP3    H2 7408   4.326   1.777   4.892 -0.2165 -0.0275 -0.1174
 2468TIP3   OH2 7409   3.124   2.416   5.000  0.3173  0.7470  0.1441
 2468TIP3    H1 7410   3.045   2.365   4.981  0.4794  1.0628 -1.5196
 2468TIP3    H2 7411   3.095   2.507   4.997  0.3622  0.8268  1.5119
 2469TIP3   OH2 7412   3.866   0.412   3.397 -0.0751  0.1307 -0.2505
 2469TIP3    H1 7413   3.913   0.490   3.427 -0.0225 -1.2329  3.8030
 2469TIP3    H2 7414   3.931   0.341   3.402 -1.2134 -0.9060  0.5532
 2470TIP3   OH2 7415   3.845   4.354   3.681 -0.0485 -0.3367  0.4531
 2470TIP3    H1 7416   3.892   4.272   3.696 -0.5039 -0.6095  0.4166
 2470TIP3    H2 7417   3.903   4.422   3.715  1.3632 -0.4538 -1.5322
 2471TIP3   OH2 7418   5.619   5.725   1.212 -0.0880 -0.8253  0.7053
 2471TIP3    H1 7419   5.708   5.691   1.221  0.8802  1.1679 -0.6627
 2471TIP3    H2 7420   5.625   5.817   1.239 -1.5725 -0.4567 -0.1109
 2472TIP3   OH2 7421   0.142   5.515   4.645 -0.1140  0.2731 -0.0764
 2472TIP3    H1 7422   0.149   5.482   4.735  0.8368  0.0575 -0.2217
 2472TIP3    H2 7423   0.183   5.601   4.647 -1.9457  1.1844  0.1381
 2473TIP3   OH2 7424   1.633   1.837   5.055  0.2769 -0.1177  0.3631
 2473TIP3    H1 7425   1.608   1.839   5.148 -2.7222 -0.6343 -0.3415
 2473TIP3    H2 7426   1.643   1.744   5.035  1.4263  0.0143  0.2340
 2474TIP3   OH2 7427   1.761   0.126   1.307  0.0135  0.5731  0.3965
 2474TIP3    H1 7428   1.789   0.037   1.287 -0.0213  0.0937  2.3691
 2474TIP3    H2 7429   1.839   0.168   1.343 -0.7095  0.4453  2.1656
 2475TIP3   OH2 7430   1.001   5.370   0.592  0.0768  0.2110  0.0139
 2475TIP3    H1 7431   1.007   5.380   0.497 -1.5768 -0.0189 -0.1411
 2475TIP3    H2 7432   1.002   5.459   0.626  1.0666  0.2811 -0.1840
 2476TIP3   OH2 7433   5.159   4.478   1.317 -0.1001  0.0531 -0.0992
 2476TIP3    H1 7434   5.198   4.479   1.404  2.2188  2.2538 -1.0808
 2476TIP3    H2 7435   5.065   4.470   1.334  0.2655  0.4748  2.5897
 2477TIP3   OH2 7436   3.285   3.538   1.778  0.0074  0.2251  1.0933
 2477TIP3    H1 7437   3.258   3.594   1.851  0.3929 -0.2255  1.5887
 2477TIP3    H2 7438   3.376   3.515   1.798  0.4413  0.9119 -0.0427
 2478TIP3   OH2 7439   3.847   4.046   3.325  0.5979 -0.3562  0.1167
 2478TIP3    H1 7440   3.849   3.995   3.406  1.5122  0.1900  0.4593
 2478TIP3    H2 7441   3.939   4.066   3.308  0.2266  1.9143  0.4876
 2479TIP3   OH2 7442   2.837   3.061   1.257 -0.1327 -0.0661  0.8366
 2479TIP3    H1 7443   2.830   3.092   1.347 -1.5828 -0.3068  0.8433
 2479TIP3    H2 7444   2.920   3.014   1.253 -1.1426 -2.1698  2.7335
 2480TIP3   OH2 7445   3.294   3.972   4.049 -0.7185  0.1955  0.4209
 2480TIP3    H1 7446   3.264   4.054   4.011 -0.8390 -0.4014 -0.8200
 2480TIP3    H2 7447   3.290   3.909   3.977 -0.3352 -0.8303  1.2672
 2481TIP3   OH2 7448   4.748   3.426   1.680 -0.3251 -0.6008 -0.7762
 2481TIP3    H1 7449   4.734   3.496   1.744 -0.7465 -0.1830 -1.3083
 2481TIP3    H2 7450   4.778   3.351   1.731 -1.5306 -0.5533  0.0301
 2482TIP3   OH2 7451   2.866   0.670   2.210 -0.3507  0.4018  0.2955
 2482TIP3    H1 7452   2.920   0.742   2.242  0.3365 -0.2088  0.5388
 2482TIP3    H2 7453   2.881   0.668   2.116  0.1263  0.1728  0.3774
 2483TIP3   OH2 7454   4.084   1.641   4.392 -0.1417 -0.3436 -0.1074
 2483TIP3    H1 7455   4.174   1.618   4.413  0.1902 -0.3525 -1.4165
 2483TIP3    H2 7456   4.040   1.649   4.476  1.2024  0.1674  0.5713
 2484TIP3   OH2 7457   0.338   0.483   3.178 -0.2454 -0.1305 -0.0657
 2484TIP3    H1 7458   0.243   0.491   3.165 -0.4878 -1.7644  0.5255
 2484TIP3    H2 7459   0.364   0.568   3.213 -1.4437  0.4272 -0.4748
 2485TIP3   OH2 7460   5.793   0.154   3.271 -0.0560  0.5022 -0.1906
 2485TIP3    H1 7461   5.859   0.089   3.296 -0.2766 -0.4428 -1.8754
 2485TIP3    H2 7462   5.733   0.157   3.345  0.4450 -0.5911  0.2921
 2486TIP3   OH2 7463   1.576   1.803   4.784 -0.2695  0.7693 -0.1399
 2486TIP3    H1 7464   1.552   1.712   4.767  0.3183  0.6595 -0.3933
 2486TIP3    H2 7465   1.589   1.807   4.879 -3.6809  1.4145  0.4161
 2487TIP3   OH2 7466   3.725   3.866   4.951 -0.0287  0.0188 -0.7555
 2487TIP3    H1 7467   3.658   3.922   4.912  1.7095  1.2742 -2.1484
 2487TIP3    H2 7468   3.770   3.923   5.014  1.1450 -0.0666 -1.4816
 2488TIP3   OH2 7469   2.094   4.901   1.107 -0.1666  0.0175 -0.0161
 2488TIP3    H1 7470   2.059   4.821   1.069  0.4902 -0.4089  0.2594
 2488TIP3    H2 7471   2.063   4.971   1.049  0.7144 -0.6058 -1.2849
 2489TIP3   OH2 7472   0.270   3.297   3.065 -0.2894  0.5244 -0.0257
 2489TIP3    H1 7473   0.305   3.322   2.979  0.3980 -1.0347 -0.2367
 2489TIP3    H2 7474   0.179   3.274   3.049 -0.0468 -0.1786 -0.4433
 2490TIP3   OH2 7475   1.871   2.992   0.731 -0.1638 -0.2048 -0.2939
 2490TIP3    H1 7476   1.849   3.051   0.803  1.6706 -0.2861  0.3862
 2490TIP3    H2 7477   1.844   3.039   0.652  1.3281  1.6400  0.2186
 2491TIP3   OH2 7478   2.673   2.460   0.651  0.1715  0.0280 -1.1973
 2491TIP3    H1 7479   2.721   2.497   0.577 -1.5692  0.9922 -1.9145
 2491TIP3    H2 7480   2.582   2.488   0.637  0.0442  1.9502  2.3493
 2492TIP3   OH2 7481   6.068   1.986   0.528 -0.7477 -0.2318  0.0416
 2492TIP3    H1 7482   6.141   2.039   0.496 -1.1972  0.6480  0.4552
 2492TIP3    H2 7483   6.076   1.903   0.480 -0.7308  0.6317 -1.5063
 2493TIP3   OH2 7484   4.763   5.173   0.746  0.0513 -0.5567 -0.2567
 2493TIP3    H1 7485   4.684   5.225   0.755 -0.1402 -0.3116 -2.6422
 2493TIP3    H2 7486   4.824   5.210   0.810 -0.5934  1.6415 -0.8280
 2494TIP3   OH2 7487   1.313   5.303   0.275  0.0528  0.2249 -0.0282
 2494TIP3    H1 7488   1.386   5.246   0.297  0.7245  1.2016  0.3530
 2494TIP3    H2 7489   1.332   5.332   0.185 -0.3072 -0.1647 -0.2360
 2495TIP3   OH2 7490   2.795   2.407   2.648 -0.5747 -0.8541 -0.1110
 2495TIP3    H1 7491   2.863   2.344   2.673  0.4306 -0.8170 -2.4913
 2495TIP3    H2 7492   2.735   2.407   2.722  0.9406 -2.4071  1.2303
 2496TIP3   OH2 7493   2.517   0.860   1.443 -0.0662  0.2169  0.1004
 2496TIP3    H1 7494   2.525   0.774   1.403 -1.5282  0.4959 -0.8551
 2496TIP3    H2 7495   2.601   0.902   1.426  0.3159 -0.6644 -0.2713
 2497TIP3   OH2 7496   0.697   2.102   3.080  0.1048  0.7550  0.9498
 2497TIP3    H1 7497   0.687   2.197   3.078 -2.2441  0.5751 -1.1253
 2497TIP3    H2 7498   0.783   2.086   3.041  1.0478  2.0304  2.4457
 2498TIP3   OH2 7499   2.259   4.389   5.117 -0.7985  0.5418 -0.6374
 2498TIP3    H1 7500   2.314   4.402   5.194  1.3242  1.1817 -2.1750
 2498TIP3    H2 7501   2.194   4.324   5.145  1.0689 -0.6924  1.1485
 2499TIP3   OH2 7502   2.652   0.851   3.023  0.5292 -0.6571  0.4561
 2499TIP3    H1 7503   2.644   0.910   3.098 -0.3508 -1.7837  1.2626
 2499TIP3    H2 7504   2.567   0.808   3.016  1.0148 -1.5188 -0.3851
 2500TIP3   OH2 7505   4.722   5.077   2.182  0.2179 -0.0786  0.4246
 2500TIP3    H1 7506   4.628   5.088   2.165  0.4960  0.1006 -1.2079
 2500TIP3    H2 7507   4.734   5.105   2.273 -1.5362 -1.5558  1.1692
 2501TIP3   OH2 7508   4.205   3.816   4.235  0.2428  0.1807  0.4362
 2501TIP3    H1 7509   4.200   3.906   4.268 -0.3536  0.3084  0.0020
 2501TIP3    H2 7510   4.161   3.819   4.150  1.0932 -0.3135 -0.0269
 2502TIP3   OH2 7511   4.643   1.969   0.932  0.3024 -0.0189 -0.4567
 2502TIP3    H1 7512   4.732   2.005   0.933  0.9019 -1.3935 -1.5910
 2502TIP3    H2 7513   4.589   2.038   0.970  1.6598  1.3646 -0.9430
 2503TIP3   OH2 7514   1.548   3.529   2.778 -0.0806  0.2205 -0.1383
 2503TIP3    H1 7515   1.607   3.597   2.746  0.2872  0.6953  1.4771
 2503TIP3    H2 7516   1.518   3.561   2.863 -2.4366 -0.1605 -0.7552
 2504TIP3   OH2 7517   3.136   5.711   1.225  0.0697 -0.5630 -0.3050
 2504TIP3    H1 7518   3.177   5.779   1.278  0.2590 -0.0540 -1.0815
 2504TIP3    H2 7519   3.191   5.706   1.146 -0.5517 -0.8597 -0.7296
 2505TIP3   OH2 7520   6.150   4.953   4.181 -0.7107 -0.3050 -0.6753
 2505TIP3    H1 7521   6.131   4.932   4.272 -2.2486 -0.5830 -1.0273
 2505TIP3    H2 7522   6.213   5.025   4.186  0.4940 -1.3833  0.5693
 2506TIP3   OH2 7523   3.039   4.213   3.363  0.5618  0.0560 -0.1491
 2506TIP3    H1 7524   3.124   4.228   3.405 -0.1897  0.0986  1.4319
 2506TIP3    H2 7525   2.976   4.211   3.436 -1.1040  2.1887 -1.4141
 2507TIP3   OH2 7526   3.265   2.859   2.496 -0.2498  0.5033 -0.5491
 2507TIP3    H1 7527   3.232   2.769   2.497  0.0968  0.3641  1.0518
 2507TIP3    H2 7528   3.198   2.910   2.541 -0.2096  0.9535 -0.9970
 2508TIP3   OH2 7529   0.889   5.360   3.268  0.2711  0.0427 -0.3070
 2508TIP3    H1 7530   0.906   5.269   3.293  0.8186  0.0368 -0.6868
 2508TIP3    H2 7531   0.824   5.391   3.332 -0.4075 -0.8056 -0.5758
 2509TIP3   OH2 7532   4.945   2.500   1.944  0.1283  0.0112  0.0679
 2509TIP3    H1 7533   4.945   2.594   1.963 -2.1704 -0.1405  1.1683
 2509TIP3    H2 7534   4.990   2.460   2.018  1.7275  0.2602 -0.7393
 2510TIP3   OH2 7535   4.522   2.430   0.460 -0.8379  0.0931 -0.2710
 2510TIP3    H1 7536   4.579   2.402   0.388 -1.7000 -0.7845 -0.6244
 2510TIP3    H2 7537   4.571   2.408   0.539 -0.5264 -0.3027 -0.5704
 2511TIP3   OH2 7538   2.180   5.334   4.646 -0.6098  0.0237 -0.0578
 2511TIP3    H1 7539   2.237   5.410   4.633 -1.1067  0.3235 -0.5637
 2511TIP3    H2 7540   2.163   5.303   4.557 -2.0223  0.5422  0.0092
 2512TIP3   OH2 7541   2.514   5.630   0.960  0.3157 -0.0091 -0.1636
 2512TIP3    H1 7542   2.491   5.694   0.893  0.8118 -0.3207 -0.6415
 2512TIP3    H2 7543   2.486   5.546   0.925  0.9548 -0.2280 -0.1725
 2513TIP3   OH2 7544   1.468   2.705   4.479  0.3915  0.0648  0.0784
 2513TIP3    H1 7545   1.511   2.656   4.549  0.7947 -1.2032 -1.0277
 2513TIP3    H2 7546   1.406   2.642   4.440 -0.4968  1.0291 -0.1275
 2514TIP3   OH2 7547   4.084   0.916   2.379 -0.4742 -0.3407  0.2143
 2514TIP3    H1 7548   3.994   0.949   2.384  0.5097  2.4099  1.3888
 2514TIP3    H2 7549   4.077   0.826   2.412 -2.6994  0.0135  0.9452
 2515TIP3   OH2 7550   0.597   4.777   1.648  0.2242  0.0024 -0.1847
 2515TIP3    H1 7551   0.537   4.851   1.649 -0.4515 -0.4858 -1.4840
 2515TIP3    H2 7552   0.545   4.704   1.615  0.4893 -1.4309  2.3183
 2516TIP3   OH2 7553   5.882   1.428   1.846 -0.2081 -0.4406 -0.7069
 2516TIP3    H1 7554   5.796   1.464   1.867  0.7427  1.2580  0.5305
 2516TIP3    H2 7555   5.909   1.475   1.767 -0.5039 -1.1737 -1.2573
 2517TIP3   OH2 7556   2.795   2.130   4.482  0.6812 -0.7470  0.0430
 2517TIP3    H1 7557   2.783   2.035   4.483  1.5339 -0.8893 -0.9672
 2517TIP3    H2 7558   2.888   2.142   4.501  0.8518 -0.1918 -1.0949
 2518TIP3   OH2 7559   2.986   4.543   0.846 -0.5489  0.8804 -0.2719
 2518TIP3    H1 7560   3.025   4.497   0.772 -1.0337  1.6552 -1.0287
 2518TIP3    H2 7561   3.000   4.485   0.921 -0.3507 -0.0723 -1.0339
 2519TIP3   OH2 7562   0.246   1.760   4.977 -0.1172 -0.1601  0.3625
 2519TIP3    H1 7563   0.184   1.798   5.040  1.4003 -1.3773  2.7342
 2519TIP3    H2 7564   0.329   1.801   4.999  0.1271  1.0765 -2.4461
 2520TIP3   OH2 7565   0.929   5.606   4.734  0.1767  0.4790 -0.6607
 2520TIP3    H1 7566   0.984   5.544   4.686  0.6433  0.6906 -0.4090
 2520TIP3    H2 7567   0.986   5.682   4.749  0.7029 -0.3361  1.9392
 2521TIP3   OH2 7568   3.591   3.425   2.603 -0.6639  0.5158  0.5545
 2521TIP3    H1 7569   3.636   3.470   2.674  0.4957 -1.4436  1.1100
 2521TIP3    H2 7570   3.628   3.463   2.523  1.1062 -0.1528  1.0077
 2522TIP3   OH2 7571   3.057   4.297   1.671  0.7317  0.2008 -0.3687
 2522TIP3    H1 7572   3.148   4.285   1.700  0.1185 -0.7309  1.3184
 2522TIP3    H2 7573   3.053   4.251   1.587  1.7263 -0.0899 -0.2733
 2523TIP3   OH2 7574   5.502   1.918   3.946 -0.1140 -0.3342 -0.1455
 2523TIP3    H1 7575   5.492   1.892   4.038  0.6870 -3.0458 -0.7496
 2523TIP3    H2 7576   5.475   1.842   3.896 -1.9137  1.5631 -2.2764
 2524TIP3   OH2 7577   2.062   2.936   0.991  0.4619  0.6737 -0.6035
 2524TIP3    H1 7578   2.027   2.994   1.058 -1.3527  0.1972 -1.0751
 2524TIP3    H2 7579   2.086   2.994   0.919  1.8461  1.1252  0.1889
 2525TIP3   OH2 7580   2.082   3.015   4.835 -0.6762  0.1306  0.8592
 2525TIP3    H1 7581   2.024   3.090   4.824  0.7567  1.2359  0.5349
 2525TIP3    H2 7582   2.035   2.957   4.895 -2.6454  0.3760 -0.3409
 2526TIP3   OH2 7583   1.827   3.353   4.241  0.6344 -0.3384 -0.3878
 2526TIP3    H1 7584   1.863   3.412   4.307  0.7033 -0.0660 -0.6626
 2526TIP3    H2 7585   1.795   3.412   4.172  0.0558 -0.5953 -0.3435
 2527TIP3   OH2 7586   3.710   0.308   2.110  0.4552  0.0491 -0.1606
 2527TIP3    H1 7587   3.743   0.377   2.167 -0.6379  0.5931 -0.1548
 2527TIP3    H2 7588   3.633   0.273   2.156  0.1367 -0.1669 -0.8371
 2528TIP3   OH2 7589   3.296   1.024   3.037  0.4904 -0.4064  0.4338
 2528TIP3    H1 7590   3.270   1.110   3.072 -1.1288 -1.0058  0.7449
 2528TIP3    H2 7591   3.371   0.999   3.092  0.9056  0.7383  0.4272
 2529TIP3   OH2 7592   1.933   2.308   5.129 -0.4708 -0.0316 -0.0460
 2529TIP3    H1 7593   1.962   2.229   5.176  0.4118  0.7873  0.8353
 2529TIP3    H2 7594   1.847   2.327   5.166  0.8550  1.5011  2.5022
 2530TIP3   OH2 7595   1.957   5.148   4.809 -0.2611 -0.1515  0.2391
 2530TIP3    H1 7596   1.994   5.125   4.894 -2.3487 -0.8941  1.0125
 2530TIP3    H2 7597   2.010   5.222   4.779  1.2641 -0.6185  1.6258
 2531TIP3   OH2 7598   1.664   5.958   1.089  0.0134 -0.1863  0.0273
 2531TIP3    H1 7599   1.726   5.938   1.159 -1.9603  0.5962  2.1167
 2531TIP3    H2 7600   1.610   6.028   1.124 -1.3332 -0.0273 -2.1676
 2532TIP3   OH2 7601   4.391   2.817   3.629 -0.2361  0.1189 -0.5331
 2532TIP3    H1 7602   4.449   2.748   3.661  0.2814  0.6392 -0.3415
 2532TIP3    H2 7603   4.307   2.799   3.673 -0.6984 -1.5473 -1.9974
 2533TIP3   OH2 7604   0.058   2.865   4.776 -0.1214  0.1664  0.0474
 2533TIP3    H1 7605   0.074   2.787   4.723  1.1837  1.0528 -0.9232
 2533TIP3    H2 7606   0.019   2.832   4.857  0.2873 -1.4674 -0.3923
 2534TIP3   OH2 7607   0.022   0.294   4.286 -0.4612  0.6945  0.0696
 2534TIP3    H1 7608   0.039   0.324   4.196  2.1271  1.3429  0.7056
 2534TIP3    H2 7609  -0.012   0.371   4.331  1.7321  1.4829  0.5063
 2535TIP3   OH2 7610   3.301   0.622   0.666 -0.9857 -0.0244 -0.1974
 2535TIP3    H1 7611   3.226   0.654   0.716 -1.9503 -3.7040  1.0354
 2535TIP3    H2 7612   3.262   0.570   0.596  0.4292 -0.4156 -0.7282
 2536TIP3   OH2 7613   0.171   0.809   4.176 -0.5512 -0.1151  0.1150
 2536TIP3    H1 7614   0.168   0.758   4.257 -0.3307 -0.1228  0.1190
 2536TIP3    H2 7615   0.211   0.749   4.112 -0.1245  0.1125  0.1652
 2537TIP3   OH2 7616   0.424   4.938   1.788 -0.0600  0.2397 -0.5064
 2537TIP3    H1 7617   0.353   4.992   1.753 -0.6124  1.1652  1.8828
 2537TIP3    H2 7618   0.500   4.996   1.787  0.0661  0.0694 -0.7415
 2538TIP3   OH2 7619   5.019   2.609   1.030  0.2068 -0.2602 -0.3827
 2538TIP3    H1 7620   4.981   2.586   1.115  1.8281 -1.5659  0.0413
 2538TIP3    H2 7621   4.956   2.670   0.992 -1.0173 -0.3485  1.3516
 2539TIP3   OH2 7622   4.854   1.363   0.564  0.0793  0.0737 -0.0369
 2539TIP3    H1 7623   4.805   1.426   0.616 -1.0263 -0.3609 -0.5195
 2539TIP3    H2 7624   4.799   1.348   0.487 -0.4030 -2.5966  0.7577
 2540TIP3   OH2 7625   1.967   5.259   0.691 -0.4421  0.3221  0.2766
 2540TIP3    H1 7626   1.992   5.326   0.756  0.7982  0.0586  0.1037
 2540TIP3    H2 7627   2.046   5.247   0.639 -1.0080 -0.4760 -0.4119
 2541TIP3   OH2 7628   2.897   5.817   2.827 -0.0688 -0.4933 -0.2911
 2541TIP3    H1 7629   2.804   5.796   2.823 -0.1748  0.1526 -1.7477
 2541TIP3    H2 7630   2.939   5.751   2.773  0.6292 -2.1480  2.1311
 2542TIP3   OH2 7631   5.714   4.282   1.370  0.5141  0.2437  0.1255
 2542TIP3    H1 7632   5.674   4.338   1.437  0.1988  0.7740 -0.4914
 2542TIP3    H2 7633   5.640   4.235   1.332  0.6464  0.2359 -0.1196
 2543TIP3   OH2 7634   2.295   0.970   2.658  0.0588 -0.0309  0.0111
 2543TIP3    H1 7635   2.290   0.926   2.573  0.0043  0.2634 -0.1406
 2543TIP3    H2 7636   2.242   0.916   2.716  1.1444 -0.9476  0.1740
 2544TIP3   OH2 7637   0.036   1.186   3.900 -0.0279  0.2196 -0.3046
 2544TIP3    H1 7638   0.008   1.115   3.842 -1.0332  0.8957 -0.6892
 2544TIP3    H2 7639   0.061   1.257   3.840 -0.0034  0.5338  0.0762
 2545TIP3   OH2 7640   3.317   4.026   2.128 -0.5949 -0.0766 -0.2773
 2545TIP3    H1 7641   3.249   4.046   2.192  0.1830  1.3077  0.1472
 2545TIP3    H2 7642   3.394   4.006   2.181 -0.3026 -0.2697 -0.7736
 2546TIP3   OH2 7643   3.447   0.396   1.094  0.0814 -0.6683  0.0113
 2546TIP3    H1 7644   3.418   0.443   1.172 -0.5798 -1.2398  0.1190
 2546TIP3    H2 7645   3.401   0.312   1.098 -1.0155 -0.1939 -1.6761
 2547TIP3   OH2 7646   5.645   5.708   2.559 -0.5984 -0.1838 -0.2044
 2547TIP3    H1 7647   5.618   5.791   2.520 -2.0575 -0.3103  0.4679
 2547TIP3    H2 7648   5.676   5.731   2.647  1.1431 -0.1014 -0.7989
 2548TIP3   OH2 7649   2.660   2.139   2.235 -0.1685 -0.0411 -0.5752
 2548TIP3    H1 7650   2.736   2.172   2.284  0.5985 -1.9274 -0.3741
 2548TIP3    H2 7651   2.678   2.161   2.144  2.4059 -3.2735 -1.0510
 2549TIP3   OH2 7652   4.383   1.137   1.911  0.5789 -0.3970 -0.3318
 2549TIP3    H1 7653   4.403   1.107   1.822 -3.5631 -2.3872 -0.8271
 2549TIP3    H2 7654   4.321   1.210   1.899  1.1478  0.3407  0.9621
 2550TIP3   OH2 7655   0.696   3.615   0.021 -0.1259  0.1508  0.5335
 2550TIP3    H1 7656   0.652   3.547   0.071  1.8827 -0.4574  1.5673
 2550TIP3    H2 7657   0.790   3.598   0.033  0.4450  1.3911 -1.5330
 2551TIP3   OH2 7658   0.184   4.581   4.599 -0.5183 -0.8196 -0.6230
 2551TIP3    H1 7659   0.179   4.583   4.503  0.2797  0.5239 -0.6681
 2551TIP3    H2 7660   0.216   4.668   4.622 -1.2177 -0.9435  0.9086
 2552TIP3   OH2 7661   1.180   5.692   4.997  0.5063 -0.3608  0.2641
 2552TIP3    H1 7662   1.262   5.736   5.020  0.1142  1.2459 -1.2290
 2552TIP3    H2 7663   1.182   5.685   4.902  0.0105 -2.6197  0.3689
 2553TIP3   OH2 7664   3.713   2.765   1.465  0.3371  0.4505 -0.4107
 2553TIP3    H1 7665   3.723   2.734   1.375 -2.5395 -0.5400 -0.4690
 2553TIP3    H2 7666   3.748   2.854   1.463  1.0659  0.1703 -2.2881
 2554TIP3   OH2 7667   0.865   2.524   5.141 -0.1797  0.2243  0.2806
 2554TIP3    H1 7668   0.839   2.605   5.097 -1.2824  0.5539  1.4865
 2554TIP3    H2 7669   0.828   2.532   5.229 -0.3840 -1.6445  0.3881
 2555TIP3   OH2 7670   3.319   4.416   1.879  0.5282  0.3856  0.2932
 2555TIP3    H1 7671   3.355   4.372   1.956 -2.7076 -0.1037  1.7135
 2555TIP3    H2 7672   3.353   4.366   1.804  1.2431 -1.1327  1.5773
 2556TIP3   OH2 7673   4.576   3.907   4.304  0.1902  0.0185  0.1060
 2556TIP3    H1 7674   4.658   3.862   4.285  0.0661 -0.8001  1.4010
 2556TIP3    H2 7675   4.578   3.923   4.398 -0.7520  0.7620  0.0153
 2557TIP3   OH2 7676   2.381   5.167   3.948  0.4651 -0.2436 -0.0669
 2557TIP3    H1 7677   2.365   5.073   3.960  1.9322 -0.4799  0.2125
 2557TIP3    H2 7678   2.315   5.210   4.003 -0.9513 -1.0704 -1.0805
 2558TIP3   OH2 7679   4.918   2.858   3.448 -0.8523 -0.1334 -0.6161
 2558TIP3    H1 7680   5.013   2.854   3.462 -0.9528 -0.4560  0.0162
 2558TIP3    H2 7681   4.891   2.767   3.439 -1.1389 -0.0611 -0.5209
 2559TIP3   OH2 7682   1.895   3.079   2.068 -0.0078  0.3214  0.2958
 2559TIP3    H1 7683   1.849   3.098   2.149 -0.9522  0.6648 -0.3049
 2559TIP3    H2 7684   1.902   3.164   2.023  1.4455  0.3333  0.4762
 2560TIP3   OH2 7685   2.217   4.228   0.464 -0.3761  0.0281  0.2701
 2560TIP3    H1 7686   2.220   4.140   0.503  2.9094  0.0443  0.2663
 2560TIP3    H2 7687   2.172   4.281   0.530 -1.4478 -1.3986  0.7471
 2561TIP3   OH2 7688   1.546   2.397   2.534 -0.1750 -0.1686  0.2876
 2561TIP3    H1 7689   1.501   2.481   2.519 -0.2264 -0.1131  0.7365
 2561TIP3    H2 7690   1.633   2.422   2.565  0.7027 -0.2508 -1.9218
 2562TIP3   OH2 7691   0.470   4.892   3.593 -0.5322  0.3656  0.0198
 2562TIP3    H1 7692   0.424   4.929   3.517 -0.5028  0.8341  0.2293
 2562TIP3    H2 7693   0.563   4.901   3.572 -0.5233  0.5369  0.1281
 2563TIP3   OH2 7694   0.442   2.616   2.215 -0.0193  0.1361 -0.1980
 2563TIP3    H1 7695   0.403   2.612   2.128  0.7432 -0.0584 -0.5428
 2563TIP3    H2 7696   0.455   2.525   2.239 -2.7525  0.0492  1.3268
 2564TIP3   OH2 7697   5.465   3.504   4.476  0.2803  0.3207 -0.4256
 2564TIP3    H1 7698   5.506   3.441   4.536  0.1865  1.3683  0.7850
 2564TIP3    H2 7699   5.399   3.548   4.530  0.8235  1.9471 -1.0331
 2565TIP3   OH2 7700   4.467   5.670   1.670  0.5085 -0.3645  0.5477
 2565TIP3    H1 7701   4.403   5.610   1.710  0.8893 -1.4088 -0.3522
 2565TIP3    H2 7702   4.432   5.688   1.583  1.1686 -0.5274  0.2426
 2566TIP3   OH2 7703   0.696   0.461   0.639  0.4370  0.1695  0.5193
 2566TIP3    H1 7704   0.674   0.553   0.654 -0.0440  0.2008 -0.3407
 2566TIP3    H2 7705   0.791   0.456   0.654  0.2283  0.4671  2.1273
 2567TIP3   OH2 7706   2.314   0.320   1.981 -0.2647  0.0011 -0.4631
 2567TIP3    H1 7707   2.268   0.314   1.897 -1.6946  0.6890  0.2470
 2567TIP3    H2 7708   2.257   0.372   2.037  0.7279 -0.3232  0.9175
 2568TIP3   OH2 7709   1.676   5.357   3.749 -0.2121 -0.4668 -0.1088
 2568TIP3    H1 7710   1.601   5.405   3.782 -0.9513 -0.8038 -1.2417
 2568TIP3    H2 7711   1.751   5.396   3.794 -0.8744  1.0879 -0.2740
 2569TIP3   OH2 7712   3.587   2.627   3.659  0.7480 -0.3286  0.0638
 2569TIP3    H1 7713   3.512   2.593   3.707  1.1754 -2.4183 -0.6086
 2569TIP3    H2 7714   3.569   2.720   3.648 -1.2306 -0.5716  0.8001
 2570TIP3   OH2 7715   4.105   4.621   1.999  0.0749  0.4304  0.1586
 2570TIP3    H1 7716   4.051   4.697   1.979 -0.0584  0.2670 -0.1197
 2570TIP3    H2 7717   4.045   4.547   1.992  0.2434  0.2843  0.2527
 2571TIP3   OH2 7718   4.708   3.595   3.764  0.0594  0.1726  0.6620
 2571TIP3    H1 7719   4.619   3.620   3.740 -0.0665 -1.3609 -0.6918
 2571TIP3    H2 7720   4.701   3.564   3.854 -1.5887 -3.0862 -0.3983
 2572TIP3   OH2 7721   1.710   2.492   0.198  0.1624 -0.0221 -0.1267
 2572TIP3    H1 7722   1.690   2.400   0.176 -0.3400 -0.4386  1.8385
 2572TIP3    H2 7723   1.784   2.486   0.258 -0.4674  0.7770  0.7474
 2573TIP3   OH2 7724   4.590   5.215   1.601  0.2360 -0.1551 -0.0916
 2573TIP3    H1 7725   4.629   5.234   1.515  2.0425  0.7235  0.8734
 2573TIP3    H2 7726   4.663   5.183   1.654 -1.2123 -2.5592  0.6136
 2574TIP3   OH2 7727   1.758   3.102   2.911 -0.1441 -0.1086 -0.1774
 2574TIP3    H1 7728   1.764   3.197   2.918 -0.6873 -0.1255  0.6722
 2574TIP3    H2 7729   1.809   3.080   2.833  0.5304  0.8138 -0.0041
 2575TIP3   OH2 7730   2.132   0.542   4.657  0.1715 -0.0257 -0.3616
 2575TIP3    H1 7731   2.173   0.587   4.583  0.5751  2.0096  1.0173
 2575TIP3    H2 7732   2.199   0.544   4.726 -0.1836 -1.8972  0.1043
 2576TIP3   OH2 7733   3.505   3.579   4.846 -0.7456 -0.2137 -0.0344
 2576TIP3    H1 7734   3.586   3.581   4.896 -0.8352  0.0332  0.1036
 2576TIP3    H2 7735   3.521   3.516   4.776 -0.6324 -0.5890  0.3271
 2577TIP3   OH2 7736   4.130   1.415   3.921  0.5082 -0.0606 -0.5424
 2577TIP3    H1 7737   4.162   1.325   3.921 -0.5060 -0.4308 -0.7098
 2577TIP3    H2 7738   4.109   1.434   4.012  0.9926  0.1139 -0.4633
 2578TIP3   OH2 7739   3.380   4.579   2.221 -0.1318 -0.2476 -0.3920
 2578TIP3    H1 7740   3.322   4.586   2.296 -1.1327  1.9033 -1.2794
 2578TIP3    H2 7741   3.442   4.510   2.245 -2.0924 -1.5576  1.2165
 2579TIP3   OH2 7742   5.844   1.288   0.950 -0.4066 -0.0003 -0.1155
 2579TIP3    H1 7743   5.792   1.360   0.915 -0.0726  0.5163  0.4337
 2579TIP3    H2 7744   5.930   1.326   0.967  0.2511 -0.9137 -1.2580
 2580TIP3   OH2 7745   2.866   2.979   3.213  0.1195 -0.1190  0.7895
 2580TIP3    H1 7746   2.945   3.031   3.204 -0.2038  0.4505  1.1702
 2580TIP3    H2 7747   2.801   3.039   3.251 -0.2987 -0.7550  1.1121
 2581TIP3   OH2 7748   5.665   3.350   4.596  0.2346  0.4598  0.5859
 2581TIP3    H1 7749   5.757   3.374   4.605  0.0941  1.0329  0.5225
 2581TIP3    H2 7750   5.666   3.257   4.572  0.7385 -0.0919  2.5887
 2582TIP3   OH2 7751   2.177   3.410   4.291  0.2269 -0.0176 -0.1841
 2582TIP3    H1 7752   2.101   3.447   4.337 -0.3711 -1.2509 -0.1485
 2582TIP3    H2 7753   2.249   3.467   4.317 -0.5503  0.7802  0.3254
 2583TIP3   OH2 7754   0.367   3.263   4.328  0.0954  0.1325 -0.1226
 2583TIP3    H1 7755   0.358   3.246   4.234 -0.1880  2.9927 -0.6893
 2583TIP3    H2 7756   0.302   3.205   4.369  2.2668 -3.4824 -1.2866
 2584TIP3   OH2 7757   3.601   2.555   2.139 -0.1788 -0.0280  0.2439
 2584TIP3    H1 7758   3.519   2.522   2.177  0.1219 -3.5818 -1.8096
 2584TIP3    H2 7759   3.669   2.526   2.200  0.0712 -3.5818 -1.4792
 2585TIP3   OH2 7760   0.484   3.928   3.903  0.7040  0.0270 -0.4672
 2585TIP3    H1 7761   0.403   3.884   3.876  0.2644 -0.2739  1.2204
 2585TIP3    H2 7762   0.546   3.857   3.916  0.6722  0.1014  0.0770
 2586TIP3   OH2 7763   2.015   4.018   2.889  0.0011  0.3388 -0.2783
 2586TIP3    H1 7764   2.106   4.011   2.860  0.0899  1.1790 -0.2395
 2586TIP3    H2 7765   2.021   4.056   2.977 -0.4323  1.9479 -0.9114
 2587TIP3   OH2 7766   1.396   5.726   4.236  0.0469  0.2292 -0.4428
 2587TIP3    H1 7767   1.413   5.770   4.320 -0.6052 -0.4619  0.0707
 2587TIP3    H2 7768   1.325   5.776   4.197  0.9522  1.0974 -1.0217
 2588TIP3   OH2 7769   5.240   1.581   0.961  0.2770  0.1436  0.3242
 2588TIP3    H1 7770   5.303   1.652   0.948 -0.2497  0.2778 -1.7511
 2588TIP3    H2 7771   5.154   1.622   0.949 -0.1190 -0.5240  0.7869
 2589TIP3   OH2 7772   0.818   2.206   4.040 -0.2393  0.0599  0.5294
 2589TIP3    H1 7773   0.899   2.219   3.991 -0.2589  0.1697  0.5267
 2589TIP3    H2 7774   0.750   2.193   3.974 -0.0332 -1.2085  0.5342
 2590TIP3   OH2 7775   0.869   3.566   1.325 -0.0672  0.5563  0.0759
 2590TIP3    H1 7776   0.918   3.557   1.243  0.8604  1.2552  0.5330
 2590TIP3    H2 7777   0.827   3.652   1.318 -0.0815  0.5656  0.2781
 2591TIP3   OH2 7778   1.414   3.051   0.807  0.2988 -0.0134  0.3413
 2591TIP3    H1 7779   1.374   3.008   0.731  2.5592  1.0586 -1.5871
 2591TIP3    H2 7780   1.401   2.989   0.879 -0.1044 -2.0518 -1.3886
 2592TIP3   OH2 7781   0.982   1.837   5.181  0.9697 -0.1722  0.0238
 2592TIP3    H1 7782   0.999   1.764   5.122  0.9484  0.3587 -0.6500
 2592TIP3    H2 7783   1.029   1.911   5.143  0.6251  0.2762  0.4508
 2593TIP3   OH2 7784   2.983   4.502   2.729 -0.1414  0.2206 -0.0760
 2593TIP3    H1 7785   2.996   4.500   2.824  0.5621 -1.7231 -0.1656
 2593TIP3    H2 7786   3.068   4.523   2.693 -0.6467  2.0405 -0.2790
 2594TIP3   OH2 7787   0.290   5.414   1.596  0.1362 -0.0635 -0.3517
 2594TIP3    H1 7788   0.218   5.415   1.532  2.2292 -1.6469 -2.9469
 2594TIP3    H2 7789   0.310   5.321   1.606  1.8109  0.3506  0.2906
 2595TIP3   OH2 7790   6.224   5.383   0.861  0.8031  0.1481  0.5611
 2595TIP3    H1 7791   6.147   5.415   0.813  1.5563 -0.1346 -0.8782
 2595TIP3    H2 7792   6.191   5.368   0.950 -0.7209  0.3866  0.0771
 2596TIP3   OH2 7793   3.745   5.158   0.369 -0.1886 -0.7283  0.4552
 2596TIP3    H1 7794   3.709   5.146   0.457 -0.2291  1.0992  0.7253
 2596TIP3    H2 7795   3.838   5.136   0.378 -0.3860 -1.4557  0.7329
 2597TIP3   OH2 7796   5.840   1.568   3.647 -0.1280  1.0744 -0.0369
 2597TIP3    H1 7797   5.910   1.574   3.581 -0.8821  0.4443 -0.9141
 2597TIP3    H2 7798   5.762   1.599   3.601 -1.0967 -1.2991 -0.1101
 2598TIP3   OH2 7799   5.947   5.247   2.592 -0.5313 -0.2009  0.5542
 2598TIP3    H1 7800   5.950   5.313   2.523  0.2067 -0.2330  0.5486
 2598TIP3    H2 7801   5.876   5.275   2.650  0.4267  1.1527  1.1025
 2599TIP3   OH2 7802   5.783   2.284   4.679 -0.9524  0.3010 -0.2640
 2599TIP3    H1 7803   5.810   2.214   4.620 -1.1766  0.2867 -0.3484
 2599TIP3    H2 7804   5.770   2.360   4.622 -2.3150 -0.0107 -0.4037
 2600TIP3   OH2 7805   1.169   2.289   2.399 -0.4361 -0.2128 -0.7037
 2600TIP3    H1 7806   1.151   2.339   2.479 -1.5363 -0.4071 -0.8241
 2600TIP3    H2 7807   1.250   2.327   2.366 -0.4693  0.5032  0.0030
 2601TIP3   OH2 7808   4.218   5.071   4.156  0.5684 -0.5292  0.3755
 2601TIP3    H1 7809   4.185   5.160   4.169  1.0449 -0.2746 -0.1186
 2601TIP3    H2 7810   4.140   5.018   4.142  0.3828  0.2670 -2.0814
 2602TIP3   OH2 7811   5.198   3.122   4.526 -0.3316 -0.1844  0.0312
 2602TIP3    H1 7812   5.159   3.046   4.484 -0.2059 -1.2516  1.7449
 2602TIP3    H2 7813   5.126   3.164   4.571 -0.4656  0.9472 -1.1850
 2603TIP3   OH2 7814   5.081   3.904   2.441 -0.0500 -0.2634 -0.1775
 2603TIP3    H1 7815   4.999   3.883   2.397  0.0833  0.9729 -1.0805
 2603TIP3    H2 7816   5.148   3.889   2.374  0.3297 -0.0488  0.1481
 2604TIP3   OH2 7817   1.461   1.659   1.652  0.4098 -0.1872 -0.1404
 2604TIP3    H1 7818   1.480   1.752   1.658  0.4331  0.0025 -2.2785
 2604TIP3    H2 7819   1.414   1.650   1.569 -1.0691 -1.8560  0.8148
 2605TIP3   OH2 7820   4.308   5.396   1.768  0.2253 -0.1734  0.3160
 2605TIP3    H1 7821   4.258   5.424   1.691  2.0960  0.6943 -0.6412
 2605TIP3    H2 7822   4.241   5.363   1.829 -1.3729 -0.2519 -1.3820
 2606TIP3   OH2 7823   3.799   0.573   5.094  0.1240  0.0760  0.2810
 2606TIP3    H1 7824   3.764   0.591   5.007  0.3625 -0.3387  0.0985
 2606TIP3    H2 7825   3.858   0.499   5.081  1.5087  1.1190  0.4726
 2607TIP3   OH2 7826   2.675   3.390   3.615 -1.0342 -0.6698  0.8615
 2607TIP3    H1 7827   2.715   3.311   3.651 -1.9814  0.0979  3.8753
 2607TIP3    H2 7828   2.602   3.410   3.673 -1.4177  1.9246 -0.3178
 2608TIP3   OH2 7829   3.228   3.723   1.987 -0.1249 -0.1276 -0.0520
 2608TIP3    H1 7830   3.175   3.654   2.028 -0.0212 -0.9534 -1.2440
 2608TIP3    H2 7831   3.283   3.756   2.057 -0.9479 -0.5063  0.7957
 2609TIP3   OH2 7832   6.214   5.307   3.107 -1.0790 -0.2661  0.3362
 2609TIP3    H1 7833   6.219   5.211   3.099  2.3383 -0.1347 -0.7770
 2609TIP3    H2 7834   6.221   5.324   3.201 -0.7949 -1.1241  0.4835
 2610TIP3   OH2 7835   3.037   3.632   4.117 -0.2878  0.0113  0.1653
 2610TIP3    H1 7836   3.049   3.694   4.189 -0.2052 -0.1622  0.3036
 2610TIP3    H2 7837   2.984   3.561   4.155 -2.0866  0.9212 -0.5268
 2611TIP3   OH2 7838   1.397   3.560   4.131  0.0695  0.1887  0.1854
 2611TIP3    H1 7839   1.384   3.654   4.143  0.4560  0.0525  2.0701
 2611TIP3    H2 7840   1.478   3.553   4.080 -1.2550  0.8604 -2.1580
 2612TIP3   OH2 7841   4.317   3.073   3.696 -0.0709 -0.1595 -0.6735
 2612TIP3    H1 7842   4.379   3.092   3.766 -0.7445  0.8927 -0.3438
 2612TIP3    H2 7843   4.344   2.987   3.663  1.8691  0.4859 -0.8852
 2613TIP3   OH2 7844   4.061   0.612   1.623 -0.0211 -0.4132  0.0515
 2613TIP3    H1 7845   4.090   0.545   1.560 -0.6795 -0.4902 -0.1698
 2613TIP3    H2 7846   4.070   0.695   1.575  0.2157 -0.3943  0.1237
 2614TIP3   OH2 7847   0.176   2.915   3.918 -0.3371  0.4181  0.5053
 2614TIP3    H1 7848   0.205   2.837   3.872  0.3836  0.1262  1.4180
 2614TIP3    H2 7849   0.081   2.909   3.919 -0.3606  0.3591 -0.7930
 2615TIP3   OH2 7850   2.281   5.663   4.749  0.5872  0.1603  0.3611
 2615TIP3    H1 7851   2.349   5.730   4.747 -0.0573  0.9427  2.5169
 2615TIP3    H2 7852   2.247   5.661   4.659  1.0140  2.3170  0.0929
 2616TIP3   OH2 7853   0.169   3.901   3.656  0.6044 -0.6424 -0.0401
 2616TIP3    H1 7854   0.098   3.846   3.623  0.6755 -1.8178  1.6738
 2616TIP3    H2 7855   0.131   3.988   3.663 -0.6084 -1.2141  0.6574
 2617TIP3   OH2 7856   5.342   1.417   4.932  0.0909 -0.6210 -0.1796
 2617TIP3    H1 7857   5.392   1.357   4.988  0.3377  1.2501  1.7411
 2617TIP3    H2 7858   5.271   1.448   4.987 -1.4470 -0.8824 -1.9031
 2618TIP3   OH2 7859   4.248   1.749   4.656 -0.0850  0.3596 -0.3108
 2618TIP3    H1 7860   4.160   1.782   4.672 -0.1039 -0.4587  1.5378
 2618TIP3    H2 7861   4.242   1.655   4.675  0.6550 -0.1824 -2.5067
 2619TIP3   OH2 7862   0.781   5.051   1.394  0.1740  0.0063 -0.1176
 2619TIP3    H1 7863   0.825   4.966   1.397 -0.1659 -0.2095 -0.9261
 2619TIP3    H2 7864   0.848   5.114   1.421 -0.1631 -0.6969  2.6702
 2620TIP3   OH2 7865   4.912   5.856   0.100  0.2201  0.4559 -0.2495
 2620TIP3    H1 7866   4.866   5.799   0.039 -0.6344  0.4541  0.3806
 2620TIP3    H2 7867   4.915   5.941   0.055  1.3241 -0.0097 -1.1014
 2621TIP3   OH2 7868   5.404   0.901   3.162 -0.0573  0.1610 -0.1716
 2621TIP3    H1 7869   5.393   0.824   3.107 -0.8982 -0.3809  0.7065
 2621TIP3    H2 7870   5.459   0.870   3.235  0.5617  0.7060 -0.4053
 2622TIP3   OH2 7871   4.998   1.284   0.006  0.1319  0.0032 -0.1466
 2622TIP3    H1 7872   5.024   1.238   0.086 -0.1538 -0.2491 -0.1966
 2622TIP3    H2 7873   4.942   1.222  -0.040  0.8058 -0.0899 -0.8557
 2623TIP3   OH2 7874   1.144   3.525   0.337  0.0768  0.0507  0.2333
 2623TIP3    H1 7875   1.237   3.532   0.359  0.9936  0.3804 -3.2114
 2623TIP3    H2 7876   1.123   3.610   0.297 -1.4982 -0.3166  0.2480
 2624TIP3   OH2 7877   1.422   2.824   1.678 -0.5568 -0.0328 -0.4063
 2624TIP3    H1 7878   1.358   2.819   1.607 -0.4971 -0.7824 -0.4148
 2624TIP3    H2 7879   1.490   2.883   1.646 -0.9205  0.2602 -0.6512
 2625TIP3   OH2 7880   3.462   2.982   1.914 -0.7255 -0.3721 -0.0711
 2625TIP3    H1 7881   3.523   2.918   1.951 -1.2065 -0.0585  1.2999
 2625TIP3    H2 7882   3.482   3.064   1.959 -1.5273 -0.0390 -0.2955
 2626TIP3   OH2 7883   1.791   3.958   4.946 -0.6204  0.0367 -0.2190
 2626TIP3    H1 7884   1.699   3.975   4.968 -0.4858  0.1628  0.2448
 2626TIP3    H2 7885   1.807   3.869   4.976 -1.0075 -0.5437 -1.6462
 2627TIP3   OH2 7886   1.207   0.692   1.919  0.4109 -0.2690 -0.1854
 2627TIP3    H1 7887   1.151   0.760   1.882  1.1012  0.0740 -0.6108
 2627TIP3    H2 7888   1.198   0.618   1.860  0.8612 -0.0088 -0.5868
 2628TIP3   OH2 7889   5.519   3.084   4.483 -0.1659  0.1143  0.2329
 2628TIP3    H1 7890   5.433   3.067   4.446  0.2205 -0.8030 -0.2518
 2628TIP3    H2 7891   5.570   3.120   4.411  0.5336 -1.5104 -0.1278
 2629TIP3   OH2 7892   4.924   5.708   3.782  0.0272  0.6277  0.0590
 2629TIP3    H1 7893   4.985   5.658   3.728 -0.6103  1.6430 -1.6808
 2629TIP3    H2 7894   4.924   5.663   3.866  0.9863 -1.0814 -0.8071
 2630TIP3   OH2 7895   5.125   2.883   4.764 -0.9823  0.6824 -0.2946
 2630TIP3    H1 7896   5.079   2.966   4.747 -0.0570  0.8666 -2.1488
 2630TIP3    H2 7897   5.118   2.835   4.681 -0.1203 -0.4171  0.2517
 2631TIP3   OH2 7898   1.669   1.163   0.195  0.3311  0.1698  0.2854
 2631TIP3    H1 7899   1.587   1.211   0.184  1.0439  1.0907 -1.2647
 2631TIP3    H2 7900   1.692   1.176   0.287 -0.8660  0.5479  0.5449
 2632TIP3   OH2 7901   2.551   0.932   1.707  0.7109 -0.3903  0.2603
 2632TIP3    H1 7902   2.466   0.929   1.749  0.3969 -1.1041 -0.3905
 2632TIP3    H2 7903   2.531   0.937   1.613  1.3892  0.4833  0.1399
 2633TIP3   OH2 7904   3.657   1.456   3.625  0.4732  0.2845  0.0145
 2633TIP3    H1 7905   3.647   1.526   3.561  0.0138  0.2901  0.0892
 2633TIP3    H2 7906   3.636   1.497   3.709 -0.9330 -0.2097 -0.0709
 2634TIP3   OH2 7907   1.556   3.278   4.306 -0.1994  0.4143  0.4811
 2634TIP3    H1 7908   1.647   3.308   4.310 -0.3280  1.5329 -2.2645
 2634TIP3    H2 7909   1.504   3.358   4.314 -0.7521  0.3343 -1.5789
 2635TIP3   OH2 7910   3.239   2.189   0.054  0.1006  0.3713  0.2291
 2635TIP3    H1 7911   3.294   2.242  -0.005 -0.1968  0.4322  0.0035
 2635TIP3    H2 7912   3.153   2.191   0.013 -0.0157  0.0872  0.4643
 2636TIP3   OH2 7913   4.459   0.587   4.100  0.2650 -0.3611  0.4294
 2636TIP3    H1 7914   4.445   0.594   4.194  0.6095  0.5083  0.4244
 2636TIP3    H2 7915   4.389   0.639   4.061  0.0201 -0.8611  0.1976
 2637TIP3   OH2 7916   1.676   2.504   4.303 -0.5958  0.1517  0.2777
 2637TIP3    H1 7917   1.762   2.462   4.310 -0.8363 -0.4371 -0.2310
 2637TIP3    H2 7918   1.684   2.562   4.228 -0.1625  1.2938  1.1700
 2638TIP3   OH2 7919   4.290   0.971   3.699 -0.5909 -0.8354 -0.1276
 2638TIP3    H1 7920   4.293   1.049   3.754  0.5014 -0.2539 -0.9796
 2638TIP3    H2 7921   4.293   0.898   3.761  0.2816 -0.2043  0.6066
 2639TIP3   OH2 7922   0.497   1.653   2.324 -0.0057 -0.5114 -0.1642
 2639TIP3    H1 7923   0.502   1.610   2.410 -0.8360 -1.1757 -0.4341
 2639TIP3    H2 7924   0.489   1.581   2.262  1.4356 -0.0767 -0.8906
 2640TIP3   OH2 7925   4.134   1.311   2.022  0.0873  0.1531 -0.2443
 2640TIP3    H1 7926   4.146   1.216   2.019 -0.7412  0.0309  0.1954
 2640TIP3    H2 7927   4.092   1.332   1.938  0.1230  0.1055 -0.2741
 2641TIP3   OH2 7928   4.010   4.110   1.672  0.4010 -0.3754  0.0497
 2641TIP3    H1 7929   4.086   4.092   1.617 -0.6934  1.0590 -2.0740
 2641TIP3    H2 7930   4.019   4.202   1.696 -0.3742 -0.3291  0.2003
 2642TIP3   OH2 7931   3.017   2.663   5.052  0.2786  0.0695  0.0302
 2642TIP3    H1 7932   2.932   2.651   5.094 -0.2270 -0.6603 -1.1383
 2642TIP3    H2 7933   3.047   2.748   5.082 -2.8331  2.4367 -2.7394
 2643TIP3   OH2 7934   4.822   1.830   1.661 -0.0160 -0.8629 -0.0095
 2643TIP3    H1 7935   4.776   1.746   1.671 -1.1550 -0.2612  0.0086
 2643TIP3    H2 7936   4.782   1.886   1.727  0.9706 -0.3919  0.1966
 2644TIP3   OH2 7937   5.111   0.301   2.446  0.0037  0.1364  0.1287
 2644TIP3    H1 7938   5.114   0.244   2.522 -0.3257  1.7206  1.3772
 2644TIP3    H2 7939   5.180   0.268   2.389  0.8270 -0.5678  1.4853
 2645TIP3   OH2 7940   0.033   1.548   0.248 -0.3099 -0.1423  0.0392
 2645TIP3    H1 7941   0.006   1.460   0.272  0.9450 -0.2720  1.1195
 2645TIP3    H2 7942   0.009   1.603   0.323  0.3123  0.1388  0.0436
 2646TIP3   OH2 7943   0.056   0.046   2.507  0.3122 -0.1066  0.1065
 2646TIP3    H1 7944   0.145   0.026   2.476  0.3465 -1.8161  1.1865
 2646TIP3    H2 7945   0.008  -0.036   2.497 -1.4380  1.0239 -1.2815
 2647TIP3   OH2 7946   4.913   2.686   1.326  0.4253  0.4608  0.1233
 2647TIP3    H1 7947   4.825   2.682   1.289  0.2176  1.6820  0.4406
 2647TIP3    H2 7948   4.926   2.779   1.348  0.5909 -0.1237  2.9039
 2648TIP3   OH2 7949   2.460   1.123   2.856 -0.3308 -0.0072  0.1480
 2648TIP3    H1 7950   2.378   1.120   2.808  0.4254 -1.3950 -1.1464
 2648TIP3    H2 7951   2.513   1.189   2.810 -0.5975  0.6852  0.8108
 2649TIP3   OH2 7952   4.724   1.847   0.086 -0.4480 -0.2602 -0.0872
 2649TIP3    H1 7953   4.799   1.793   0.114 -0.6518 -0.5116 -0.0249
 2649TIP3    H2 7954   4.722   1.919   0.149 -0.9818 -0.8917  0.6298
 2650TIP3   OH2 7955   3.365   1.305   2.516 -0.1808  1.0644 -0.4062
 2650TIP3    H1 7956   3.445   1.355   2.501 -0.7585  2.2830  0.3769
 2650TIP3    H2 7957   3.328   1.291   2.429  0.3630  1.3848 -0.6927
 2651TIP3   OH2 7958   0.367   1.162   0.928  0.7217  0.4816  0.0971
 2651TIP3    H1 7959   0.454   1.125   0.910  2.1648  2.9360  1.4607
 2651TIP3    H2 7960   0.373   1.196   1.017 -1.6735  0.7589  0.2219
 2652TIP3   OH2 7961   1.487   3.295   4.869  0.8244  0.1273  0.4878
 2652TIP3    H1 7962   1.442   3.317   4.951  1.7406 -0.1380  1.0733
 2652TIP3    H2 7963   1.524   3.209   4.885  0.3105 -0.2948 -0.5167
 2653TIP3   OH2 7964   1.150   2.722   2.638  0.7562  0.1652 -0.6809
 2653TIP3    H1 7965   1.167   2.799   2.692  2.7228  0.3708 -1.5028
 2653TIP3    H2 7966   1.112   2.757   2.557 -0.4239  0.0266 -0.2134
 2654TIP3   OH2 7967   2.645   1.147   1.179  0.4260 -0.0081  0.2064
 2654TIP3    H1 7968   2.640   1.060   1.140 -0.8035  0.1903 -0.1292
 2654TIP3    H2 7969   2.738   1.161   1.196  1.3574  0.5518 -4.1729
 2655TIP3   OH2 7970   2.195   3.376   3.517  0.1565 -0.1062 -0.2037
 2655TIP3    H1 7971   2.270   3.357   3.461  0.2911 -0.6674  0.1597
 2655TIP3    H2 7972   2.206   3.318   3.592  1.1010  2.0455  1.4126
 2656TIP3   OH2 7973   3.623   1.036   0.326  0.1058  0.5855  0.2267
 2656TIP3    H1 7974   3.557   0.979   0.365  0.3926 -1.0902 -1.5936
 2656TIP3    H2 7975   3.584   1.065   0.244  0.9588  0.9567 -0.0622
 2657TIP3   OH2 7976   5.971   1.045   4.969  0.1206  0.0505 -0.4454
 2657TIP3    H1 7977   5.992   0.967   5.020 -0.8502  0.4669  0.6120
 2657TIP3    H2 7978   6.028   1.038   4.892 -0.1540 -1.8473 -0.5286
 2658TIP3   OH2 7979   5.834   0.742   2.493 -0.1852 -0.6368  0.6337
 2658TIP3    H1 7980   5.820   0.818   2.436 -1.4148 -1.6553 -0.4862
 2658TIP3    H2 7981   5.869   0.779   2.574  0.9791  0.9308 -0.5168
 2659TIP3   OH2 7982   0.838   4.088   2.074  0.2343  0.0697 -0.5695
 2659TIP3    H1 7983   0.769   4.150   2.098 -0.1104  0.3030 -2.0618
 2659TIP3    H2 7984   0.894   4.136   2.013  1.9171 -0.0241  0.8071
 2660TIP3   OH2 7985   5.296   4.800   1.371 -0.1003 -0.2323  0.6950
 2660TIP3    H1 7986   5.302   4.748   1.291  2.0740  0.4072  0.3667
 2660TIP3    H2 7987   5.219   4.856   1.358  0.6909  0.4820 -1.3844
 2661TIP3   OH2 7988   2.334   1.559   0.758  0.0110  0.1593  0.0426
 2661TIP3    H1 7989   2.315   1.493   0.691  0.3493 -1.2498  1.2908
 2661TIP3    H2 7990   2.256   1.561   0.813  0.5209 -0.1546  0.7825
 2662TIP3   OH2 7991   0.741   0.137   5.054  0.1874 -0.3753 -0.4708
 2662TIP3    H1 7992   0.661   0.152   5.104  1.1250  1.0576  0.6902
 2662TIP3    H2 7993   0.730   0.190   4.975 -0.0602 -0.2926 -0.3825
 2663TIP3   OH2 7994   5.433   5.653   1.942  0.3483  0.1379 -0.2596
 2663TIP3    H1 7995   5.339   5.663   1.952  0.4376  1.0917 -0.2316
 2663TIP3    H2 7996   5.446   5.638   1.848  0.0251 -2.2014  0.0037
 2664TIP3   OH2 7997   2.465   4.917   4.086  0.2625  0.0576 -0.1922
 2664TIP3    H1 7998   2.526   4.870   4.143 -0.8852 -0.8559  0.3381
 2664TIP3    H2 7999   2.476   5.009   4.109  1.0264 -0.1460  0.2911
 2665TIP3   OH2 8000   2.878   0.940   4.518  0.0468  0.0508 -0.0355
 2665TIP3    H1 8001   2.853   0.852   4.545  0.9665 -0.6294 -1.2772
 2665TIP3    H2 8002   2.911   0.929   4.428  1.1574  1.4880  0.1567
 2666TIP3   OH2 8003   1.025   2.376   4.223  0.1432  0.5229 -0.1534
 2666TIP3    H1 8004   1.105   2.413   4.261  0.7443  0.2150 -1.0963
 2666TIP3    H2 8005   1.021   2.287   4.257 -0.2898  0.8233  0.6061
 2667TIP3   OH2 8006   3.743   5.011   5.110 -0.3155  0.7459 -0.0518
 2667TIP3    H1 8007   3.675   4.980   5.170  0.8523 -0.4181  0.7092
 2667TIP3    H2 8008   3.701   5.007   5.024 -2.1654  2.8680  0.6434
 2668TIP3   OH2 8009   5.893   4.866   3.723 -0.0335 -0.4002 -0.3143
 2668TIP3    H1 8010   5.933   4.854   3.809 -0.9469 -0.2464  0.1457
 2668TIP3    H2 8011   5.889   4.778   3.686 -0.8142 -0.6511  0.3453
 2669TIP3   OH2 8012   0.283   3.570   3.491  0.1102 -0.3357  0.3161
 2669TIP3    H1 8013   0.376   3.572   3.471 -0.0045  0.1453 -0.1945
 2669TIP3    H2 8014   0.250   3.493   3.444 -0.1094  0.6398 -1.1942
 2670TIP3   OH2 8015   1.764   2.437   2.940 -0.1150 -0.5242 -0.4289
 2670TIP3    H1 8016   1.776   2.520   2.893 -2.8853 -0.9981 -2.1780
 2670TIP3    H2 8017   1.824   2.376   2.898  0.1364 -0.0031 -0.8333
 2671TIP3   OH2 8018   2.879   2.333   2.306  1.1205 -0.0801  0.1303
 2671TIP3    H1 8019   2.933   2.401   2.347 -1.6339  1.3323  1.6485
 2671TIP3    H2 8020   2.843   2.375   2.228 -0.5741  0.2786  1.0618
 2672TIP3   OH2 8021   4.980   3.855   2.670  0.1485  0.7335  0.8497
 2672TIP3    H1 8022   5.025   3.878   2.589 -0.4464 -0.0103  0.2798
 2672TIP3    H2 8023   5.026   3.777   2.702  0.7212  1.3402  1.5302
 2673TIP3   OH2 8024   0.240   2.153   1.029  0.4142  0.0302  0.4277
 2673TIP3    H1 8025   0.304   2.082   1.033  1.5287  1.0566  1.8157
 2673TIP3    H2 8026   0.179   2.134   1.100  1.3235  1.0005  1.4840
 2674TIP3   OH2 8027   5.365   3.282   3.662 -0.1119  0.0902 -0.4735
 2674TIP3    H1 8028   5.277   3.270   3.628  0.1487 -1.2253 -0.7423
 2674TIP3    H2 8029   5.421   3.277   3.585  0.3026 -0.6187 -0.1426
 2675TIP3   OH2 8030   3.445   3.828   4.717  0.3078 -0.4861  0.5500
 2675TIP3    H1 8031   3.451   3.885   4.794 -0.2284  0.6480 -0.2121
 2675TIP3    H2 8032   3.467   3.741   4.750 -3.0274 -0.7157  2.7515
 2676TIP3   OH2 8033   3.150   3.011   3.114  0.0521  0.2214  0.0895
 2676TIP3    H1 8034   3.177   3.032   3.204 -1.1497 -0.7625  0.7041
 2676TIP3    H2 8035   3.225   3.037   3.061  0.8231  0.7653  1.3775
 2677TIP3   OH2 8036   2.821   3.190   4.414 -0.2844  0.5868  0.0203
 2677TIP3    H1 8037   2.777   3.125   4.359  0.0052 -0.2822  0.7854
 2677TIP3    H2 8038   2.894   3.142   4.453  0.8677  1.7862 -0.5830
 2678TIP3   OH2 8039   2.222   3.258   3.783 -0.0676  0.1809  0.0175
 2678TIP3    H1 8040   2.276   3.182   3.805 -0.5457 -0.3726 -0.6889
 2678TIP3    H2 8041   2.250   3.326   3.845  1.4758 -0.0679 -0.3772
 2679TIP3   OH2 8042   6.328   3.596   2.374 -0.2917  0.1060  0.6866
 2679TIP3    H1 8043   6.416   3.577   2.341  0.2841  3.3677 -0.0446
 2679TIP3    H2 8044   6.273   3.526   2.339  1.7153 -0.9800 -0.4216
 2680TIP3   OH2 8045   1.737   0.839   1.298 -0.0165  0.5295 -0.0543
 2680TIP3    H1 8046   1.675   0.902   1.336 -1.3054 -1.6135  1.6538
 2680TIP3    H2 8047   1.765   0.786   1.372  3.5121  1.0005 -0.8725
 2681TIP3   OH2 8048   5.064   0.462   1.833 -0.3757  0.3528  0.0237
 2681TIP3    H1 8049   5.002   0.391   1.816 -0.4697  0.3204  0.4958
 2681TIP3    H2 8050   5.099   0.444   1.920 -0.7163  1.1167  0.3332
 2682TIP3   OH2 8051   6.152   2.551   5.057 -0.0216 -0.0933  0.0348
 2682TIP3    H1 8052   6.166   2.645   5.043  0.2137 -0.0597  0.4618
 2682TIP3    H2 8053   6.162   2.512   4.970  0.4807  0.2106 -0.0495
 2683TIP3   OH2 8054   6.243   0.435   3.447  0.2756  0.3625 -0.0441
 2683TIP3    H1 8055   6.205   0.469   3.366  0.3062 -0.1649 -0.2852
 2683TIP3    H2 8056   6.288   0.510   3.486 -0.5253  0.8499 -0.0424
 2684TIP3   OH2 8057   3.239   3.979   1.698  0.6035 -0.1736  0.4799
 2684TIP3    H1 8058   3.163   3.964   1.754  1.6491  0.4804  2.1328
 2684TIP3    H2 8059   3.206   3.966   1.609 -1.8685  1.7907  1.0138
 2685TIP3   OH2 8060   4.578   1.558   3.704 -0.2136 -0.0425 -0.0240
 2685TIP3    H1 8061   4.644   1.523   3.644  1.4696  0.8647  1.2046
 2685TIP3    H2 8062   4.590   1.508   3.785  0.5695  1.6109  0.9458
 2686TIP3   OH2 8063   1.755   4.521   0.615  0.8975  0.5902 -0.2578
 2686TIP3    H1 8064   1.813   4.539   0.688 -0.0223  0.4754  0.5305
 2686TIP3    H2 8065   1.678   4.576   0.631 -1.8437 -3.3857  2.0374
 2687TIP3   OH2 8066   4.957   2.097   2.605 -0.1159  0.9453 -0.5274
 2687TIP3    H1 8067   4.925   2.033   2.542 -0.2549  0.1770  0.2935
 2687TIP3    H2 8068   5.049   2.074   2.618 -0.4109  0.2283  0.5207
 2688TIP3   OH2 8069   3.016  -0.007   4.783  0.4629  0.1059  0.5706
 2688TIP3    H1 8070   2.961   0.013   4.858 -0.4023  3.5355 -0.7635
 2688TIP3    H2 8071   3.027   0.077   4.738  2.3242 -1.4420 -2.2204
 2689TIP3   OH2 8072   4.177   3.997   2.109 -0.1020 -0.1266  0.2495
 2689TIP3    H1 8073   4.168   3.919   2.055  0.0460 -0.3972  0.6116
 2689TIP3    H2 8074   4.184   4.069   2.046  0.2542 -0.4555 -0.0943
 2690TIP3   OH2 8075   5.704   5.833   3.464  0.3390 -0.1965 -0.5087
 2690TIP3    H1 8076   5.747   5.846   3.379  1.4493  0.2958  0.1128
 2690TIP3    H2 8077   5.770   5.787   3.517 -0.4024 -0.6444  0.0438
 2691TIP3   OH2 8078   1.401   0.658   3.560  0.5456 -0.1918 -0.1931
 2691TIP3    H1 8079   1.483   0.615   3.535  1.4421  1.5578 -0.4628
 2691TIP3    H2 8080   1.353   0.667   3.477  0.8092  0.2046 -0.3071
 2692TIP3   OH2 8081   5.991   4.656   3.589 -0.3370  0.4546 -0.2377
 2692TIP3    H1 8082   5.951   4.696   3.512 -0.7886  0.4223 -0.0211
 2692TIP3    H2 8083   6.082   4.641   3.564 -0.1701  1.5694 -0.3386
 2693TIP3   OH2 8084   1.895   1.627   4.286  0.0707  0.2714 -0.2258
 2693TIP3    H1 8085   1.946   1.582   4.218  1.8482 -0.1648  1.2947
 2693TIP3    H2 8086   1.846   1.558   4.330 -1.2114  0.5758 -1.1420
 2694TIP3   OH2 8087   5.834   1.585   2.501  0.1525 -0.1996 -0.2185
 2694TIP3    H1 8088   5.784   1.513   2.539  3.7846 -2.8202  0.1212
 2694TIP3    H2 8089   5.825   1.573   2.406  1.0006 -1.4257 -0.1729
 2695TIP3   OH2 8090   2.690   4.776   2.977 -0.4343  0.2292 -0.0337
 2695TIP3    H1 8091   2.661   4.696   3.021  0.7731 -0.2457 -0.0505
 2695TIP3    H2 8092   2.754   4.815   3.036 -0.0633  0.4968 -0.5939
 2696TIP3   OH2 8093   4.314   0.746   4.564 -0.2720 -0.5092 -0.2349
 2696TIP3    H1 8094   4.292   0.838   4.580  1.2667 -0.4312  1.7981
 2696TIP3    H2 8095   4.393   0.731   4.615  1.0606 -2.2928 -2.6107
 2697TIP3   OH2 8096   1.525   1.480   0.454  0.3076  0.6420  0.9365
 2697TIP3    H1 8097   1.583   1.555   0.469 -0.2074  1.1659  0.3215
 2697TIP3    H2 8098   1.514   1.476   0.359 -0.3458  0.3020  1.0222
 2698TIP3   OH2 8099   5.080   5.504   3.621 -0.6807  0.2734  0.0025
 2698TIP3    H1 8100   5.055   5.501   3.529 -1.1899 -0.3221  0.1541
 2698TIP3    H2 8101   5.159   5.558   3.623 -1.4451  1.4534 -0.5978
 2699TIP3   OH2 8102   0.552   3.153   1.522 -0.2942 -0.5199 -0.0846
 2699TIP3    H1 8103   0.563   3.192   1.435  0.1647  1.1661  0.6888
 2699TIP3    H2 8104   0.459   3.164   1.541  0.2110  2.6077  1.1332
 2700TIP3   OH2 8105   5.718   3.241   0.118  0.2664  0.1101 -0.0548
 2700TIP3    H1 8106   5.656   3.232   0.191 -0.9125  0.8502 -0.9360
 2700TIP3    H2 8107   5.681   3.187   0.048  0.5723  0.6127 -0.6131
 2701TIP3   OH2 8108   2.271   1.694   3.589 -0.0084  0.0569  0.1539
 2701TIP3    H1 8109   2.252   1.760   3.523  0.0624 -0.4492 -0.3769
 2701TIP3    H2 8110   2.254   1.610   3.545  2.0976 -0.3852  0.0901
 2702TIP3   OH2 8111   3.507   0.591   5.157 -0.1882  0.3465  0.0494
 2702TIP3    H1 8112   3.603   0.597   5.150 -0.1911 -0.5714 -1.0263
 2702TIP3    H2 8113   3.479   0.562   5.070 -1.6031  2.1985 -0.1532
 2703TIP3   OH2 8114   1.418   5.145   3.314  0.5611 -0.1930  0.4119
 2703TIP3    H1 8115   1.480   5.097   3.259  0.1585 -1.5283  1.0859
 2703TIP3    H2 8116   1.334   5.135   3.269  0.2253 -1.3103  1.2461
 2704TIP3   OH2 8117   3.923   3.401   1.598  0.1190 -0.4050 -0.4268
 2704TIP3    H1 8118   3.849   3.341   1.598  0.4591 -0.9820  2.2371
 2704TIP3    H2 8119   3.983   3.364   1.663  1.5310  1.4417 -0.5991
 2705TIP3   OH2 8120   0.223   0.874   3.079 -0.1949  0.3823 -0.7417
 2705TIP3    H1 8121   0.129   0.886   3.064 -0.0248  2.3239 -0.5047
 2705TIP3    H2 8122   0.258   0.851   2.993 -0.8550 -0.2646 -0.8515
 2706TIP3   OH2 8123   4.136   0.408   2.836  0.0170 -0.2168  0.3096
 2706TIP3    H1 8124   4.078   0.334   2.820 -0.2659  0.2527 -0.9318
 2706TIP3    H2 8125   4.080   0.485   2.827  0.5793  0.1941  0.2766
 2707TIP3   OH2 8126   5.320   4.992   4.994  0.6213 -0.0620  0.0398
 2707TIP3    H1 8127   5.262   5.049   5.046  0.1719 -0.9975  0.5934
 2707TIP3    H2 8128   5.369   4.943   5.060  0.9822 -0.3384 -0.4357
 2708TIP3   OH2 8129   3.926   4.193   2.998 -0.0664  0.5466 -0.7536
 2708TIP3    H1 8130   3.961   4.109   2.968  1.4862  1.2026 -0.8646
 2708TIP3    H2 8131   3.832   4.188   2.980 -0.2522 -1.6838  0.4534
 2709TIP3   OH2 8132   3.466   1.383   4.890  0.4138  0.1115 -0.2630
 2709TIP3    H1 8133   3.446   1.458   4.946 -1.2972  0.5239 -1.3512
 2709TIP3    H2 8134   3.409   1.394   4.814  0.7838 -1.8284 -0.8754
 2710TIP3   OH2 8135   2.022   3.849   4.704  0.0860  0.0151 -0.0855
 2710TIP3    H1 8136   1.947   3.795   4.678  0.6352  0.4313 -2.8378
 2710TIP3    H2 8137   1.983   3.928   4.742 -0.8820 -0.0288 -0.9360
 2711TIP3   OH2 8138   0.588   4.553   3.297 -0.3320 -0.0149  0.0336
 2711TIP3    H1 8139   0.640   4.490   3.247 -0.2227 -0.3421  0.5528
 2711TIP3    H2 8140   0.579   4.628   3.239 -2.5060 -1.4012 -1.5590
 2712TIP3   OH2 8141   5.622   0.105   4.605  0.0924 -0.3763  0.4297
 2712TIP3    H1 8142   5.664   0.020   4.595  1.8943  0.3093  1.5930
 2712TIP3    H2 8143   5.595   0.108   4.697 -0.5031  0.0873  0.2505
 2713TIP3   OH2 8144   2.066   2.143   0.714  0.3547  0.0836 -0.1131
 2713TIP3    H1 8145   2.130   2.166   0.781  0.8524  0.9414 -0.8712
 2713TIP3    H2 8146   2.070   2.047   0.710  0.3646  0.0265  1.0283
 2714TIP3   OH2 8147   3.599   0.406   3.275  0.6281 -0.6985 -0.6398
 2714TIP3    H1 8148   3.552   0.332   3.315  0.0636 -0.1937 -0.3532
 2714TIP3    H2 8149   3.671   0.424   3.335 -1.0870  1.0343  1.0209
 2715TIP3   OH2 8150   4.956   5.655   1.428  0.0506 -0.3670 -0.7197
 2715TIP3    H1 8151   4.975   5.686   1.517 -1.1493 -2.1951  0.2468
 2715TIP3    H2 8152   4.862   5.637   1.428  0.1948 -1.3196 -2.0457
 2716TIP3   OH2 8153   4.529   2.100   0.706  0.7875  0.1028 -0.1698
 2716TIP3    H1 8154   4.511   2.061   0.620 -1.8417  0.7306  0.0035
 2716TIP3    H2 8155   4.550   2.025   0.761 -0.9179 -0.7817 -0.6152
 2717TIP3   OH2 8156   2.323   3.950   2.815  0.3260 -0.3201 -0.2570
 2717TIP3    H1 8157   2.385   4.017   2.844  1.8517 -1.0224 -1.7442
 2717TIP3    H2 8158   2.374   3.870   2.810 -0.6048 -0.8509 -1.9272
 2718TIP3   OH2 8159   1.453   1.257   0.588  0.1885 -0.4503 -0.1896
 2718TIP3    H1 8160   1.443   1.334   0.532 -0.0711  0.2900  0.8643
 2718TIP3    H2 8161   1.548   1.247   0.597  0.2219 -0.0153 -0.0166
 2719TIP3   OH2 8162   5.173   4.581   5.158  0.5961  0.1777  0.0194
 2719TIP3    H1 8163   5.185   4.569   5.064  1.0710 -1.6677  0.2842
 2719TIP3    H2 8164   5.206   4.501   5.198  0.1186  0.7835  1.7543
 2720TIP3   OH2 8165   1.511   3.042   2.278  0.5031 -0.1173  0.3369
 2720TIP3    H1 8166   1.556   2.968   2.238  0.7868  0.9270 -1.3360
 2720TIP3    H2 8167   1.562   3.118   2.253 -0.0535  0.7257  1.6409
 2721TIP3   OH2 8168   3.614   1.156   2.456  0.0879 -0.2565 -0.1529
 2721TIP3    H1 8169   3.528   1.114   2.456 -0.3586  0.4301 -3.0776
 2721TIP3    H2 8170   3.596   1.249   2.469  0.4545 -0.1872 -0.1158
 2722TIP3   OH2 8171   4.941   1.098   4.165 -0.1647  0.1912 -0.4420
 2722TIP3    H1 8172   5.018   1.087   4.221 -0.0512  0.6303 -0.5117
 2722TIP3    H2 8173   4.918   1.008   4.139 -0.4486 -0.0535  0.6044
 2723TIP3   OH2 8174   2.766   5.643   5.109 -0.0760  1.0587  0.3107
 2723TIP3    H1 8175   2.739   5.553   5.088 -0.5973  1.1136  0.7136
 2723TIP3    H2 8176   2.742   5.654   5.201  0.9783  1.2564  0.5710
 2724TIP3   OH2 8177   3.546   4.791   0.703 -0.4180  0.1236  0.5701
 2724TIP3    H1 8178   3.605   4.845   0.756  0.0866 -0.4555  0.6049
 2724TIP3    H2 8179   3.472   4.849   0.684  0.9097  1.4247 -0.8825
 2725TIP3   OH2 8180   4.728   0.456   0.288  0.1802 -0.0983 -0.6832
 2725TIP3    H1 8181   4.822   0.449   0.270  0.1256 -0.0722 -1.0015
 2725TIP3    H2 8182   4.702   0.537   0.244  0.3897  0.9733  1.1084
 2726TIP3   OH2 8183   5.648   4.976   0.736  0.6088  0.2565 -0.0237
 2726TIP3    H1 8184   5.637   4.974   0.831  0.5432 -1.9237 -0.0179
 2726TIP3    H2 8185   5.677   5.065   0.716  2.0027  0.3488  2.1809
 2727TIP3   OH2 8186   0.268   2.513   2.461 -0.7360 -1.0371 -0.4088
 2727TIP3    H1 8187   0.310   2.432   2.432 -0.3503 -0.7602 -0.6373
 2727TIP3    H2 8188   0.250   2.500   2.554 -0.8561 -1.4614 -0.4918
 2728TIP3   OH2 8189   5.378   5.692   1.358 -0.0436  0.2712  0.1599
 2728TIP3    H1 8190   5.333   5.776   1.366  0.1477  0.7590 -2.6905
 2728TIP3    H2 8191   5.461   5.714   1.315 -0.2394 -1.3933 -1.1793
 2729TIP3   OH2 8192   5.643   2.275   2.441 -0.0684 -0.0463  0.0074
 2729TIP3    H1 8193   5.641   2.180   2.426 -0.4986 -0.0139 -0.1518
 2729TIP3    H2 8194   5.565   2.293   2.493  0.0623  0.2073  0.1177
 2730TIP3   OH2 8195   1.412   2.354   0.403  0.8692 -0.1782  0.2334
 2730TIP3    H1 8196   1.363   2.371   0.484 -0.0065  0.4466 -0.4082
 2730TIP3    H2 8197   1.493   2.312   0.432  1.0914  1.0862  1.5315
 2731TIP3   OH2 8198   3.218   5.087   2.702  0.4542  0.5606 -0.1713
 2731TIP3    H1 8199   3.199   5.086   2.608 -1.6095  0.5177  0.2137
 2731TIP3    H2 8200   3.146   5.039   2.742  1.4809  0.2758  1.4317
 2732TIP3   OH2 8201   5.839   1.156   1.197 -0.3670  0.2511 -0.2223
 2732TIP3    H1 8202   5.748   1.128   1.202 -0.1072 -0.6226 -0.2387
 2732TIP3    H2 8203   5.844   1.208   1.116 -0.8631  0.3729 -0.1748
 2733TIP3   OH2 8204   2.686   0.343   2.984  0.2877 -0.1739 -0.3898
 2733TIP3    H1 8205   2.645   0.333   3.070 -1.2128 -0.2027 -1.0838
 2733TIP3    H2 8206   2.694   0.438   2.972 -1.6495 -0.0655 -1.1586
 2734TIP3   OH2 8207   5.415   3.098   3.856  0.1218  0.3109  0.1314
 2734TIP3    H1 8208   5.394   3.174   3.802  0.9942  0.7701  0.4255
 2734TIP3    H2 8209   5.423   3.026   3.794  1.2579  0.8641 -0.3776
 2735TIP3   OH2 8210   5.169   4.270   2.364  0.2107 -0.4022 -0.2477
 2735TIP3    H1 8211   5.170   4.361   2.335 -0.2493 -0.3388 -0.0665
 2735TIP3    H2 8212   5.079   4.240   2.349  0.2854 -0.7421 -0.0466
 2736TIP3   OH2 8213   2.902   1.879   1.798 -0.3635  0.3774 -0.4908
 2736TIP3    H1 8214   2.815   1.843   1.812  0.2676 -1.4372 -0.9293
 2736TIP3    H2 8215   2.910   1.887   1.703 -0.1474  0.8047 -0.4413
 2737TIP3   OH2 8216   0.052   3.774   1.174  0.1420 -0.3555 -0.2038
 2737TIP3    H1 8217  -0.039   3.804   1.185  0.5905  0.9809 -0.0572
 2737TIP3    H2 8218   0.105   3.842   1.214  1.2082 -1.3413  0.1091
 2738TIP3   OH2 8219   0.670   5.568   0.824 -0.3922  0.2381  0.6391
 2738TIP3    H1 8220   0.644   5.639   0.883 -1.0794  2.1656 -1.7821
 2738TIP3    H2 8221   0.761   5.550   0.846 -0.7494  0.5508  2.5351
 2739TIP3   OH2 8222   6.078   1.489   0.082  0.1088  0.2324  0.3581
 2739TIP3    H1 8223   6.123   1.532   0.156  0.8309  0.6867 -0.3313
 2739TIP3    H2 8224   6.085   1.552   0.010  2.3800 -1.5145 -1.0946
 2740TIP3   OH2 8225   5.268   4.759   0.393 -0.1919  0.5317 -0.0706
 2740TIP3    H1 8226   5.174   4.759   0.375 -0.1889 -0.2377 -0.1189
 2740TIP3    H2 8227   5.307   4.722   0.314  0.1439  0.7507 -0.0077
 2741TIP3   OH2 8228   5.479   0.651   1.350  0.5063 -0.2728  0.6279
 2741TIP3    H1 8229   5.552   0.711   1.335 -0.5198  0.7179 -0.6831
 2741TIP3    H2 8230   5.518   0.575   1.393  2.1207  0.6499  0.8469
 2742TIP3   OH2 8231   5.861   3.746   4.932  0.1621  0.0652 -0.1980
 2742TIP3    H1 8232   5.826   3.680   4.871  2.1986 -0.0452 -1.3569
 2742TIP3    H2 8233   5.952   3.719   4.945  0.6132  1.8232  0.4899
 2743TIP3   OH2 8234   0.378   1.841   1.563 -0.2378 -0.1061  0.0487
 2743TIP3    H1 8235   0.433   1.763   1.560  0.6447  0.4950  0.4492
 2743TIP3    H2 8236   0.388   1.874   1.652 -1.0305  0.1741  0.0433
 2744TIP3   OH2 8237   5.756   3.043   1.466 -0.3700 -0.3708  0.0025
 2744TIP3    H1 8238   5.693   3.107   1.497 -0.5672 -0.7456  0.3769
 2744TIP3    H2 8239   5.837   3.093   1.452 -0.3244 -0.1645  0.9494
 2745TIP3   OH2 8240   1.355   5.687   3.330  0.6133  0.2202  0.0617
 2745TIP3    H1 8241   1.299   5.704   3.405 -0.7937 -0.4831 -0.7874
 2745TIP3    H2 8242   1.345   5.764   3.274  0.6429  0.1818  0.0030
 2746TIP3   OH2 8243   1.942   1.875   2.557  0.2679 -0.0510  0.0816
 2746TIP3    H1 8244   2.022   1.847   2.512 -0.1510 -0.5031 -0.3800
 2746TIP3    H2 8245   1.911   1.797   2.602  0.0649  0.1181  0.2350
 2747TIP3   OH2 8246   2.254   3.562   1.618 -0.8473 -0.3619 -0.9317
 2747TIP3    H1 8247   2.229   3.549   1.526 -1.9552  2.2717 -1.0923
 2747TIP3    H2 8248   2.250   3.657   1.630 -0.5478 -0.6343  1.8109
 2748TIP3   OH2 8249   5.110   5.662   4.248  0.0926 -0.0965  0.0874
 2748TIP3    H1 8250   5.035   5.640   4.193  0.4087  0.4264 -0.5744
 2748TIP3    H2 8251   5.186   5.635   4.195  0.3996  0.3690  0.2903
 2749TIP3   OH2 8252   5.410   5.393   0.820  0.4169  0.3362  0.1563
 2749TIP3    H1 8253   5.389   5.470   0.874  1.1170  0.7099 -0.0900
 2749TIP3    H2 8254   5.482   5.351   0.866 -0.9634 -1.0833  1.1355
 2750TIP3   OH2 8255   5.060   5.918   2.293  0.3463  0.4384  0.1035
 2750TIP3    H1 8256   4.980   5.880   2.329  0.2775  0.1681 -0.3240
 2750TIP3    H2 8257   5.052   5.905   2.198  0.0329  2.0691 -0.1225
 2751TIP3   OH2 8258   6.128   3.831   3.010  0.1822  0.0383 -0.4084
 2751TIP3    H1 8259   6.133   3.753   2.955 -0.9524 -1.4439  1.4593
 2751TIP3    H2 8260   6.081   3.802   3.088  0.0508  2.5248  0.5205
 2752TIP3   OH2 8261   2.582   2.518   0.313 -0.2261  0.4307  0.4774
 2752TIP3    H1 8262   2.647   2.579   0.278 -1.6980  1.2187 -1.0449
 2752TIP3    H2 8263   2.507   2.574   0.334 -1.3254 -0.7528 -0.2039
 2753TIP3   OH2 8264   4.633   5.843   3.963  0.2745  0.2364 -0.2530
 2753TIP3    H1 8265   4.687   5.806   4.033  1.3043  2.2886  0.1103
 2753TIP3    H2 8266   4.640   5.938   3.975 -1.5270  0.5916 -1.6628
 2754TIP3   OH2 8267   1.198   4.072   0.867 -0.1560  0.2443 -0.8841
 2754TIP3    H1 8268   1.128   4.009   0.855 -0.5051  0.1952  1.1441
 2754TIP3    H2 8269   1.172   4.148   0.815 -1.2099 -0.1502 -0.9392
 2755TIP3   OH2 8270   3.186   1.657   2.246  0.1073 -0.0457  0.4101
 2755TIP3    H1 8271   3.257   1.594   2.234 -0.4621 -0.4734 -0.8622
 2755TIP3    H2 8272   3.157   1.679   2.157  0.7114  2.5445  0.7625
 2756TIP3   OH2 8273   3.898   1.930   0.942 -0.0186 -0.5924  0.2510
 2756TIP3    H1 8274   3.954   1.861   0.976  1.0450  0.9886  1.8599
 2756TIP3    H2 8275   3.927   1.942   0.851  2.1545  0.0609  0.9877
 2757TIP3   OH2 8276   1.567   3.265   0.671 -0.1333 -0.4071  0.0654
 2757TIP3    H1 8277   1.515   3.199   0.717 -0.5973  0.7226  1.2219
 2757TIP3    H2 8278   1.586   3.331   0.738  0.6678  0.4311 -0.9634
 2758TIP3   OH2 8279   4.711   0.364   4.931 -0.1721 -0.5415 -0.0844
 2758TIP3    H1 8280   4.674   0.396   5.012  0.2413 -2.2004  0.8162
 2758TIP3    H2 8281   4.806   0.375   4.941 -0.0352 -1.7951  0.1731
 2759TIP3   OH2 8282   0.196   3.589   0.114 -0.1606  0.1560  0.1117
 2759TIP3    H1 8283   0.197   3.545   0.199  0.4821 -0.5279 -0.2427
 2759TIP3    H2 8284   0.111   3.632   0.111  0.0768  0.7567  1.3869
 2760TIP3   OH2 8285   0.089   1.787   1.028  0.6145 -0.0596  0.6144
 2760TIP3    H1 8286   0.178   1.763   1.007  0.4940  0.4364 -0.5217
 2760TIP3    H2 8287   0.050   1.708   1.066  0.9345 -0.9177 -0.7760
 2761TIP3   OH2 8288   2.561   2.801   0.765 -0.6371  0.0321  0.8896
 2761TIP3    H1 8289   2.548   2.895   0.776 -0.4890  0.0848  0.6286
 2761TIP3    H2 8290   2.490   2.761   0.815  0.3682  0.2507  2.5882
 2762TIP3   OH2 8291   5.093   1.036   0.531 -0.0025 -0.0769 -0.6683
 2762TIP3    H1 8292   5.018   1.032   0.472  0.8849 -0.3430 -1.8104
 2762TIP3    H2 8293   5.126   0.946   0.534 -0.1337 -0.1069  0.3935
 2763TIP3   OH2 8294   4.226   3.254   2.058 -0.4472  0.1140 -0.2995
 2763TIP3    H1 8295   4.237   3.193   1.984  0.7059  0.5748 -0.5342
 2763TIP3    H2 8296   4.299   3.315   2.049  0.5561 -0.6505  2.0351
 2764TIP3   OH2 8297   0.122   3.942   5.092  0.1716 -0.7313  0.8650
 2764TIP3    H1 8298   0.136   3.995   5.170 -0.5909  0.9541 -0.0639
 2764TIP3    H2 8299   0.187   3.974   5.029 -0.6583 -0.4878  0.1021
 2765TIP3   OH2 8300   3.450   1.817   0.984  0.3310  0.6725  0.3834
 2765TIP3    H1 8301   3.413   1.902   0.961 -0.3405  0.5739  1.0485
 2765TIP3    H2 8302   3.376   1.768   1.020  0.0912 -1.0988 -2.2623
 2766TIP3   OH2 8303   4.520   4.979   1.158  0.3668 -0.1203 -0.3441
 2766TIP3    H1 8304   4.460   4.998   1.231  2.6895 -2.5353  2.4499
 2766TIP3    H2 8305   4.542   5.065   1.122 -3.0303  0.9813 -0.1618
 2767TIP3   OH2 8306   4.215   4.402   3.284  0.2130  0.1238  0.5895
 2767TIP3    H1 8307   4.225   4.375   3.192 -0.7607  1.6221  0.0059
 2767TIP3    H2 8308   4.257   4.488   3.288  0.8808 -0.2388  1.7421
 2768TIP3   OH2 8309   1.658   1.044   0.770 -0.1706  0.6390  0.2044
 2768TIP3    H1 8310   1.744   1.009   0.792 -0.6099  0.2224  1.3599
 2768TIP3    H2 8311   1.616   0.974   0.720  0.0110  0.6693  0.0109
 2769TIP3   OH2 8312   2.219   2.148   5.088 -0.2709 -0.3906  0.2870
 2769TIP3    H1 8313   2.223   2.213   5.159 -1.4356 -0.1312  0.1323
 2769TIP3    H2 8314   2.190   2.198   5.012  0.1679 -0.8335 -0.1737
 2770TIP3   OH2 8315   1.454   2.647   1.017  0.0400  0.2395  0.1712
 2770TIP3    H1 8316   1.426   2.589   1.087 -1.5679 -0.1879 -0.7783
 2770TIP3    H2 8317   1.535   2.608   0.985  1.5852  1.1995  2.6201
 2771TIP3   OH2 8318   1.808   4.925   4.170 -0.4657 -0.1327  0.2422
 2771TIP3    H1 8319   1.780   4.965   4.088 -0.2868  0.5611  0.5106
 2771TIP3    H2 8320   1.730   4.878   4.202 -0.9344  0.6868  0.3304
 2772TIP3   OH2 8321   2.070   2.795   1.397  0.2342  0.2495  0.0264
 2772TIP3    H1 8322   2.009   2.795   1.471  1.3027 -0.5917  0.9459
 2772TIP3    H2 8323   2.018   2.766   1.322 -0.5467 -0.1966  0.7344
 2773TIP3   OH2 8324   2.442   3.538   3.024  1.4798 -0.5474 -0.2338
 2773TIP3    H1 8325   2.440   3.475   3.097  3.4022 -1.8605 -1.2326
 2773TIP3    H2 8326   2.372   3.508   2.966  0.1900  0.2797  0.8391
 2774TIP3   OH2 8327   3.696   4.957   2.159 -0.2084 -0.7536  0.4525
 2774TIP3    H1 8328   3.721   4.959   2.252 -3.2375  1.5093  1.3894
 2774TIP3    H2 8329   3.617   4.904   2.156  0.1924 -1.3202 -0.9854
 2775TIP3   OH2 8330   3.415   1.603   1.878 -0.3232 -0.3269  0.2397
 2775TIP3    H1 8331   3.401   1.522   1.829 -1.4989  0.4124 -0.7304
 2775TIP3    H2 8332   3.328   1.624   1.914 -0.7632  1.9264 -1.8688
 2776TIP3   OH2 8333   4.782   1.165   3.922  0.2016 -0.3660  0.1408
 2776TIP3    H1 8334   4.807   1.162   4.014 -0.0370  2.0020  0.3313
 2776TIP3    H2 8335   4.848   1.221   3.881 -0.5159 -0.2059 -0.8265
 2777TIP3   OH2 8336   1.485   4.435   3.132  0.0677  0.1418 -0.0414
 2777TIP3    H1 8337   1.415   4.469   3.076  0.2855 -1.3598 -1.3164
 2777TIP3    H2 8338   1.521   4.512   3.175  0.1929  1.4795 -2.3575
 2778TIP3   OH2 8339   4.955   0.707   0.988  0.1782  0.3194  0.3794
 2778TIP3    H1 8340   5.050   0.720   0.982 -0.2258  3.1784 -1.9984
 2778TIP3    H2 8341   4.933   0.659   0.909 -0.3317 -1.1066  1.3470
 2779TIP3   OH2 8342   4.112   2.164   0.915 -0.1445  0.3764  0.4784
 2779TIP3    H1 8343   4.176   2.112   0.965  1.2315  0.2507 -1.3203
 2779TIP3    H2 8344   4.163   2.203   0.845 -1.7933  1.5502 -0.1243
 2780TIP3   OH2 8345   2.271   2.900   5.015  0.3335  0.5344  0.6842
 2780TIP3    H1 8346   2.188   2.867   5.052  0.6295 -0.9469  0.0770
 2780TIP3    H2 8347   2.244   2.972   4.958 -0.6610 -0.4908 -0.1988
 2781TIP3   OH2 8348   5.461   2.897   0.529 -0.1444  0.4829 -0.1878
 2781TIP3    H1 8349   5.427   2.821   0.577 -1.9597  1.0429 -0.4873
 2781TIP3    H2 8350   5.480   2.962   0.597 -2.3244  1.1275 -0.1056
 2782TIP3   OH2 8351   2.982   4.995   4.589  0.0698  0.2467 -0.2974
 2782TIP3    H1 8352   2.935   5.078   4.604 -0.8636 -0.1033 -1.1588
 2782TIP3    H2 8353   3.043   5.015   4.518  0.0948  0.2950 -0.2623
 2783TIP3   OH2 8354   2.075   2.473   1.070  0.2686 -0.0432  0.4352
 2783TIP3    H1 8355   2.132   2.515   1.135 -0.7487 -0.3953  1.5967
 2783TIP3    H2 8356   1.993   2.522   1.074 -0.4034 -1.1460  0.6942
 2784TIP3   OH2 8357   1.245   3.109  -0.004  0.2417 -0.0654 -0.1991
 2784TIP3    H1 8358   1.330   3.092   0.038 -1.3831 -2.0437  2.6504
 2784TIP3    H2 8359   1.211   3.186   0.041 -0.3063 -0.4960  0.1352
 2785TIP3   OH2 8360   0.146   1.853   1.387 -0.1020 -0.3320  0.5143
 2785TIP3    H1 8361   0.219   1.849   1.449  0.2705 -0.8208  0.0602
 2785TIP3    H2 8362   0.126   1.761   1.369  0.3537 -0.2080 -0.7188
 2786TIP3   OH2 8363   3.675   5.803   0.314  0.2227  0.2119 -0.4365
 2786TIP3    H1 8364   3.646   5.836   0.229  0.0317 -1.0529 -0.8843
 2786TIP3    H2 8365   3.767   5.780   0.301  0.3824  0.6445 -0.1002
 2787TIP3   OH2 8366   1.770   2.552   1.286 -0.0022 -0.0253  0.3658
 2787TIP3    H1 8367   1.726   2.525   1.205 -0.9899  0.3585  0.7655
 2787TIP3    H2 8368   1.843   2.607   1.256 -1.7273  2.0696 -0.1952
 2788TIP3   OH2 8369   2.100   2.442   1.993 -0.2847  0.3718  0.6631
 2788TIP3    H1 8370   2.042   2.389   2.047  0.5679 -0.7787  0.4625
 2788TIP3    H2 8371   2.154   2.379   1.945 -0.8992  1.3458 -1.4226
 2789TIP3   OH2 8372   0.651   1.016   4.993  0.2775  0.2178  0.2818
 2789TIP3    H1 8373   0.576   1.076   5.000 -0.4561 -0.7768  1.2839
 2789TIP3    H2 8374   0.689   1.016   5.081  0.1547 -0.9073  0.3493
 2790TIP3   OH2 8375   0.714   0.190   2.442 -0.0958  0.3065 -0.3101
 2790TIP3    H1 8376   0.757   0.150   2.518  0.5256  0.6553 -0.4799
 2790TIP3    H2 8377   0.701   0.117   2.381  0.7745  0.3026 -0.4976
 2791TIP3   OH2 8378   3.376   5.321   5.054  0.2467  0.1847 -0.4554
 2791TIP3    H1 8379   3.452   5.313   4.996  0.5643 -1.5472  0.1356
 2791TIP3    H2 8380   3.403   5.386   5.119  1.1792 -0.2796 -0.3554
 2792TIP3   OH2 8381   4.851   1.206   0.830 -0.3094 -0.5409 -0.3770
 2792TIP3    H1 8382   4.932   1.211   0.779  0.4518  0.7686  0.8781
 2792TIP3    H2 8383   4.854   1.121   0.873 -1.2096 -1.9014 -2.7976
 2793TIP3   OH2 8384   5.737   5.142   1.668 -0.9121 -0.7891  0.1078
 2793TIP3    H1 8385   5.766   5.223   1.711 -0.7317 -0.4949 -0.5467
 2793TIP3    H2 8386   5.786   5.073   1.711 -0.2214 -0.4294 -0.0858
 2794TIP3   OH2 8387   4.153   1.960   2.739  0.2058 -0.5027  0.0100
 2794TIP3    H1 8388   4.122   1.874   2.712 -0.9135 -0.1953  0.2378
 2794TIP3    H2 8389   4.076   2.017   2.730 -0.0858 -0.2184  3.0472
 2795TIP3   OH2 8390   0.213   4.325   1.318  0.1866  0.0439  0.5967
 2795TIP3    H1 8391   0.164   4.404   1.294 -0.1849 -0.0138  1.1432
 2795TIP3    H2 8392   0.195   4.313   1.412  1.2609  0.0312  0.8240
 2796TIP3   OH2 8393   0.986   1.274   4.207  0.0666  0.1758  0.0857
 2796TIP3    H1 8394   0.980   1.351   4.149 -1.2932  0.1055  0.1091
 2796TIP3    H2 8395   0.998   1.311   4.294  0.4738  0.3212 -0.0259
 2797TIP3   OH2 8396   0.916   5.968   2.209  0.2384  0.1546  0.0715
 2797TIP3    H1 8397   0.966   5.952   2.129 -1.4975  1.8601 -1.4364
 2797TIP3    H2 8398   0.980   6.003   2.270  1.2325  0.6838 -1.2307
 2798TIP3   OH2 8399   2.443   0.783   3.741 -0.2562  0.1172 -0.2313
 2798TIP3    H1 8400   2.474   0.869   3.769 -1.0060  0.2453  0.2096
 2798TIP3    H2 8401   2.404   0.798   3.655 -2.2641  0.6334  0.7155
 2799TIP3   OH2 8402   0.546   5.167   2.006  0.3996 -0.1220  0.0374
 2799TIP3    H1 8403   0.461   5.211   2.007  0.9479  1.0805 -1.5440
 2799TIP3    H2 8404   0.525   5.074   2.001 -0.8819  0.2379 -2.4959
 2800TIP3   OH2 8405   1.761   5.891   4.964  0.3716  0.0995 -0.1228
 2800TIP3    H1 8406   1.850   5.920   4.984  0.9585 -0.5467 -1.6637
 2800TIP3    H2 8407   1.747   5.918   4.873 -0.9113 -0.0764  0.0023
 2801TIP3   OH2 8408   5.021   2.782   2.929  0.0910  0.0446  0.2072
 2801TIP3    H1 8409   4.961   2.711   2.951  0.4547 -0.6377 -0.9010
 2801TIP3    H2 8410   4.964   2.854   2.902 -0.2580 -0.8940 -1.7120
 2802TIP3   OH2 8411   5.737   0.656   0.153 -0.1655 -0.2785  0.0936
 2802TIP3    H1 8412   5.691   0.573   0.144 -0.7687 -0.0164  0.6284
 2802TIP3    H2 8413   5.770   0.655   0.243 -0.0350 -0.0126  0.0502
 2803TIP3   OH2 8414   3.325   4.863   4.323  0.5700  0.1351 -0.0495
 2803TIP3    H1 8415   3.322   4.903   4.411 -1.1431  1.7154 -0.7488
 2803TIP3    H2 8416   3.234   4.863   4.294  0.8589 -2.0728 -1.1380
 2804TIP3   OH2 8417   5.517   2.455   3.247  0.4179 -0.3582 -0.0096
 2804TIP3    H1 8418   5.502   2.509   3.326 -1.6847 -1.9329  0.7859
 2804TIP3    H2 8419   5.556   2.515   3.184  0.1544  1.5457  1.5295
 2805TIP3   OH2 8420   1.195   1.202   3.738  0.1516  0.0253  0.8140
 2805TIP3    H1 8421   1.273   1.156   3.770 -0.3926 -0.6004  1.2813
 2805TIP3    H2 8422   1.179   1.165   3.651  0.0758 -0.2299  0.9345
 2806TIP3   OH2 8423   3.986   2.530   3.118  0.1449 -0.8821 -0.1747
 2806TIP3    H1 8424   4.074   2.551   3.085 -0.2058 -0.1523 -0.6685
 2806TIP3    H2 8425   3.957   2.457   3.064  0.4344 -1.1109 -0.0261
 2807TIP3   OH2 8426   5.646   3.948   5.030 -0.7424  0.5483 -0.1532
 2807TIP3    H1 8427   5.636   3.878   4.965  1.0197 -0.4708  0.5988
 2807TIP3    H2 8428   5.718   4.001   4.996 -2.1410  2.1593 -0.7812
 2808TIP3   OH2 8429   0.150   4.904   2.380 -0.9304  0.3031  0.2413
 2808TIP3    H1 8430   0.058   4.930   2.371 -0.8762  0.4842  0.2201
 2808TIP3    H2 8431   0.179   4.946   2.461 -0.2665  1.9692 -0.8124
 2809TIP3   OH2 8432   4.139   5.807   2.509 -0.4870  0.4672 -0.2815
 2809TIP3    H1 8433   4.125   5.737   2.573  1.9438  1.1634  1.1609
 2809TIP3    H2 8434   4.072   5.793   2.442 -0.8507 -2.4584  0.5750
 2810TIP3   OH2 8435   0.033   0.529   4.733 -0.1608  0.3704 -0.0007
 2810TIP3    H1 8436   0.106   0.568   4.781  1.0114  0.0947 -1.4936
 2810TIP3    H2 8437   0.044   0.434   4.745 -0.0560  0.3140 -0.5381
 2811TIP3   OH2 8438   1.008   1.802   4.517 -0.0733  0.0269  0.2494
 2811TIP3    H1 8439   0.979   1.856   4.442  0.8778  0.8040  0.4219
 2811TIP3    H2 8440   0.930   1.796   4.573 -0.0524  1.7571  0.5170
 2812TIP3   OH2 8441   1.417   0.887   4.482 -0.4097 -0.3875  0.2507
 2812TIP3    H1 8442   1.500   0.914   4.443 -0.4869 -1.3032 -0.5784
 2812TIP3    H2 8443   1.436   0.802   4.523 -1.3745 -1.6237 -1.7029
 2813TIP3   OH2 8444   5.692   1.967   0.759  0.0729 -0.3580  0.1806
 2813TIP3    H1 8445   5.708   1.874   0.777 -0.7638 -0.8630 -1.4517
 2813TIP3    H2 8446   5.652   1.967   0.672 -1.8712  1.3655  1.0001
 2814TIP3   OH2 8447   5.110   4.258   0.411  0.5286 -0.0434 -0.3576
 2814TIP3    H1 8448   5.191   4.224   0.372  1.1730 -1.1367  1.7778
 2814TIP3    H2 8449   5.091   4.337   0.360  3.2405  0.5659 -0.5957
 2815TIP3   OH2 8450   1.567   5.371   0.950 -0.2471 -0.1800  0.6455
 2815TIP3    H1 8451   1.573   5.455   0.996  1.6816 -0.9365  1.9315
 2815TIP3    H2 8452   1.563   5.305   1.020 -2.1540 -1.1741 -0.3318
 2816TIP3   OH2 8453   0.169   0.219   2.202  0.2142  0.1199 -0.2965
 2816TIP3    H1 8454   0.189   0.132   2.235 -2.0637 -0.5132 -0.4011
 2816TIP3    H2 8455   0.164   0.274   2.280 -1.6956 -0.6272  0.1759
 2817TIP3   OH2 8456   4.704   4.623   4.463  0.1424 -0.0779  0.1068
 2817TIP3    H1 8457   4.620   4.626   4.509  1.1618 -0.1749  2.0839
 2817TIP3    H2 8458   4.680   4.618   4.370 -2.0126  0.9387  0.5404
 2818TIP3   OH2 8459   2.474   2.957   5.170 -0.4733  0.5742 -0.1929
 2818TIP3    H1 8460   2.402   2.931   5.113  0.6649 -1.7929 -0.6925
 2818TIP3    H2 8461   2.513   3.033   5.128 -0.7470 -0.0661 -1.6549
 2819TIP3   OH2 8462   3.655   5.827   2.603  0.2505  0.2017  0.4017
 2819TIP3    H1 8463   3.705   5.755   2.564  0.4526  0.5069  0.0931
 2819TIP3    H2 8464   3.626   5.793   2.688 -1.3592 -0.9623 -0.5680
 2820TIP3   OH2 8465   1.750   1.506   2.335  0.8232 -0.1384 -0.5780
 2820TIP3    H1 8466   1.660   1.474   2.333 -0.1991  1.6193  4.0511
 2820TIP3    H2 8467   1.751   1.580   2.274 -1.4372  0.7755  0.3617
 2821TIP3   OH2 8468   5.340   4.147   4.178  0.0012 -0.4313 -0.3709
 2821TIP3    H1 8469   5.392   4.114   4.104  0.7080 -0.9349  0.3314
 2821TIP3    H2 8470   5.272   4.200   4.138  0.7757 -0.1527 -1.3471
 2822TIP3   OH2 8471   0.584   3.089   3.728 -0.1290  0.9111 -0.5053
 2822TIP3    H1 8472   0.608   3.141   3.804 -2.0673  1.7324 -0.4089
 2822TIP3    H2 8473   0.643   3.120   3.659 -0.0042  1.9102  0.0251
 2823TIP3   OH2 8474   3.866   2.704   0.933  0.0199 -0.2162  0.9334
 2823TIP3    H1 8475   3.797   2.750   0.979 -1.6708 -1.0733 -0.6403
 2823TIP3    H2 8476   3.936   2.768   0.924 -0.7412  0.8233  2.1049
 2824TIP3   OH2 8477   2.330   5.355   4.951  0.0619 -0.3119 -0.2621
 2824TIP3    H1 8478   2.414   5.358   4.906  0.7085  2.1623  0.8985
 2824TIP3    H2 8479   2.265   5.355   4.881  1.0195 -0.6278 -1.1811
 2825TIP3   OH2 8480   0.071   2.394   1.877 -0.1856  0.5148  0.3353
 2825TIP3    H1 8481   0.150   2.356   1.838 -0.7954  1.0033 -1.4961
 2825TIP3    H2 8482   0.077   2.372   1.970  1.4110 -0.6491  0.0043
 2826TIP3   OH2 8483   2.340   0.311   2.494  0.0805 -0.5637 -0.2178
 2826TIP3    H1 8484   2.421   0.361   2.485  1.0332 -1.9205  0.4692
 2826TIP3    H2 8485   2.275   0.376   2.524  0.5702  0.7850 -1.9351
 2827TIP3   OH2 8486   1.871   5.768   0.208  0.7417 -0.1248 -0.1331
 2827TIP3    H1 8487   1.844   5.700   0.271  0.0990 -1.1726 -1.5001
 2827TIP3    H2 8488   1.932   5.822   0.258 -0.9046  0.0130  1.8918
 2828TIP3   OH2 8489   3.485   2.023   3.470 -0.2346  0.3256  0.5933
 2828TIP3    H1 8490   3.538   1.955   3.429 -1.2131 -0.5416  0.7467
 2828TIP3    H2 8491   3.479   2.091   3.402 -0.1178 -0.1869  0.0551
 2829TIP3   OH2 8492   4.451   4.588   4.588  0.0731 -0.2270  0.3105
 2829TIP3    H1 8493   4.363   4.552   4.579 -0.1881  0.0171  1.6434
 2829TIP3    H2 8494   4.440   4.665   4.643  1.0358  0.1949 -0.0613
 2830TIP3   OH2 8495   3.326   1.983   2.433  0.1080 -0.1927  0.0508
 2830TIP3    H1 8496   3.383   2.055   2.461  0.2820 -0.7680  1.2574
 2830TIP3    H2 8497   3.330   1.985   2.338  0.1415  1.3603  0.0628
 2831TIP3   OH2 8498   3.010   1.208   2.937 -1.1891  0.1799 -0.3648
 2831TIP3    H1 8499   2.965   1.292   2.926 -0.6132  0.4193 -0.9874
 2831TIP3    H2 8500   2.981   1.176   3.022 -2.0252  0.6364 -0.4722
 2832TIP3   OH2 8501   0.159   2.777   3.534 -0.1294  0.3287  0.0005
 2832TIP3    H1 8502   0.169   2.694   3.580 -1.2135 -0.5324 -1.2630
 2832TIP3    H2 8503   0.228   2.833   3.570  0.5990 -1.1012  0.8942
 2833TIP3   OH2 8504   2.890   2.731   2.570 -0.0144 -0.3252 -0.2350
 2833TIP3    H1 8505   2.946   2.722   2.646 -1.2799 -0.1580  0.7563
 2833TIP3    H2 8506   2.801   2.724   2.605 -0.7697  2.8818 -1.1731
 2834TIP3   OH2 8507   0.167   3.177   1.335  0.6503 -0.4742  0.4490
 2834TIP3    H1 8508   0.129   3.089   1.333  0.6037 -0.4598  0.7397
 2834TIP3    H2 8509   0.176   3.201   1.242  2.8980 -1.7434  0.2461
 2835TIP3   OH2 8510   3.288   4.737   3.638  0.6631  0.2006 -0.2100
 2835TIP3    H1 8511   3.232   4.673   3.680 -0.3780  1.6181  0.6350
 2835TIP3    H2 8512   3.297   4.707   3.547 -0.4966 -0.6625 -0.0434
 2836TIP3   OH2 8513   6.052   5.875   2.332 -0.0919  0.1944  0.1055
 2836TIP3    H1 8514   5.988   5.902   2.399  0.6556  0.1995  0.8347
 2836TIP3    H2 8515   6.117   5.824   2.380 -0.1179 -0.7345 -0.8257
 2837TIP3   OH2 8516   5.925   5.618   0.071 -0.4529 -0.1282  0.2379
 2837TIP3    H1 8517   5.847   5.670   0.055 -0.1323 -0.0469 -1.2805
 2837TIP3    H2 8518   5.892   5.529   0.086 -0.9373  0.2950  1.7538
 2838TIP3   OH2 8519   6.241   0.031   2.912  0.0829  0.5625  0.3819
 2838TIP3    H1 8520   6.212  -0.041   2.967 -1.2308  0.6797 -0.1368
 2838TIP3    H2 8521   6.320   0.064   2.956  0.7120 -1.1661  0.6244
 2839TIP3   OH2 8522   0.267   1.823   2.365 -0.5618 -0.2006  0.1235
 2839TIP3    H1 8523   0.285   1.908   2.324 -1.1183 -0.1215  0.0418
 2839TIP3    H2 8524   0.350   1.775   2.358 -0.1082  0.4938  0.5563
 2840TIP3   OH2 8525   0.657   4.080   5.047 -0.4621 -0.4085 -0.0655
 2840TIP3    H1 8526   0.672   4.017   5.117 -1.9551  0.2934  0.9352
 2840TIP3    H2 8527   0.607   4.032   4.982  0.2780 -0.8446 -0.3344
 2841TIP3   OH2 8528   5.105   4.149  -0.006  0.6136  0.2367 -0.3522
 2841TIP3    H1 8529   5.166   4.082   0.023  0.4312  0.8015  1.4188
 2841TIP3    H2 8530   5.020   4.104  -0.007  0.4253  0.4912  1.2201
 2842TIP3   OH2 8531   0.593   3.346   0.951  0.0230 -0.5060  0.0205
 2842TIP3    H1 8532   0.622   3.421   1.003 -1.0909  0.1627 -0.2966
 2842TIP3    H2 8533   0.520   3.379   0.900  0.0108 -1.6149 -0.7079
 2843TIP3   OH2 8534   0.787   4.138   1.644 -0.4158 -1.0189  0.3291
 2843TIP3    H1 8535   0.866   4.090   1.667  1.0791  0.8874 -0.5753
 2843TIP3    H2 8536   0.800   4.225   1.681  0.2569  0.9211 -3.8752
 2844TIP3   OH2 8537   5.007   4.743   2.995  0.0996  0.0105 -0.2412
 2844TIP3    H1 8538   4.917   4.772   2.980  0.1001  1.3395  1.9807
 2844TIP3    H2 8539   5.026   4.767   3.085  3.0685  0.7732 -0.9608
 2845TIP3   OH2 8540   2.405   2.843   4.514  0.5855 -0.1292  0.5229
 2845TIP3    H1 8541   2.355   2.762   4.516 -0.9071  0.7630  0.2539
 2845TIP3    H2 8542   2.430   2.858   4.605  1.5650 -1.2775  0.4710
 2846TIP3   OH2 8543   3.426   4.589   1.585  0.5054  0.0928  0.0548
 2846TIP3    H1 8544   3.491   4.643   1.540  1.0508  1.0662  1.9049
 2846TIP3    H2 8545   3.477   4.522   1.630  0.0651 -0.2717  0.0152
 2847TIP3   OH2 8546   0.367   2.606   3.247  0.2704 -0.1987  0.0773
 2847TIP3    H1 8547   0.349   2.589   3.339  0.9948  2.2302  0.7421
 2847TIP3    H2 8548   0.455   2.644   3.246  0.0768  0.2998 -1.5340
 2848TIP3   OH2 8549   0.077   5.487   2.921  0.4482  0.0138 -0.0202
 2848TIP3    H1 8550   0.053   5.493   3.014  1.5509  0.8576  0.2444
 2848TIP3    H2 8551   0.038   5.406   2.891 -1.0691  0.3867  0.8376
 2849TIP3   OH2 8552   5.682   2.864   2.457 -0.2543 -0.2239 -0.2889
 2849TIP3    H1 8553   5.721   2.823   2.379  1.1211  1.0284 -0.3113
 2849TIP3    H2 8554   5.754   2.867   2.520 -1.7279 -2.6308  1.6783
 2850TIP3   OH2 8555   2.260   2.394   2.396  0.2058  0.2603  0.2591
 2850TIP3    H1 8556   2.326   2.334   2.431 -0.1720  0.1980  0.8832
 2850TIP3    H2 8557   2.267   2.385   2.301 -1.3213 -2.4465  0.2887
 2851TIP3   OH2 8558   4.368   1.207   3.787 -0.0915 -0.6006  0.2678
 2851TIP3    H1 8559   4.345   1.250   3.705  0.5533 -2.7571 -1.1277
 2851TIP3    H2 8560   4.457   1.237   3.806  0.1537 -0.9047 -0.3935
 2852TIP3   OH2 8561   4.165   3.476   2.613 -0.0705  0.1713  0.7536
 2852TIP3    H1 8562   4.082   3.522   2.601  0.1558  0.8349  1.5354
 2852TIP3    H2 8563   4.151   3.421   2.690 -0.4855 -1.4699 -0.4615
 2853TIP3   OH2 8564   3.830   3.273   2.252 -0.5604  0.3119  0.2375
 2853TIP3    H1 8565   3.759   3.336   2.263 -1.6993 -1.1634  1.8715
 2853TIP3    H2 8566   3.793   3.189   2.279  1.2001 -0.9056 -0.9023
 2854TIP3   OH2 8567   4.879   1.121   2.248 -0.7712 -0.6455  0.2427
 2854TIP3    H1 8568   4.854   1.135   2.157  1.4515  1.0023 -0.1816
 2854TIP3    H2 8569   4.967   1.158   2.255  0.3584 -3.3755  2.3375
 2855TIP3   OH2 8570   1.867   1.398   2.992 -0.2272 -0.7699  0.0794
 2855TIP3    H1 8571   1.948   1.379   2.944  0.2837  0.1823  0.5352
 2855TIP3    H2 8572   1.873   1.346   3.071 -0.8307 -1.9489 -0.6310
 2856TIP3   OH2 8573   0.708   4.676   4.475  0.3637  0.2188 -0.1278
 2856TIP3    H1 8574   0.756   4.619   4.535  2.6731  1.3063 -0.8351
 2856TIP3    H2 8575   0.650   4.727   4.532  0.3695 -0.7931  0.8201
 2857TIP3   OH2 8576   3.586   4.781   4.360  0.5717 -0.3548 -0.0866
 2857TIP3    H1 8577   3.615   4.714   4.422 -0.3734 -0.3037  0.4326
 2857TIP3    H2 8578   3.495   4.797   4.384  0.9483  1.5859  0.2246
 2858TIP3   OH2 8579   0.094   2.651   2.311 -0.1542  0.2484  0.1026
 2858TIP3    H1 8580   0.161   2.604   2.360  0.0573 -1.2264 -1.5235
 2858TIP3    H2 8581   0.142   2.707   2.250 -0.4119  0.6403  0.2510
 2859TIP3   OH2 8582   4.528   2.853   5.001 -0.2058 -0.6071  0.4353
 2859TIP3    H1 8583   4.602   2.847   5.061 -0.3329 -0.1463  0.6460
 2859TIP3    H2 8584   4.474   2.923   5.037  0.8340  1.2757 -1.4421
 2860TIP3   OH2 8585   0.647   2.009   1.618 -0.0596 -0.0800  0.3025
 2860TIP3    H1 8586   0.572   1.996   1.561 -0.3806 -0.2345  0.7523
 2860TIP3    H2 8587   0.614   1.988   1.705  0.4289  0.1322  0.5401
 2861TIP3   OH2 8588   1.020   5.312   4.608 -0.1352  0.7055  0.5750
 2861TIP3    H1 8589   0.962   5.283   4.537 -2.0287 -0.1284  2.3679
 2861TIP3    H2 8590   1.102   5.265   4.592 -1.1876 -1.0497  0.0240
 2862TIP3   OH2 8591   0.831   0.833   3.112 -0.5615 -0.2726 -0.2447
 2862TIP3    H1 8592   0.825   0.767   3.182  0.1337 -0.7530 -0.6349
 2862TIP3    H2 8593   0.757   0.891   3.129 -2.0319 -1.9256 -0.7023
 2863TIP3   OH2 8594   5.701   2.901   3.132 -0.1514  0.0190  0.1266
 2863TIP3    H1 8595   5.620   2.945   3.159 -0.3983 -0.7603  0.7037
 2863TIP3    H2 8596   5.771   2.952   3.172 -0.4451 -0.2514  1.0042
 2864TIP3   OH2 8597   5.411   1.862   2.397 -0.1919 -0.0068  0.3171
 2864TIP3    H1 8598   5.398   1.775   2.359  0.8880  0.6319 -1.6714
 2864TIP3    H2 8599   5.402   1.922   2.323  1.6978  1.3484  1.0869
 2865TIP3   OH2 8600   2.950   3.186   3.421  0.3950 -0.4330  0.4758
 2865TIP3    H1 8601   3.008   3.251   3.381 -0.5927 -0.3650 -0.8748
 2865TIP3    H2 8602   2.961   3.201   3.516 -0.1030  2.0024  0.2329
 2866TIP3   OH2 8603   6.337   2.015   1.870  0.1288  0.2915  0.2164
 2866TIP3    H1 8604   6.300   2.062   1.944  0.2131  0.4797  0.1402
 2866TIP3    H2 8605   6.397   1.951   1.909 -1.8922 -1.5479  0.4797
 2867TIP3   OH2 8606   0.272   5.742   5.017 -0.0347  0.3974 -0.1851
 2867TIP3    H1 8607   0.264   5.824   4.968  0.8591 -0.5464 -2.0371
 2867TIP3    H2 8608   0.363   5.741   5.047 -0.1598  0.2711  0.1888
 2868TIP3   OH2 8609   2.438   1.790   4.502  0.7636 -0.7311  0.0536
 2868TIP3    H1 8610   2.507   1.764   4.562 -0.5519 -1.0022  1.5114
 2868TIP3    H2 8611   2.431   1.716   4.441  0.9127 -1.2658  0.6720
 2869TIP3   OH2 8612   6.005   4.874   1.427 -0.0266  0.0016 -0.1267
 2869TIP3    H1 8613   6.078   4.855   1.487  0.7682  1.3917 -0.6192
 2869TIP3    H2 8614   5.997   4.969   1.429 -1.3711 -0.0902 -0.6445
 2870TIP3   OH2 8615   4.813   4.829   4.299  0.2930  0.1455  0.5981
 2870TIP3    H1 8616   4.810   4.743   4.257  2.1026 -0.1615  0.9906
 2870TIP3    H2 8617   4.791   4.811   4.391  0.6549  0.0837  0.6764
 2871TIP3   OH2 8618   1.547   0.340   1.128 -0.2438  0.1790  0.4084
 2871TIP3    H1 8619   1.459   0.357   1.095 -0.6428  0.1089  1.4193
 2871TIP3    H2 8620   1.602   0.405   1.083 -0.8518  0.4015 -0.0208
 2872TIP3   OH2 8621   4.332   3.388   3.336 -0.3448 -0.0073  0.2894
 2872TIP3    H1 8622   4.403   3.324   3.329 -0.5345 -0.1891 -0.0109
 2872TIP3    H2 8623   4.344   3.428   3.422  0.3329  0.2115  0.1028
 2873TIP3   OH2 8624   1.035   5.034   2.230  0.2118  0.3956 -0.4898
 2873TIP3    H1 8625   1.019   4.964   2.167  0.9998  1.0633 -1.4731
 2873TIP3    H2 8626   0.971   5.102   2.207 -0.4494  0.0841  0.3621
 2874TIP3   OH2 8627   5.892   4.562   4.206 -0.2901  0.4118  0.1492
 2874TIP3    H1 8628   5.812   4.542   4.156 -0.1437  0.4826 -0.1159
 2874TIP3    H2 8629   5.905   4.656   4.193 -0.6113  0.5645  0.8568
 2875TIP3   OH2 8630   2.757   2.441   4.489 -0.4138  0.1158 -0.1999
 2875TIP3    H1 8631   2.735   2.376   4.422  0.2910 -1.1027  0.6922
 2875TIP3    H2 8632   2.693   2.425   4.558 -1.2516  1.4856 -0.6311
 2876TIP3   OH2 8633   4.373   5.048   2.706 -0.1374 -0.0749 -0.0396
 2876TIP3    H1 8634   4.442   5.114   2.702 -0.3402  0.2641  1.3557
 2876TIP3    H2 8635   4.309   5.076   2.641 -0.6675  1.6688  1.1422
 2877TIP3   OH2 8636   1.073   1.384   1.312  0.5406 -0.4696 -0.0891
 2877TIP3    H1 8637   1.087   1.439   1.235 -0.2053  0.0547  0.1340
 2877TIP3    H2 8638   1.054   1.297   1.276 -0.5142 -0.0780 -0.5487
 2878TIP3   OH2 8639   0.730   4.662   0.484 -0.4849 -0.9054 -0.3018
 2878TIP3    H1 8640   0.729   4.625   0.573 -0.7080 -3.1413 -1.1686
 2878TIP3    H2 8641   0.816   4.702   0.476 -0.4147 -0.7665  0.8809
 2879TIP3   OH2 8642   3.344   5.218   0.746 -0.0462 -0.2003 -0.4280
 2879TIP3    H1 8643   3.385   5.268   0.676  1.5059 -1.7341 -0.6854
 2879TIP3    H2 8644   3.349   5.275   0.823 -1.0096  1.1605 -1.3300
 2880TIP3   OH2 8645   3.352   3.454   2.230 -0.1199  0.0576  0.1541
 2880TIP3    H1 8646   3.323   3.409   2.151  1.3108  0.1770 -0.4831
 2880TIP3    H2 8647   3.272   3.486   2.271 -0.8116  1.2120 -1.9848
 2881TIP3   OH2 8648   5.228   1.282   4.683 -0.2730  0.2426 -0.0472
 2881TIP3    H1 8649   5.290   1.330   4.738 -1.3181 -0.2048  1.5759
 2881TIP3    H2 8650   5.265   1.194   4.677  0.4643  0.5943 -1.1335
 2882TIP3   OH2 8651   3.803   1.041   4.284  0.2019  0.0205  0.6474
 2882TIP3    H1 8652   3.828   1.100   4.355  0.8575 -0.3253  0.7174
 2882TIP3    H2 8653   3.876   0.979   4.279  0.9544  0.9818 -1.3721
 2883TIP3   OH2 8654   0.754   5.019   0.314  0.3924 -0.6872 -0.1770
 2883TIP3    H1 8655   0.802   5.030   0.396  0.7773 -0.7889 -0.3856
 2883TIP3    H2 8656   0.726   4.928   0.315  0.2543 -0.6442 -0.0831
 2884TIP3   OH2 8657   4.531   0.102   2.529  0.0885  0.6914 -0.4901
 2884TIP3    H1 8658   4.576   0.180   2.564  1.6842  0.4501 -1.8765
 2884TIP3    H2 8659   4.582   0.028   2.563 -1.3837  0.2039  0.7702
 2885TIP3   OH2 8660   3.209   5.159   3.373  0.2350 -0.3791 -0.1922
 2885TIP3    H1 8661   3.270   5.089   3.351  1.1318 -1.0923  3.7539
 2885TIP3    H2 8662   3.264   5.237   3.380 -0.1987  0.0491 -1.2464
 2886TIP3   OH2 8663   0.536   5.535   1.570  0.1273  0.4063  0.2426
 2886TIP3    H1 8664   0.476   5.463   1.585  0.9573 -0.1589  0.9622
 2886TIP3    H2 8665   0.623   5.494   1.570  0.6283  1.4342  0.8772
 2887TIP3   OH2 8666   6.119   1.399   1.720 -0.1053 -0.1154  0.6502
 2887TIP3    H1 8667   6.118   1.493   1.738 -0.6700  0.2223 -0.9687
 2887TIP3    H2 8668   6.040   1.366   1.763 -1.0661  0.5511 -0.5070
 2888TIP3   OH2 8669   0.596   2.376   0.502 -0.2155 -0.3834  0.2169
 2888TIP3    H1 8670   0.611   2.379   0.407  1.2756 -1.3451  0.3867
 2888TIP3    H2 8671   0.501   2.380   0.511 -0.4124 -0.7036 -1.3435
 2889TIP3   OH2 8672   4.864   3.865   1.017 -0.0854  0.1040 -0.5073
 2889TIP3    H1 8673   4.871   3.822   0.932  1.8832 -1.4885  0.3421
 2889TIP3    H2 8674   4.896   3.799   1.079 -1.3504  1.2404  1.4678
 2890TIP3   OH2 8675   2.571   3.665   3.299 -0.1770  0.2962  0.0054
 2890TIP3    H1 8676   2.641   3.685   3.361 -0.4111 -0.2000  0.4423
 2890TIP3    H2 8677   2.521   3.595   3.342  0.1795 -0.6842 -1.1192
 2891TIP3   OH2 8678   0.467   5.020   3.315  0.0795  0.4940  0.6690
 2891TIP3    H1 8679   0.543   5.052   3.266  0.2324 -0.7940  0.0325
 2891TIP3    H2 8680   0.396   5.081   3.293 -0.3525 -1.0239 -2.6670
 2892TIP3   OH2 8681   0.659   4.595   5.085  0.0129  0.2056 -0.0612
 2892TIP3    H1 8682   0.683   4.545   5.008 -1.7584 -1.3804  0.3493
 2892TIP3    H2 8683   0.743   4.627   5.120  1.0028 -0.6559 -1.5282
 2893TIP3   OH2 8684   3.169   3.638   4.955  0.4898 -0.4534 -0.0453
 2893TIP3    H1 8685   3.228   3.591   4.895 -0.1303  0.3141 -1.2933
 2893TIP3    H2 8686   3.155   3.723   4.914  0.3580  0.2636  1.4150
 2894TIP3   OH2 8687   3.973   2.422   1.335  0.2566  0.0596 -0.0423
 2894TIP3    H1 8688   3.903   2.415   1.270 -0.6062 -0.1545  0.8748
 2894TIP3    H2 8689   3.968   2.340   1.385  1.3271 -0.0625 -0.1108
 2895TIP3   OH2 8690   5.584   3.171   1.651 -0.2071  0.1119  0.0577
 2895TIP3    H1 8691   5.514   3.190   1.714 -1.5542 -1.9721 -0.6877
 2895TIP3    H2 8692   5.579   3.242   1.588 -1.2372  0.3401  0.3748
 2896TIP3   OH2 8693   0.822   4.907   1.969  0.5493 -0.0135  0.5462
 2896TIP3    H1 8694   0.794   4.817   1.952 -1.5915  0.6059  0.5575
 2896TIP3    H2 8695   0.832   4.946   1.882  1.0191 -0.1015  0.5538
 2897TIP3   OH2 8696   3.357   0.981   4.275  0.3104 -0.2705  0.2550
 2897TIP3    H1 8697   3.354   0.995   4.370  0.5339 -2.9990  0.7550
 2897TIP3    H2 8698   3.445   1.009   4.250  0.9025 -1.1614  1.2181
 2898TIP3   OH2 8699   2.515   3.479   0.473  0.0331 -0.1798  0.2371
 2898TIP3    H1 8700   2.586   3.523   0.519 -0.5264  2.4216 -1.2075
 2898TIP3    H2 8701   2.436   3.503   0.521 -0.1412 -0.9811  0.3698
 2899TIP3   OH2 8702   3.153   2.876   5.111  0.2831 -0.5140  0.0141
 2899TIP3    H1 8703   3.191   2.872   5.199  1.6528 -0.6638 -0.5648
 2899TIP3    H2 8704   3.140   2.970   5.096  1.6704 -0.3466 -0.2743
 2900TIP3   OH2 8705   1.245   4.969   1.393 -0.0911  0.0023 -0.0814
 2900TIP3    H1 8706   1.257   4.920   1.312 -1.3868 -0.6036  0.0795
 2900TIP3    H2 8707   1.335   4.991   1.420  0.3483  0.5992 -1.8774
 2901TIP3   OH2 8708   5.032   5.095   3.028  0.1427  0.1004 -0.0217
 2901TIP3    H1 8709   5.063   5.183   3.009 -1.1945  0.6928  0.3895
 2901TIP3    H2 8710   5.010   5.097   3.121 -0.3676 -0.5165 -0.1187
 2902TIP3   OH2 8711   6.007   3.094   1.896 -0.0804 -0.6801 -0.9171
 2902TIP3    H1 8712   5.987   3.032   1.966  0.6550  1.2451  1.0812
 2902TIP3    H2 8713   5.935   3.082   1.833  0.3840 -3.9912 -1.0078
 2903TIP3   OH2 8714   4.367   2.672   5.169 -0.5591  0.4726  0.4405
 2903TIP3    H1 8715   4.391   2.737   5.234 -0.9966 -0.3620  1.4624
 2903TIP3    H2 8716   4.386   2.714   5.085  2.2819  0.6858  1.1110
 2904TIP3   OH2 8717   5.127   0.570   2.462 -0.0544 -0.3731 -0.2570
 2904TIP3    H1 8718   5.080   0.594   2.542  0.2790 -1.8576  0.4200
 2904TIP3    H2 8719   5.110   0.476   2.452  1.7724 -0.6877 -0.6686
 2905TIP3   OH2 8720   5.521   0.329   3.539  0.6130 -0.5209  0.2338
 2905TIP3    H1 8721   5.598   0.381   3.515  0.7117 -0.7260  0.1017
 2905TIP3    H2 8722   5.548   0.239   3.524  1.5745 -0.9039  3.5261
 2906TIP3   OH2 8723   2.945   3.038   2.081  0.3303  0.8939 -0.7056
 2906TIP3    H1 8724   3.019   3.039   2.020 -0.7086  1.8636 -2.0200
 2906TIP3    H2 8725   2.868   3.034   2.024 -0.6809  1.8863  0.5409
 2907TIP3   OH2 8726   3.498   1.657   3.514 -0.4321  0.4835 -0.2492
 2907TIP3    H1 8727   3.448   1.736   3.534 -1.0860 -0.4114  1.9700
 2907TIP3    H2 8728   3.467   1.593   3.577  1.2895 -1.0603 -0.8898
 2908TIP3   OH2 8729   4.929   0.070   4.623  0.3471  0.2759  0.2697
 2908TIP3    H1 8730   4.900  -0.018   4.597  0.7189 -0.0277  0.8531
 2908TIP3    H2 8731   4.990   0.054   4.696  0.3904  1.0212  0.4005
 2909TIP3   OH2 8732   0.934   4.947   3.050  0.1748 -0.3664  0.1231
 2909TIP3    H1 8733   0.850   4.966   3.008 -0.5078 -1.2103  1.0760
 2909TIP3    H2 8734   0.999   4.978   2.987 -0.8354 -0.2516 -0.8979
 2910TIP3   OH2 8735   2.138   2.123   2.280 -0.2586  0.1195  0.3614
 2910TIP3    H1 8736   2.071   2.099   2.344  0.0487 -0.7137  0.3848
 2910TIP3    H2 8737   2.205   2.167   2.332  0.5759 -1.6443  0.8721
 2911TIP3   OH2 8738   6.014   4.199   2.220  0.4087 -0.0496  0.1638
 2911TIP3    H1 8739   6.072   4.126   2.200  0.4833  0.3005 -0.9179
 2911TIP3    H2 8740   6.061   4.277   2.191  1.3774  0.7451  3.4193
 2912TIP3   OH2 8741   5.894   2.550   4.611  0.2236 -0.1664  0.0609
 2912TIP3    H1 8742   5.822   2.528   4.551 -0.2640  0.7596  0.2814
 2912TIP3    H2 8743   5.852   2.555   4.697  0.7568 -0.6279  0.3565
 2913TIP3   OH2 8744   3.433   2.777   4.011 -0.2106 -0.3795 -0.1532
 2913TIP3    H1 8745   3.494   2.728   4.065 -0.3452  0.1010  0.4414
 2913TIP3    H2 8746   3.438   2.735   3.925  3.4373  1.6552 -1.1578
 2914TIP3   OH2 8747   3.458   5.323   0.502 -0.4890  0.2082  0.2753
 2914TIP3    H1 8748   3.437   5.261   0.433  1.8235 -2.1450  1.4848
 2914TIP3    H2 8749   3.527   5.378   0.465 -0.8207  0.4535  0.0112
 2915TIP3   OH2 8750   2.758   5.178   0.607 -0.3853 -0.1921  0.3909
 2915TIP3    H1 8751   2.853   5.182   0.613 -0.4484  0.9374  0.8415
 2915TIP3    H2 8752   2.728   5.262   0.640 -1.5644 -0.6863  0.6429
 2916TIP3   OH2 8753   0.383   0.146   1.218 -0.0949  0.1006 -0.2118
 2916TIP3    H1 8754   0.383   0.068   1.272  0.7226 -0.2886 -0.7561
 2916TIP3    H2 8755   0.475   0.166   1.205 -0.1991  2.6150  1.9643
 2917TIP3   OH2 8756   5.674   3.869   2.106  0.0659  0.1186 -0.2642
 2917TIP3    H1 8757   5.611   3.931   2.068 -1.5580 -0.3434  1.5124
 2917TIP3    H2 8758   5.632   3.784   2.095  0.8000 -0.3038  0.1726
 2918TIP3   OH2 8759   5.803   3.081   2.916 -0.4207 -0.1805  0.8042
 2918TIP3    H1 8760   5.827   3.170   2.943  0.6742 -0.1786 -0.1251
 2918TIP3    H2 8761   5.860   3.024   2.969 -1.0224 -0.3417  1.2967
 2919TIP3   OH2 8762   1.358   0.383   2.292 -0.5032 -0.5743 -0.1145
 2919TIP3    H1 8763   1.307   0.458   2.262 -0.9413 -0.8486 -0.0649
 2919TIP3    H2 8764   1.361   0.324   2.216 -1.4187 -1.1653  0.2836
 2920TIP3   OH2 8765   5.369   2.589   1.563  0.1051 -0.2543 -0.3460
 2920TIP3    H1 8766   5.448   2.640   1.578  0.3266 -1.0307  1.2691
 2920TIP3    H2 8767   5.396   2.520   1.503  0.4490 -0.0405 -0.4426
 2921TIP3   OH2 8768   4.779   1.967   2.436  0.2898  0.5285  0.1045
 2921TIP3    H1 8769   4.724   1.988   2.512 -1.6885  1.4450 -1.4673
 2921TIP3    H2 8770   4.781   1.871   2.433 -0.6650  0.4793  0.6148
 2922TIP3   OH2 8771   3.148   5.684   0.248  0.4591  0.2363 -0.3450
 2922TIP3    H1 8772   3.195   5.641   0.176  0.6597  0.2281 -0.2094
 2922TIP3    H2 8773   3.185   5.645   0.327  1.2110  1.2296 -0.1945
 2923TIP3   OH2 8774   5.302   2.988   2.867  0.4629 -0.0234 -0.5899
 2923TIP3    H1 8775   5.217   2.964   2.829 -0.7954  1.0545  1.3188
 2923TIP3    H2 8776   5.354   3.018   2.793 -0.2477 -2.1549 -2.0405
 2924TIP3   OH2 8777   3.939   4.344   3.411  0.5154 -0.4501  0.0917
 2924TIP3    H1 8778   3.974   4.257   3.388  1.6959 -0.5089  1.9562
 2924TIP3    H2 8779   3.893   4.330   3.493 -1.4072  0.2613 -0.8050
 2925TIP3   OH2 8780   2.409   1.184   4.237 -0.0332 -0.0239  0.1160
 2925TIP3    H1 8781   2.457   1.104   4.259  2.4004  1.2970 -0.0259
 2925TIP3    H2 8782   2.376   1.216   4.322  1.8383  0.4964  0.6955
 2926TIP3   OH2 8783   0.256   4.478   2.077 -0.1591 -0.1632 -0.6814
 2926TIP3    H1 8784   0.342   4.517   2.091 -0.0569 -0.5831 -0.0880
 2926TIP3    H2 8785   0.253   4.405   2.139 -0.6087 -0.6735 -1.2912
 2927TIP3   OH2 8786   2.991   5.932   4.851 -0.1876  0.0107  0.1860
 2927TIP3    H1 8787   2.931   5.962   4.919  0.6599  0.6964  0.6489
 2927TIP3    H2 8788   3.078   5.960   4.881  0.4874 -1.7450 -0.0317
 2928TIP3   OH2 8789   3.601   1.937   0.566  0.6285 -0.3763  0.3448
 2928TIP3    H1 8790   3.592   2.027   0.537  2.4527 -0.9414 -2.3036
 2928TIP3    H2 8791   3.686   1.908   0.532  0.3928 -2.9370  1.6114
 2929TIP3   OH2 8792   0.616   2.356   1.378  0.1706  0.0887  0.4283
 2929TIP3    H1 8793   0.589   2.443   1.410  1.3858  1.2225 -1.4285
 2929TIP3    H2 8794   0.535   2.316   1.347 -0.5134  0.2690  1.8781
 2930TIP3   OH2 8795   0.256   1.073   4.073  0.8935 -0.6326  0.4016
 2930TIP3    H1 8796   0.196   1.006   4.106  0.5857  0.0457  1.2505
 2930TIP3    H2 8797   0.210   1.113   3.999  0.7348 -0.8075  0.4054
 2931TIP3   OH2 8798   1.172   2.482   4.597  0.4363  0.2942 -0.2648
 2931TIP3    H1 8799   1.230   2.469   4.672  1.2285 -0.6436 -1.0066
 2931TIP3    H2 8800   1.154   2.576   4.596  2.2167  0.6744 -0.1712
 2932TIP3   OH2 8801   3.685   1.307   1.051 -0.1160  0.0070  0.1199
 2932TIP3    H1 8802   3.675   1.223   1.006 -0.6928  0.7830 -1.2679
 2932TIP3    H2 8803   3.598   1.325   1.087 -0.1382  0.2684 -0.0651
 2933TIP3   OH2 8804   3.743   5.015   4.376  0.3640 -0.4124 -0.2781
 2933TIP3    H1 8805   3.698   4.936   4.347  0.9608 -1.3506  1.2195
 2933TIP3    H2 8806   3.712   5.030   4.465 -0.8058  1.9020 -0.9952
 2934TIP3   OH2 8807   4.698   0.076   0.239 -0.0715  0.2614  0.4999
 2934TIP3    H1 8808   4.642   0.000   0.218 -1.0899  1.0847  0.1286
 2934TIP3    H2 8809   4.742   0.051   0.320 -2.6509  0.3841  2.0645
 2935TIP3   OH2 8810   3.482   0.741   4.285 -0.2170  0.5909 -0.1515
 2935TIP3    H1 8811   3.456   0.827   4.251 -1.6344 -0.5087 -1.9939
 2935TIP3    H2 8812   3.568   0.725   4.248  0.3975  1.5036  0.8181
 2936TIP3   OH2 8813   1.718   3.767   3.414 -0.2230  0.2747 -0.7200
 2936TIP3    H1 8814   1.800   3.809   3.388  1.3132 -0.9194  1.7860
 2936TIP3    H2 8815   1.726   3.677   3.381 -1.1668  0.5110 -1.6320
 2937TIP3   OH2 8816   0.751   0.955   0.107 -0.1668  0.6027  0.2807
 2937TIP3    H1 8817   0.839   0.970   0.141  1.1243  0.0773 -2.5763
 2937TIP3    H2 8818   0.757   0.872   0.059 -2.7250 -0.4212  1.4847
 2938TIP3   OH2 8819   2.595   4.523   4.022 -0.3345 -0.3861  0.1956
 2938TIP3    H1 8820   2.595   4.568   4.106  0.0652  0.2114 -0.1120
 2938TIP3    H2 8821   2.516   4.470   4.023  0.1971 -1.1874  1.3555
 2939TIP3   OH2 8822   4.412   3.739   0.623 -0.3314 -0.1329  0.2041
 2939TIP3    H1 8823   4.425   3.831   0.602 -0.6234 -0.5139 -1.8304
 2939TIP3    H2 8824   4.485   3.717   0.681 -0.0239  1.2650  0.3763
 2940TIP3   OH2 8825   1.293   4.145   4.752 -0.0020 -0.0850 -0.2215
 2940TIP3    H1 8826   1.269   4.064   4.798 -3.8883  1.5780  1.1487
 2940TIP3    H2 8827   1.255   4.134   4.664  2.2561 -0.8953 -1.1667
 2941TIP3   OH2 8828   5.350   0.125   0.004  0.2426 -0.0777  0.2916
 2941TIP3    H1 8829   5.305   0.161  -0.072  1.3715 -1.0904 -0.8977
 2941TIP3    H2 8830   5.284   0.128   0.074 -1.1540 -0.0577 -0.9621
 2942TIP3   OH2 8831   1.887   0.495   2.953 -0.0632  0.0132  0.2245
 2942TIP3    H1 8832   1.971   0.450   2.966  0.6291  0.8752 -0.9526
 2942TIP3    H2 8833   1.849   0.451   2.876 -0.7332 -0.4164  0.7950
 2943TIP3   OH2 8834   0.009   0.907   1.175 -0.4495 -0.1404  0.8038
 2943TIP3    H1 8835  -0.024   0.968   1.109  0.3197 -1.4751 -0.9231
 2943TIP3    H2 8836   0.095   0.942   1.198 -1.0524  0.7723  1.7528
 2944TIP3   OH2 8837   4.516   1.743   3.911 -0.1146  0.0529 -0.4976
 2944TIP3    H1 8838   4.568   1.682   3.858 -1.2322 -0.3384 -1.1986
 2944TIP3    H2 8839   4.572   1.766   3.984  0.5744 -1.3375 -0.5580
 2945TIP3   OH2 8840   1.337   3.200   1.439  0.1196 -0.1141  0.1150
 2945TIP3    H1 8841   1.317   3.282   1.396 -0.7422  0.6296  1.8346
 2945TIP3    H2 8842   1.399   3.224   1.509 -1.2397 -0.6276  1.5608
 2946TIP3   OH2 8843   3.440   0.241   2.580 -0.1571  0.5439  0.5908
 2946TIP3    H1 8844   3.499   0.241   2.504 -0.6993  1.1592  0.1567
 2946TIP3    H2 8845   3.368   0.184   2.553  0.7424 -1.1190  1.5485
 2947TIP3   OH2 8846   3.097   1.274   4.698  0.0117  0.4474  0.0876
 2947TIP3    H1 8847   3.143   1.354   4.674 -0.2337  0.2681 -1.0163
 2947TIP3    H2 8848   3.134   1.250   4.783  2.2572  0.1086 -0.9114
 2948TIP3   OH2 8849   0.655   0.063   3.946 -0.3874  0.4366 -0.0563
 2948TIP3    H1 8850   0.721  -0.005   3.964 -0.5023  1.0027  3.0322
 2948TIP3    H2 8851   0.634   0.052   3.853 -0.2719 -3.6601  0.2143
 2949TIP3   OH2 8852   3.972   2.279   1.646  0.0178  0.1301 -0.5782
 2949TIP3    H1 8853   3.972   2.218   1.572 -1.5093 -2.3370  1.2949
 2949TIP3    H2 8854   3.906   2.344   1.623  0.3413  0.0418 -1.8451
 2950TIP3   OH2 8855   2.851   5.501   3.316 -0.0485 -0.0044 -0.1870
 2950TIP3    H1 8856   2.807   5.421   3.342 -0.9188  0.0205 -1.4717
 2950TIP3    H2 8857   2.799   5.571   3.354  0.8769 -0.0281  1.1802
 2951TIP3   OH2 8858   5.203   4.371   3.640  0.1207  0.5971 -0.4241
 2951TIP3    H1 8859   5.163   4.399   3.722  2.6426  1.9098  0.4493
 2951TIP3    H2 8860   5.154   4.418   3.572 -2.0023 -0.5258  0.2407
 2952TIP3   OH2 8861   2.427   2.085   2.391 -0.0984  0.6452 -0.2730
 2952TIP3    H1 8862   2.513   2.089   2.350  0.8946  0.1130  1.6274
 2952TIP3    H2 8863   2.382   2.013   2.347  0.9251  0.0821 -0.4197
 2953TIP3   OH2 8864   0.183   4.368   4.281 -0.0133  0.1101 -0.4368
 2953TIP3    H1 8865   0.245   4.424   4.328 -1.5661  0.2169  1.6072
 2953TIP3    H2 8866   0.221   4.280   4.289 -0.1067  0.1629  0.8298
 2954TIP3   OH2 8867   5.279   3.098   1.155 -0.9907  0.0945  0.0403
 2954TIP3    H1 8868   5.253   3.087   1.247 -0.5232 -0.2861  0.1292
 2954TIP3    H2 8869   5.256   3.016   1.113  1.3175 -0.8384  0.4293
 2955TIP3   OH2 8870   4.144   1.150   0.005  0.0198  0.4883  0.0471
 2955TIP3    H1 8871   4.061   1.177   0.044  0.6105  2.0771  0.3003
 2955TIP3    H2 8872   4.195   1.116   0.079  0.2998  1.3794  0.2858
 2956TIP3   OH2 8873   3.156   1.880   0.443  0.3254  0.0137  0.0042
 2956TIP3    H1 8874   3.139   1.874   0.537 -2.5540 -0.2838 -0.4415
 2956TIP3    H2 8875   3.171   1.790   0.416  0.7350  0.0481  0.1179
 2957TIP3   OH2 8876   3.601   4.225   0.049  0.3860 -0.6008 -0.0008
 2957TIP3    H1 8877   3.661   4.164   0.006  1.5577 -1.7614  2.9905
 2957TIP3    H2 8878   3.657   4.277   0.106 -1.1927 -0.2349  1.2858
 2958TIP3   OH2 8879   3.542   4.119   0.371  0.2566 -0.0588  0.1837
 2958TIP3    H1 8880   3.559   4.140   0.279  2.8128 -0.0498  0.5784
 2958TIP3    H2 8881   3.520   4.026   0.371 -0.5392  0.1164 -0.4946
 2959TIP3   OH2 8882   4.791   2.790  -0.020  0.1395  0.1676  0.0046
 2959TIP3    H1 8883   4.846   2.712  -0.030 -0.5702 -0.4142  0.4676
 2959TIP3    H2 8884   4.743   2.774   0.061 -1.4275  0.2025 -0.8871
 2960TIP3   OH2 8885   5.753   0.477   3.788 -0.5472  0.1022 -0.0633
 2960TIP3    H1 8886   5.677   0.420   3.778 -0.5896  0.1129  0.1918
 2960TIP3    H2 8887   5.799   0.443   3.865  0.0177 -0.2581 -0.5505
 2961TIP3   OH2 8888   4.734   5.706   4.764 -0.6074 -0.5067  0.1588
 2961TIP3    H1 8889   4.821   5.703   4.723 -0.5455  1.1262  0.1156
 2961TIP3    H2 8890   4.739   5.780   4.825 -2.4824  0.7282 -1.0919
 2962TIP3   OH2 8891   6.326   0.687   3.513  0.1568 -0.6726 -0.4087
 2962TIP3    H1 8892   6.255   0.744   3.482  0.4617 -0.5576 -0.9237
 2962TIP3    H2 8893   6.352   0.725   3.597  0.1445 -0.2311 -0.5987
 2963TIP3   OH2 8894   5.358   3.724   1.913 -0.1958  0.1235 -0.2045
 2963TIP3    H1 8895   5.367   3.657   1.845  0.4209 -0.0982  0.0847
 2963TIP3    H2 8896   5.415   3.693   1.984 -0.2003  0.7674  0.0824
 2964TIP3   OH2 8897   0.922   5.272   2.069 -0.1568 -0.0722  0.5806
 2964TIP3    H1 8898   0.841   5.283   2.018 -0.2439 -1.3865  0.3827
 2964TIP3    H2 8899   0.992   5.274   2.003 -0.1288 -0.0466  0.6117
 2965TIP3   OH2 8900   3.941   3.048   2.832 -0.1614 -0.1360  0.3035
 2965TIP3    H1 8901   3.930   3.053   2.737 -1.1978  1.2974  0.4613
 2965TIP3    H2 8902   3.978   2.961   2.847  0.0693 -0.3746 -1.4058
 2966TIP3   OH2 8903   5.568   3.454   4.135  0.3402 -0.7354 -0.3561
 2966TIP3    H1 8904   5.588   3.364   4.112  2.2847  0.2229 -2.9368
 2966TIP3    H2 8905   5.650   3.502   4.121 -1.1062  1.7490 -1.1165
 2967TIP3   OH2 8906   4.629   5.611   1.210 -0.6539 -0.5548  0.2657
 2967TIP3    H1 8907   4.546   5.658   1.198 -1.0469 -1.0601  0.9413
 2967TIP3    H2 8908   4.630   5.587   1.303 -0.1070 -1.2266  0.0922
 2968TIP3   OH2 8909   0.378   4.087   4.625 -0.0004  1.0889 -0.4623
 2968TIP3    H1 8910   0.405   4.103   4.534  2.3782 -1.7425 -0.3896
 2968TIP3    H2 8911   0.435   4.143   4.678  1.4445 -0.1831 -0.6074
 2969TIP3   OH2 8912   0.329   0.211   3.594 -0.3399  0.5648 -0.1459
 2969TIP3    H1 8913   0.413   0.211   3.639 -0.1983  0.1244 -0.4063
 2969TIP3    H2 8914   0.265   0.228   3.663 -0.0685  0.5337  0.1136
 2970TIP3   OH2 8915   5.654   2.331   5.192  0.2445  0.3106  0.0477
 2970TIP3    H1 8916   5.621   2.335   5.102  0.3260 -0.9921 -0.0562
 2970TIP3    H2 8917   5.711   2.408   5.199 -1.3065  1.5564 -0.3498
 2971TIP3   OH2 8918   1.763   3.880   0.897  0.6671 -0.2219  0.0309
 2971TIP3    H1 8919   1.770   3.847   0.986  1.9194 -1.5963 -0.5545
 2971TIP3    H2 8920   1.849   3.919   0.878 -0.3934  2.5109  0.3073
 2972TIP3   OH2 8921   4.181   4.953   0.783 -0.6688 -1.0620 -0.0821
 2972TIP3    H1 8922   4.205   4.875   0.734  0.8745  0.7119 -2.3535
 2972TIP3    H2 8923   4.252   4.964   0.847 -0.2494 -0.8768 -0.5748
 2973TIP3   OH2 8924   2.862   2.831   3.456 -0.3036  0.1013 -0.1747
 2973TIP3    H1 8925   2.956   2.812   3.454 -0.1339  0.8913 -2.9558
 2973TIP3    H2 8926   2.849   2.897   3.387 -2.8429  0.3767  0.4662
 2974TIP3   OH2 8927   3.751   4.281   0.608  0.6802 -0.0171  0.3531
 2974TIP3    H1 8928   3.789   4.194   0.600  1.2734  0.3046 -0.4566
 2974TIP3    H2 8929   3.670   4.268   0.658  1.2694 -0.8782  1.1056
 2975TIP3   OH2 8930   4.960   1.788   4.785 -0.3482  0.0999 -0.5184
 2975TIP3    H1 8931   4.973   1.865   4.730  2.0450  1.8139  2.1728
 2975TIP3    H2 8932   4.893   1.813   4.848  0.5572  0.1023  0.4744
 2976TIP3   OH2 8933   2.810   3.615   4.652 -0.2504 -0.3750 -0.0780
 2976TIP3    H1 8934   2.888   3.571   4.618 -0.1479  0.8155 -1.4581
 2976TIP3    H2 8935   2.828   3.708   4.640 -1.8368 -0.0776 -0.3015
 2977TIP3   OH2 8936   4.245   0.814   0.604 -0.4112  0.3825 -0.4818
 2977TIP3    H1 8937   4.170   0.872   0.591 -2.2976 -1.7136  0.3372
 2977TIP3    H2 8938   4.271   0.827   0.695  0.7849  1.6680 -0.9746
 2978TIP3   OH2 8939   4.393   4.337   1.555 -0.4600 -0.7031  0.3958
 2978TIP3    H1 8940   4.366   4.422   1.521  0.9746  0.6218  2.3387
 2978TIP3    H2 8941   4.417   4.285   1.478  3.1919  2.2671 -0.7430
 2979TIP3   OH2 8942   1.036   5.779   0.930  0.1533  0.3963 -0.6798
 2979TIP3    H1 8943   1.112   5.728   0.956 -0.9303 -1.8050 -1.5401
 2979TIP3    H2 8944   1.024   5.843   1.001 -0.5250 -2.9012  2.5084
 2980TIP3   OH2 8945   3.437   5.349   2.307  0.2298 -0.4671  0.6736
 2980TIP3    H1 8946   3.430   5.294   2.228  1.1397 -0.1267  0.3479
 2980TIP3    H2 8947   3.414   5.290   2.379 -1.0375 -0.6715  0.1259
 2981TIP3   OH2 8948   2.354   4.849   4.821  0.2727 -0.5374  0.1902
 2981TIP3    H1 8949   2.261   4.868   4.811  0.7574  2.4946  0.4096
 2981TIP3    H2 8950   2.365   4.761   4.785 -2.3899 -0.3381 -1.3788
 2982TIP3   OH2 8951   4.184   3.549   0.088  0.4669 -0.2056 -0.0856
 2982TIP3    H1 8952   4.205   3.472   0.141 -1.1079 -0.7281 -0.1821
 2982TIP3    H2 8953   4.255   3.611   0.107  1.9064 -1.7342 -0.1776
 2983TIP3   OH2 8954   1.993   3.849   0.653 -0.0397  0.1188  0.4158
 2983TIP3    H1 8955   1.975   3.922   0.712 -0.3502  0.7768 -0.4615
 2983TIP3    H2 8956   2.026   3.891   0.573  1.4636 -0.8135  0.5070
 2984TIP3   OH2 8957   6.045   4.117   0.128  0.2903  0.5339  0.2890
 2984TIP3    H1 8958   5.997   4.198   0.114  0.9764  0.7860 -0.7470
 2984TIP3    H2 8959   5.977   4.050   0.138 -0.3018  0.8294 -1.4345
 2985TIP3   OH2 8960   0.279   0.386   2.724  0.0921  0.2120 -0.1640
 2985TIP3    H1 8961   0.340   0.439   2.774 -0.5350  0.9893 -0.2104
 2985TIP3    H2 8962   0.334   0.339   2.661  1.0215 -1.5213  1.8158
 2986TIP3   OH2 8963   4.102   5.710   1.010 -0.4276  0.1035 -0.2415
 2986TIP3    H1 8964   4.197   5.708   1.024 -0.3733 -0.1566 -0.6408
 2986TIP3    H2 8965   4.090   5.769   0.936 -0.6451  0.7695  0.3132
 2987TIP3   OH2 8966   4.453   0.806   5.008  0.0692 -0.0689 -0.1103
 2987TIP3    H1 8967   4.374   0.755   4.996 -0.5336  1.1650 -1.7922
 2987TIP3    H2 8968   4.438   0.856   5.089  0.0550 -1.3720  0.7223
 2988TIP3   OH2 8969   1.139   1.993   3.565 -0.5148 -0.4223 -0.3146
 2988TIP3    H1 8970   1.095   2.076   3.549 -0.0677 -0.0316  0.4336
 2988TIP3    H2 8971   1.213   1.993   3.504  1.0554  0.9609  1.4721
 2989TIP3   OH2 8972   5.024   2.195   4.462 -0.1246 -0.6350  0.1759
 2989TIP3    H1 8973   5.092   2.151   4.411  0.5117 -1.4708  1.6850
 2989TIP3    H2 8974   5.053   2.286   4.467 -1.1234 -0.0816 -2.4239
 2990TIP3   OH2 8975   2.655   0.189   0.534 -0.6291  0.2860 -0.6279
 2990TIP3    H1 8976   2.621   0.253   0.597  0.0780 -0.5745  0.6643
 2990TIP3    H2 8977   2.583   0.127   0.522 -0.1735 -0.5549  0.7598
 2991TIP3   OH2 8978   3.575   1.060   4.135 -0.3130  0.8059  0.5993
 2991TIP3    H1 8979   3.564   1.137   4.080 -0.2838  0.4896  0.1480
 2991TIP3    H2 8980   3.662   1.070   4.174 -0.8253  1.6468  1.5653
 2992TIP3   OH2 8981   0.848   1.513   1.953  0.1155  0.4134  0.3136
 2992TIP3    H1 8982   0.868   1.446   1.888 -3.9661  0.0887 -0.8831
 2992TIP3    H2 8983   0.930   1.561   1.964  2.2012 -2.3847 -1.5783
 2993TIP3   OH2 8984   3.506   4.796   2.872  0.6389 -0.3827  0.3183
 2993TIP3    H1 8985   3.519   4.735   2.944 -1.8947 -0.0903  1.0952
 2993TIP3    H2 8986   3.500   4.741   2.794 -2.8306 -1.4066  1.1356
 2994TIP3   OH2 8987   0.634   3.149   2.011  0.5290 -0.6056 -0.1444
 2994TIP3    H1 8988   0.637   3.054   2.003 -2.6655 -0.7737 -0.4157
 2994TIP3    H2 8989   0.564   3.176   1.953  1.4249  1.9636 -0.1440
 2995TIP3   OH2 8990   4.599   2.967   2.059  0.0777  0.2518 -0.5016
 2995TIP3    H1 8991   4.535   2.905   2.095 -0.2073  1.4901  1.2495
 2995TIP3    H2 8992   4.658   2.913   2.007 -0.8589 -1.3114 -0.0104
 2996TIP3   OH2 8993   2.113   2.827   3.666 -0.2551 -0.9596  0.0558
 2996TIP3    H1 8994   2.155   2.776   3.598 -0.6228  0.1796 -1.0752
 2996TIP3    H2 8995   2.180   2.888   3.696 -1.0978  1.1686 -2.0686
 2997TIP3   OH2 8996   3.707   3.874   2.680 -0.2476 -0.4319  0.2025
 2997TIP3    H1 8997   3.755   3.880   2.762  0.7771 -0.6677 -0.3696
 2997TIP3    H2 8998   3.770   3.898   2.612 -0.9238 -0.7608 -0.5717
 2998TIP3   OH2 8999   3.547   5.892   0.604 -0.1842  0.2391  0.0081
 2998TIP3    H1 9000   3.591   5.859   0.524 -0.3977 -0.0755  0.0172
 2998TIP3    H2 9001   3.611   5.950   0.644 -0.9214  2.2675 -1.6131
 2999TIP3   OH2 9002   5.797   4.973   2.131  0.3828 -0.4001 -0.2875
 2999TIP3    H1 9003   5.857   4.935   2.195  1.1550  1.5863  0.2226
 2999TIP3    H2 9004   5.720   4.997   2.183  0.7181  0.5490 -0.2109
 3000TIP3   OH2 9005   3.640   4.109   3.874  0.7616 -0.4826 -0.3859
 3000TIP3    H1 9006   3.722   4.109   3.925  1.1160 -1.0808 -0.9414
 3000TIP3    H2 9007   3.631   4.019   3.845  0.6815 -0.1020 -1.5743
 3001TIP3   OH2 9008   2.660   2.925   3.956  0.2770  0.1027  0.4286
 3001TIP3    H1 9009   2.716   2.930   3.879  0.3027  0.2183  0.4548
 3001TIP3    H2 9010   2.571   2.923   3.921  0.2419  1.2763  0.4363
 3002TIP3   OH2 9011   3.559   2.422   2.434  0.2503  0.2372  0.1115
 3002TIP3    H1 9012   3.553   2.517   2.437  1.3717  0.4460 -2.2327
 3002TIP3    H2 9013   3.649   2.403   2.460  0.6795  0.0261 -1.4105
 3003TIP3   OH2 9014   5.032   2.691   2.599  0.1280  0.0793 -0.4611
 3003TIP3    H1 9015   4.942   2.664   2.617 -0.6150  1.1710 -2.2396
 3003TIP3    H2 9016   5.034   2.784   2.621  0.7819  0.0901 -0.5437
 3004TIP3   OH2 9017   4.571   0.195   0.026 -0.0543 -0.1478  0.1443
 3004TIP3    H1 9018   4.619   0.203   0.108  0.2602 -0.7183  0.0289
 3004TIP3    H2 9019   4.508   0.124   0.042 -0.4110  0.1539  0.0862
 3005TIP3   OH2 9020   6.176   0.999   4.737  0.0111 -0.1387 -0.1248
 3005TIP3    H1 9021   6.208   0.997   4.647 -1.0312 -3.0450 -0.5158
 3005TIP3    H2 9022   6.129   0.916   4.748  0.5631 -0.1343  3.2592
 3006TIP3   OH2 9023   2.489   3.404   0.896  0.3148 -0.3543  0.1574
 3006TIP3    H1 9024   2.437   3.401   0.816 -0.2268 -1.3196  0.5275
 3006TIP3    H2 9025   2.443   3.346   0.957  0.5158  0.6358  1.2965
 3007TIP3   OH2 9026   1.153   0.322   3.339  0.1360 -0.6318 -0.1059
 3007TIP3    H1 9027   1.233   0.301   3.291  2.1546  1.0183  2.2383
 3007TIP3    H2 9028   1.113   0.394   3.289  0.8681 -0.5490 -0.5875
 3008TIP3   OH2 9029   0.409   4.693   4.831 -0.5883  0.3308 -0.1589
 3008TIP3    H1 9030   0.327   4.728   4.797 -0.0662  0.4050 -1.4324
 3008TIP3    H2 9031   0.448   4.765   4.881 -1.1358  0.4047  0.1622
 3009TIP3   OH2 9032   3.206   5.122   0.109  0.3689  0.2823 -1.0482
 3009TIP3    H1 9033   3.177   5.148   0.021 -0.5757 -0.5879 -1.0076
 3009TIP3    H2 9034   3.275   5.057   0.093  1.1355  1.0868 -1.1318
 3010TIP3   OH2 9035   3.103   5.683   3.512 -0.0045  0.3435  0.0443
 3010TIP3    H1 9036   3.156   5.697   3.434  0.5539  0.1123  0.3721
 3010TIP3    H2 9037   3.022   5.731   3.495 -0.3762 -0.6721 -1.1652
 3011TIP3   OH2 9038   2.531   3.794   0.354  0.6628  0.6033 -0.4504
 3011TIP3    H1 9039   2.492   3.726   0.299  0.3988 -0.3278  0.8644
 3011TIP3    H2 9040   2.620   3.764   0.372 -0.0257 -0.3421  1.6277
 3012TIP3   OH2 9041   1.962   2.290   4.443  0.4013 -0.4657  0.2694
 3012TIP3    H1 9042   1.993   2.265   4.530  0.6394  1.0663  0.6524
 3012TIP3    H2 9043   2.031   2.347   4.408 -0.7260  0.8332  0.0478
 3013TIP3   OH2 9044   3.158   5.744   3.090 -0.1368 -0.3665  0.0871
 3013TIP3    H1 9045   3.221   5.742   3.018 -0.7749 -0.5616 -0.4738
 3013TIP3    H2 9046   3.086   5.688   3.061 -0.7764  0.2091  0.5228
 3014TIP3   OH2 9047   1.835   5.082   2.938  0.0559  0.2605  0.5526
 3014TIP3    H1 9048   1.792   5.166   2.928  1.0829  1.0631  2.3378
 3014TIP3    H2 9049   1.810   5.052   3.026  0.8869 -0.5798  0.5262
 3015TIP3   OH2 9050   3.290   3.612   0.810  0.0354  0.1860  0.1464
 3015TIP3    H1 9051   3.293   3.586   0.902  0.0178 -0.2990  0.0110
 3015TIP3    H2 9052   3.203   3.588   0.780  0.0847  0.2254 -0.0322
 3016TIP3   OH2 9053   4.021   5.581   1.955 -0.6730 -0.3075 -0.4481
 3016TIP3    H1 9054   4.057   5.603   2.041  1.6495 -2.0024 -0.9184
 3016TIP3    H2 9055   4.029   5.662   1.905 -0.3113  0.1773  0.3570
 3017TIP3   OH2 9056   1.442   1.435   1.104 -0.2760 -0.0186  0.2539
 3017TIP3    H1 9057   1.488   1.353   1.089  0.8024  0.6491 -0.2620
 3017TIP3    H2 9058   1.366   1.412   1.157  0.2466 -1.2713  0.4748
 3018TIP3   OH2 9059   2.616   5.668   0.614 -0.2466 -0.9000  0.2126
 3018TIP3    H1 9060   2.654   5.622   0.689 -0.7105 -1.0932  0.3358
 3018TIP3    H2 9061   2.552   5.606   0.579 -1.4996 -0.0194  0.8944
 3019TIP3   OH2 9062   2.741   4.841   1.429 -0.2889  0.4956  0.2594
 3019TIP3    H1 9063   2.678   4.781   1.392 -0.1643  0.8249 -0.5155
 3019TIP3    H2 9064   2.720   4.926   1.390  0.1783  0.7510  0.5405
 3020TIP3   OH2 9065   3.872   3.599   2.621  0.3395 -0.1438  0.0267
 3020TIP3    H1 9066   3.867   3.515   2.575 -0.0357  0.2121 -0.6039
 3020TIP3    H2 9067   3.866   3.665   2.551  0.0180  0.4066  0.5618
 3021TIP3   OH2 9068   4.816   5.713   5.208  0.3616 -0.1561  0.0264
 3021TIP3    H1 9069   4.857   5.626   5.212  0.2009 -0.2380 -0.1375
 3021TIP3    H2 9070   4.842   5.748   5.123 -1.0523 -0.7714 -0.6835
 3022TIP3   OH2 9071   0.260   4.075   3.091  0.1726 -0.3873 -0.4219
 3022TIP3    H1 9072   0.349   4.111   3.093 -0.1647  0.4541  0.2067
 3022TIP3    H2 9073   0.261   4.005   3.156 -0.0690  0.7902  0.9111
 3023TIP3   OH2 9074   1.962   4.773   2.749  0.5203  0.0965  0.7222
 3023TIP3    H1 9075   1.898   4.795   2.817  0.2619 -1.0917  0.8905
 3023TIP3    H2 9076   1.974   4.854   2.700 -1.6212  0.1840  0.2651
 3024TIP3   OH2 9077   0.834   2.634   1.355 -0.3514  0.0776 -0.6981
 3024TIP3    H1 9078   0.783   2.554   1.348  0.5704 -0.6503  0.5100
 3024TIP3    H2 9079   0.921   2.610   1.323  0.2150  0.2977  0.6367
 3025TIP3   OH2 9080   1.714   4.389   3.370  0.5748 -0.1784 -0.3792
 3025TIP3    H1 9081   1.732   4.302   3.407 -0.2385  0.6908  2.3141
 3025TIP3    H2 9082   1.629   4.379   3.327  0.1817 -0.6054  0.4625
 3026TIP3   OH2 9083   3.548   3.502   0.820 -0.2578  0.7100  0.2176
 3026TIP3    H1 9084   3.511   3.443   0.755 -0.8994  2.0120 -0.6279
 3026TIP3    H2 9085   3.474   3.555   0.850  0.1829  0.6821  1.4205
 3027TIP3   OH2 9086   3.039   2.197   4.741  0.6515 -0.4985 -0.3936
 3027TIP3    H1 9087   3.072   2.124   4.688 -0.5467 -2.1729  1.0417
 3027TIP3    H2 9088   3.022   2.267   4.678  0.1862 -2.0549 -2.0831
 3028TIP3   OH2 9089   2.877   5.864   3.444  0.0752 -0.4814 -0.3814
 3028TIP3    H1 9090   2.825   5.797   3.400 -0.2704  0.1312 -0.9207
 3028TIP3    H2 9091   2.820   5.941   3.446  0.1300 -0.4543  1.0402
 3029TIP3   OH2 9092   5.978   3.473   1.351 -0.7365  0.1769 -0.1561
 3029TIP3    H1 9093   6.010   3.562   1.365  0.6407 -0.1255 -1.1678
 3029TIP3    H2 9094   5.940   3.448   1.436  4.0460 -0.3329  2.1944
 3030TIP3   OH2 9095   4.526   4.959   2.420  0.4112 -0.6224  0.3391
 3030TIP3    H1 9096   4.503   4.883   2.474  0.4186 -1.4312 -0.7690
 3030TIP3    H2 9097   4.491   4.939   2.334 -0.0515  0.8916  0.1516
 3031TIP3   OH2 9098   4.658   0.331   3.730 -0.0963 -0.5153 -0.0226
 3031TIP3    H1 9099   4.608   0.385   3.668  0.1568 -0.4791 -0.1973
 3031TIP3    H2 9100   4.594   0.269   3.764 -0.8178  0.9833  1.4797
 3032TIP3   OH2 9101   5.299   2.191   1.581 -0.8289 -0.8318 -0.1064
 3032TIP3    H1 9102   5.345   2.109   1.563  0.0973 -0.8080  1.9555
 3032TIP3    H2 9103   5.339   2.254   1.521  2.2613 -0.7124  1.8762
 3033TIP3   OH2 9104   4.864   2.353   3.656 -0.6904  0.1066  0.6201
 3033TIP3    H1 9105   4.834   2.352   3.747  2.1260 -0.0309  1.6613
 3033TIP3    H2 9106   4.935   2.289   3.654 -0.3533  0.4729 -1.5831
 3034TIP3   OH2 9107   5.341   4.558   0.625  0.1660  0.0054  0.1261
 3034TIP3    H1 9108   5.296   4.579   0.542  1.2523 -0.7480 -0.6803
 3034TIP3    H2 9109   5.400   4.486   0.603  1.6526  0.8450  1.1816
 3035TIP3   OH2 9110   0.042   4.663   0.012  0.0464  0.2484 -0.1114
 3035TIP3    H1 9111   0.026   4.708  -0.072 -0.6509  3.4519  1.5843
 3035TIP3    H2 9112  -0.028   4.695   0.069  1.3960 -0.6410  2.1204
 3036TIP3   OH2 9113   4.847   3.188   0.141 -0.2005 -0.0745  0.1416
 3036TIP3    H1 9114   4.771   3.227   0.184 -0.0173  0.6889 -0.2098
 3036TIP3    H2 9115   4.875   3.119   0.201 -0.9306 -0.0983  0.4622
 3037TIP3   OH2 9116   5.758   1.880   0.336  0.1117 -0.0960  0.4519
 3037TIP3    H1 9117   5.689   1.888   0.402  1.0112  0.4305  1.3640
 3037TIP3    H2 9118   5.807   1.802   0.362 -0.1011 -0.4390 -0.1640
 3038TIP3   OH2 9119   1.976   5.769   4.210  0.3080  0.0632  0.1343
 3038TIP3    H1 9120   2.012   5.825   4.141 -0.0173 -1.1552 -1.0663
 3038TIP3    H2 9121   2.038   5.778   4.282  0.8679  1.0778 -0.4364
 3039TIP3   OH2 9122   0.831   0.360   0.125  0.3768  0.8744  0.3094
 3039TIP3    H1 9123   0.796   0.383   0.211 -0.7845  1.7057 -0.3672
 3039TIP3    H2 9124   0.915   0.406   0.122  1.6282 -1.1028  1.9215
 3040TIP3   OH2 9125   1.732   4.905   1.177 -0.1035 -0.9957  0.7611
 3040TIP3    H1 9126   1.736   4.853   1.258  0.4864 -0.4651  1.0788
 3040TIP3    H2 9127   1.671   4.976   1.198  0.9902 -0.1576  1.1586
 3041TIP3   OH2 9128   1.332   0.293   1.565  0.2174  0.4770  0.1627
 3041TIP3    H1 9129   1.320   0.378   1.521 -0.3110  0.6499  0.6115
 3041TIP3    H2 9130   1.400   0.249   1.515 -1.5652 -0.0878 -1.9460
 3042TIP3   OH2 9131   2.395   3.040   4.753 -0.0555  0.8827  0.5805
 3042TIP3    H1 9132   2.313   2.992   4.758  0.5901 -0.9339 -3.0010
 3042TIP3    H2 9133   2.371   3.128   4.724 -0.7395  0.2905 -0.6797
 3043TIP3   OH2 9134   4.255   4.608   2.666  0.2662 -0.2737  0.1326
 3043TIP3    H1 9135   4.180   4.643   2.714  0.0858 -2.1542  1.2933
 3043TIP3    H2 9136   4.237   4.630   2.575 -2.9191 -2.6371  0.0297
 3044TIP3   OH2 9137   5.457   2.420   4.387 -0.0597  0.3426  0.4468
 3044TIP3    H1 9138   5.474   2.351   4.323 -0.4989 -0.1413  0.8402
 3044TIP3    H2 9139   5.540   2.431   4.433  0.0235  0.1005  0.3569
 3045TIP3   OH2 9140   2.381   2.600   2.943 -0.1035 -0.4858 -0.0582
 3045TIP3    H1 9141   2.414   2.628   3.029 -0.4854 -0.6439  0.1430
 3045TIP3    H2 9142   2.300   2.553   2.963  1.0755 -2.7239 -0.2880
 3046TIP3   OH2 9143   0.382   3.612   3.102 -0.2745 -0.1430 -0.2514
 3046TIP3    H1 9144   0.443   3.615   3.029 -0.2891  0.7990 -0.2378
 3046TIP3    H2 9145   0.331   3.532   3.088  0.9461 -0.9488 -0.2609
 3047TIP3   OH2 9146   4.201   0.319   0.710  0.0988 -0.7159  0.2071
 3047TIP3    H1 9147   4.109   0.294   0.718 -0.5008  1.4341  0.5623
 3047TIP3    H2 9148   4.204   0.410   0.738  1.9970 -0.1112 -1.6894
 3048TIP3   OH2 9149   0.604   3.048   4.378  0.5070 -0.2788 -0.1641
 3048TIP3    H1 9150   0.554   2.977   4.337 -1.0924  0.7901 -0.1462
 3048TIP3    H2 9151   0.619   3.111   4.307 -1.2737  1.0441  0.5552
 3049TIP3   OH2 9152   4.708   5.836   4.246  0.3377 -0.2381 -0.4816
 3049TIP3    H1 9153   4.641   5.784   4.291  0.8002 -0.4668 -0.0477
 3049TIP3    H2 9154   4.782   5.838   4.307 -0.6147  3.2859  0.8294
 3050TIP3   OH2 9155   1.226   4.903   3.837  0.1564  0.0760  0.1795
 3050TIP3    H1 9156   1.154   4.963   3.856  0.8947  0.6375  1.3646
 3050TIP3    H2 9157   1.243   4.914   3.744 -0.5462  0.7819  0.1217
 3051TIP3   OH2 9158   3.628   3.768   1.289  0.3345 -0.3152  0.2147
 3051TIP3    H1 9159   3.662   3.782   1.377  1.0003  0.4366 -0.1499
 3051TIP3    H2 9160   3.566   3.696   1.298  1.7544 -1.4960  0.9695
 3052TIP3   OH2 9161   3.949   3.367   4.833 -0.1324  0.2893  0.2919
 3052TIP3    H1 9162   3.973   3.449   4.791  1.2504 -0.3619 -0.2526
 3052TIP3    H2 9163   3.929   3.308   4.760 -0.2393 -0.1189  0.6464
 3053TIP3   OH2 9164   4.964   2.134   1.324  0.1151 -0.3582 -0.3500
 3053TIP3    H1 9165   4.946   2.110   1.414  2.4123 -2.0136 -0.2518
 3053TIP3    H2 9166   4.938   2.227   1.318 -1.5463 -0.6431  1.5071
 3054TIP3   OH2 9167   3.420   4.279   2.078  0.4647  0.1317 -0.2110
 3054TIP3    H1 9168   3.396   4.188   2.094 -2.3082  0.6386 -0.9368
 3054TIP3    H2 9169   3.444   4.313   2.165 -0.3521 -0.7821  0.3910
 3055TIP3   OH2 9170   0.213   3.029   0.371 -0.5523 -0.1870  0.1924
 3055TIP3    H1 9171   0.191   3.049   0.462 -1.3780 -0.7500  0.1322
 3055TIP3    H2 9172   0.132   2.992   0.335  0.1743 -1.2949 -0.3651
 3056TIP3   OH2 9173   0.095   4.588   2.523  0.9513  0.2019  0.0739
 3056TIP3    H1 9174   0.141   4.672   2.526  0.5806  0.4252 -0.3278
 3056TIP3    H2 9175   0.092   4.565   2.430 -0.5485  0.6628 -0.0277
 3057TIP3   OH2 9176   4.310   4.101   1.764 -0.2603 -0.1806  0.7986
 3057TIP3    H1 9177   4.389   4.087   1.712 -0.4952  1.0376  0.0692
 3057TIP3    H2 9178   4.240   4.110   1.699 -1.2439 -2.4530  1.4559
 3058TIP3   OH2 9179   2.394   1.149   1.907  0.2766 -0.1058 -0.0515
 3058TIP3    H1 9180   2.488   1.170   1.912 -0.0023  1.0104  0.9051
 3058TIP3    H2 9181   2.360   1.206   1.839  0.1552  0.0674  0.1517
 3059TIP3   OH2 9182   5.807   5.394   0.108  0.2851  0.3467  0.4094
 3059TIP3    H1 9183   5.715   5.374   0.091 -0.7245  3.6779  1.2219
 3059TIP3    H2 9184   5.839   5.318   0.157 -2.3870 -0.3869  1.1803
 3060TIP3   OH2 9185   0.424   1.860   4.650 -0.0548 -0.3929  0.0136
 3060TIP3    H1 9186   0.392   1.893   4.734  0.9618 -0.9565  0.6460
 3060TIP3    H2 9187   0.353   1.878   4.588 -0.0122  1.9093  0.5483
 3061TIP3   OH2 9188   4.618   2.961   1.597 -0.4735  0.2173 -0.7071
 3061TIP3    H1 9189   4.599   2.939   1.688 -0.1769 -1.2264 -0.9781
 3061TIP3    H2 9190   4.598   3.055   1.591 -2.3447 -0.0617  0.3456
 3062TIP3   OH2 9191   1.877   2.328   2.155 -1.3765  0.1538  0.4633
 3062TIP3    H1 9192   1.865   2.410   2.203  0.1952 -0.6110  2.2674
 3062TIP3    H2 9193   1.896   2.263   2.223  1.8223 -0.8238 -1.1748
 3063TIP3   OH2 9194   0.636   3.178   2.830 -0.1989  0.4235 -0.0309
 3063TIP3    H1 9195   0.716   3.165   2.779  1.2994  2.7282  1.5681
 3063TIP3    H2 9196   0.615   3.091   2.865  1.9016 -0.1525 -0.0968
 3064TIP3   OH2 9197   0.592   3.354   3.046  0.5496  0.2478  0.3036
 3064TIP3    H1 9198   0.594   3.297   2.969 -0.2959 -0.2078  0.6021
 3064TIP3    H2 9199   0.568   3.440   3.011  0.6640  0.1557 -0.0052
 3065TIP3   OH2 9200   6.368   2.610   4.675 -0.5495 -0.4166  0.2169
 3065TIP3    H1 9201   6.350   2.518   4.657 -0.2355 -1.0627  2.8653
 3065TIP3    H2 9202   6.282   2.650   4.688 -0.6249 -0.7576  0.8068
 3066TIP3   OH2 9203   4.992   5.683   4.669 -0.5620 -0.5962 -0.4647
 3066TIP3    H1 9204   5.044   5.761   4.645  0.1213 -0.4865  1.2333
 3066TIP3    H2 9205   5.054   5.611   4.664 -1.4111 -1.2344 -2.9167
 3067TIP3   OH2 9206   3.899   4.796   0.303 -0.0533 -0.5984  0.1334
 3067TIP3    H1 9207   3.922   4.704   0.310 -1.6536 -0.9753  1.1762
 3067TIP3    H2 9208   3.895   4.827   0.394 -2.4600 -0.3398  0.0133
 3068TIP3   OH2 9209   4.556   4.146   0.206 -0.2995  0.1066 -0.0514
 3068TIP3    H1 9210   4.463   4.133   0.224 -0.4195  0.2292 -0.5662
 3068TIP3    H2 9211   4.598   4.142   0.292 -1.0669  2.6226  0.5013
 3069TIP3   OH2 9212   5.239   0.912   1.556  0.0175  0.0207  0.0774
 3069TIP3    H1 9213   5.239   0.819   1.578 -2.7562 -0.4495 -1.3876
 3069TIP3    H2 9214   5.152   0.943   1.583 -0.8757  1.0375 -3.4100
 3070TIP3   OH2 9215   5.794   2.807   4.465  0.3334 -0.4295 -0.2947
 3070TIP3    H1 9216   5.871   2.861   4.480 -0.3871  0.6813 -0.5291
 3070TIP3    H2 9217   5.725   2.868   4.438 -0.9437 -1.2349  0.9510
 3071TIP3   OH2 9218   4.636   5.830   3.106 -0.5248 -0.4800 -0.3543
 3071TIP3    H1 9219   4.571   5.781   3.157  0.2335 -0.9422  0.1973
 3071TIP3    H2 9220   4.696   5.762   3.074  1.5073  0.1568  1.7989
 3072TIP3   OH2 9221   1.111   5.845   1.576  0.1165  0.0555 -0.1549
 3072TIP3    H1 9222   1.179   5.860   1.641 -0.0115 -0.2967  0.0674
 3072TIP3    H2 9223   1.035   5.816   1.627  0.3210 -1.2126 -0.5251
 3073TIP3   OH2 9224   4.149   2.925   0.667  0.0075 -0.4773 -0.0186
 3073TIP3    H1 9225   4.237   2.888   0.682  0.1394 -0.4014 -0.5810
 3073TIP3    H2 9226   4.145   2.938   0.572  0.2258  1.5888  0.2024
 3074TIP3   OH2 9227   5.082   4.600   4.296 -0.2588 -0.4796 -0.6576
 3074TIP3    H1 9228   5.034   4.589   4.378  0.9363 -0.3211  0.0889
 3074TIP3    H2 9229   5.166   4.636   4.323  0.9543 -2.3792 -1.7271
 3075TIP3   OH2 9230   3.790   4.442   1.526  0.2123  0.0141 -0.1146
 3075TIP3    H1 9231   3.733   4.424   1.601  1.1404  0.6505  0.7798
 3075TIP3    H2 9232   3.833   4.358   1.508  1.0022  0.1430  0.9853
 3076TIP3   OH2 9233   1.409   1.070   4.706 -0.2797  0.3150 -0.0642
 3076TIP3    H1 9234   1.390   1.008   4.635  1.3855  0.6037 -0.8143
 3076TIP3    H2 9235   1.437   1.014   4.779  0.3172  0.1219 -0.4337
 3077TIP3   OH2 9236   0.079   4.406   1.881 -0.1181 -0.3380  0.0003
 3077TIP3    H1 9237   0.106   4.477   1.940  0.1598  0.9562 -1.6365
 3077TIP3    H2 9238   0.155   4.348   1.876 -0.7831 -1.6075  2.4170
 3078TIP3   OH2 9239   4.843   5.977   3.673 -0.2291  0.0900  0.0710
 3078TIP3    H1 9240   4.893   5.955   3.595  1.2844  0.7476  0.8165
 3078TIP3    H2 9241   4.827   5.893   3.715 -1.3345 -0.3045 -1.0721
 3079TIP3   OH2 9242   2.778   1.970   0.542  0.1701  0.8432 -0.1776
 3079TIP3    H1 9243   2.693   1.945   0.579  0.3699  0.8018  0.2632
 3079TIP3    H2 9244   2.766   1.965   0.448  0.1352 -0.6763 -0.1128
 3080TIP3   OH2 9245   4.234   5.089   3.762  0.1242  0.2690  0.5937
 3080TIP3    H1 9246   4.280   5.009   3.786 -0.4149 -1.2771 -2.8219
 3080TIP3    H2 9247   4.300   5.157   3.765  1.0499 -0.6362  1.8177
 3081TIP3   OH2 9248   2.549   0.187   0.020 -0.1790 -0.0186  0.5420
 3081TIP3    H1 9249   2.549   0.282   0.031 -0.9035  0.1648 -0.7579
 3081TIP3    H2 9250   2.457   0.163   0.028 -0.1185 -0.4730 -0.0940
 3082TIP3   OH2 9251   2.388   2.067   2.017 -0.1118 -0.2752 -0.1336
 3082TIP3    H1 9252   2.472   2.110   2.033 -0.7108  1.2313 -0.8445
 3082TIP3    H2 9253   2.366   2.025   2.100 -0.6002  2.8219  1.4235
 3083TIP3   OH2 9254   2.187   3.886   3.347 -0.7211 -0.0044 -0.5905
 3083TIP3    H1 9255   2.236   3.950   3.399  0.3239 -1.3054  0.1065
 3083TIP3    H2 9256   2.233   3.884   3.263 -0.4507 -0.1872 -0.4401
 3084TIP3   OH2 9257   3.708   5.661   2.846  0.4172  0.9846 -0.1034
 3084TIP3    H1 9258   3.768   5.591   2.818  0.0374  0.4755  0.3511
 3084TIP3    H2 9259   3.621   5.627   2.829  0.1175  0.3182  2.3944
 3085TIP3   OH2 9260   5.436   5.884   3.569 -0.3728 -0.0784  0.0163
 3085TIP3    H1 9261   5.510   5.888   3.509 -1.3009  0.4393 -1.1430
 3085TIP3    H2 9262   5.447   5.958   3.628 -0.6832  0.8244 -1.0374
 3086TIP3   OH2 9263   1.009   5.092   1.084 -0.0867  0.1229 -0.0307
 3086TIP3    H1 9264   0.967   5.171   1.052 -0.2269 -0.5718 -1.6766
 3086TIP3    H2 9265   1.102   5.114   1.088 -0.1572  0.4529 -0.2050
 3087TIP3   OH2 9266   1.704   0.505   4.286 -0.4122  0.4256  0.4373
 3087TIP3    H1 9267   1.645   0.456   4.229  1.0939  0.7561 -1.5173
 3087TIP3    H2 9268   1.742   0.572   4.229  3.0748 -0.8113  1.0684
 3088TIP3   OH2 9269   0.040   2.377   2.216 -0.6890 -0.2407 -0.6750
 3088TIP3    H1 9270   0.075   2.335   2.294  0.2474 -2.0346 -2.0071
 3088TIP3    H2 9271   0.060   2.470   2.229  0.9631 -0.6969  0.4764
 3089TIP3   OH2 9272   4.451   4.778   3.359 -0.1981 -0.0238 -0.1359
 3089TIP3    H1 9273   4.526   4.794   3.303 -0.4366  2.7523  0.2087
 3089TIP3    H2 9274   4.434   4.862   3.402 -3.0129 -0.7453  0.3901
 3090TIP3   OH2 9275   4.954   1.255   3.142  0.7174 -0.3426 -0.1460
 3090TIP3    H1 9276   4.861   1.257   3.165  0.8488  0.4212  0.3379
 3090TIP3    H2 9277   4.956   1.218   3.054 -0.1215  0.4769 -0.5215
 3091TIP3   OH2 9278   4.915   4.285   1.646 -0.4420 -0.1617  0.2504
 3091TIP3    H1 9279   5.009   4.286   1.664 -0.3342  1.0331 -0.2919
 3091TIP3    H2 9280   4.889   4.194   1.662  1.0609 -0.8390 -0.8723
 3092TIP3   OH2 9281   1.949   4.492   2.705 -0.1995  0.5218  0.5155
 3092TIP3    H1 9282   1.958   4.580   2.739 -0.7153  0.0429  1.9668
 3092TIP3    H2 9283   2.039   4.462   2.689 -0.0162  1.1948  0.2722
 3093TIP3   OH2 9284   1.033   4.410   2.604  0.6593  0.1217 -0.2118
 3093TIP3    H1 9285   1.090   4.487   2.607 -3.0107  3.0683  2.2033
 3093TIP3    H2 9286   1.089   4.338   2.632  4.3614  1.6300 -2.8729
 3094TIP3   OH2 9287   3.533   3.117   0.336 -0.5528  0.1659 -0.2263
 3094TIP3    H1 9288   3.603   3.155   0.284 -0.0483  0.7353  0.8396
 3094TIP3    H2 9289   3.467   3.091   0.272 -0.0375  1.0101 -1.1246
 3095TIP3   OH2 9290   4.927   0.518   2.671 -0.0053  0.3437 -0.3973
 3095TIP3    H1 9291   4.977   0.536   2.751  0.1945  2.0131 -0.8806
 3095TIP3    H2 9292   4.860   0.455   2.700  0.1849  0.7483  1.0332
 3096TIP3   OH2 9293   0.618   2.729   4.330 -0.2284 -0.2112  0.1904
 3096TIP3    H1 9294   0.600   2.749   4.238  1.1503  2.2418  0.3834
 3096TIP3    H2 9295   0.707   2.694   4.330  0.1891  0.8365  0.6963
 3097TIP3   OH2 9296   3.394   3.715   2.205  0.1329 -0.4643 -0.3696
 3097TIP3    H1 9297   3.402   3.619   2.211  0.9572 -0.3150  2.2838
 3097TIP3    H2 9298   3.374   3.742   2.295  0.1684  1.8865 -1.0218
 3098TIP3   OH2 9299   2.019   2.474   3.432 -0.6503  0.2447  0.1881
 3098TIP3    H1 9300   1.968   2.399   3.462 -1.0459  0.9309  1.3027
 3098TIP3    H2 9301   1.991   2.487   3.341 -2.0602  0.2592  0.6006
 3099TIP3   OH2 9302   0.086   1.596   4.512 -0.0542 -0.1100  0.2195
 3099TIP3    H1 9303   0.147   1.552   4.453 -0.4557 -2.5182  1.4690
 3099TIP3    H2 9304   0.135   1.607   4.593 -0.1785  1.2809  0.1405
 3100TIP3   OH2 9305   1.169   0.917   1.066 -0.2593  0.2627  0.6629
 3100TIP3    H1 9306   1.122   0.998   1.050 -0.9997 -0.2867 -0.0472
 3100TIP3    H2 9307   1.230   0.909   0.992 -0.1783  0.1802  0.7372
 3101TIP3   OH2 9308   4.944   4.145   2.599 -0.7123  0.2327  0.0214
 3101TIP3    H1 9309   4.906   4.068   2.641 -0.0325  0.4740  1.0935
 3101TIP3    H2 9310   4.930   4.129   2.505 -0.7963 -1.0795  0.2285
 3102TIP3   OH2 9311   4.111   1.091   3.418 -0.2006  0.0335  0.0540
 3102TIP3    H1 9312   4.164   1.169   3.434  1.6786 -1.3259  0.8782
 3102TIP3    H2 9313   4.130   1.033   3.492 -1.9251 -1.0258 -0.2695
 3103TIP3   OH2 9314   3.986   0.657   3.494  0.4063  0.1369  0.1856
 3103TIP3    H1 9315   3.963   0.690   3.580  3.2584  1.6231  0.4991
 3103TIP3    H2 9316   4.072   0.695   3.476  0.5282 -1.2496 -2.7250
 3104TIP3   OH2 9317   1.556   2.562   1.922  0.6013 -0.2692 -0.1811
 3104TIP3    H1 9318   1.494   2.495   1.951 -0.2154  0.4281 -0.2849
 3104TIP3    H2 9319   1.541   2.636   1.981  3.1918 -0.9679  1.5538
 3105TIP3   OH2 9320   1.312   0.334   0.967  0.5871 -0.4334  0.1157
 3105TIP3    H1 9321   1.253   0.289   1.028  0.7602 -0.7802  0.0299
 3105TIP3    H2 9322   1.267   0.333   0.883  0.5332 -0.3235  0.1420
 3106TIP3   OH2 9323   4.740   5.092   1.826  0.5012  0.1568  0.1888
 3106TIP3    H1 9324   4.828   5.077   1.862  0.8297 -0.0490 -0.6623
 3106TIP3    H2 9325   4.703   5.004   1.817  0.2236  0.2419  0.5189
 3107TIP3   OH2 9326   0.332   5.840   4.344 -0.0790  0.3645  0.3083
 3107TIP3    H1 9327   0.396   5.884   4.399  0.0598  1.2253 -0.5027
 3107TIP3    H2 9328   0.252   5.892   4.355 -0.6946 -0.7788  1.4191
 3108TIP3   OH2 9329   5.942   0.296   4.906  0.1530 -0.2676  0.0161
 3108TIP3    H1 9330   5.951   0.233   4.835  0.5376  0.3083 -0.4599
 3108TIP3    H2 9331   5.864   0.346   4.884  0.2923 -0.0656 -0.0282
 3109TIP3   OH2 9332   3.426   0.445   4.941 -0.6009 -0.2459  0.2351
 3109TIP3    H1 9333   3.414   0.459   4.847  0.0051  0.0708  0.1985
 3109TIP3    H2 9334   3.338   0.455   4.978 -0.6597  0.8738 -0.1469
 3110TIP3   OH2 9335   4.556   4.606   0.998 -0.1406 -0.3672  0.8881
 3110TIP3    H1 9336   4.512   4.639   1.076 -0.8984  0.7750 -0.0003
 3110TIP3    H2 9337   4.619   4.674   0.976 -0.7736 -0.1204 -0.1853
 3111TIP3   OH2 9338   4.704   1.569   1.760 -0.4806 -0.0778 -0.6933
 3111TIP3    H1 9339   4.740   1.489   1.721  1.7074  0.2030  0.5797
 3111TIP3    H2 9340   4.657   1.539   1.838  0.4707 -0.1386 -0.1299
 3112TIP3   OH2 9341   0.627   5.485   3.627 -0.4722 -0.4276 -0.1121
 3112TIP3    H1 9342   0.674   5.474   3.709  0.3643 -0.0237 -0.5205
 3112TIP3    H2 9343   0.535   5.488   3.652 -0.2239 -0.1773  0.8244
 3113TIP3   OH2 9344   6.191   2.072   3.396  0.1767 -0.0083 -0.1674
 3113TIP3    H1 9345   6.287   2.077   3.393  0.3282 -2.2169 -0.9275
 3113TIP3    H2 9346   6.162   2.133   3.327  0.9498  1.3491  0.6536
 3114TIP3   OH2 9347   0.550   1.652   1.481  0.5515  0.1995 -0.7230
 3114TIP3    H1 9348   0.636   1.661   1.440  0.3278  0.3584 -1.1615
 3114TIP3    H2 9349   0.563   1.585   1.549  1.7097  2.1880  1.1338
 3115TIP3   OH2 9350   1.083   5.267   4.307 -0.2571  0.6631 -0.1651
 3115TIP3    H1 9351   1.155   5.303   4.359  0.1954  0.3258 -0.5518
 3115TIP3    H2 9352   1.014   5.334   4.312 -1.1857 -0.3732  2.8317
 3116TIP3   OH2 9353   3.311   0.541   1.312 -0.3376  0.8608  0.1177
 3116TIP3    H1 9354   3.339   0.628   1.285  3.6699  0.2916  1.8091
 3116TIP3    H2 9355   3.288   0.550   1.405  0.6895  0.0884  0.4760
 3117TIP3   OH2 9356   2.469   5.147   0.415  0.2958  0.2405 -0.6526
 3117TIP3    H1 9357   2.546   5.090   0.414 -0.4986 -0.9255  0.6494
 3117TIP3    H2 9358   2.477   5.201   0.336  3.2119  1.2155  0.1854
 3118TIP3   OH2 9359   1.776   1.447   2.654  0.1926 -0.6226 -0.0387
 3118TIP3    H1 9360   1.742   1.536   2.646 -0.9257 -1.0681 -0.4510
 3118TIP3    H2 9361   1.708   1.399   2.702  1.0606 -1.1148  0.7349
 3119TIP3   OH2 9362   0.157   4.359   0.748  0.1793  0.6854 -0.0260
 3119TIP3    H1 9363   0.107   4.348   0.829 -1.4886  1.0292 -0.9756
 3119TIP3    H2 9364   0.124   4.440   0.709  2.4910  1.7052 -0.0153
 3120TIP3   OH2 9365   1.981   1.506   4.064 -0.2969  0.5016  0.3493
 3120TIP3    H1 9366   2.057   1.509   4.006 -1.9143 -2.6111 -2.2527
 3120TIP3    H2 9367   1.913   1.556   4.018 -1.5190 -1.7716 -0.4917
 3121TIP3   OH2 9368   1.581   2.332   3.989 -0.1261  0.3282 -0.7766
 3121TIP3    H1 9369   1.499   2.358   4.031  0.1501  0.3487 -0.2351
 3121TIP3    H2 9370   1.620   2.269   4.050 -0.2070 -0.4439 -1.4981
 3122TIP3   OH2 9371   0.074   2.594   0.278  0.0535  0.2069 -0.5310
 3122TIP3    H1 9372   0.087   2.655   0.350  0.2794 -1.1822  0.6555
 3122TIP3    H2 9373   0.163   2.573   0.247 -0.0661  1.3795 -1.7612
 3123TIP3   OH2 9374   3.833   2.555   1.873 -0.2431  0.3497 -0.3371
 3123TIP3    H1 9375   3.832   2.585   1.964  1.1499  0.5678 -0.3749
 3123TIP3    H2 9376   3.752   2.591   1.835 -0.3493  1.0814  0.5469
 3124TIP3   OH2 9377   1.915   2.751   1.162 -0.4919  0.3122  0.3976
 3124TIP3    H1 9378   1.828   2.745   1.122 -0.8669  0.9795  1.0913
 3124TIP3    H2 9379   1.970   2.788   1.093 -0.5359 -0.9384 -0.3468
 3125TIP3   OH2 9380   5.398   4.856   4.294  0.3826 -0.4500 -0.4647
 3125TIP3    H1 9381   5.318   4.905   4.310 -0.3434 -1.7621  0.0756
 3125TIP3    H2 9382   5.388   4.821   4.205  0.3193 -0.6530 -0.3798
 3126TIP3   OH2 9383   4.408   5.852   1.131 -0.2094 -0.1480 -0.2251
 3126TIP3    H1 9384   4.335   5.888   1.080  0.0168  0.5749 -0.0377
 3126TIP3    H2 9385   4.406   5.758   1.112 -1.1673 -0.1299 -0.2573
 3127TIP3   OH2 9386   1.490   3.484   0.054 -0.0378  0.1099 -0.2539
 3127TIP3    H1 9387   1.536   3.433   0.121 -2.5795  0.0202  1.5661
 3127TIP3    H2 9388   1.493   3.574   0.086 -1.5238  0.0224  0.2176
 3128TIP3   OH2 9389   6.130   2.780   2.312 -0.0657 -0.2487  0.1580
 3128TIP3    H1 9390   6.045   2.736   2.312 -0.4423  0.3473  2.5513
 3128TIP3    H2 9391   6.154   2.786   2.404  0.5979  3.3428 -0.1143
 3129TIP3   OH2 9392   5.666   2.620   1.318  0.2098 -0.4494 -0.4346
 3129TIP3    H1 9393   5.680   2.568   1.397 -1.9404 -1.1753 -0.4712
 3129TIP3    H2 9394   5.640   2.706   1.350  0.3397 -0.4314 -0.3732
 3130TIP3   OH2 9395   5.023   5.980   1.154 -0.1104 -0.3152  0.2439
 3130TIP3    H1 9396   4.980   5.895   1.167  0.1837 -0.5670 -0.3906
 3130TIP3    H2 9397   5.060   5.975   1.066  0.0214  0.4260  0.2511
 3131TIP3   OH2 9398   3.135   1.636   2.948 -0.2514  0.1605  0.0202
 3131TIP3    H1 9399   3.069   1.578   2.987  1.1723 -0.1193  2.1483
 3131TIP3    H2 9400   3.111   1.723   2.980 -1.0491  0.4793 -1.3335
 3132TIP3   OH2 9401   4.611   3.176   1.846 -0.3391  0.0909  0.1297
 3132TIP3    H1 9402   4.614   3.099   1.904  0.1865  0.0212  0.0094
 3132TIP3    H2 9403   4.580   3.247   1.903 -1.2729 -0.3079  0.1301
 3133TIP3   OH2 9404   2.686   2.255   3.762  0.1271 -0.0583  0.4833
 3133TIP3    H1 9405   2.678   2.222   3.672 -0.4893  0.3963  0.3644
 3133TIP3    H2 9406   2.754   2.322   3.757 -1.9817  2.2234 -0.3515
 3134TIP3   OH2 9407   0.930   3.763   2.747  0.7204  0.0631  0.1630
 3134TIP3    H1 9408   1.005   3.782   2.690  0.2503 -2.7924 -1.6011
 3134TIP3    H2 9409   0.855   3.759   2.687 -0.1206 -1.2100  1.2545
 3135TIP3   OH2 9410   6.051   5.643   2.071 -0.0208 -0.0303 -0.1241
 3135TIP3    H1 9411   5.979   5.585   2.043 -0.3142  0.3319 -0.1252
 3135TIP3    H2 9412   6.007   5.714   2.117  0.1801  1.1528 -1.6887
 3136TIP3   OH2 9413   0.803   2.361   1.960 -0.0563  0.5225 -0.3584
 3136TIP3    H1 9414   0.857   2.426   2.005 -0.2930 -0.0098  0.7232
 3136TIP3    H2 9415   0.794   2.395   1.871  0.1409  1.7737  0.0809
 3137TIP3   OH2 9416   2.804   1.137   3.105  0.2754  0.1686  0.5362
 3137TIP3    H1 9417   2.718   1.149   3.144  0.7732 -0.1392  1.7988
 3137TIP3    H2 9418   2.864   1.130   3.180  1.2175 -0.9049 -0.2701
 3138TIP3   OH2 9419   4.178   3.370   0.887 -0.2041 -0.1156  0.3342
 3138TIP3    H1 9420   4.252   3.431   0.893  0.0014 -0.1805 -1.1908
 3138TIP3    H2 9421   4.102   3.427   0.872 -0.1399 -0.1759 -0.2307
 3139TIP3   OH2 9422   2.203   0.673   1.348 -0.6144  1.0162 -0.3630
 3139TIP3    H1 9423   2.269   0.709   1.288 -0.2232  1.4030  0.2858
 3139TIP3    H2 9424   2.243   0.682   1.435 -0.4247 -1.1994 -0.1851
 3140TIP3   OH2 9425   4.203   3.152   1.127 -0.0033  0.1461 -0.5128
 3140TIP3    H1 9426   4.177   3.221   1.066  0.1468  0.6327 -0.0376
 3140TIP3    H2 9427   4.298   3.160   1.134 -0.1474  1.0535  0.8763
 3141TIP3   OH2 9428   5.357   4.512   4.063  0.3181 -0.0684  0.3614
 3141TIP3    H1 9429   5.290   4.447   4.087 -1.2775  1.0483 -0.8131
 3141TIP3    H2 9430   5.393   4.481   3.980  0.0927  0.1467  0.1806
 3142TIP3   OH2 9431   5.957  -0.019   2.348 -0.4025 -0.0019 -0.4662
 3142TIP3    H1 9432   5.886   0.030   2.308 -0.2936  0.5020 -0.0512
 3142TIP3    H2 9433   5.952   0.004   2.441 -0.6970 -1.2029 -0.1681
 3143TIP3   OH2 9434   2.813   4.039   0.080 -0.1227  0.0044 -0.2436
 3143TIP3    H1 9435   2.745   3.992   0.128 -1.6882  0.5633 -1.8458
 3143TIP3    H2 9436   2.835   4.113   0.136  0.7600 -1.3199  1.2630
 3144TIP3   OH2 9437   3.122   3.856   2.713 -0.4754  0.7766  0.1563
 3144TIP3    H1 9438   3.040   3.877   2.757 -0.2493 -0.2228  1.1012
 3144TIP3    H2 9439   3.169   3.800   2.775  0.4915  0.5161 -0.7775
 3145TIP3   OH2 9440   5.247   0.609   2.195 -0.0978  0.1183 -0.3419
 3145TIP3    H1 9441   5.215   0.532   2.149  0.3619 -0.4170  0.2115
 3145TIP3    H2 9442   5.204   0.606   2.280 -0.6254  0.8698 -0.5699
 3146TIP3   OH2 9443   2.944   1.036   0.923  0.4459  0.0803 -0.5204
 3146TIP3    H1 9444   2.915   0.956   0.879 -3.6697  1.2647 -0.3762
 3146TIP3    H2 9445   2.913   1.107   0.866 -1.7024  1.5934  2.2578
 3147TIP3   OH2 9446   0.781   1.410   0.789 -0.6246 -0.6839  0.0400
 3147TIP3    H1 9447   0.741   1.364   0.716 -2.3403  2.2918 -1.0756
 3147TIP3    H2 9448   0.864   1.442   0.754  0.7686 -3.0335  0.9421
 3148TIP3   OH2 9449   2.045   5.638   4.851 -0.4188 -0.1992  0.0064
 3148TIP3    H1 9450   1.973   5.684   4.808 -0.0133 -1.8047 -2.5889
 3148TIP3    H2 9451   2.124   5.684   4.823 -0.2575  0.3590  1.2750
 3149TIP3   OH2 9452   0.626   0.104   0.340  0.0365 -0.1476  0.4858
 3149TIP3    H1 9453   0.634   0.098   0.435 -1.4003 -1.1038  0.5826
 3149TIP3    H2 9454   0.702   0.057   0.306  0.3384 -0.1562  1.1616
 3150TIP3   OH2 9455   5.525   5.724   3.029  0.6494 -0.0852 -0.2966
 3150TIP3    H1 9456   5.527   5.792   2.962  0.1356  1.0152  0.7536
 3150TIP3    H2 9457   5.616   5.709   3.051  0.7387  1.2839  0.4073
 3151TIP3   OH2 9458   0.291   1.956   0.790  0.4724  0.4311  0.7063
 3151TIP3    H1 9459   0.329   2.038   0.761  1.2938 -0.3449 -0.4924
 3151TIP3    H2 9460   0.335   1.936   0.873  2.7490 -0.4272 -0.6243
 3152TIP3   OH2 9461   1.490   3.153   1.773 -0.1492  0.4026  0.0674
 3152TIP3    H1 9462   1.508   3.245   1.753  0.0644  0.2369 -0.5215
 3152TIP3    H2 9463   1.559   3.104   1.728  0.3638  0.0071  1.2344
 3153TIP3   OH2 9464   6.200   5.675   3.821 -0.2203  0.0478 -0.5087
 3153TIP3    H1 9465   6.137   5.628   3.875  0.8293 -1.1487 -0.2835
 3153TIP3    H2 9466   6.167   5.765   3.818 -0.6946 -0.0199  1.5074
 3154TIP3   OH2 9467   1.563   5.793   2.050 -0.6967 -0.5409  0.3671
 3154TIP3    H1 9468   1.652   5.818   2.025 -0.1593 -0.4980  2.1833
 3154TIP3    H2 9469   1.548   5.709   2.006  1.4174 -2.0947  2.3514
 3155TIP3   OH2 9470   4.041   1.088   0.924  0.6995 -0.3004  1.1852
 3155TIP3    H1 9471   4.000   1.002   0.913  1.7941 -0.7331  0.4173
 3155TIP3    H2 9472   4.133   1.074   0.905  0.9579  0.9844  1.3919
 3156TIP3   OH2 9473   1.536   2.004   1.214 -0.1080 -0.3445  0.0636
 3156TIP3    H1 9474   1.589   1.933   1.176  0.5454  0.5474 -0.7440
 3156TIP3    H2 9475   1.587   2.034   1.289  0.2797  0.1384 -0.3813
 3157TIP3   OH2 9476   2.522   2.811   1.189 -0.0673  0.4176 -0.3958
 3157TIP3    H1 9477   2.528   2.892   1.140 -0.8346  0.3289 -0.6550
 3157TIP3    H2 9478   2.468   2.832   1.265 -1.3698 -0.1400 -1.1339
 3158TIP3   OH2 9479   0.047   3.354   4.437 -0.0957 -0.7323 -0.1699
 3158TIP3    H1 9480   0.087   3.270   4.416  1.7589  0.0599 -0.0862
 3158TIP3    H2 9481  -0.007   3.375   4.361  0.1045 -1.5967 -0.5601
 3159TIP3   OH2 9482   0.193   0.229   1.070  0.0265  0.1636 -0.6375
 3159TIP3    H1 9483   0.267   0.198   1.122 -1.7436 -1.3103  1.1470
 3159TIP3    H2 9484   0.168   0.312   1.111  1.0544  1.0362 -1.6889
 3160TIP3   OH2 9485   2.217   3.661   2.038  0.5941 -0.4319  0.4970
 3160TIP3    H1 9486   2.303   3.690   2.068  0.5456  0.1844  0.0749
 3160TIP3    H2 9487   2.169   3.639   2.118  0.2263  1.8369  0.9689
 3161TIP3   OH2 9488   1.000   3.069   3.010 -0.1045  0.6477  0.0059
 3161TIP3    H1 9489   0.920   3.121   3.021  0.4519  1.0681  2.5249
 3161TIP3    H2 9490   0.979   2.985   3.051  0.1961  0.1305 -0.8725
 3162TIP3   OH2 9491   5.263   0.205   0.451  0.1323 -1.0465 -0.2905
 3162TIP3    H1 9492   5.324   0.134   0.471  1.9384  0.7669  0.9991
 3162TIP3    H2 9493   5.237   0.189   0.360  1.8139 -2.4109 -0.5894
 3163TIP3   OH2 9494   2.245   1.380   2.124  0.2136  0.1315  0.5346
 3163TIP3    H1 9495   2.292   1.386   2.040  0.8317  0.1589  0.8706
 3163TIP3    H2 9496   2.290   1.309   2.171 -0.3977 -0.1669  0.6793
 3164TIP3   OH2 9497   2.228   0.051   4.379 -0.5957  0.4643 -0.2531
 3164TIP3    H1 9498   2.264   0.133   4.411 -0.0119 -0.1152  0.5934
 3164TIP3    H2 9499   2.207   0.000   4.458  0.1802 -0.6902 -0.7622
 3165TIP3   OH2 9500   0.084   4.966   1.973  0.1445  0.0402 -0.2949
 3165TIP3    H1 9501   0.157   5.026   1.986  0.0430  0.0624  0.1899
 3165TIP3    H2 9502   0.125   4.881   1.954  0.3256  0.7285 -3.5249
 3166TIP3   OH2 9503   6.329   1.392   4.077  0.8275 -0.4711  0.2896
 3166TIP3    H1 9504   6.371   1.315   4.039  0.4514  0.2939 -1.8182
 3166TIP3    H2 9505   6.235   1.375   4.071  0.7596 -0.2537  0.7018
 3167TIP3   OH2 9506   2.062   1.132   2.920 -0.3532 -0.4648 -0.2722
 3167TIP3    H1 9507   2.042   1.178   2.839  1.1650 -0.4437 -0.6619
 3167TIP3    H2 9508   2.034   1.042   2.904  1.1436 -0.7711 -1.3373
 3168TIP3   OH2 9509   2.673   2.260   3.040  0.4204 -0.1756  0.1142
 3168TIP3    H1 9510   2.632   2.325   2.983  2.2475  1.9694  1.1270
 3168TIP3    H2 9511   2.755   2.238   2.996  0.7376 -0.2858  0.7451
 3169TIP3   OH2 9512   2.798   3.878   4.627 -0.7409  0.1058 -0.4492
 3169TIP3    H1 9513   2.839   3.964   4.614 -0.4094 -0.1116 -0.8648
 3169TIP3    H2 9514   2.705   3.897   4.635 -0.6668  0.5090 -0.5175
 3170TIP3   OH2 9515   0.607   4.543   0.270  0.0907  0.7926  0.8004
 3170TIP3    H1 9516   0.672   4.474   0.256 -0.2098  0.5723  0.4641
 3170TIP3    H2 9517   0.646   4.601   0.336  0.2325  0.1602  1.2726
 3171TIP3   OH2 9518   4.075   1.531   0.012  0.3341  0.2784  0.0031
 3171TIP3    H1 9519   4.125   1.500   0.087  1.1231  0.9522 -0.2197
 3171TIP3    H2 9520   3.984   1.526   0.040  0.5047 -1.0634  0.3878
 3172TIP3   OH2 9521   1.366   4.784   4.459 -0.5803 -0.8724  0.2330
 3172TIP3    H1 9522   1.361   4.822   4.546  2.4023 -0.8780  0.5233
 3172TIP3    H2 9523   1.322   4.699   4.467 -0.8519 -0.6242  1.5517
 3173TIP3   OH2 9524   5.924   0.365   0.802 -0.5941  0.4724  0.1269
 3173TIP3    H1 9525   5.882   0.364   0.888 -0.0808  2.1455  0.4351
 3173TIP3    H2 9526   5.851   0.354   0.740 -1.0889  0.1977  0.7409
 3174TIP3   OH2 9527   5.549   4.370   3.255 -0.3925  0.3416  0.3384
 3174TIP3    H1 9528   5.502   4.397   3.334 -1.1809  0.5088 -0.1739
 3174TIP3    H2 9529   5.616   4.309   3.286 -2.3735 -1.6872  0.8847
 3175TIP3   OH2 9530   0.730   1.997   4.184 -0.5640  0.7624 -0.3100
 3175TIP3    H1 9531   0.742   2.075   4.130 -0.9339  0.1903 -1.2381
 3175TIP3    H2 9532   0.704   1.929   4.123 -3.0461  0.5729  0.8245
 3176TIP3   OH2 9533   5.546   0.243   0.918 -0.1253 -0.0106  0.0962
 3176TIP3    H1 9534   5.458   0.281   0.923 -0.6383 -1.1208 -0.1171
 3176TIP3    H2 9535   5.573   0.232   1.009  0.3326  1.4887  0.1657
 3177TIP3   OH2 9536   2.422   2.891   1.752  0.2052  0.1311  0.0553
 3177TIP3    H1 9537   2.431   2.984   1.771  1.5401 -0.4198  2.6257
 3177TIP3    H2 9538   2.336   2.867   1.788  0.5676  0.0948  0.9388
 3178TIP3   OH2 9539   5.358   3.294   2.127  0.0303 -0.5515 -0.2736
 3178TIP3    H1 9540   5.277   3.251   2.156  0.6836 -1.1786  0.6891
 3178TIP3    H2 9541   5.389   3.341   2.204  2.2314 -2.9148  0.4359
 3179TIP3   OH2 9542   5.372   1.789   2.896 -0.0504 -0.1920 -0.0926
 3179TIP3    H1 9543   5.445   1.831   2.942  0.1694  0.1502 -0.7398
 3179TIP3    H2 9544   5.414   1.735   2.830 -0.3852  0.0063 -0.4701
 3180TIP3   OH2 9545   3.952   5.756   0.312 -0.4680  0.1097  0.2060
 3180TIP3    H1 9546   4.019   5.764   0.245 -0.6726 -2.0505 -0.3391
 3180TIP3    H2 9547   3.980   5.682   0.365 -1.5968  0.2038  0.9630
 3181TIP3   OH2 9548   2.752   5.268   3.379  0.0503 -0.2775  0.1471
 3181TIP3    H1 9549   2.827   5.213   3.400  1.8607  1.8749 -0.2960
 3181TIP3    H2 9550   2.711   5.227   3.303  1.6957 -0.7247 -0.5334
 3182TIP3   OH2 9551   1.010   3.803   4.750  0.3092 -0.3120  0.0991
 3182TIP3    H1 9552   0.925   3.847   4.741  0.5137 -0.0063 -0.3484
 3182TIP3    H2 9553   0.993   3.732   4.812 -0.2193 -0.1092  0.1943
 3183TIP3   OH2 9554   5.511   1.774   1.226 -0.2906  0.3798  0.3015
 3183TIP3    H1 9555   5.544   1.863   1.223 -1.4607  0.8206 -0.3282
 3183TIP3    H2 9556   5.586   1.719   1.203  0.2961  1.2407  0.1302
 3184TIP3   OH2 9557   2.414   3.155   4.413  0.2836  0.4400 -0.6563
 3184TIP3    H1 9558   2.353   3.200   4.471  0.3436  0.1880 -0.3955
 3184TIP3    H2 9559   2.391   3.062   4.421  0.2872  0.4025 -1.0413
 3185TIP3   OH2 9560   3.307   4.671   4.738  0.0436  0.1722 -0.3414
 3185TIP3    H1 9561   3.383   4.729   4.747 -0.4765  1.1661 -1.9052
 3185TIP3    H2 9562   3.235   4.729   4.714 -1.3330 -0.7068  1.4376
 3186TIP3   OH2 9563   2.555   2.482   2.485 -0.1325 -0.0218  0.3140
 3186TIP3    H1 9564   2.485   2.430   2.525 -1.1247  0.1452 -1.1477
 3186TIP3    H2 9565   2.635   2.451   2.528 -0.8649 -1.7573  0.5005
 3187TIP3   OH2 9566   0.922   2.261   2.276 -0.0391 -0.0329 -0.0997
 3187TIP3    H1 9567   1.004   2.261   2.325  0.9769 -0.0263 -1.7525
 3187TIP3    H2 9568   0.922   2.344   2.228  0.6773 -1.4814 -2.7643
 3188TIP3   OH2 9569   2.595   4.579   1.007  0.2736  0.5963  0.3173
 3188TIP3    H1 9570   2.507   4.541   1.014 -0.2472  1.2409 -1.9133
 3188TIP3    H2 9571   2.598   4.646   1.076 -0.1124 -0.9543  1.9071
 3189TIP3   OH2 9572   0.094   1.364   5.009  0.0557 -0.4966 -0.2743
 3189TIP3    H1 9573   0.046   1.281   5.011  0.6429 -0.8823 -1.5742
 3189TIP3    H2 9574   0.131   1.369   4.922  0.2497  1.0286 -0.1415
 3190TIP3   OH2 9575   4.172   0.615   0.419  0.2203 -0.6643  0.2633
 3190TIP3    H1 9576   4.106   0.669   0.375 -0.3387 -0.4699  1.3156
 3190TIP3    H2 9577   4.207   0.670   0.488  3.2523  0.1145 -1.7012
 3191TIP3   OH2 9578   1.329   2.232   1.555 -0.7279 -0.2666 -0.7121
 3191TIP3    H1 9579   1.424   2.246   1.557 -0.5925 -0.1453  4.0325
 3191TIP3    H2 9580   1.319   2.137   1.547 -0.1117 -0.4065  0.0811
 3192TIP3   OH2 9581   5.906   3.312   4.205 -0.0854  0.4672 -0.2405
 3192TIP3    H1 9582   5.828   3.260   4.221 -0.1321  0.7617  0.5257
 3192TIP3    H2 9583   5.927   3.297   4.112 -0.5162 -0.3280 -0.2146
 3193TIP3   OH2 9584   3.029   1.267   4.248 -0.0470 -0.1160 -0.4178
 3193TIP3    H1 9585   3.098   1.209   4.216  0.1999  0.4075 -0.8595
 3193TIP3    H2 9586   3.008   1.234   4.336 -0.5613 -1.4261 -1.0032
 3194TIP3   OH2 9587   2.010   3.909   1.211  0.3026  0.7553  0.8076
 3194TIP3    H1 9588   2.085   3.969   1.212  1.0355 -0.1241  1.7541
 3194TIP3    H2 9589   1.936   3.962   1.239  0.9748  1.2050  1.8007
 3195TIP3   OH2 9590   4.127   0.656   2.458  0.1033 -0.2804  0.0827
 3195TIP3    H1 9591   4.050   0.611   2.492 -0.3273 -0.6273 -1.2777
 3195TIP3    H2 9592   4.174   0.588   2.409  1.2749 -0.0687  0.8760
 3196TIP3   OH2 9593   6.284   5.078   0.229 -0.2417  0.6380 -0.2123
 3196TIP3    H1 9594   6.362   5.027   0.253 -0.5550  0.4368  0.3871
 3196TIP3    H2 9595   6.216   5.046   0.288 -0.6135  1.2703 -0.3010
 3197TIP3   OH2 9596   3.152   1.144   2.713 -1.0578 -0.5729 -0.6453
 3197TIP3    H1 9597   3.117   1.177   2.796 -1.0334 -1.0772 -0.4315
 3197TIP3    H2 9598   3.179   1.054   2.733 -0.1652 -0.3726 -0.9552
 3198TIP3   OH2 9599   0.225   0.266   1.920 -0.5345 -0.0156  0.0517
 3198TIP3    H1 9600   0.139   0.249   1.960 -0.3842  0.7939  0.7329
 3198TIP3    H2 9601   0.273   0.316   1.986  2.0029 -3.8663  1.4502
 3199TIP3   OH2 9602   3.581   4.312   3.609 -0.1037  0.2499  0.7118
 3199TIP3    H1 9603   3.541   4.276   3.688 -0.1695 -1.1536  0.0568
 3199TIP3    H2 9604   3.653   4.366   3.642  0.5183 -1.1217  1.7185
 3200TIP3   OH2 9605   0.833   4.947   4.512 -0.1813 -0.0784 -0.1710
 3200TIP3    H1 9606   0.796   5.012   4.572 -0.2489 -1.7699  1.7161
 3200TIP3    H2 9607   0.778   4.870   4.523  2.1671 -1.7667  0.6377
 3201TIP3   OH2 9608   1.807   5.404   2.865 -0.0260  0.0725 -0.2585
 3201TIP3    H1 9609   1.860   5.463   2.919  0.4066  1.0110 -1.6608
 3201TIP3    H2 9610   1.719   5.441   2.868 -0.1950 -0.3712  0.4840
 3202TIP3   OH2 9611   0.707   3.441   1.532 -0.2730 -0.5198  0.0688
 3202TIP3    H1 9612   0.753   3.478   1.456 -1.2211  1.8889  0.5825
 3202TIP3    H2 9613   0.762   3.368   1.560  1.2951 -0.0311 -1.5369
 3203TIP3   OH2 9614   2.668   4.002   5.101 -0.0779  0.0629 -0.1379
 3203TIP3    H1 9615   2.721   3.994   5.181 -1.3368  0.4149  0.7695
 3203TIP3    H2 9616   2.602   4.067   5.123 -1.8743 -1.5005 -0.6516
 3204TIP3   OH2 9617   5.092   2.339   2.109 -0.1526  0.0386 -0.2020
 3204TIP3    H1 9618   5.026   2.279   2.143 -0.5963 -0.0882 -1.2530
 3204TIP3    H2 9619   5.171   2.319   2.160 -0.2912 -1.4458 -0.5192
 3205TIP3   OH2 9620   5.763   1.261   4.589 -0.2487  0.2273 -0.0866
 3205TIP3    H1 9621   5.751   1.356   4.579 -1.9459  0.2076  1.3447
 3205TIP3    H2 9622   5.700   1.222   4.529 -0.6627  0.0274  0.4704
 3206TIP3   OH2 9623   5.489   4.946   2.423  0.1613 -0.0763 -0.3133
 3206TIP3    H1 9624   5.414   4.907   2.467  0.5647  0.4527  0.8942
 3206TIP3    H2 9625   5.527   5.005   2.488 -0.9661  3.0885 -2.3448
 3207TIP3   OH2 9626   1.509   0.361   4.139  0.1056  0.4133 -0.6209
 3207TIP3    H1 9627   1.473   0.278   4.171  2.0540 -0.1167  0.3483
 3207TIP3    H2 9628   1.433   0.410   4.108 -1.3707 -0.8559  0.8146
 3208TIP3   OH2 9629   2.837   0.825   3.718  0.0804 -0.4328  0.4410
 3208TIP3    H1 9630   2.772   0.820   3.648  1.1618 -0.1563 -0.6147
 3208TIP3    H2 9631   2.810   0.900   3.770  0.2056  0.4286 -0.6911
 3209TIP3   OH2 9632   6.166   2.775   1.989  0.4506 -0.3657 -0.0179
 3209TIP3    H1 9633   6.235   2.840   1.979  0.0273 -0.2175 -2.8550
 3209TIP3    H2 9634   6.117   2.804   2.066  1.7829  1.1970  0.3055
 3210TIP3   OH2 9635   1.190   0.145   4.782  0.9352 -0.3471  0.3311
 3210TIP3    H1 9636   1.248   0.150   4.857  1.3246  0.6705 -0.0288
 3210TIP3    H2 9637   1.231   0.081   4.724  0.0854 -1.9460  1.4217
 3211TIP3   OH2 9638   1.443   1.879   0.483  0.0361 -0.0760 -0.1581
 3211TIP3    H1 9639   1.466   1.934   0.558 -1.3798 -0.2027  0.4032
 3211TIP3    H2 9640   1.508   1.809   0.484 -0.4634 -0.5757  1.5131
 3212TIP3   OH2 9641   3.020   4.160   1.447  0.0450  0.4953  0.0088
 3212TIP3    H1 9642   3.004   4.224   1.378  0.1399 -0.1690 -0.6389
 3212TIP3    H2 9643   3.052   4.082   1.401 -0.3737 -0.1299  0.7473
 3213TIP3   OH2 9644   2.029   4.992   2.564  0.1938 -0.0133 -0.0229
 3213TIP3    H1 9645   2.124   4.989   2.560  0.1625 -3.2714 -1.1310
 3213TIP3    H2 9646   2.009   5.073   2.611  3.4267  1.3627 -0.7800
 3214TIP3   OH2 9647   5.771   1.628   1.104 -0.3023  0.1469 -0.0128
 3214TIP3    H1 9648   5.850   1.664   1.144  0.5931 -1.4649 -0.2484
 3214TIP3    H2 9649   5.791   1.626   1.011 -0.5023 -0.5253 -0.0446
 3215TIP3   OH2 9650   4.950   5.180   3.295 -0.3636 -0.4874  0.2010
 3215TIP3    H1 9651   4.914   5.268   3.296  1.6971  0.4219 -0.0948
 3215TIP3    H2 9652   4.970   5.161   3.387 -2.1635 -1.2918  0.4659
 3216TIP3   OH2 9653   0.985   3.392   0.497 -0.3617  0.1592 -0.3183
 3216TIP3    H1 9654   1.044   3.413   0.424 -0.1837  1.6083  0.2083
 3216TIP3    H2 9655   0.917   3.458   0.493  0.4616  1.2150  1.6967
 3217TIP3   OH2 9656   0.240   1.440   3.505 -0.3483 -0.2622  0.2354
 3217TIP3    H1 9657   0.231   1.535   3.508  1.4743 -0.0297 -0.7021
 3217TIP3    H2 9658   0.199   1.410   3.587 -1.9674  1.1998  0.0161
 3218TIP3   OH2 9659   0.292   5.256   0.450  0.5645  0.4637 -0.5066
 3218TIP3    H1 9660   0.282   5.345   0.486 -0.9255  0.1782 -0.1372
 3218TIP3    H2 9661   0.233   5.254   0.375 -1.5216 -0.9935  1.0625
 3219TIP3   OH2 9662   0.722   5.421   3.055  0.0405  0.4650 -0.0601
 3219TIP3    H1 9663   0.731   5.506   3.012  1.3005  0.7500  0.7229
 3219TIP3    H2 9664   0.808   5.405   3.095 -0.6092 -0.5079  1.0107
 3220TIP3   OH2 9665   0.439   3.443   5.124  0.2812 -0.6016  0.1611
 3220TIP3    H1 9666   0.353   3.466   5.088 -0.7981  0.1276  2.9381
 3220TIP3    H2 9667   0.430   3.353   5.154  0.5359 -0.5913  0.2748
 3221TIP3   OH2 9668   0.050   5.061   1.323  0.4078 -0.5653  0.3282
 3221TIP3    H1 9669  -0.027   5.080   1.376 -0.6256  0.9204 -1.6031
 3221TIP3    H2 9670   0.016   5.041   1.236  2.1337 -1.4946 -0.1934
 3222TIP3   OH2 9671   3.407   5.228   3.046 -0.1813 -0.3994  0.0723
 3222TIP3    H1 9672   3.342   5.293   3.019  0.5950  0.7368  0.8590
 3222TIP3    H2 9673   3.373   5.145   3.011 -1.5875  0.2899 -0.2939
 3223TIP3   OH2 9674   3.197   5.333   2.851 -0.1413  0.4564 -0.1704
 3223TIP3    H1 9675   3.202   5.258   2.792 -2.1860 -0.0541  0.2299
 3223TIP3    H2 9676   3.113   5.374   2.831  0.0874  1.5386  0.9226
 3224TIP3   OH2 9677   2.707   3.771   2.054  0.9713  0.2700  0.1577
 3224TIP3    H1 9678   2.777   3.776   2.118  0.0975 -0.9596  1.2485
 3224TIP3    H2 9679   2.750   3.742   1.973  1.7457 -0.3527  0.7764
 3225TIP3   OH2 9680   2.577   3.480   2.351 -0.0492  0.0809  0.5186
 3225TIP3    H1 9681   2.609   3.450   2.267 -0.1891  0.3717  0.3592
 3225TIP3    H2 9682   2.641   3.449   2.414  0.4883  0.5569  0.2164
 3226TIP3   OH2 9683   1.485   0.051   4.160 -0.4950  0.1160 -0.4646
 3226TIP3    H1 9684   1.391   0.046   4.143 -0.5681  2.2078 -0.8715
 3226TIP3    H2 9685   1.492   0.058   4.255 -0.7401 -0.1335 -0.4265
 3227TIP3   OH2 9686   3.760   2.581   2.698  0.2842  0.1977  0.5223
 3227TIP3    H1 9687   3.686   2.609   2.644  0.8468 -0.4932 -0.6568
 3227TIP3    H2 9688   3.726   2.505   2.746  0.5957 -1.0173 -1.0912
 3228TIP3   OH2 9689   4.514   5.898   2.806 -0.0337 -0.6502  0.1263
 3228TIP3    H1 9690   4.467   5.826   2.764  0.2448 -0.1042 -1.1525
 3228TIP3    H2 9691   4.450   5.938   2.865 -0.1876 -1.9483  0.8716
 3229TIP3   OH2 9692   2.691   3.227   3.988  0.3393 -0.9368  0.2035
 3229TIP3    H1 9693   2.783   3.201   3.984  0.3119 -1.2339  1.2682
 3229TIP3    H2 9694   2.642   3.145   3.983  0.1098 -0.7644 -0.6086
 3230TIP3   OH2 9695   0.132   5.460   3.891 -0.2275 -0.2517  0.2212
 3230TIP3    H1 9696   0.140   5.480   3.985 -3.0060 -0.7643  0.6658
 3230TIP3    H2 9697   0.148   5.544   3.848  2.0427 -0.2059  1.0315
 3231TIP3   OH2 9698   0.507   2.049   2.532 -0.3364  0.3307  0.2247
 3231TIP3    H1 9699   0.570   1.988   2.493  0.4089  1.3758 -0.2655
 3231TIP3    H2 9700   0.553   2.086   2.608 -0.1026  1.5285 -0.4700
 3232TIP3   OH2 9701   4.052   0.227   1.292 -0.2298  0.1699  0.1136
 3232TIP3    H1 9702   4.110   0.278   1.349 -1.1723 -0.8441  2.0648
 3232TIP3    H2 9703   3.979   0.202   1.348 -1.8575  0.1831 -1.9008
 3233TIP3   OH2 9704   5.830   5.216   1.963  0.1848 -0.1361  0.2320
 3233TIP3    H1 9705   5.818   5.157   2.038 -1.8192 -1.4135 -1.0007
 3233TIP3    H2 9706   5.917   5.195   1.930 -0.0088 -1.5685  0.5631
 3234TIP3   OH2 9707   3.623   1.757   1.923  0.1037 -0.0864  1.0868
 3234TIP3    H1 9708   3.564   1.685   1.905 -0.5775  0.4858  0.9848
 3234TIP3    H2 9709   3.579   1.834   1.888  0.3789  0.5199  2.0169
 3235TIP3   OH2 9710   3.698   3.751   1.869 -0.0021 -0.5869  0.4630
 3235TIP3    H1 9711   3.620   3.794   1.835  1.1607  1.3586  0.1253
 3235TIP3    H2 9712   3.769   3.813   1.852  1.4954 -1.9537  1.4745
 3236TIP3   OH2 9713   2.706   4.005   1.441  0.0836  0.7867  0.2128
 3236TIP3    H1 9714   2.673   4.091   1.466 -0.3952  0.6656 -0.0054
 3236TIP3    H2 9715   2.750   4.019   1.358  0.1429  0.8499  0.2547
 3237TIP3   OH2 9716   5.297   0.946   1.894  0.0663 -0.1620 -0.2277
 3237TIP3    H1 9717   5.291   0.934   1.989 -0.2915 -1.2873 -0.3691
 3237TIP3    H2 9718   5.229   0.888   1.859  0.9740 -0.6657 -1.2195
 3238TIP3   OH2 9719   6.231   1.888   2.466  0.4315 -0.0379  0.9141
 3238TIP3    H1 9720   6.311   1.890   2.414  0.5242 -1.4305  0.9539
 3238TIP3    H2 9721   6.217   1.795   2.485 -1.5436  0.0892  0.3608
 3239TIP3   OH2 9722   3.760   3.408   4.185 -0.3171  0.4925  0.1899
 3239TIP3    H1 9723   3.850   3.440   4.191  0.2949 -0.2538 -3.1374
 3239TIP3    H2 9724   3.710   3.483   4.153  0.0088 -0.1786 -2.0353
 3240TIP3   OH2 9725   3.142   3.020   3.827  0.4377  0.3018  0.2846
 3240TIP3    H1 9726   3.115   3.032   3.918  0.7733  2.6142  0.1596
 3240TIP3    H2 9727   3.132   2.927   3.810 -1.3157  0.0834  2.1508
 3241TIP3   OH2 9728   2.349   0.167   4.104 -0.1658 -0.1939  0.4156
 3241TIP3    H1 9729   2.278   0.102   4.100 -0.3476 -0.0388  0.9909
 3241TIP3    H2 9730   2.344   0.201   4.193 -0.3915  0.9745 -0.0297
 3242TIP3   OH2 9731   0.872   4.610   2.660  0.0404  0.0371  0.3391
 3242TIP3    H1 9732   0.930   4.534   2.663 -0.8032 -0.6584 -0.2871
 3242TIP3    H2 9733   0.791   4.576   2.622  0.5571  1.8369 -2.7566
 3243TIP3   OH2 9734   5.081   1.223   3.375 -0.1066  0.4392 -0.8608
 3243TIP3    H1 9735   5.029   1.174   3.439  0.6211  0.2025 -0.4264
 3243TIP3    H2 9736   5.029   1.221   3.295 -1.8437  2.2314  0.1577
 3244TIP3   OH2 9737   3.132   3.737   0.071 -0.0905 -0.2706  0.0977
 3244TIP3    H1 9738   3.134   3.690   0.154 -0.1941  0.4223  0.4993
 3244TIP3    H2 9739   3.224   3.747   0.047 -0.0587 -0.4456  0.1437
 3245TIP3   OH2 9740   5.221   0.499  -0.018  0.1482 -0.5737 -0.1857
 3245TIP3    H1 9741   5.282   0.461   0.046  0.0871 -1.1316 -0.4546
 3245TIP3    H2 9742   5.143   0.520   0.032 -0.2204 -1.7929 -0.2228
 3246TIP3   OH2 9743   4.023   4.527   3.803 -0.4981  0.5080 -0.4230
 3246TIP3    H1 9744   3.968   4.602   3.824  0.4951  1.0519  0.3067
 3246TIP3    H2 9745   4.112   4.560   3.809  0.0382 -1.0714  1.4114
 3247TIP3   OH2 9746   5.955   4.035   2.951 -0.0097 -0.4673  0.6443
 3247TIP3    H1 9747   6.018   4.096   2.988 -0.6532  0.6872 -0.1146
 3247TIP3    H2 9748   5.998   3.950   2.956  1.4046  0.2230  0.6075
 3248TIP3   OH2 9749   5.961   2.066   0.867  0.5449 -0.6048 -0.2607
 3248TIP3    H1 9750   5.886   2.055   0.808 -0.1182  0.1054  0.4296
 3248TIP3    H2 9751   5.948   2.151   0.908  1.9681 -0.2788 -0.4329
 3249TIP3   OH2 9752   3.819   2.144   3.165 -0.4944  0.3765 -0.0965
 3249TIP3    H1 9753   3.880   2.070   3.161 -1.9115 -0.8471 -0.1306
 3249TIP3    H2 9754   3.802   2.156   3.258  0.5829  1.4063 -0.0226
 3250TIP3   OH2 9755   3.961   0.804   2.679  0.2770  0.1149  0.3304
 3250TIP3    H1 9756   3.873   0.829   2.650  0.5263  1.2776  0.5343
 3250TIP3    H2 9757   3.960   0.708   2.677 -0.9501  0.1103  0.2035
 3251TIP3   OH2 9758   1.942   4.538   3.404  0.0204 -0.6928 -0.5787
 3251TIP3    H1 9759   1.883   4.586   3.462 -0.3684 -0.0433 -1.4986
 3251TIP3    H2 9760   1.885   4.479   3.354  0.0037  0.5213 -2.0601
 3252TIP3   OH2 9761   2.147   4.503   4.579 -0.0130 -0.4851  0.5023
 3252TIP3    H1 9762   2.219   4.546   4.626  0.0089 -0.1495  0.1609
 3252TIP3    H2 9763   2.113   4.570   4.520 -1.0557 -0.4121  1.1401
 3253TIP3   OH2 9764   2.461   1.883   1.099  0.5838  0.5553  0.8153
 3253TIP3    H1 9765   2.452   1.795   1.137 -1.4310  0.0111 -0.7029
 3253TIP3    H2 9766   2.397   1.936   1.147 -3.0498 -0.4672 -2.3514
 3254TIP3   OH2 9767   2.592   0.971   2.587 -0.0028  0.1937 -0.1773
 3254TIP3    H1 9768   2.514   1.017   2.616  0.3633  1.1045 -0.6011
 3254TIP3    H2 9769   2.662   1.003   2.644 -0.2250 -2.0483  1.5261
 3255TIP3   OH2 9770   4.098   3.220   1.718  0.8538 -0.0343  0.0193
 3255TIP3    H1 9771   4.178   3.194   1.763  1.6647  0.9227 -0.8214
 3255TIP3    H2 9772   4.105   3.179   1.632  0.6378  0.3816 -0.1985
 3256TIP3   OH2 9773   2.851   2.711   1.946 -0.6227  0.5115  0.0151
 3256TIP3    H1 9774   2.866   2.762   2.026  1.0406  0.4680 -0.2347
 3256TIP3    H2 9775   2.756   2.715   1.933 -0.9774  0.2006  2.1766
 3257TIP3   OH2 9776   1.769   2.831   3.007  0.4680 -0.5713  0.7260
 3257TIP3    H1 9777   1.751   2.827   3.101  0.0860 -2.3031  0.6093
 3257TIP3    H2 9778   1.805   2.918   2.994  1.3025 -0.5748  2.6143
 3258TIP3   OH2 9779   3.325   0.914   4.006  0.2369 -0.6133  0.2394
 3258TIP3    H1 9780   3.406   0.951   4.041 -0.0908 -0.6643  1.0676
 3258TIP3    H2 9781   3.345   0.821   3.993  0.4211 -0.5555  0.1074
 3259TIP3   OH2 9782   3.331   5.383   1.970  0.1154 -0.4268 -0.0069
 3259TIP3    H1 9783   3.345   5.295   2.005  0.7298  0.0909  1.0784
 3259TIP3    H2 9784   3.371   5.442   2.034 -0.7238  0.6827 -0.4619
 3260TIP3   OH2 9785   3.086   4.130   5.133 -0.3598  0.1232 -0.1375
 3260TIP3    H1 9786   3.021   4.065   5.109 -0.5764 -0.2901  1.4776
 3260TIP3    H2 9787   3.169   4.094   5.101 -0.8157  0.3389 -1.6091
 3261TIP3   OH2 9788   1.689   5.702   0.450 -0.4081 -0.4336  0.6584
 3261TIP3    H1 9789   1.622   5.722   0.384  1.5452 -0.3201 -1.4211
 3261TIP3    H2 9790   1.699   5.783   0.499 -0.5374  0.1145 -0.1979
 3262TIP3   OH2 9791   0.918   5.201   4.871  0.4496 -0.5298  0.0066
 3262TIP3    H1 9792   0.936   5.258   4.797  0.5891 -0.0525  0.4092
 3262TIP3    H2 9793   0.994   5.142   4.876 -0.4546 -1.9059 -1.4664
 3263TIP3   OH2 9794   3.976   5.183   0.691 -0.3526  0.1431  0.3319
 3263TIP3    H1 9795   3.974   5.279   0.701 -0.9124 -0.0041  1.8734
 3263TIP3    H2 9796   4.044   5.155   0.753 -0.8065 -0.5272  0.5242
 3264TIP3   OH2 9797   0.930   4.758   3.288  0.0129 -0.4048 -0.1517
 3264TIP3    H1 9798   0.907   4.791   3.201 -0.3461 -1.3689 -0.4407
 3264TIP3    H2 9799   1.023   4.778   3.299  0.6463 -2.1926 -1.6856
 3265TIP3   OH2 9800   2.544   5.956   2.813  0.1483 -0.2102 -0.3197
 3265TIP3    H1 9801   2.579   6.020   2.875 -0.8586 -0.2155  0.2729
 3265TIP3    H2 9802   2.605   5.959   2.739  1.1545  0.0761  0.4951
 3266TIP3   OH2 9803   1.998   2.834   2.504  0.3520 -0.3712 -0.4769
 3266TIP3    H1 9804   1.909   2.800   2.494 -0.0839  0.9724 -1.5294
 3266TIP3    H2 9805   2.052   2.757   2.521 -1.1187 -1.1282  1.0713
 3267TIP3   OH2 9806   1.351   2.407   4.102  0.0358 -0.3550  0.3680
 3267TIP3    H1 9807   1.312   2.487   4.067 -0.6045 -0.4448  0.8599
 3267TIP3    H2 9808   1.352   2.421   4.197  3.1064  0.5307  0.3049
 3268TIP3   OH2 9809   0.606   3.759   1.576  0.0578  0.8024 -0.3728
 3268TIP3    H1 9810   0.674   3.698   1.602 -0.5224  0.2018 -0.2375
 3268TIP3    H2 9811   0.622   3.775   1.483 -0.3130 -0.2582 -0.6300
 3269TIP3   OH2 9812   1.030   4.512   3.108 -0.3464  0.5382 -0.0435
 3269TIP3    H1 9813   0.988   4.594   3.083 -0.2936  0.1023 -1.6695
 3269TIP3    H2 9814   0.972   4.475   3.174 -1.3810  0.9825 -0.6786
 3270TIP3   OH2 9815   1.276   5.152   1.088 -0.2751  0.0326  1.0049
 3270TIP3    H1 9816   1.351   5.151   1.030 -0.2302  1.7049  0.9891
 3270TIP3    H2 9817   1.313   5.172   1.174 -0.5382 -0.6832  1.2918
 3271TIP3   OH2 9818   6.091   1.832   4.250  0.3254 -0.5965 -0.5414
 3271TIP3    H1 9819   6.153   1.828   4.177  0.2377  0.6719 -0.7069
 3271TIP3    H2 9820   6.083   1.742   4.279  2.0891 -0.8220 -0.6533
 3272TIP3   OH2 9821   5.090   5.530   0.131  0.2230 -0.3919 -0.3608
 3272TIP3    H1 9822   5.074   5.588   0.206 -1.3428 -1.5751  0.2938
 3272TIP3    H2 9823   5.185   5.520   0.128  0.2987 -1.2571  2.2652
 3273TIP3   OH2 9824   5.110   1.607   4.332 -0.0685  0.4255  0.3746
 3273TIP3    H1 9825   5.096   1.647   4.246 -1.5659 -1.5388 -0.3927
 3273TIP3    H2 9826   5.147   1.520   4.312  0.3823  0.2754  1.7707
 3274TIP3   OH2 9827   0.206   4.481   4.879  0.6593  0.3867 -0.2388
 3274TIP3    H1 9828   0.263   4.556   4.895 -0.0007  0.8527 -0.0026
 3274TIP3    H2 9829   0.186   4.448   4.967  1.6134 -0.5916 -0.3710
 3275TIP3   OH2 9830   6.148   0.162   3.871 -0.0543 -0.0346  0.2997
 3275TIP3    H1 9831   6.167   0.068   3.876  0.4401 -0.1472 -2.1777
 3275TIP3    H2 9832   6.104   0.182   3.953 -0.1656 -2.4272  0.9032
 3276TIP3   OH2 9833   4.130   3.746   3.710  0.6269 -0.6919 -0.5967
 3276TIP3    H1 9834   4.057   3.696   3.747  1.0600 -0.6419  0.3581
 3276TIP3    H2 9835   4.124   3.731   3.615 -1.2294  0.1291 -0.6616
 3277TIP3   OH2 9836   2.324   0.160   3.728  0.1339 -0.0838  0.1403
 3277TIP3    H1 9837   2.257   0.118   3.782  0.0219 -0.1269 -0.0288
 3277TIP3    H2 9838   2.279   0.235   3.688  0.1720 -0.1400 -0.0106
 3278TIP3   OH2 9839   1.187   3.490   3.341 -0.3858  0.2749 -0.0699
 3278TIP3    H1 9840   1.236   3.437   3.404  0.3389  1.6918  0.6202
 3278TIP3    H2 9841   1.137   3.551   3.396 -3.4068 -1.4027 -0.6985
 3279TIP3   OH2 9842   3.257   1.241   3.878  0.1449 -0.1646  0.0726
 3279TIP3    H1 9843   3.331   1.257   3.819 -1.0942 -0.2966 -1.5859
 3279TIP3    H2 9844   3.186   1.211   3.820 -1.5292  0.9465  1.4496
 3280TIP3   OH2 9845   3.331   3.361   0.368 -0.3752 -0.3560 -0.6418
 3280TIP3    H1 9846   3.338   3.267   0.354 -1.7332 -0.7155  0.7850
 3280TIP3    H2 9847   3.421   3.393   0.364  0.2335 -1.8992 -0.0085
 3281TIP3   OH2 9848   1.104   3.787   1.858  0.7311 -0.3853 -0.4934
 3281TIP3    H1 9849   1.019   3.824   1.836 -0.2680 -1.7774  0.8282
 3281TIP3    H2 9850   1.159   3.863   1.876 -0.7686  0.5274  0.4663
 3282TIP3   OH2 9851   0.085   4.638   3.147  0.3904  0.0003 -0.2006
 3282TIP3    H1 9852   0.146   4.642   3.073 -0.5580  1.0073 -0.9568
 3282TIP3    H2 9853   0.010   4.588   3.115 -0.1095  0.5996  0.0178
 3283TIP3   OH2 9854   0.904  -0.020   1.741 -0.5272  0.1747 -0.1384
 3283TIP3    H1 9855   0.823   0.020   1.709 -0.0148 -0.9735 -3.2482
 3283TIP3    H2 9856   0.973   0.031   1.699  0.2828 -0.4127  0.4656
 3284TIP3   OH2 9857   5.049   1.246   5.029 -0.3650  0.5123 -0.0669
 3284TIP3    H1 9858   5.134   1.208   5.006 -0.2684  2.0417 -2.6600
 3284TIP3    H2 9859   5.061   1.281   5.117  0.1295 -3.4468  1.6577
 3285TIP3   OH2 9860   2.246   1.211   1.690  0.5598  0.7515  0.1846
 3285TIP3    H1 9861   2.218   1.120   1.684 -1.2346  1.2649 -0.0478
 3285TIP3    H2 9862   2.258   1.239   1.599 -1.8419  1.5251  0.0303
 3286TIP3   OH2 9863   2.012   5.826   2.305 -0.2972 -0.2063  0.5206
 3286TIP3    H1 9864   2.093   5.786   2.274  0.1332 -0.0500  1.4124
 3286TIP3    H2 9865   1.943   5.785   2.253  0.3201 -0.6186  0.0163
 3287TIP3   OH2 9866   3.453   3.265   4.038  0.0906  0.0217  0.0488
 3287TIP3    H1 9867   3.461   3.265   4.133  2.0086 -1.0672 -0.0556
 3287TIP3    H2 9868   3.477   3.176   4.012 -1.1498  0.0706 -1.4238
 3288TIP3   OH2 9869   5.535   4.235   4.434  0.5928  0.1773 -0.2219
 3288TIP3    H1 9870   5.541   4.160   4.375  0.2828 -0.5668  0.6722
 3288TIP3    H2 9871   5.458   4.283   4.405  2.3559  1.8052 -2.6379
 3289TIP3   OH2 9872   5.985   4.546   1.789  0.4377 -0.1779  0.9758
 3289TIP3    H1 9873   5.891   4.533   1.773  0.1643  1.4199  1.1430
 3289TIP3    H2 9874   6.029   4.494   1.722 -0.6025  1.3458 -0.9697
 3290TIP3   OH2 9875   6.103   5.663   3.235  0.0948  0.0985  0.4893
 3290TIP3    H1 9876   6.121   5.655   3.141 -1.5857 -0.3427  0.1666
 3290TIP3    H2 9877   6.098   5.757   3.251  1.5631  0.2130  0.4065
 3291TIP3   OH2 9878   5.945   2.009   3.482 -0.1090 -0.0251  0.4225
 3291TIP3    H1 9879   6.034   2.012   3.447  0.4616 -1.7426  1.5503
 3291TIP3    H2 9880   5.889   2.008   3.404  1.0144 -1.7206 -0.4441
 3292TIP3   OH2 9881   5.860   5.686   0.791  1.0105  0.2422  0.5855
 3292TIP3    H1 9882   5.797   5.619   0.763  1.7241  0.8651 -2.9745
 3292TIP3    H2 9883   5.817   5.769   0.769  1.4334  0.8547  1.9818
 3293TIP3   OH2 9884   5.051   5.269   2.023 -0.3380 -0.2659 -1.0529
 3293TIP3    H1 9885   5.004   5.352   2.017 -0.5184 -0.4677 -3.2575
 3293TIP3    H2 9886   5.137   5.287   1.984 -0.3072 -1.0411 -1.3694
 3294TIP3   OH2 9887   3.125   0.253   4.805 -0.0981  0.3911 -0.1613
 3294TIP3    H1 9888   3.117   0.331   4.860  1.4740  0.1967  0.3729
 3294TIP3    H2 9889   3.104   0.284   4.717  0.3325  1.3922  0.0731
 3295TIP3   OH2 9890   3.616   2.852   1.028 -0.3415  0.0272 -0.2450
 3295TIP3    H1 9891   3.568   2.905   1.092  2.1731  0.6958  1.2560
 3295TIP3    H2 9892   3.593   2.889   0.943 -1.3733  1.1782  0.5032
 3296TIP3   OH2 9893   2.826   1.594   4.990 -0.2117  0.0190 -0.1800
 3296TIP3    H1 9894   2.803   1.641   5.070 -3.5720 -2.2663  0.4590
 3296TIP3    H2 9895   2.904   1.544   5.012 -1.1426 -0.6591  1.8101
 3297TIP3   OH2 9896   0.889   3.414   3.879  0.7472  0.3192  0.1623
 3297TIP3    H1 9897   0.901   3.415   3.784  0.0351  1.0636  0.0635
 3297TIP3    H2 9898   0.976   3.427   3.915  0.8162  1.5774 -0.4250
 3298TIP3   OH2 9899   4.948   4.517   2.623 -0.0025  0.1048  0.0161
 3298TIP3    H1 9900   4.861   4.552   2.641  0.0267 -0.7450  2.0944
 3298TIP3    H2 9901   5.008   4.581   2.660  0.3019  0.8265 -1.6577
 3299TIP3   OH2 9902   1.857   5.149   2.087 -0.1267 -0.1688  0.4397
 3299TIP3    H1 9903   1.942   5.105   2.096 -0.1160  0.0275  1.4335
 3299TIP3    H2 9904   1.871   5.213   2.017  0.6395  0.0722  0.7963
 3300TIP3   OH2 9905   5.002   5.492   4.899  0.2812 -0.1325  0.4694
 3300TIP3    H1 9906   5.010   5.581   4.863  0.3149 -0.8928 -1.5366
 3300TIP3    H2 9907   5.092   5.460   4.901  0.0246 -1.1520 -1.7310
 3301TIP3   OH2 9908   4.321   2.568   1.908 -0.3479 -0.6760 -0.5385
 3301TIP3    H1 9909   4.318   2.476   1.881 -0.7687 -0.7250 -0.3323
 3301TIP3    H2 9910   4.238   2.605   1.879 -0.6854 -0.6616  0.4117
 3302TIP3   OH2 9911   0.830   1.147   1.533  0.3728  0.2920 -0.0995
 3302TIP3    H1 9912   0.824   1.183   1.445  1.2864 -1.0339 -0.7310
 3302TIP3    H2 9913   0.769   1.074   1.534 -0.7152  1.1767  0.8523
 3303TIP3   OH2 9914   0.482   0.488   4.869 -0.1444  0.1617  0.4244
 3303TIP3    H1 9915   0.511   0.535   4.947  1.1038 -1.3396  0.9093
 3303TIP3    H2 9916   0.543   0.415   4.860 -0.4133  0.1310 -1.8258
 3304TIP3   OH2 9917   3.567   0.706   0.077  0.0504 -0.4975  0.5755
 3304TIP3    H1 9918   3.600   0.687  -0.010  1.5127  0.3134  0.9226
 3304TIP3    H2 9919   3.516   0.628   0.101  0.2889 -1.0568 -0.6718
 3305TIP3   OH2 9920   2.385   3.144   4.108  0.0241 -0.0767  0.1055
 3305TIP3    H1 9921   2.383   3.116   4.017 -0.6434  1.4327 -0.3748
 3305TIP3    H2 9922   2.294   3.144   4.136  0.1071  0.5508  0.4063
 3306TIP3   OH2 9923   3.772   5.252   3.763  0.0962 -0.0304  0.0815
 3306TIP3    H1 9924   3.793   5.214   3.848 -1.4522 -5.1486 -1.4643
 3306TIP3    H2 9925   3.681   5.281   3.773  0.0495 -0.2341  0.2664
 3307TIP3   OH2 9926   1.231   2.646   3.996  0.5444 -0.3778 -0.0342
 3307TIP3    H1 9927   1.155   2.603   3.956  0.3077  2.4280 -2.9853
 3307TIP3    H2 9928   1.194   2.716   4.049  1.0259 -0.3187  0.2322
 3308TIP3   OH2 9929   1.984   1.303   2.734 -0.1650 -0.0778  0.4766
 3308TIP3    H1 9930   1.937   1.375   2.691 -1.6536 -1.2265  0.1194
 3308TIP3    H2 9931   2.069   1.300   2.688 -0.8251  0.2224 -0.8226
 3309TIP3   OH2 9932   0.056   3.587   2.749 -0.2388 -0.3142  0.4078
 3309TIP3    H1 9933   0.050   3.501   2.708 -0.2438  0.2155 -0.7576
 3309TIP3    H2 9934  -0.028   3.598   2.794 -0.8506 -0.3091 -0.7067
 3310TIP3   OH2 9935   1.172   1.879   2.547  0.3583 -0.1343 -0.0892
 3310TIP3    H1 9936   1.233   1.808   2.527  0.1950 -0.0603 -0.9018
 3310TIP3    H2 9937   1.161   1.925   2.463  0.6940  1.0286  0.4865
 3311TIP3   OH2 9938   0.819   5.413   3.849  0.2371  0.4811  0.4108
 3311TIP3    H1 9939   0.776   5.361   3.917  0.6583  0.5578  0.7391
 3311TIP3    H2 9940   0.801   5.503   3.874 -2.1136  0.5399 -1.1789
 3312TIP3   OH2 9941   6.325   4.492   1.343 -0.0205  0.5723 -0.0796
 3312TIP3    H1 9942   6.360   4.573   1.306 -2.6570  1.5885 -0.5435
 3312TIP3    H2 9943   6.292   4.517   1.430  2.0274 -0.7957  1.1834
 3313TIP3   OH2 9944   4.107   1.422   0.309  0.4020 -0.3296  0.3661
 3313TIP3    H1 9945   4.045   1.405   0.379 -1.3318  0.9317 -0.7867
 3313TIP3    H2 9946   4.140   1.510   0.327  0.8674 -0.4759  0.2427
 3314TIP3   OH2 9947   1.292   5.306   3.571 -0.0859  0.1594  0.1766
 3314TIP3    H1 9948   1.327   5.221   3.545  1.3951  0.5452  0.7836
 3314TIP3    H2 9949   1.199   5.291   3.588 -0.6185 -0.6396 -2.8575
 3315TIP3   OH2 9950   3.714   0.787   3.921 -0.9071  0.4194  0.7663
 3315TIP3    H1 9951   3.749   0.773   4.009 -0.6079 -0.5035  0.5123
 3315TIP3    H2 9952   3.631   0.737   3.919 -1.2403  0.9703  0.7338
 3316TIP3   OH2 9953   5.801   4.971   2.876 -0.1080  0.2269 -0.3436
 3316TIP3    H1 9954   5.708   4.954   2.895  0.6306 -2.1957  1.6335
 3316TIP3    H2 9955   5.805   4.974   2.780 -2.3380  1.3482 -0.4718
 3317TIP3   OH2 9956   4.209   0.811   3.486 -0.0520 -0.5271  0.0325
 3317TIP3    H1 9957   4.303   0.790   3.483  0.1409  0.4227 -1.2061
 3317TIP3    H2 9958   4.196   0.849   3.573  1.5861  3.0192 -1.0755
 3318TIP3   OH2 9959   2.476   5.263   5.163  0.3475 -0.3517  0.0032
 3318TIP3    H1 9960   2.402   5.291   5.110  0.3110  2.2699  1.2686
 3318TIP3    H2 9961   2.458   5.171   5.183 -1.4181 -0.3924 -1.5049
 3319TIP3   OH2 9962   2.210   2.658   3.479  0.0175  0.3202  0.1849
 3319TIP3    H1 9963   2.140   2.604   3.444 -0.4915  1.8119 -1.2074
 3319TIP3    H2 9964   2.288   2.602   3.479 -0.3161 -0.2062 -1.9329
 3320TIP3   OH2 9965   6.026   4.071   4.314 -0.0188  0.1669 -0.0817
 3320TIP3    H1 9966   5.991   4.160   4.308  0.4179  0.5210  1.8870
 3320TIP3    H2 9967   6.029   4.053   4.408  2.2046 -1.0051 -0.3223
 3321TIP3   OH2 9968   5.426   2.667   1.134  0.1149 -0.5863  0.2017
 3321TIP3    H1 9969   5.496   2.622   1.182  0.6963 -1.2465 -1.2030
 3321TIP3    H2 9970   5.381   2.597   1.087 -0.0615  0.1025 -0.6694
 3322TIP3   OH2 9971   2.099   5.870   0.366  0.0250 -0.0761 -0.6461
 3322TIP3    H1 9972   2.074   5.932   0.435 -1.8014 -2.4351  1.0111
 3322TIP3    H2 9973   2.193   5.885   0.354  0.1266  1.4284  1.3353
 3323TIP3   OH2 9974   3.768   2.015   2.227  0.5607 -0.6789 -0.5754
 3323TIP3    H1 9975   3.714   2.034   2.151 -1.5100 -2.3883  0.3596
 3323TIP3    H2 9976   3.789   1.921   2.219  0.2811 -0.9027  0.9310
 3324TIP3   OH2 9977   1.703   0.690   2.891  0.3322 -0.5445  0.5112
 3324TIP3    H1 9978   1.764   0.630   2.935 -0.3258 -1.4701  0.1998
 3324TIP3    H2 9979   1.620   0.642   2.889  0.4597 -0.7517 -2.2075
 3325TIP3   OH2 9980   1.154   1.039   3.502 -0.9429 -0.6313 -0.5465
 3325TIP3    H1 9981   1.221   0.979   3.469 -0.1211 -0.0276 -0.0081
 3325TIP3    H2 9982   1.081   0.982   3.526  0.2202 -1.5694  0.9659
 3326TIP3   OH2 9983   0.832   2.226   5.106  0.0310 -0.1470  0.0738
 3326TIP3    H1 9984   0.796   2.273   5.181  0.0038 -1.6783  1.0674
 3326TIP3    H2 9985   0.909   2.277   5.080 -0.6761  1.0812  0.3381
 3327TIP3   OH2 9986   1.786   3.180   0.201  0.3916  0.8469 -0.0754
 3327TIP3    H1 9987   1.833   3.174   0.284  0.1454 -1.1551 -0.0141
 3327TIP3    H2 9988   1.705   3.228   0.223  0.6247  0.9032  0.6904
 3328TIP3   OH2 9989   2.432   4.200   4.928  0.0424 -0.0968  0.3486
 3328TIP3    H1 9990   2.427   4.243   5.013  0.0717 -1.4973  1.0987
 3328TIP3    H2 9991   2.502   4.245   4.882  0.4297  0.3054  1.3066
 3329TIP3   OH2 9992   2.823   2.942   3.718  0.0310 -0.3621 -0.1978
 3329TIP3    H1 9993   2.860   3.023   3.683  0.8845 -0.8491 -0.4529
 3329TIP3    H2 9994   2.860   2.873   3.663 -1.6830 -0.8512 -0.8073
 3330TIP3   OH2 9995   0.669   1.166   0.312 -0.4483  0.3255  0.6487
 3330TIP3    H1 9996   0.737   1.118   0.263  1.5510  1.6155  2.0037
 3330TIP3    H2 9997   0.626   1.221   0.246  1.0811  0.8295  0.0277
 3331TIP3   OH2 9998   1.145   1.266   4.459 -0.4309 -0.2480 -0.5912
 3331TIP3    H1 9999   1.161   1.177   4.429  1.7475 -0.5739  1.2504
 3331TIP3    H210000   1.081   1.257   4.530 -0.2435 -0.3502 -0.4342
 3332TIP3   OH210001   2.962   5.250   2.541 -0.0612  0.2079 -0.2055
 3332TIP3    H110002   3.033   5.200   2.502 -0.5880 -1.1938  0.5627
 3332TIP3    H210003   2.908   5.184   2.585 -1.3205  1.3487  0.0104
 3333TIP3   OH210004   1.905   1.221   0.815  0.0228  0.1081 -0.0747
 3333TIP3    H110005   1.873   1.300   0.859  0.9405  1.1902 -1.2926
 3333TIP3    H210006   2.000   1.228   0.818  0.1191 -0.9450 -0.2303
 3334TIP3   OH210007   2.683   0.726   4.015  0.0565 -0.0135  0.1149
 3334TIP3    H110008   2.773   0.757   4.025 -0.2599  0.5695  1.3911
 3334TIP3    H210009   2.630   0.805   4.013 -0.6031 -0.3895  1.5588
 3335TIP3   OH210010   4.933   3.833   3.411 -0.2190  0.2525  0.0540
 3335TIP3    H110011   4.936   3.782   3.491  1.9989  0.4145  0.1503
 3335TIP3    H210012   4.948   3.923   3.439  0.8182  0.2814 -0.5112
 3336TIP3   OH210013   0.850   2.505   4.554  0.1861  0.4213 -0.1716
 3336TIP3    H110014   0.861   2.419   4.596 -0.3518  0.6898  0.5281
 3336TIP3    H210015   0.758   2.507   4.527 -0.0830  1.2165  0.7999
 3337TIP3   OH210016   1.280   1.541   0.890 -0.0253  0.7931  0.4407
 3337TIP3    H110017   1.338   1.531   0.966 -0.3872  0.0022  0.6245
 3337TIP3    H210018   1.271   1.636   0.879 -1.5545  0.9685  2.6057
 3338TIP3   OH210019   1.745   2.891   1.933 -0.1741 -0.6320 -0.5613
 3338TIP3    H110020   1.665   2.864   1.978 -0.9215  1.1776 -0.7058
 3338TIP3    H210021   1.783   2.958   1.989 -0.0973  0.2925 -1.6851
 3339TIP3   OH210022   3.589   5.568   0.811 -0.2993  0.8495  0.5514
 3339TIP3    H110023   3.636   5.649   0.791 -0.7399  0.5592 -1.9517
 3339TIP3    H210024   3.659   5.504   0.826  0.0544  1.3307  1.0193
 3340TIP3   OH210025   3.995   1.704   3.777  0.1513  0.2186  0.1107
 3340TIP3    H110026   4.082   1.726   3.809  1.0603 -2.4682 -0.2503
 3340TIP3    H210027   3.954   1.657   3.849 -0.6114  0.5335 -0.1047
 3341TIP3   OH210028   2.658   0.101   2.827  0.2896  0.0297  0.1615
 3341TIP3    H110029   2.687   0.036   2.892  0.9120  0.2872  0.1402
 3341TIP3    H210030   2.673   0.185   2.869  2.3066  0.2741 -0.9559
 3342TIP3   OH210031   5.680   1.887   0.052  0.1958  0.2769 -0.1056
 3342TIP3    H110032   5.701   1.803   0.012 -0.6863  0.1875 -0.4010
 3342TIP3    H210033   5.698   1.875   0.145 -4.7975 -2.0365  0.8772
 3343TIP3   OH210034   5.148   1.336   4.379 -0.2975 -0.6414  0.5226
 3343TIP3    H110035   5.077   1.284   4.416 -0.2453 -0.1359  1.3539
 3343TIP3    H210036   5.216   1.337   4.447  1.3155 -2.6350 -0.9262
 3344TIP3   OH210037   6.299   1.571   1.105  0.2056  0.0311 -0.7619
 3344TIP3    H110038   6.212   1.600   1.131  0.0704  0.2663 -1.4477
 3344TIP3    H210039   6.309   1.486   1.147  0.0553  0.4538  0.1403
 3345TIP3   OH210040   2.610   0.303   3.270 -0.4082 -0.1807  0.1989
 3345TIP3    H110041   2.570   0.349   3.344  0.9219  0.1845  0.7225
 3345TIP3    H210042   2.646   0.222   3.308 -1.2219 -0.8416 -0.3900
 3346TIP3   OH210043   3.092   5.599   2.385 -0.4688 -0.3115  0.3691
 3346TIP3    H110044   3.140   5.533   2.336 -1.1594 -1.8527  1.6857
 3346TIP3    H210045   3.000   5.573   2.378 -0.5794 -0.6645  2.5275
 3347TIP3   OH210046   1.939   5.303   1.875  0.3250  0.1538  0.2353
 3347TIP3    H110047   1.994   5.230   1.847 -0.9631 -0.2410 -1.3541
 3347TIP3    H210048   2.002   5.371   1.901  1.5447 -1.4125  1.6255
 3348TIP3   OH210049   0.508   1.197   4.002 -0.0177 -0.3573  0.0042
 3348TIP3    H110050   0.506   1.286   3.967 -1.5699  0.7158  2.5433
 3348TIP3    H210051   0.416   1.173   4.013  0.3486 -2.5799 -1.1924
 3349TIP3   OH210052   3.138   2.350   1.236  0.0090  0.3563  0.3256
 3349TIP3    H110053   3.134   2.288   1.163 -0.1470  0.2441  0.4261
 3349TIP3    H210054   3.072   2.317   1.297 -1.4359  1.6827 -0.4426
 3350TIP3   OH210055   1.931   5.620   0.595 -0.8423  0.0304 -0.3283
 3350TIP3    H110056   1.984   5.569   0.533 -1.4638  1.7228 -2.3489
 3350TIP3    H210057   1.994   5.677   0.639 -0.5514 -0.3654 -0.2209
 3351TIP3   OH210058   2.641   3.192   0.027  0.3013  0.2260 -0.1877
 3351TIP3    H110059   2.694   3.235   0.093 -0.2813 -0.4339  0.7291
 3351TIP3    H210060   2.558   3.172   0.071  0.1843 -0.9192 -0.8758
 3352TIP3   OH210061   0.952   0.323   3.053 -0.2702 -0.0638  0.0524
 3352TIP3    H110062   1.026   0.264   3.064  0.0373  0.0787 -1.1101
 3352TIP3    H210063   0.978   0.403   3.100  0.1066 -0.1788  0.0411
 3353TIP3   OH210064   0.161   4.388   2.729  0.4394  0.0598 -0.3486
 3353TIP3    H110065   0.200   4.462   2.776 -0.1296 -0.1551  0.4872
 3353TIP3    H210066   0.122   4.427   2.651  0.5219  0.5712 -0.1416
 3354TIP3   OH210067   3.111   0.954   3.463  0.0502 -0.0371 -0.3484
 3354TIP3    H110068   3.069   0.875   3.430  0.1767 -0.1666 -0.2020
 3354TIP3    H210069   3.197   0.925   3.492  1.1480  0.6425 -2.7489
 3355TIP3   OH210070   3.205   0.712   5.111  0.2622  0.1229 -0.0120
 3355TIP3    H110071   3.215   0.765   5.032  0.6027  1.3469  0.8160
 3355TIP3    H210072   3.136   0.756   5.160  0.7638 -0.0257  0.8407
 3356TIP3   OH210073   5.267   4.990   2.884 -0.9097  0.3476  0.0860
 3356TIP3    H110074   5.278   5.042   2.804 -0.3585 -0.9955 -0.7435
 3356TIP3    H210075   5.175   5.004   2.908 -1.2513  0.3155 -1.1173
 3357TIP3   OH210076   1.211   5.819   3.848 -0.0088  0.1460  0.0678
 3357TIP3    H110077   1.281   5.843   3.787  1.0941  4.0669  2.5041
 3357TIP3    H210078   1.138   5.875   3.824  0.0688  0.9454  1.5813
 3358TIP3   OH210079   4.100   5.408   1.593 -0.1415 -0.1952  0.8328
 3358TIP3    H110080   4.056   5.477   1.642  0.4730  0.1087  0.9691
 3358TIP3    H210081   4.066   5.416   1.504 -1.1953 -0.6902  1.1767
 3359TIP3   OH210082   3.040   4.947   0.299  0.4523  0.4461 -0.5824
 3359TIP3    H110083   3.092   4.982   0.227  0.6247 -2.0744 -1.7998
 3359TIP3    H210084   2.967   4.901   0.256  0.7813 -1.4818  0.7639
 3360TIP3   OH210085   3.909   4.505   5.139 -0.1574 -0.1558 -0.1589
 3360TIP3    H110086   3.813   4.501   5.133 -0.3077  1.6619  0.4857
 3360TIP3    H210087   3.938   4.499   5.048 -1.0685  1.8177 -0.6461
 3361TIP3   OH210088   3.019   2.565   2.407 -0.1349  0.9086  0.0860
 3361TIP3    H110089   3.019   2.630   2.337 -1.1015  0.8422  0.0150
 3361TIP3    H210090   2.975   2.608   2.480 -1.5265  0.0772 -0.2281
 3362TIP3   OH210091   2.841   0.479   2.706 -0.4631  0.2141  0.2118
 3362TIP3    H110092   2.891   0.398   2.711  1.5511  1.4617  3.7264
 3362TIP3    H210093   2.838   0.500   2.613  2.1364 -2.0251 -0.4982
 3363TIP3   OH210094   6.322   2.353   2.889  0.2202 -0.3907  0.2776
 3363TIP3    H110095   6.343   2.342   2.796 -1.0931  0.3129 -0.1273
 3363TIP3    H210096   6.299   2.265   2.919 -2.0010 -0.2454 -0.7832
 3364TIP3   OH210097   2.806   1.630   2.781  0.1076  0.1678 -0.3555
 3364TIP3    H110098   2.741   1.654   2.716 -0.4400 -0.0695  0.0941
 3364TIP3    H210099   2.884   1.606   2.731 -0.1569  0.4340 -0.8967
 3365TIP3   OH210100   3.282   5.608   4.782  0.1493  0.0826  0.2529
 3365TIP3    H110101   3.376   5.600   4.765  0.1227  0.2503  0.0213
 3365TIP3    H210102   3.275   5.606   4.877  0.2982 -0.9207  0.2561
 3366TIP3   OH210103   4.214   2.593   4.592  0.2768  0.5390 -0.2250
 3366TIP3    H110104   4.304   2.619   4.610  0.3539  1.0634 -1.3025
 3366TIP3    H210105   4.164   2.675   4.595 -0.3486  0.1473  1.2569
 3367TIP3   OH210106   4.469   1.618   1.983  0.6608 -0.4768  0.4692
 3367TIP3    H110107   4.520   1.658   2.053  0.3918 -0.3606  0.5983
 3367TIP3    H210108   4.442   1.533   2.019 -1.2749  0.4522  1.3253
 3368TIP3   OH210109   1.126   3.766   3.114 -0.4889 -0.4484 -0.1247
 3368TIP3    H110110   1.177   3.846   3.107  0.7609 -1.2773 -0.9554
 3368TIP3    H210111   1.105   3.759   3.207 -1.8139  1.5118 -0.2064
 3369TIP3   OH210112   0.982   3.779   0.711 -0.2589 -0.0600  0.3048
 3369TIP3    H110113   1.024   3.785   0.625 -3.2048 -0.8834 -1.3561
 3369TIP3    H210114   0.971   3.870   0.739 -0.0171  0.2661 -0.6230
 3370TIP3   OH210115   3.970   1.199   4.498 -0.3494  0.2838 -0.4894
 3370TIP3    H110116   4.041   1.189   4.434 -0.8973  2.0175 -1.4633
 3370TIP3    H210117   4.013   1.192   4.583  0.8116  0.2432 -1.0547
 3371TIP3   OH210118   1.815   0.341   2.058 -0.1287 -0.1859 -0.1410
 3371TIP3    H110119   1.815   0.272   1.991  0.0249  0.6850 -1.0629
 3371TIP3    H210120   1.803   0.294   2.141 -1.6563 -1.1768 -0.8766
 3372TIP3   OH210121   3.150   0.082   4.525 -0.4582  0.2594  0.0371
 3372TIP3    H110122   3.198   0.164   4.516 -0.8618  0.4150 -0.8189
 3372TIP3    H210123   3.091   0.081   4.449 -0.6636 -0.6793  0.2028
 3373TIP3   OH210124   5.609   4.277   2.739  0.2433 -0.4107  0.5119
 3373TIP3    H110125   5.521   4.283   2.702 -0.3921 -0.9567  1.8843
 3373TIP3    H210126   5.607   4.199   2.794  1.6859 -0.6003  0.3421
 3374TIP3   OH210127   1.642   3.852   1.941 -0.2458 -0.4626  0.2296
 3374TIP3    H110128   1.550   3.838   1.961 -0.2782  0.4870  0.8034
 3374TIP3    H210129   1.663   3.936   1.982  0.9601 -0.8270  0.3961
 3375TIP3   OH210130   4.564   4.667   3.613  0.0006  0.3384  0.2753
 3375TIP3    H110131   4.631   4.723   3.652 -0.2879 -0.1173  1.4505
 3375TIP3    H210132   4.541   4.712   3.531  1.0560  0.9843  0.3091
 3376TIP3   OH210133   0.683   2.508   2.672 -0.6433 -0.5184 -0.6136
 3376TIP3    H110134   0.638   2.574   2.619 -0.9433  0.0308  0.2968
 3376TIP3    H210135   0.648   2.521   2.761  0.2088 -1.0876 -0.1823
 3377TIP3   OH210136   4.692   3.502   1.429 -0.2243 -0.0329  0.7316
 3377TIP3    H110137   4.707   3.501   1.524  0.8354 -1.2564  0.5698
 3377TIP3    H210138   4.753   3.569   1.397  0.2808 -0.4609  0.7885
 3378TIP3   OH210139   0.882   3.549   2.414  0.1531 -0.3859 -0.3199
 3378TIP3    H110140   0.804   3.531   2.362 -1.3241  1.7346  1.0078
 3378TIP3    H210141   0.881   3.482   2.482 -1.5426  0.5800  0.6874
 3379TIP3   OH210142   5.823   3.577   3.263  0.8063  0.3339 -0.1693
 3379TIP3    H110143   5.898   3.630   3.237  0.5899  1.2642  0.9854
 3379TIP3    H210144   5.845   3.546   3.351  0.1782 -0.0296 -0.1345
 3380TIP3   OH210145   0.108   3.127   0.025 -0.3334 -0.0972 -0.0141
 3380TIP3    H110146   0.075   3.043   0.058 -1.4832  0.1526 -0.4933
 3380TIP3    H210147   0.127   3.177   0.104 -0.0395 -0.6409  0.2738
 3381TIP3   OH210148   2.001   0.744   0.270 -0.3033  0.5747  0.1925
 3381TIP3    H110149   2.015   0.652   0.249 -1.1049  0.1946  1.2474
 3381TIP3    H210150   1.907   0.752   0.284 -0.2010  1.4840  0.4783
 3382TIP3   OH210151   3.225   0.231   2.079  0.1477 -0.3615 -0.1558
 3382TIP3    H110152   3.206   0.156   2.022  2.3346 -0.6972 -0.5149
 3382TIP3    H210153   3.259   0.192   2.159 -1.9174  0.1626  1.0622
 3383TIP3   OH210154   0.517   4.239   4.795  0.3035  0.3618 -0.2594
 3383TIP3    H110155   0.530   4.319   4.744  0.8392 -0.0880 -0.8408
 3383TIP3    H210156   0.588   4.239   4.859 -0.0018  0.6097  0.0827
 3384TIP3   OH210157   0.330   5.271   2.763 -0.2647  0.3220  0.2150
 3384TIP3    H110158   0.259   5.228   2.812 -0.5897 -0.3593 -0.8294
 3384TIP3    H210159   0.395   5.292   2.830 -1.1632  0.3684  1.1000
 3385TIP3   OH210160   0.250   5.107   4.167  0.2217 -0.0480 -0.0822
 3385TIP3    H110161   0.304   5.034   4.135  0.8233  0.6041 -0.5851
 3385TIP3    H210162   0.176   5.111   4.106 -1.1815 -1.7944  1.3656
 3386TIP3   OH210163   3.452   2.431   1.002 -0.2527 -0.2638  0.4030
 3386TIP3    H110164   3.434   2.338   0.987 -1.4956 -0.0762  0.6748
 3386TIP3    H210165   3.523   2.452   0.941 -1.2093 -0.9348 -0.9723
 3387TIP3   OH210166   3.622   5.730   1.515 -0.5185  0.3332  0.5358
 3387TIP3    H110167   3.559   5.658   1.510 -0.3453  0.2071  0.0979
 3387TIP3    H210168   3.689   5.708   1.449 -0.9425  1.3496 -0.2566
 3388TIP3   OH210169   4.589   4.176   3.433 -0.3480  0.1133  0.3504
 3388TIP3    H110170   4.665   4.150   3.381 -0.5993  1.6683 -0.8817
 3388TIP3    H210171   4.592   4.120   3.511  1.9767  0.0808  0.2809
 3389TIP3   OH210172   0.598   5.802   0.659  0.2916  0.4187  0.2337
 3389TIP3    H110173   0.654   5.796   0.581 -0.2589  1.9861 -0.3294
 3389TIP3    H210174   0.606   5.717   0.701  1.1983 -0.2114 -1.1347
 3390TIP3   OH210175   6.281   2.811   5.000  0.1552  0.2541  0.1071
 3390TIP3    H110176   6.302   2.786   5.090 -2.5470 -3.7645 -0.1543
 3390TIP3    H210177   6.271   2.907   5.003  0.2857  0.2833  4.0101
 3391TIP3   OH210178   5.223   2.784   4.214 -0.2363 -0.0609 -0.0165
 3391TIP3    H110179   5.311   2.749   4.225 -0.5252 -0.8565 -0.1468
 3391TIP3    H210180   5.231   2.846   4.142  0.0142 -0.9491 -0.7833
 3392TIP3   OH210181   0.402   1.993   4.030 -0.1433 -0.2708 -1.0206
 3392TIP3    H110182   0.405   1.915   4.086 -3.6742 -0.7245 -1.2047
 3392TIP3    H210183   0.379   2.064   4.090  0.0129  0.0215 -1.3056
 3393TIP3   OH210184   0.571   2.525   4.533 -0.6835 -0.1768 -0.5630
 3393TIP3    H110185   0.562   2.570   4.449 -1.8876 -1.3895 -1.1147
 3393TIP3    H210186   0.503   2.563   4.588 -1.5277 -1.1133 -0.9451
 3394TIP3   OH210187   4.077   0.871   4.750  0.6780  0.2264  0.3710
 3394TIP3    H110188   4.094   0.780   4.725  1.5088  0.4720  0.0165
 3394TIP3    H210189   3.988   0.870   4.786  0.5938 -0.6808  0.1523
 3395TIP3   OH210190   3.624   5.736   3.385 -0.2446 -0.6866 -0.1382
 3395TIP3    H110191   3.652   5.827   3.395  0.5702 -0.9089 -0.2918
 3395TIP3    H210192   3.629   5.699   3.473 -1.5391 -0.3305  0.1031
 3396TIP3   OH210193   2.113   1.250   3.818  0.0305  0.1572  0.3104
 3396TIP3    H110194   2.133   1.308   3.890 -1.3996 -0.8295  1.5765
 3396TIP3    H210195   2.137   1.299   3.739 -2.2157  2.9613  1.2253
 3397TIP3   OH210196   0.952   5.700   2.383 -0.1209 -0.3476 -0.7620
 3397TIP3    H110197   1.047   5.708   2.381 -0.1458  0.2786  0.3076
 3397TIP3    H210198   0.925   5.715   2.292  0.8364 -1.2630 -1.2209
 3398TIP3   OH210199   4.365   1.973   4.578 -0.1742 -0.2096 -0.4572
 3398TIP3    H110200   4.454   1.969   4.613 -0.5134  0.9255  0.5952
 3398TIP3    H210201   4.317   1.904   4.625 -0.6583  1.3812  1.5220
 3399TIP3   OH210202   5.683   0.055   3.034  0.0127  0.8290  0.0227
 3399TIP3    H110203   5.722   0.116   3.097  0.3962  0.0588  0.5542
 3399TIP3    H210204   5.724   0.077   2.951 -0.5880  1.9401  0.0024
 3400TIP3   OH210205   4.630   3.254   1.333 -0.0469  0.0309 -0.0883
 3400TIP3    H110206   4.552   3.236   1.386  0.9131 -1.8620  0.7865
 3400TIP3    H210207   4.665   3.336   1.368  0.8255 -1.3924  2.6361
 3401TIP3   OH210208   2.604   2.736   2.638 -0.4768  0.1997 -0.3463
 3401TIP3    H110209   2.538   2.695   2.694 -0.2552 -3.4104 -2.4028
 3401TIP3    H210210   2.576   2.715   2.549  2.1432  0.6981 -1.3839
 3402TIP3   OH210211   0.156   2.696   1.205 -0.1888 -0.1603  1.2330
 3402TIP3    H110212   0.190   2.623   1.153  0.6355  2.4003 -2.1551
 3402TIP3    H210213   0.071   2.666   1.237  0.8141 -3.1103  1.3853
 3403TIP3   OH210214   5.649   0.153   0.222 -0.1935  0.0280 -0.7021
 3403TIP3    H110215   5.699   0.143   0.304  0.5487  2.3570 -0.7820
 3403TIP3    H210216   5.588   0.080   0.222 -1.5363  0.9477  2.8929
 3404TIP3   OH210217   6.053   3.109   1.390 -0.0956 -0.1950  0.2479
 3404TIP3    H110218   6.099   3.025   1.383  0.3825  0.0843  0.0191
 3404TIP3    H210219   6.028   3.130   1.300  1.2259  0.7047  0.0715
 3405TIP3   OH210220   0.447   0.570   4.593  0.4089  0.3317 -0.2570
 3405TIP3    H110221   0.508   0.643   4.597  1.2710 -0.3366 -0.8402
 3405TIP3    H210222   0.434   0.544   4.684  1.5721  0.0291 -0.1606
 3406TIP3   OH210223   1.223   3.834   3.564 -0.0105 -0.3695  0.8953
 3406TIP3    H110224   1.297   3.832   3.503  0.1552  1.6435  0.9703
 3406TIP3    H210225   1.145   3.832   3.509  0.0748 -1.7688  0.7876
 3407TIP3   OH210226   3.817   5.423   0.312  0.2257  0.1600 -0.0457
 3407TIP3    H110227   3.818   5.329   0.329  0.4173  0.3400  1.0710
 3407TIP3    H210228   3.898   5.455   0.351 -0.7675  1.0479  1.4219
 3408TIP3   OH210229   5.452   1.943   2.122  0.2714  0.0419 -0.2335
 3408TIP3    H110230   5.542   1.974   2.132  0.6845 -0.2725 -2.3560
 3408TIP3    H210231   5.417   1.994   2.048 -1.4216  0.3854  0.7460
 3409TIP3   OH210232   5.086   1.076   3.725 -0.5078 -0.2177  0.2341
 3409TIP3    H110233   5.021   1.070   3.655  0.1755 -0.5947 -0.3809
 3409TIP3    H210234   5.054   1.148   3.781 -1.3707 -0.3080 -0.1252
 3410TIP3   OH210235   1.424   5.703   2.853 -0.4829 -0.5314  1.0456
 3410TIP3    H110236   1.405   5.693   2.760  1.3262 -0.2165  0.5997
 3410TIP3    H210237   1.360   5.766   2.884  0.5380  1.4415 -0.6215
 3411TIP3   OH210238   5.556   4.528   3.004  0.1884 -0.1345 -0.0044
 3411TIP3    H110239   5.615   4.582   3.056  0.5026  0.1478 -0.6347
 3411TIP3    H210240   5.542   4.450   3.057  1.0812 -0.1701  0.1984
 3412TIP3   OH210241   2.306   3.817   2.432 -0.1738  0.5333 -0.0027
 3412TIP3    H110242   2.320   3.734   2.387  2.2268  1.7816 -1.7770
 3412TIP3    H210243   2.384   3.828   2.488 -1.1982  0.9139  1.4124
 3413TIP3   OH210244   1.578   3.828   0.063  0.2547 -0.0622  0.3025
 3413TIP3    H110245   1.525   3.807   0.140 -0.4622  0.0057 -0.1582
 3413TIP3    H210246   1.668   3.814   0.091 -0.0027 -0.1374  1.1218
 3414TIP3   OH210247   4.151   0.322   0.007 -0.6004 -0.3156 -0.4148
 3414TIP3    H110248   4.057   0.315   0.020 -0.5538 -0.3038 -0.0456
 3414TIP3    H210249   4.186   0.337   0.095 -0.3021  0.2076 -0.6225
 3415TIP3   OH210250   0.129   5.849   2.686  0.2895  0.3524 -0.1595
 3415TIP3    H110251   0.144   5.791   2.611  1.3002 -2.1360  1.8285
 3415TIP3    H210252   0.212   5.898   2.694 -0.1991  1.4128 -1.2268
 3416TIP3   OH210253   4.594   0.893   0.879 -0.2642 -0.3788  0.2340
 3416TIP3    H110254   4.623   0.947   0.952 -2.2192  2.5841 -1.0262
 3416TIP3    H210255   4.635   0.932   0.802  0.1899 -2.2410 -0.5425
 3417TIP3   OH210256   5.877   5.886   3.255  0.6790  0.0065 -0.1241
 3417TIP3    H110257   5.970   5.900   3.270  1.0423 -0.1574 -1.9236
 3417TIP3    H210258   5.858   5.936   3.175 -0.7603 -0.0342  0.1593
 3418TIP3   OH210259   4.847   3.655   0.398  0.3114  0.4402  0.7005
 3418TIP3    H110260   4.791   3.616   0.331  1.1085  1.1025 -0.3936
 3418TIP3    H210261   4.808   3.740   0.417  0.1359  0.2900  1.0179
 3419TIP3   OH210262   4.024   5.056   1.199  0.0875 -0.4081 -0.4343
 3419TIP3    H110263   4.032   5.148   1.226 -1.4089 -0.2656 -0.3760
 3419TIP3    H210264   4.111   5.019   1.213  0.7933  1.0654 -0.7101
 3420TIP3   OH210265   2.479   0.123   2.043 -0.6037 -0.2014 -0.2852
 3420TIP3    H110266   2.448   0.105   2.131  0.2680 -0.7064 -0.0694
 3420TIP3    H210267   2.416   0.186   2.007 -0.1904  1.0933  1.1809
 3421TIP3   OH210268   0.068   0.502   3.205 -0.1829  0.5765 -0.0177
 3421TIP3    H110269   0.099   0.512   3.295  0.7334  1.0671 -0.3795
 3421TIP3    H210270  -0.008   0.561   3.199 -1.2995 -0.7044  0.8954
 3422TIP3   OH210271   3.351   5.906   1.283 -0.3403  0.1263  0.0225
 3422TIP3    H110272   3.298   5.986   1.280  0.7726  0.9477  1.2941
 3422TIP3    H210273   3.384   5.903   1.373 -0.2162 -1.6892 -0.0504
 3423TIP3   OH210274   2.223   1.604   4.957  0.3173  0.1565  0.5080
 3423TIP3    H110275   2.207   1.655   5.036  0.4431 -0.8892  1.2299
 3423TIP3    H210276   2.218   1.513   4.986  0.9866 -0.2415 -0.5691
 3424TIP3   OH210277   0.707   5.320   5.049 -0.1090  0.3698 -0.0174
 3424TIP3    H110278   0.782   5.285   5.000 -0.8885 -1.2347 -0.1478
 3424TIP3    H210279   0.738   5.402   5.085  1.0768  0.7296 -1.7248
 3425TIP3   OH210280   6.290   1.703   3.351 -0.1707  0.4861  0.5956
 3425TIP3    H110281   6.319   1.615   3.326 -0.9246 -0.0178  1.4435
 3425TIP3    H210282   6.270   1.747   3.268 -1.0814 -0.6104  0.2125
 3426TIP3   OH210283   2.089   1.372   1.843 -0.4730  0.3885  0.2155
 3426TIP3    H110284   2.136   1.305   1.793 -1.8944 -1.3144  1.0534
 3426TIP3    H210285   2.130   1.454   1.817  0.8036 -0.7137 -1.4784
 3427TIP3   OH210286   4.350   1.295   1.039 -0.0138 -0.0582 -0.2220
 3427TIP3    H110287   4.374   1.387   1.038 -0.4427  0.1358  2.1198
 3427TIP3    H210288   4.279   1.290   1.103 -0.1614 -1.9736 -0.4909
 3428TIP3   OH210289   4.434   1.574   1.061  0.4798  0.1611 -0.1780
 3428TIP3    H110290   4.517   1.561   1.107 -0.2815 -2.4456  0.6658
 3428TIP3    H210291   4.454   1.636   0.992  2.4110  1.9008  1.7895
 3429TIP3   OH210292   1.159   0.561   2.212  0.0128  0.4678  0.2044
 3429TIP3    H110293   1.174   0.574   2.118 -0.3323  1.7087  0.3029
 3429TIP3    H210294   1.094   0.491   2.217 -2.1345  2.2788 -0.6329
 3430TIP3   OH210295   6.093   4.962   0.740  0.4948  0.0283  0.0617
 3430TIP3    H110296   6.173   4.999   0.776  1.2521 -2.3773  1.0622
 3430TIP3    H210297   6.122   4.899   0.674 -0.7268  1.0684 -1.5537
 3431TIP3   OH210298   5.448   0.574   3.319 -0.0769  0.7154  0.0089
 3431TIP3    H110299   5.510   0.580   3.392  0.7704 -2.4245 -0.3247
 3431TIP3    H210300   5.487   0.629   3.251  2.0769 -0.6195  0.0680
 3432TIP3   OH210301   2.419   5.130   3.509  0.1516 -0.3238 -0.9887
 3432TIP3    H110302   2.434   5.160   3.419 -0.6532  0.9155 -0.7337
 3432TIP3    H210303   2.481   5.057   3.521  1.8177  0.8836 -1.8312
 3433TIP3   OH210304   5.760   1.009   3.337 -0.1656 -0.3944 -0.1416
 3433TIP3    H110305   5.683   0.953   3.341 -0.4568  0.0518  0.9822
 3433TIP3    H210306   5.750   1.068   3.412  0.8499  0.2119 -0.4676
 3434TIP3   OH210307   0.214   3.839   3.941  0.2623  0.1772  0.2054
 3434TIP3    H110308   0.187   3.841   3.849 -1.7516  0.7671  0.7477
 3434TIP3    H210309   0.175   3.918   3.979 -1.9091 -1.7197  2.2491
 3435TIP3   OH210310   1.423   0.363   0.499 -0.1544 -0.1134 -0.2278
 3435TIP3    H110311   1.404   0.422   0.426 -0.0316 -0.5908 -0.6547
 3435TIP3    H210312   1.449   0.281   0.457 -0.1602 -0.4191  0.3546
 3436TIP3   OH210313   2.344   4.381   4.018  0.0747 -0.1793  0.0366
 3436TIP3    H110314   2.279   4.429   3.966  1.0243  0.5632 -0.4977
 3436TIP3    H210315   2.299   4.362   4.100  0.0106  2.7268  0.7704
 3437TIP3   OH210316   3.507   3.386   1.507  0.5921 -0.1081  0.2279
 3437TIP3    H110317   3.524   3.343   1.591 -1.1970  0.6104  1.0019
 3437TIP3    H210318   3.525   3.478   1.523 -0.0106  0.0714 -0.1048
 3438TIP3   OH210319   0.761   3.972   4.710 -0.3109 -0.2425  0.0480
 3438TIP3    H110320   0.756   3.908   4.639  0.2521  0.4080 -0.5896
 3438TIP3    H210321   0.686   3.951   4.765 -1.2248 -0.2673 -1.1538
 3439TIP3   OH210322   5.867   0.682   4.993 -0.4219  0.5018  0.3847
 3439TIP3    H110323   5.876   0.601   5.043 -0.7345  0.7668  0.8795
 3439TIP3    H210324   5.851   0.749   5.060 -1.2402  0.8021 -0.1015
 3440TIP3   OH210325   3.890   3.552   3.879 -0.0795 -0.4479  0.3471
 3440TIP3    H110326   3.816   3.492   3.880  0.1038 -0.7128 -0.7098
 3440TIP3    H210327   3.879   3.606   3.957 -1.4963 -0.3594  0.1063
 3441TIP3   OH210328   1.474   4.828   1.016 -0.2222 -0.3995 -0.3094
 3441TIP3    H110329   1.552   4.772   1.015 -0.7816 -1.1920 -1.2741
 3441TIP3    H210330   1.410   4.781   0.962 -1.5973 -0.0920  0.9820
 3442TIP3   OH210331   4.175   1.496   1.270 -0.3185 -0.4767 -0.0290
 3442TIP3    H110332   4.230   1.570   1.243  2.1859 -2.0297  0.5726
 3442TIP3    H210333   4.229   1.445   1.330 -2.4070 -2.1800  0.5470
 3443TIP3   OH210334   1.991   4.348   3.653 -0.1664  0.5720 -0.5538
 3443TIP3    H110335   1.959   4.378   3.568 -0.9697  0.1273 -0.4237
 3443TIP3    H210336   1.957   4.259   3.661  0.1778  0.4953  0.0885
 3444TIP3   OH210337   5.035   0.909   4.572 -0.3153 -0.4872  0.0517
 3444TIP3    H110338   5.122   0.875   4.553  0.3213  1.1653 -0.0889
 3444TIP3    H210339   5.004   0.856   4.645  1.0875 -0.6531  0.5559
 3445TIP3   OH210340   4.984   4.933   2.344  0.5927 -0.4491 -0.0391
 3445TIP3    H110341   4.972   4.991   2.419 -0.8536 -1.7437  0.7785
 3445TIP3    H210342   5.053   4.975   2.292 -0.4717  2.0488  0.4347
 3446TIP3   OH210343   3.731   4.796   3.344 -0.6287 -0.1878 -0.6780
 3446TIP3    H110344   3.688   4.712   3.326  0.0891 -0.3935 -1.5115
 3446TIP3    H210345   3.746   4.795   3.439  0.6273 -1.6517 -0.8482
 3447TIP3   OH210346   4.019   3.737   4.434 -0.1222  0.1094  0.0948
 3447TIP3    H110347   4.008   3.642   4.430  1.1061 -0.0413 -0.2419
 3447TIP3    H210348   4.030   3.764   4.343 -0.2108  0.5484  0.2093
 3448TIP3   OH210349   0.825   2.110   4.401  0.5715  0.6097 -0.3049
 3448TIP3    H110350   0.791   2.066   4.323  0.7677 -1.0171  0.4861
 3448TIP3    H210351   0.757   2.096   4.467  1.1486  0.5055  0.2755
 3449TIP3   OH210352   0.538   1.570   0.832 -0.2878  0.5462  0.1435
 3449TIP3    H110353   0.604   1.501   0.844 -1.2189 -0.2502  0.8732
 3449TIP3    H210354   0.565   1.615   0.752  1.9100  1.1518  1.1576
 3450TIP3   OH210355   0.361   3.459   0.850  0.1483 -0.3108 -0.6838
 3450TIP3    H110356   0.352   3.449   0.945 -0.3829 -1.4177 -0.8437
 3450TIP3    H210357   0.320   3.381   0.813 -0.0609  0.3256 -1.8490
 3451TIP3   OH210358   1.184   2.035   2.284 -0.2687  0.2395  0.1946
 3451TIP3    H110359   1.190   2.116   2.334  1.5095  0.9987 -1.1079
 3451TIP3    H210360   1.229   2.055   2.201 -1.0689 -1.6388 -0.7622
 3452TIP3   OH210361   1.493   4.479   0.439 -0.1060 -0.1059  0.0411
 3452TIP3    H110362   1.464   4.565   0.410  0.3243  0.2200  0.5652
 3452TIP3    H210363   1.579   4.468   0.398  0.0503 -0.0822  0.3633
 3453TIP3   OH210364   1.542   5.745   4.721 -0.3192 -0.3809  0.0380
 3453TIP3    H110365   1.527   5.770   4.812  1.1163 -1.0780  0.4940
 3453TIP3    H210366   1.498   5.661   4.710  0.9098 -1.1203  0.5975
 3454TIP3   OH210367   0.514   4.920   2.095  0.3263  0.1471  0.3242
 3454TIP3    H110368   0.600   4.891   2.124  0.4023  0.8133  0.7847
 3454TIP3    H210369   0.453   4.885   2.161 -0.2495 -3.4216 -1.8359
 3455TIP3   OH210370   5.560   1.766   4.793 -0.5355 -0.3495 -0.2666
 3455TIP3    H110371   5.506   1.691   4.765  0.8340 -1.3092 -0.4201
 3455TIP3    H210372   5.568   1.820   4.714 -0.7609 -0.5136 -0.4055
 3456TIP3   OH210373   1.068   1.153   1.669 -0.0616  0.1972 -0.2087
 3456TIP3    H110374   1.126   1.215   1.625  3.1812 -2.7438 -0.5566
 3456TIP3    H210375   0.999   1.135   1.605 -1.3941  3.6050  0.0964
 3457TIP3   OH210376   0.228   5.545   0.508 -0.3730 -0.3284 -0.0622
 3457TIP3    H110377   0.202   5.530   0.599 -0.9096  0.1932 -0.1222
 3457TIP3    H210378   0.147   5.571   0.464 -0.5226 -2.4484 -1.1450
 3458TIP3   OH210379   5.632   4.960   0.182  0.0502  0.3462  0.2814
 3458TIP3    H110380   5.631   5.051   0.153 -1.2622  0.4257  0.5318
 3458TIP3    H210381   5.566   4.955   0.251  0.9684 -0.5289  1.1490
 3459TIP3   OH210382   1.411   4.064   3.982  0.2784 -0.4622  0.0111
 3459TIP3    H110383   1.351   4.034   3.914  0.0143  0.6462 -0.2629
 3459TIP3    H210384   1.389   4.011   4.059 -1.4796  0.3170  0.0916
 3460TIP3   OH210385   5.212   0.848   5.147  0.1016  0.3952  0.1833
 3460TIP3    H110386   5.302   0.825   5.122 -0.0458  0.2877 -0.2565
 3460TIP3    H210387   5.179   0.770   5.191 -0.4482 -0.3301 -1.4376
 3461TIP3   OH210388   3.904   2.655   2.122  0.0170 -0.1106  0.3663
 3461TIP3    H110389   3.951   2.738   2.108 -0.2013  0.0740  0.7115
 3461TIP3    H210390   3.883   2.655   2.215  2.2409 -1.7567  0.9259
 3462TIP3   OH210391   4.133   2.707   3.350  0.0730 -0.6651 -0.3923
 3462TIP3    H110392   4.062   2.705   3.286  0.0623  0.9552 -0.4731
 3462TIP3    H210393   4.208   2.741   3.301  0.2272  0.0152  0.3083
 3463TIP3   OH210394   2.096   5.690   2.800 -0.2869  0.3494 -0.3122
 3463TIP3    H110395   2.036   5.718   2.731 -0.2329  0.4702 -0.3103
 3463TIP3    H210396   2.180   5.730   2.777 -1.2199  4.3894  2.2656
 3464TIP3   OH210397   3.106   4.976   5.032  0.4584  0.1266 -0.0920
 3464TIP3    H110398   3.118   4.908   5.098  2.4977 -0.0844 -0.5932
 3464TIP3    H210399   3.075   4.928   4.955 -1.1101  0.2516  0.4380
 3465TIP3   OH210400   1.906   0.163   0.149  0.0817 -0.1072 -0.0889
 3465TIP3    H110401   1.834   0.104   0.128 -0.4591  0.6105 -0.2861
 3465TIP3    H210402   1.919   0.215   0.070  0.7257 -0.1364 -0.0086
 3466TIP3   OH210403   1.596   0.072   4.990 -0.5808 -0.0482  0.1802
 3466TIP3    H110404   1.679   0.056   5.034 -0.4255 -0.4331 -0.2411
 3466TIP3    H210405   1.592   0.167   4.978 -0.8898  0.1250  1.5215
 3467TIP3   OH210406   5.140   4.162   1.959  0.1809 -0.7719  0.5153
 3467TIP3    H110407   5.163   4.230   1.897  0.8395 -0.5546  0.9901
 3467TIP3    H210408   5.095   4.208   2.030  1.4872 -0.6579  1.3104
 3468TIP3   OH210409   6.069   0.452   1.172  0.7573  0.4733  0.2168
 3468TIP3    H110410   6.072   0.408   1.257 -0.4802  0.3525  0.2208
 3468TIP3    H210411   6.008   0.400   1.120  1.4277  0.6104 -0.7164
 3469TIP3   OH210412   1.044   0.315   3.782 -0.2395 -0.4723 -0.1852
 3469TIP3    H110413   0.953   0.340   3.794 -0.6147 -1.6641 -0.4007
 3469TIP3    H210414   1.078   0.376   3.717 -0.5849  0.6282  0.6538
 3470TIP3   OH210415   0.605   4.772   3.105 -0.3781  0.1198  0.0209
 3470TIP3    H110416   0.604   4.728   3.020 -0.0150  0.2014 -0.0299
 3470TIP3    H210417   0.561   4.855   3.091 -1.0758 -0.2272  0.1182
 3471TIP3   OH210418   3.475   5.104   3.579 -0.2398  0.1697 -0.5123
 3471TIP3    H110419   3.570   5.105   3.576 -0.2595  0.1746 -1.7456
 3471TIP3    H210420   3.450   5.197   3.576 -0.2770  0.4303  3.2240
 3472TIP3   OH210421   3.770   5.389   1.639  0.0952 -0.4366  0.1008
 3472TIP3    H110422   3.797   5.480   1.629  0.2412 -0.6536 -1.9089
 3472TIP3    H210423   3.676   5.394   1.658  0.1505  0.1247  0.2418
 3473TIP3   OH210424   1.539   1.219   0.931 -0.5768 -1.1502 -0.5085
 3473TIP3    H110425   1.537   1.171   1.013  2.3515  0.6569  0.7957
 3473TIP3    H210426   1.578   1.159   0.868 -0.0270 -1.5693  0.2230
 3474TIP3   OH210427   2.136   3.506   4.607 -0.0312  0.1468 -0.5401
 3474TIP3    H110428   2.062   3.534   4.554  0.1075 -0.5631 -1.1110
 3474TIP3    H210429   2.098   3.486   4.693 -0.5393 -0.4052 -0.8883
 3475TIP3   OH210430   5.048   2.203   0.452 -0.0828  0.2657 -0.0118
 3475TIP3    H110431   5.068   2.279   0.398 -0.3598  0.4579  0.1519
 3475TIP3    H210432   5.113   2.138   0.427  0.9785  0.9967  0.7677
 3476TIP3   OH210433   4.717   3.656   4.862 -0.1623  0.0543 -0.1088
 3476TIP3    H110434   4.683   3.742   4.885 -0.7017 -0.4932  1.2658
 3476TIP3    H210435   4.778   3.672   4.790 -2.3776  1.2544 -1.8771
 3477TIP3   OH210436   6.137   1.737   3.585 -0.1110 -0.8762 -0.3992
 3477TIP3    H110437   6.217   1.691   3.563 -0.8703 -2.3781 -0.1505
 3477TIP3    H210438   6.123   1.798   3.512  1.3177 -0.4592 -0.3504
 3478TIP3   OH210439   1.416   3.563   3.216 -0.0430  0.0141 -0.2614
 3478TIP3    H110440   1.324   3.557   3.243  0.1459 -0.1473  0.3702
 3478TIP3    H210441   1.447   3.473   3.218  0.0949  0.0544 -0.6042
 3479TIP3   OH210442   2.465   3.292   1.292  0.4085  0.3647 -0.3610
 3479TIP3    H110443   2.409   3.270   1.218 -0.4908  0.2970  0.3251
 3479TIP3    H210444   2.481   3.386   1.282  0.5572  0.2963 -0.8105
 3480TIP3   OH210445   5.702   4.868   3.389 -0.0125 -0.1764 -0.0927
 3480TIP3    H110446   5.657   4.826   3.462  0.4242  1.0733  0.9415
 3480TIP3    H210447   5.768   4.923   3.431  0.8509 -0.1127 -1.4780
 3481TIP3   OH210448   0.206   0.700   4.450 -0.0098 -0.6055 -0.4402
 3481TIP3    H110449   0.274   0.645   4.488  1.4965  1.3292 -0.1302
 3481TIP3    H210450   0.183   0.761   4.521  0.4943  0.9667 -1.5631
 3482TIP3   OH210451   0.984   1.967   2.714 -0.3567  0.3288 -0.8791
 3482TIP3    H110452   0.964   2.040   2.657  1.6612  0.4110 -1.5746
 3482TIP3    H210453   1.060   1.925   2.673 -0.1075 -0.8214  0.6680
 3483TIP3   OH210454   5.080   0.068   2.950  0.2035  0.0756  0.2646
 3483TIP3    H110455   5.044  -0.003   2.897  0.6524  0.2549 -0.2908
 3483TIP3    H210456   5.110   0.025   3.030  0.0209 -0.2830  0.1449
 3484TIP3   OH210457   4.981   5.931   3.444 -0.1410  0.1606 -0.1514
 3484TIP3    H110458   5.074   5.953   3.451  0.0270 -0.6322  0.1976
 3484TIP3    H210459   4.956   5.960   3.356  0.5913 -0.1786 -0.4745
 3485TIP3   OH210460   1.905   1.632   4.687 -0.9193 -0.1724 -0.0812
 3485TIP3    H110461   1.836   1.603   4.627 -0.0526 -1.3235 -0.5557
 3485TIP3    H210462   1.972   1.670   4.629 -0.3449 -0.7356  0.2130
 3486TIP3   OH210463   1.622   4.985   5.070 -0.4224  0.1043  0.3713
 3486TIP3    H110464   1.666   5.062   5.106  2.1829 -1.5446  1.0398
 3486TIP3    H210465   1.556   4.962   5.136  1.3543 -0.3730  2.0665
 3487TIP3   OH210466   1.252   5.775   0.365 -0.1186  0.1310  0.3268
 3487TIP3    H110467   1.196   5.852   0.362 -0.5063 -0.1331  0.6372
 3487TIP3    H210468   1.207   5.715   0.426  1.7863  0.9199  2.6790
 3488TIP3   OH210469   5.903   3.817   2.724  0.7091 -0.0764 -0.4911
 3488TIP3    H110470   5.997   3.799   2.719  0.6439 -0.6836  0.2392
 3488TIP3    H210471   5.896   3.912   2.715  1.5160  0.1363  0.8067
 3489TIP3   OH210472   2.272   0.925   4.419 -0.5302  0.2822 -0.2831
 3489TIP3    H110473   2.208   0.996   4.411  0.5952  1.1392 -2.3906
 3489TIP3    H210474   2.323   0.929   4.338  0.5294 -2.0205  0.1956
 3490TIP3   OH210475   2.120   1.033   3.479  0.2231  0.4965  0.3020
 3490TIP3    H110476   2.169   1.043   3.560  0.3108  0.8856  0.2064
 3490TIP3    H210477   2.095   0.941   3.476  1.4057  0.1642  0.0865
 3491TIP3   OH210478   0.775   4.556   4.220 -0.1420 -0.4503 -0.4752
 3491TIP3    H110479   0.859   4.510   4.217 -0.5909 -1.3983  0.8869
 3491TIP3    H210480   0.760   4.574   4.312 -1.2471  0.0871 -0.7419
 3492TIP3   OH210481   2.943   1.417   3.999  0.1159 -0.1421 -0.1679
 3492TIP3    H110482   2.916   1.341   4.052  0.3542 -0.8180 -0.9894
 3492TIP3    H210483   3.035   1.430   4.023 -0.1471  0.4150  0.5788
 3493TIP3   OH210484   1.631   3.397   0.300  0.3227 -0.2420  0.3762
 3493TIP3    H110485   1.579   3.439   0.368  3.4959  1.5744  1.9340
 3493TIP3    H210486   1.683   3.467   0.262  0.9223 -1.7558 -1.7942
 3494TIP3   OH210487   1.983   0.231   4.908 -0.1055  0.4955  0.1360
 3494TIP3    H110488   1.940   0.149   4.934 -0.1770  0.9395  1.5057
 3494TIP3    H210489   1.913   0.296   4.913  0.3437  0.9377  0.7809
 3495TIP3   OH210490   1.294   4.634   1.799  0.3082 -0.2240 -0.4370
 3495TIP3    H110491   1.333   4.547   1.803  1.4150  0.3001  2.1327
 3495TIP3    H210492   1.330   4.673   1.719  1.2594 -1.4719 -0.6441
 3496TIP3   OH210493   5.735   0.669   3.139 -0.1492  0.1791 -0.2570
 3496TIP3    H110494   5.780   0.633   3.215  0.3386  0.5123 -0.3819
 3496TIP3    H210495   5.705   0.592   3.090  1.5128 -0.0864 -0.9053
 3497TIP3   OH210496   1.421   4.751   0.380 -0.4037  0.9551  0.1284
 3497TIP3    H110497   1.351   4.815   0.396 -0.0377  1.5568 -0.5966
 3497TIP3    H210498   1.468   4.786   0.304  0.9292  0.7787  0.8378
 3498TIP3   OH210499   4.887   1.296   4.824  0.4056 -0.1778  0.1913
 3498TIP3    H110500   4.943   1.358   4.777  0.0849  1.1097  1.4390
 3498TIP3    H210501   4.931   1.282   4.908  0.8273 -2.2205 -0.3103
 3499TIP3   OH210502   0.682   3.495   2.254  0.9961 -0.0768  0.0518
 3499TIP3    H110503   0.599   3.537   2.229  0.3639 -0.2254  1.7228
 3499TIP3    H210504   0.733   3.492   2.173 -0.5275  0.2586 -0.9739
 3500TIP3   OH210505   2.083   3.227   1.251  0.0369 -0.4526  0.2101
 3500TIP3    H110506   1.996   3.188   1.245 -0.1220 -0.1089  0.2681
 3500TIP3    H210507   2.137   3.157   1.289 -0.2287 -0.6395  0.2517
 3501TIP3   OH210508   0.438   0.018   2.132 -0.2456 -0.0163 -0.1952
 3501TIP3    H110509   0.379   0.038   2.205 -0.1261  1.8608 -0.5545
 3501TIP3    H210510   0.484   0.101   2.116  1.4543 -1.0419 -0.8578
 3502TIP3   OH210511   5.310   4.780   4.032 -0.1875 -0.3617 -0.3801
 3502TIP3    H110512   5.272   4.788   3.945 -1.3826  1.3132  0.2470
 3502TIP3    H210513   5.319   4.686   4.046 -1.5926 -0.7031 -1.6237
 3503TIP3   OH210514   1.344   1.955   4.435 -0.1394 -0.0581 -0.3278
 3503TIP3    H110515   1.300   2.006   4.367 -0.8525 -0.4932 -0.2005
 3503TIP3    H210516   1.369   1.873   4.392 -1.9315 -0.9731  0.2881
 3504TIP3   OH210517   4.722   4.718   2.901 -0.2088 -0.1980 -0.1150
 3504TIP3    H110518   4.644   4.744   2.950  0.3009  0.4707  0.3493
 3504TIP3    H210519   4.698   4.734   2.809 -0.7964 -0.4818 -0.0182
 3505TIP3   OH210520   3.069   2.334   0.364  0.3655  0.7090 -0.2976
 3505TIP3    H110521   3.121   2.344   0.283  1.6778 -0.7096  0.3169
 3505TIP3    H210522   2.982   2.310   0.334  1.0745 -0.7640 -1.3235
 3506TIP3   OH210523   2.364   0.770   0.692  0.0280 -0.2618  0.3728
 3506TIP3    H110524   2.295   0.733   0.747 -0.3805  2.1253  1.6548
 3506TIP3    H210525   2.327   0.772   0.604 -0.0303 -2.4610  0.3012
 3507TIP3   OH210526   1.021   4.150   3.626  0.2253  0.1406  0.0176
 3507TIP3    H110527   0.975   4.113   3.701  0.6743 -1.3386 -0.4068
 3507TIP3    H210528   1.114   4.133   3.644  0.3554  0.0090 -0.7433
 3508TIP3   OH210529   0.248   2.678   3.795 -0.2423  0.0683  0.0262
 3508TIP3    H110530   0.157   2.664   3.821  0.5898  2.1149  4.9806
 3508TIP3    H210531   0.292   2.596   3.816 -0.0613  0.8814  3.2298
 3509TIP3   OH210532   3.827   5.643   3.210 -0.0675 -0.5426  0.1374
 3509TIP3    H110533   3.773   5.609   3.281  0.8690 -0.4666  0.9040
 3509TIP3    H210534   3.833   5.737   3.228  3.0904 -0.9829  2.0612
 3510TIP3   OH210535   4.551   5.638   5.098  0.3350  0.4362  0.2666
 3510TIP3    H110536   4.496   5.647   5.176  0.5114 -0.0761  0.4521
 3510TIP3    H210537   4.638   5.668   5.127  0.3306  0.5299  0.1831
 3511TIP3   OH210538   3.879   5.151   2.357 -0.4822 -0.0942  0.2598
 3511TIP3    H110539   3.810   5.218   2.362 -0.9885 -0.4118 -1.5564
 3511TIP3    H210540   3.957   5.200   2.330 -0.5693 -0.0629  0.0604
 3512TIP3   OH210541   4.731   5.134   2.449  0.0967 -0.1140 -0.2565
 3512TIP3    H110542   4.681   5.216   2.446 -1.5585 -1.0208  1.0368
 3512TIP3    H210543   4.665   5.065   2.446  1.4925 -1.4924 -2.3406
 3513TIP3   OH210544   1.010   1.131   1.201  0.0888 -0.0009  0.2688
 3513TIP3    H110545   0.959   1.157   1.124 -0.8121  1.7895  1.3881
 3513TIP3    H210546   0.974   1.046   1.226 -0.8703  0.2328 -0.2419
 3514TIP3   OH210547   6.174   4.474   3.160  0.0125  0.4624 -0.2467
 3514TIP3    H110548   6.079   4.476   3.154 -0.1524 -1.7624  0.5339
 3514TIP3    H210549   6.198   4.387   3.127  1.5943  0.2375  1.3457
 3515TIP3   OH210550   1.826   4.877   0.896  0.4509  0.1349 -0.2595
 3515TIP3    H110551   1.829   4.897   0.990 -0.4534  0.2753 -0.2530
 3515TIP3    H210552   1.792   4.956   0.856  0.3777 -0.0977 -0.6566
 3516TIP3   OH210553   4.329   3.121   1.779  0.6940 -0.7078 -0.3189
 3516TIP3    H110554   4.319   3.041   1.727  1.1120 -0.1956 -1.2207
 3516TIP3    H210555   4.420   3.148   1.764  0.2356  0.5762 -1.0098
 3517TIP3   OH210556   2.741   2.822   2.245  0.0021 -0.6808 -0.2095
 3517TIP3    H110557   2.820   2.801   2.294 -0.4212 -0.6536  0.5074
 3517TIP3    H210558   2.698   2.737   2.231 -0.3409 -0.5936  0.2887
 3518TIP3   OH210559   3.574   1.263   3.930 -0.1159 -0.3894  0.5173
 3518TIP3    H110560   3.559   1.343   3.980 -0.8814 -0.7339  0.8574
 3518TIP3    H210561   3.550   1.285   3.840  0.2320 -0.0800  0.4946
 3519TIP3   OH210562   1.555   2.945   0.376 -0.4645  0.1957  0.4396
 3519TIP3    H110563   1.465   2.921   0.397  0.2779 -1.8906  1.5514
 3519TIP3    H210564   1.575   2.898   0.295 -0.4380  0.8759  0.0411
 3520TIP3   OH210565   5.694   2.438   1.539 -0.5357  0.4310 -0.1409
 3520TIP3    H110566   5.732   2.515   1.582  0.0033  1.5881 -2.5414
 3520TIP3    H210567   5.728   2.363   1.588  0.1669  1.6625  1.3074
 3521TIP3   OH210568   3.540   2.980   1.663 -0.2605 -0.4475  0.1803
 3521TIP3    H110569   3.491   2.991   1.744 -0.1226 -0.3093  0.2442
 3521TIP3    H210570   3.483   2.926   1.608 -1.0189  0.7158 -0.2013
 3522TIP3   OH210571   2.900   0.844   2.658  0.7937  0.1205  0.0903
 3522TIP3    H110572   2.861   0.903   2.721 -1.4299 -0.3540 -0.7407
 3522TIP3    H210573   2.952   0.901   2.601 -0.3596  1.1273 -0.0019
 3523TIP3   OH210574   0.111   5.274   2.551 -0.6765  0.7476 -0.0934
 3523TIP3    H110575   0.188   5.327   2.530  0.5648  0.2243  2.6356
 3523TIP3    H210576   0.052   5.335   2.596 -0.9029  0.6646 -0.2792
 3524TIP3   OH210577   3.947   4.969   4.135  0.3384  0.2383 -0.6829
 3524TIP3    H110578   3.963   5.050   4.088 -0.6816  0.7315 -0.2102
 3524TIP3    H210579   3.856   4.947   4.116  0.2268 -0.1204  0.1914
 3525TIP3   OH210580   3.886   1.764   0.257 -0.0910  0.7295 -0.1340
 3525TIP3    H110581   3.973   1.726   0.255 -0.3543  0.1455 -1.1465
 3525TIP3    H210582   3.885   1.819   0.335  0.2137 -1.5101  1.5207
 3526TIP3   OH210583   3.292   3.610   4.051 -0.2773  0.1787 -0.1423
 3526TIP3    H110584   3.198   3.622   4.043 -0.4060  0.1599  1.0931
 3526TIP3    H210585   3.302   3.549   4.124  0.7030  0.6094  0.1049
 3527TIP3   OH210586   4.267   4.163   0.224 -0.1961 -0.1641 -0.0558
 3527TIP3    H110587   4.213   4.233   0.261  1.6542  1.4116 -0.1980
 3527TIP3    H210588   4.253   4.170   0.129  1.1816  1.1047 -0.1971
 3528TIP3   OH210589   3.510   2.544   1.407  0.1458  0.3305 -0.2955
 3528TIP3    H110590   3.586   2.587   1.366 -0.2862  1.0839 -0.3123
 3528TIP3    H210591   3.442   2.546   1.340  0.2949 -0.9135 -0.5047
 3529TIP3   OH210592   5.224   3.311   2.620 -0.1281  0.3348 -0.3145
 3529TIP3    H110593   5.298   3.328   2.677 -0.1687  1.8512 -0.6713
 3529TIP3    H210594   5.161   3.265   2.675  1.2373 -1.4172 -0.1427
 3530TIP3   OH210595   5.630   2.830   0.335  0.6612  0.2119  0.3986
 3530TIP3    H110596   5.590   2.875   0.410 -0.7211  0.3369 -0.3896
 3530TIP3    H210597   5.651   2.743   0.369 -2.9924 -0.9505  0.1619
 3531TIP3   OH210598   0.018   0.616   2.347  0.0277 -0.7279 -0.2855
 3531TIP3    H110599   0.029   0.637   2.440  1.4830 -0.9611 -0.3784
 3531TIP3    H210600   0.080   0.545   2.332 -1.8454 -2.2950 -0.9291
 3532TIP3   OH210601   2.825   4.450   3.345  0.3085  0.0613  0.4606
 3532TIP3    H110602   2.780   4.369   3.370 -1.9071  1.0515 -0.0687
 3532TIP3    H210603   2.853   4.435   3.255 -0.5868  0.0600  0.1753
 3533TIP3   OH210604   0.769   2.088   0.625  0.4311  0.5698 -0.0761
 3533TIP3    H110605   0.845   2.114   0.677  0.2004  0.2299  0.4391
 3533TIP3    H210606   0.725   2.171   0.605 -0.2468  0.6184  1.4781
 3534TIP3   OH210607   3.994   0.250   1.611 -0.3099 -0.4602 -0.6358
 3534TIP3    H110608   4.069   0.302   1.583 -0.6283 -0.0280 -0.6981
 3534TIP3    H210609   3.923   0.276   1.552 -0.6181 -0.5647 -0.3152
 3535TIP3   OH210610   0.093   4.800   4.083 -0.1688 -0.0628 -0.2397
 3535TIP3    H110611   0.003   4.801   4.049  0.1365 -0.3289 -1.0736
 3535TIP3    H210612   0.139   4.737   4.027  1.1506  1.8282 -1.4104
 3536TIP3   OH210613   3.946   1.791   2.707  0.1892 -0.5672 -0.0582
 3536TIP3    H110614   3.852   1.807   2.698  0.2317  0.2678  0.8741
 3536TIP3    H210615   3.955   1.748   2.792  0.8231  1.1369  0.7857
 3537TIP3   OH210616   5.489   4.057   1.529  0.3740  0.9690  0.1192
 3537TIP3    H110617   5.397   4.069   1.554 -0.2735 -1.0891 -1.0703
 3537TIP3    H210618   5.497   4.102   1.445 -0.9090 -2.6612 -2.1651
 3538TIP3   OH210619   1.234   2.839   1.858 -0.4959 -0.5603 -0.1956
 3538TIP3    H110620   1.202   2.929   1.862 -1.7878 -0.9960  0.1392
 3538TIP3    H210621   1.306   2.841   1.796 -0.3200  0.7550  0.0232
 3539TIP3   OH210622   4.898   0.679   4.764  0.0790 -0.2079 -0.4048
 3539TIP3    H110623   4.825   0.716   4.814  1.2442  2.5463 -0.5491
 3539TIP3    H210624   4.946   0.626   4.827  1.7019  3.3997  1.7658
 3540TIP3   OH210625   6.020   0.784   4.786 -0.2290 -0.2262 -0.5479
 3540TIP3    H110626   5.943   0.752   4.834 -1.0988 -0.4668 -2.0419
 3540TIP3    H210627   6.075   0.706   4.775 -0.4443 -0.3593 -0.6989
 3541TIP3   OH210628   3.780   1.484   4.718 -0.4992 -0.5553  0.0629
 3541TIP3    H110629   3.817   1.396   4.732  0.2336 -0.4710 -1.1757
 3541TIP3    H210630   3.758   1.515   4.805  1.5816 -0.9713  0.7939
 3542TIP3   OH210631   0.049   4.621   2.196  0.2223  0.4688  0.1370
 3542TIP3    H110632   0.042   4.713   2.172 -0.5049  0.1657 -0.9003
 3542TIP3    H210633   0.117   4.586   2.139  0.5754  0.3884  0.6064
 3543TIP3   OH210634   4.510   4.689   5.053 -0.3572  0.2178 -0.4968
 3543TIP3    H110635   4.571   4.724   4.988  2.0136 -0.0046  1.4771
 3543TIP3    H210636   4.436   4.658   5.001  0.1253  2.5787 -2.8291
 3544TIP3   OH210637   4.523   4.804   0.407  0.0002 -0.3087 -0.4528
 3544TIP3    H110638   4.526   4.818   0.502 -1.3636 -2.0793 -0.0938
 3544TIP3    H210639   4.430   4.805   0.386  0.3251  1.3274 -2.0367
 3545TIP3   OH210640   2.423   4.084   1.199  0.1950  0.2468 -0.2318
 3545TIP3    H110641   2.477   4.164   1.201  0.8236 -0.1776  1.1314
 3545TIP3    H210642   2.420   4.059   1.107  2.2549  0.3604 -0.3743
 3546TIP3   OH210643   1.146   1.658   4.909 -0.0256 -0.5683 -0.2128
 3546TIP3    H110644   1.162   1.657   4.815 -0.6362 -0.8382 -0.3217
 3546TIP3    H210645   1.231   1.677   4.948 -0.1850  1.8405 -0.8944
 3547TIP3   OH210646   2.270   0.625   3.886 -0.0608  0.4035  0.4927
 3547TIP3    H110647   2.223   0.704   3.915 -0.0328  0.7534 -0.3656
 3547TIP3    H210648   2.349   0.659   3.844  0.0707 -0.0918  0.3399
 3548TIP3   OH210649   4.178   0.010   3.747 -0.3923 -0.2337  0.3435
 3548TIP3    H110650   4.135   0.019   3.662 -3.2363  1.1856  1.8091
 3548TIP3    H210651   4.183   0.099   3.781  1.0845 -0.7233  1.5457
 3549TIP3   OH210652   5.507   4.340   3.897  0.2251 -0.3194  0.1656
 3549TIP3    H110653   5.465   4.256   3.879  2.8753 -2.1755  1.8438
 3549TIP3    H210654   5.592   4.333   3.853  0.0895  1.9960 -0.5593
 3550TIP3   OH210655   5.622   0.333   2.307  0.3414  0.1492 -0.2368
 3550TIP3    H110656   5.687   0.363   2.243  1.1396  1.9197  1.3270
 3550TIP3    H210657   5.659   0.253   2.344 -0.1704 -0.9521 -1.9766
 3551TIP3   OH210658   2.241   3.065   0.825  0.5600 -0.0635  0.4163
 3551TIP3    H110659   2.335   3.078   0.814  0.4485  0.1655 -0.2789
 3551TIP3    H210660   2.215   3.013   0.749  0.0769  0.0799  0.4818
 3552TIP3   OH210661   1.136   4.262   4.446  0.4554  0.3533  0.1990
 3552TIP3    H110662   1.066   4.317   4.482  0.1572  1.8064 -2.3258
 3552TIP3    H210663   1.216   4.313   4.458  0.3804  0.7632 -0.9379
 3553TIP3   OH210664   2.468   3.718   2.145  0.1010 -0.0856 -0.1582
 3553TIP3    H110665   2.509   3.684   2.225 -0.1916  3.5894  1.7577
 3553TIP3    H210666   2.541   3.750   2.093  0.2228 -1.7905 -1.1313
 3554TIP3   OH210667   4.698   0.138   1.153 -0.1003  0.6506  0.5463
 3554TIP3    H110668   4.720   0.069   1.090  0.6882  1.4407 -0.0750
 3554TIP3    H210669   4.696   0.093   1.237 -0.8564 -0.3709  0.0130
 3555TIP3   OH210670   6.003   5.132   3.668  0.0033  0.6704 -0.5782
 3555TIP3    H110671   5.965   5.183   3.739 -1.6344  1.1602 -1.7540
 3555TIP3    H210672   5.962   5.046   3.675  0.0053  0.6509 -0.7930
 3556TIP3   OH210673   2.154   5.735   0.097 -0.2923 -0.5192  0.1748
 3556TIP3    H110674   2.200   5.662   0.137 -0.0239 -0.5415 -0.1656
 3556TIP3    H210675   2.081   5.754   0.156 -0.2409 -0.9265  0.3684
 3557TIP3   OH210676   1.326   0.426   3.946 -0.7577  0.6127 -0.3729
 3557TIP3    H110677   1.386   0.360   3.911  0.8656  1.4250  0.7315
 3557TIP3    H210678   1.251   0.426   3.886  0.1650 -0.7288 -1.5727
 3558TIP3   OH210679   4.538   4.461   3.430  0.4053 -0.1568 -0.0407
 3558TIP3    H110680   4.544   4.512   3.511 -0.0871 -0.8976  0.4692
 3558TIP3    H210681   4.531   4.370   3.460 -0.7204 -0.3617 -0.8947
 3559TIP3   OH210682   5.640   1.865   2.975  0.2113  0.7222 -0.0894
 3559TIP3    H110683   5.703   1.802   2.940  0.2554 -1.0582  2.8407
 3559TIP3    H210684   5.686   1.949   2.971  1.7065 -0.0796 -0.5443
 3560TIP3   OH210685   2.707   1.924   2.674  0.1495 -0.4021 -0.1892
 3560TIP3    H110686   2.708   1.898   2.581  2.4355 -1.1930 -0.0037
 3560TIP3    H210687   2.743   2.012   2.675 -0.0869 -0.3061 -0.0602
 3561TIP3   OH210688   4.748   4.325   2.079 -0.8413  0.6157 -0.0242
 3561TIP3    H110689   4.835   4.350   2.047 -0.5859  0.2351  0.3681
 3561TIP3    H210690   4.728   4.390   2.147  0.0310 -0.4941  1.3358
 3562TIP3   OH210691   3.214   0.034   3.260  0.0146 -0.5029 -0.0111
 3562TIP3    H110692   3.147   0.024   3.328 -1.5897  0.1881 -1.3904
 3562TIP3    H210693   3.208   0.126   3.235  0.8778 -0.6441 -0.7881
 3563TIP3   OH210694   4.155   3.920   0.335  0.2679  0.0437  0.3994
 3563TIP3    H110695   4.204   4.002   0.327  0.3881  0.1715  2.1973
 3563TIP3    H210696   4.065   3.943   0.313  0.6482  0.1768 -1.1856
 3564TIP3   OH210697   3.812   5.154   2.723  0.1757  0.3235 -0.2937
 3564TIP3    H110698   3.746   5.143   2.791  0.8923  2.5910  0.8806
 3564TIP3    H210699   3.768   5.204   2.654 -0.7605 -2.5555 -1.9740
 3565TIP3   OH210700   4.675   2.552   2.842  0.0147  0.1166  0.0572
 3565TIP3    H110701   4.608   2.483   2.844  1.3921 -1.2834  0.2588
 3565TIP3    H210702   4.682   2.576   2.749 -0.7535  0.2809  0.0347
 3566TIP3   OH210703   4.126   5.248   1.957  0.1726  0.4153 -0.0785
 3566TIP3    H110704   4.174   5.173   1.991 -0.4242  0.4010  0.7761
 3566TIP3    H210705   4.045   5.211   1.923 -0.2370  0.6894  0.5786
 3567TIP3   OH210706   3.970   0.202   3.093  1.0385 -0.0931 -0.6326
 3567TIP3    H110707   4.013   0.188   3.009  2.5167  0.0677  0.0577
 3567TIP3    H210708   3.876   0.197   3.074  1.3554 -1.9737 -1.9359
 3568TIP3   OH210709   4.979   4.652   4.065  0.7835  0.0981 -0.3388
 3568TIP3    H110710   4.886   4.637   4.084  0.3658  0.4139 -1.9450
 3568TIP3    H210711   5.026   4.597   4.127 -0.4304  0.8683  1.3585
 3569TIP3   OH210712   5.693   5.454   4.455  0.1726 -0.5626  0.2672
 3569TIP3    H110713   5.768   5.492   4.409  0.0319  0.3166  0.7417
 3569TIP3    H210714   5.620   5.463   4.394  0.2637 -0.5906  0.1536
 3570TIP3   OH210715   0.470   1.572   2.574  0.2497  0.0278 -0.0824
 3570TIP3    H110716   0.500   1.490   2.615  2.7916  0.7368 -0.3489
 3570TIP3    H210717   0.399   1.602   2.630  0.3287 -1.5440  0.9339
 3571TIP3   OH210718   5.175   2.816   1.842 -0.1088 -0.0281 -0.2922
 3571TIP3    H110719   5.241   2.885   1.852  0.5786 -0.5354 -1.1612
 3571TIP3    H210720   5.115   2.849   1.776 -0.2101  0.0553 -0.1584
 3572TIP3   OH210721   0.630   0.556   0.092 -0.1333  0.1643  0.0299
 3572TIP3    H110722   0.663   0.541   0.181  1.6558  2.7966 -0.0764
 3572TIP3    H210723   0.707   0.546   0.036 -0.8909  0.1481 -1.0470
 3573TIP3   OH210724   1.326   4.079   0.582  0.9433 -0.1230 -0.2558
 3573TIP3    H110725   1.402   4.059   0.527  1.2329 -0.4309  0.2494
 3573TIP3    H210726   1.346   4.165   0.619  1.3175 -0.4503  0.3239
 3574TIP3   OH210727   0.154   4.874   3.293 -0.1285 -0.4911 -0.2703
 3574TIP3    H110728   0.143   4.781   3.272  0.1532 -0.0442 -2.7310
 3574TIP3    H210729   0.247   4.884   3.313 -0.2977 -0.8320  0.7703
 3575TIP3   OH210730   5.107   0.429   4.686 -0.2665 -0.1200  0.1170
 3575TIP3    H110731   5.145   0.514   4.709  1.4819 -1.1373  1.2494
 3575TIP3    H210732   5.068   0.397   4.767 -1.6231 -0.0848 -0.4952
 3576TIP3   OH210733   2.846   0.807   1.919 -0.1211  0.4748 -0.2623
 3576TIP3    H110734   2.890   0.722   1.926 -0.1698  0.4661 -0.0678
 3576TIP3    H210735   2.915   0.871   1.934  0.3952  0.5475 -2.4940
 3577TIP3   OH210736   1.404   2.716   0.073 -0.1982 -0.5796  0.1797
 3577TIP3    H110737   1.419   2.622   0.070 -0.1117 -0.5503 -2.0359
 3577TIP3    H210738   1.490   2.754   0.089  0.1039 -0.8232 -0.8257
 3578TIP3   OH210739   1.229   0.034   0.354 -0.0032  0.0651  0.0980
 3578TIP3    H110740   1.323   0.050   0.370  0.1152  1.2875 -1.4974
 3578TIP3    H210741   1.196   0.118   0.323 -1.8879 -0.0774  1.5751
 3579TIP3   OH210742   2.431   0.437   3.986 -0.1878 -0.3520 -0.3462
 3579TIP3    H110743   2.357   0.498   3.980 -1.2460 -1.6814 -1.1350
 3579TIP3    H210744   2.391   0.352   3.999  1.2012 -1.1399 -1.0408
 3580TIP3   OH210745   3.766   4.700   3.858 -0.2398 -0.1014 -0.5046
 3580TIP3    H110746   3.724   4.626   3.902 -1.2717  0.3850 -0.6360
 3580TIP3    H210747   3.704   4.725   3.789  0.9923 -0.3455 -1.7309
 3581TIP3   OH210748   1.903   0.690   4.617 -0.2059  0.1709 -0.0091
 3581TIP3    H110749   1.976   0.630   4.636  0.7203  1.0818 -0.6127
 3581TIP3    H210750   1.828   0.632   4.605  0.8162 -0.9552 -1.3449
 3582TIP3   OH210751   2.216   2.412   4.976  0.3640  0.3495 -0.4963
 3582TIP3    H110752   2.222   2.470   5.051  0.2778  0.4810 -0.5888
 3582TIP3    H210753   2.297   2.427   4.927  0.7154 -0.2181 -0.0882
 3583TIP3   OH210754   2.015   2.821   0.326 -0.0198 -0.6055 -0.2948
 3583TIP3    H110755   2.032   2.862   0.242 -1.2281  0.5759 -0.0050
 3583TIP3    H210756   2.019   2.727   0.308 -0.5698 -0.3798 -1.7475
 3584TIP3   OH210757   5.742   3.041   1.818  0.4171 -0.1777  0.1243
 3584TIP3    H110758   5.703   3.079   1.897  0.0915 -0.3097  0.0285
 3584TIP3    H210759   5.712   3.098   1.747 -0.9556 -1.2165 -0.1599
 3585TIP3   OH210760   1.932   2.293   3.891  0.2900 -0.3902 -0.0019
 3585TIP3    H110761   2.007   2.352   3.878  0.0135 -0.1581 -0.6031
 3585TIP3    H210762   1.858   2.340   3.852 -0.1933 -0.5759  0.6674
 3586TIP3   OH210763   3.882   3.800   1.033 -0.4435 -0.3043 -0.0337
 3586TIP3    H110764   3.821   3.798   0.959  0.2523 -1.9996 -0.5941
 3586TIP3    H210765   3.864   3.719   1.081 -0.9177  0.7872  1.7128
 3587TIP3   OH210766   5.434   1.857   4.196 -0.4898 -0.0975  0.3070
 3587TIP3    H110767   5.365   1.913   4.232  0.3754 -0.0699  2.0404
 3587TIP3    H210768   5.394   1.770   4.191 -0.5414 -0.1834  1.7479
 3588TIP3   OH210769   5.182   1.958   1.323 -0.6197  0.4347 -0.1086
 3588TIP3    H110770   5.207   2.004   1.403  0.0732 -0.3058  0.1102
 3588TIP3    H210771   5.106   2.006   1.291  0.5055  2.2108 -0.2792
 3589TIP3   OH210772   3.889   3.188   4.627 -0.0888  0.5699 -0.0081
 3589TIP3    H110773   3.814   3.138   4.658 -1.0724  2.3635  0.6641
 3589TIP3    H210774   3.922   3.138   4.552 -1.4567 -0.6591  0.1601
 3590TIP3   OH210775   3.363   3.252   1.294  0.3153 -0.4082 -0.1399
 3590TIP3    H110776   3.394   3.280   1.380 -0.4583 -2.4048  0.8743
 3590TIP3    H210777   3.276   3.291   1.286 -0.2911 -1.4839  0.7613
 3591TIP3   OH210778   4.766   3.943   2.301 -0.1240 -0.4610  0.5233
 3591TIP3    H110779   4.677   3.918   2.326 -0.2779 -0.8260 -0.3247
 3591TIP3    H210780   4.786   3.887   2.226  0.0363  1.0230 -0.6018
 3592TIP3   OH210781   2.116   2.450   3.717  0.4783 -0.0090 -0.2490
 3592TIP3    H110782   2.082   2.453   3.628  0.6107 -2.0371 -0.4126
 3592TIP3    H210783   2.210   2.434   3.707  0.9817  2.2050  0.2648
 3593TIP3   OH210784   3.306   4.411   3.156  0.2054  0.1410  0.0526
 3593TIP3    H110785   3.274   4.410   3.066 -1.8438  0.6802  0.7187
 3593TIP3    H210786   3.335   4.321   3.172 -0.5231 -0.2512 -0.7806
 3594TIP3   OH210787   0.207   5.682   2.407  0.3714  0.0435 -0.1211
 3594TIP3    H110788   0.215   5.588   2.392 -0.8362 -0.1216  0.1369
 3594TIP3    H210789   0.197   5.720   2.320 -0.1363 -0.1856 -0.1658
 3595TIP3   OH210790   6.105   1.790   1.497  0.3370  1.1674  0.2247
 3595TIP3    H110791   6.029   1.772   1.553 -0.2129  2.0241 -0.2158
 3595TIP3    H210792   6.179   1.750   1.542  0.0120  2.3151  1.8796
 3596TIP3   OH210793   1.032   3.003   3.782  0.2331 -0.1357  0.3654
 3596TIP3    H110794   1.100   2.963   3.837 -0.7888 -1.6502  0.5836
 3596TIP3    H210795   1.036   2.954   3.700  0.6802  1.0673 -0.3569
 3597TIP3   OH210796   3.533   3.533   3.474  0.1441 -0.3605  1.2761
 3597TIP3    H110797   3.489   3.499   3.396  0.7341  0.0064  0.7778
 3597TIP3    H210798   3.611   3.576   3.441  0.0996  0.3198  2.0200
 3598TIP3   OH210799   0.856   3.746   3.572 -0.2683 -0.0089  0.1815
 3598TIP3    H110800   0.834   3.656   3.596 -1.7294 -0.4390 -2.3615
 3598TIP3    H210801   0.771   3.790   3.563  0.3381  1.0770 -0.5100
 3599TIP3   OH210802   4.533   2.747   0.865  0.3566 -0.0021 -0.0287
 3599TIP3    H110803   4.593   2.675   0.884 -0.5266 -0.5344  0.7840
 3599TIP3    H210804   4.520   2.791   0.949 -0.7791 -0.2018 -0.0844
 3600TIP3   OH210805   3.750   1.911   3.443  0.0439  0.1463  0.2503
 3600TIP3    H110806   3.744   1.922   3.538 -0.3675 -0.4404  0.3041
 3600TIP3    H210807   3.791   1.991   3.412 -0.8370  0.8392  0.8111
 3601TIP3   OH210808   5.326   2.031   1.891  0.0591 -0.3698 -0.1869
 3601TIP3    H110809   5.388   2.070   1.829 -1.8432  1.5252 -1.0080
 3601TIP3    H210810   5.258   1.993   1.836 -1.7769  1.5277  0.6454
 3602TIP3   OH210811   6.149   4.600   3.835 -0.1040 -0.4153  0.3374
 3602TIP3    H110812   6.175   4.616   3.745  0.2812  0.3451  0.5823
 3602TIP3    H210813   6.063   4.641   3.842 -1.0130 -2.1057 -0.1999
 3603TIP3   OH210814   5.625   2.939   3.549  0.3928  0.1974 -0.0051
 3603TIP3    H110815   5.594   3.016   3.500  0.2770 -1.1250 -2.1262
 3603TIP3    H210816   5.719   2.952   3.557  0.5769 -0.0123 -1.5135
 3604TIP3   OH210817   3.363   2.417   2.196  0.2367  0.0770  0.5056
 3604TIP3    H110818   3.424   2.373   2.255  1.0949 -1.5740 -1.5070
 3604TIP3    H210819   3.285   2.362   2.196 -0.4767  1.0471  1.4354
 3605TIP3   OH210820   4.845   1.981   3.244  0.6285 -0.2811  0.7093
 3605TIP3    H110821   4.863   2.054   3.185 -1.4135 -0.1076  0.2270
 3605TIP3    H210822   4.887   2.005   3.327 -1.6471  2.4566  1.2018
 3606TIP3   OH210823   1.452   4.313   4.065  0.0717 -0.4461  0.0315
 3606TIP3    H110824   1.407   4.376   4.009 -0.3584 -0.4187  0.4082
 3606TIP3    H210825   1.443   4.229   4.020  1.6253 -0.0796 -1.0601
 3607TIP3   OH210826   5.275   4.784   3.298  0.1758 -0.0129 -0.3044
 3607TIP3    H110827   5.323   4.822   3.225  2.7230 -3.5472 -0.7587
 3607TIP3    H210828   5.201   4.738   3.258 -0.7804  1.3355 -0.1436
 3608TIP3   OH210829   4.766   4.358   3.874 -0.0932  0.4456 -0.0992
 3608TIP3    H110830   4.730   4.399   3.953 -0.8091 -0.3442 -0.0018
 3608TIP3    H210831   4.699   4.372   3.807  0.0260  0.1667 -0.2795
 3609TIP3   OH210832   6.226   3.445   2.171  0.4166 -0.7473  0.5339
 3609TIP3    H110833   6.266   3.506   2.109 -1.1266 -0.3356 -0.0982
 3609TIP3    H210834   6.234   3.359   2.129  1.1432 -0.7654  0.6898
 3610TIP3   OH210835   6.229   5.347   0.106 -0.5683 -0.5019 -0.0054
 3610TIP3    H110836   6.212   5.401   0.183  0.2795  0.7542 -0.6680
 3610TIP3    H210837   6.230   5.257   0.140 -3.1716 -0.2595  0.9159
 3611TIP3   OH210838   1.754   3.843   4.356 -0.2146 -0.3304 -0.2269
 3611TIP3    H110839   1.755   3.827   4.261  1.0267  0.4221 -0.3663
 3611TIP3    H210840   1.726   3.935   4.364 -0.9357 -0.5813  0.1758
 3612TIP3   OH210841   0.420   4.380   3.043 -0.4366  0.1401 -0.7026
 3612TIP3    H110842   0.463   4.360   2.960 -0.6077 -0.1088 -0.7328
 3612TIP3    H210843   0.486   4.426   3.094  0.0001 -0.5808 -0.5989
 3613TIP3   OH210844   2.356  -0.006   1.482 -0.4823  0.4945 -0.5415
 3613TIP3    H110845   2.425  -0.068   1.457  0.0804  0.1608  1.6561
 3613TIP3    H210846   2.381   0.076   1.438  0.7420  0.0933 -0.6474
 3614TIP3   OH210847   3.876   4.590   2.866 -0.0155 -0.6739 -1.0597
 3614TIP3    H110848   3.885   4.672   2.817  0.3120 -0.5721 -0.8353
 3614TIP3    H210849   3.810   4.540   2.818 -0.1099 -0.3378 -1.2806
 3615TIP3   OH210850   4.718   0.446   0.947  0.2860 -0.2865  0.1189
 3615TIP3    H110851   4.812   0.428   0.951  0.3740 -0.1799 -1.0726
 3615TIP3    H210852   4.684   0.383   0.882 -0.1722  0.7408 -0.6773
 3616TIP3   OH210853   4.927   2.406   0.792  0.5415  0.3618 -0.2890
 3616TIP3    H110854   4.847   2.408   0.740  1.1646 -0.4808 -1.3133
 3616TIP3    H210855   4.899   2.372   0.877 -0.3681  1.0868 -0.2824
 3617TIP3   OH210856   0.635   5.372   0.107  0.0342  0.5821 -0.1771
 3617TIP3    H110857   0.705   5.353   0.046  0.2350 -0.9312  0.4759
 3617TIP3    H210858   0.677   5.421   0.178  0.5916 -0.7710  0.4705
 3618TIP3   OH210859   3.443   4.521   4.535  0.1701  0.0011  0.5181
 3618TIP3    H110860   3.397   4.438   4.543 -0.1195  0.0841 -0.1975
 3618TIP3    H210861   3.397   4.581   4.594 -0.1914 -0.1065  0.3443
 3619TIP3   OH210862   2.692   5.757   0.262 -0.1746  0.4464  0.0222
 3619TIP3    H110863   2.764   5.694   0.263 -1.4645 -1.1259 -0.3872
 3619TIP3    H210864   2.708   5.815   0.336  1.8231  0.5399 -0.4377
 3620TIP3   OH210865   6.350   3.937   2.821  0.4245 -0.1928  0.5265
 3620TIP3    H110866   6.332   4.014   2.876  1.0432  0.2859  0.0741
 3620TIP3    H210867   6.356   3.973   2.732 -0.2676 -0.9146  0.1790
 3621TIP3   OH210868   0.685   1.155   4.202  0.0756  0.3690  0.4170
 3621TIP3    H110869   0.638   1.153   4.119 -1.6002 -0.2656  1.3367
 3621TIP3    H210870   0.620   1.129   4.267  1.3588  0.7974  1.9310
 3622TIP3   OH210871   0.145   5.397   2.131  0.0377 -0.1278  0.0243
 3622TIP3    H110872   0.088   5.333   2.175 -0.1875  0.2055  0.2191
 3622TIP3    H210873   0.087   5.443   2.071  0.4225 -0.8467 -0.9241
 3623TIP3   OH210874   5.099   5.982   0.260 -0.4405 -0.4667 -0.6246
 3623TIP3    H110875   5.039   5.944   0.196  1.7317 -0.0786 -3.0105
 3623TIP3    H210876   5.152   5.908   0.290  0.1059 -0.2581 -1.0686
 3624TIP3   OH210877   2.312   1.593   0.112 -0.0280 -0.3596 -0.1078
 3624TIP3    H110878   2.327   1.623   0.023  0.7617  1.1077  0.4752
 3624TIP3    H210879   2.364   1.512   0.119  2.2760  1.0131 -0.1833
 3625TIP3   OH210880   6.070   3.827   1.702  0.0374 -0.1203 -0.5352
 3625TIP3    H110881   6.016   3.793   1.774 -0.2963  0.9590 -0.2580
 3625TIP3    H210882   6.150   3.857   1.745  0.2004 -0.2633 -0.7372
 3626TIP3   OH210883   4.303   2.292   0.216  0.7062 -0.2145 -0.0582
 3626TIP3    H110884   4.258   2.364   0.261 -0.0913 -1.7651  1.7840
 3626TIP3    H210885   4.363   2.336   0.155 -0.6062  1.9745  0.1006
 3627TIP3   OH210886   4.790   1.585   4.934  0.0184  0.3309 -0.2409
 3627TIP3    H110887   4.736   1.584   4.855  0.4226  0.3758 -0.5232
 3627TIP3    H210888   4.783   1.496   4.969  0.6001  0.0253 -0.8633
 3628TIP3   OH210889   5.985   0.891   0.937  0.4177  0.0625  0.1288
 3628TIP3    H110890   5.940   0.962   0.891  0.6051  1.2724  1.6968
 3628TIP3    H210891   5.915   0.831   0.963  0.2112 -0.1450 -0.8855
 3629TIP3   OH210892   1.647   4.724   0.196 -0.0420 -0.5486 -0.1093
 3629TIP3    H110893   1.658   4.639   0.152  2.5422 -1.1020  1.3902
 3629TIP3    H210894   1.732   4.741   0.236  0.5194  4.1579 -2.6119
 3630TIP3   OH210895   5.263   1.562   0.615  0.0172 -0.0060 -0.2897
 3630TIP3    H110896   5.196   1.496   0.635 -0.6587  0.4229 -1.0670
 3630TIP3    H210897   5.345   1.514   0.611 -0.2691 -0.5796  0.4805
 3631TIP3   OH210898   4.906   4.085   4.161 -0.0596  0.1643 -0.2761
 3631TIP3    H110899   4.826   4.055   4.117 -0.0062  0.1037 -0.3316
 3631TIP3    H210900   4.973   4.083   4.092  0.4147 -1.5325  0.1904
 3632TIP3   OH210901   1.467   1.813   2.635 -0.9652 -0.1591 -0.8455
 3632TIP3    H110902   1.437   1.760   2.561 -0.5769  0.0082 -1.1295
 3632TIP3    H210903   1.468   1.902   2.601 -1.6767  0.0485 -0.3509
 3633TIP3   OH210904   3.495   4.897   4.724 -0.3433 -0.2741  0.5077
 3633TIP3    H110905   3.579   4.880   4.681 -0.1276  0.6828  0.5235
 3633TIP3    H210906   3.515   4.961   4.792 -0.8658 -1.0152  1.3810
 3634TIP3   OH210907   2.674   2.070   1.707  0.1268  0.1113  0.0002
 3634TIP3    H110908   2.658   1.977   1.722  0.0537  0.3669  1.6995
 3634TIP3    H210909   2.615   2.093   1.635  0.4588 -1.2337 -0.7329
 3635TIP3   OH210910   1.867   3.204   4.878  0.2650 -0.1765  0.3841
 3635TIP3    H110911   1.858   3.291   4.840  0.6129 -0.0577  0.5707
 3635TIP3    H210912   1.864   3.219   4.973 -0.6017 -0.4686  0.4154
 3636TIP3   OH210913   1.301   1.238   4.093  0.1542 -0.2095  0.6967
 3636TIP3    H110914   1.272   1.151   4.118 -0.8782  0.0427  0.4450
 3636TIP3    H210915   1.220   1.290   4.089  0.5116  0.3009 -0.9700
 3637TIP3   OH210916   6.119   0.913   0.426  0.1170  0.2525  0.6221
 3637TIP3    H110917   6.184   0.929   0.357 -0.7993  0.1731 -0.2877
 3637TIP3    H210918   6.146   0.971   0.497 -0.3233  2.2502 -0.7461
 3638TIP3   OH210919   4.446   1.075   1.636  0.3135 -0.0852  0.4643
 3638TIP3    H110920   4.470   1.083   1.544  1.5759 -2.4274  0.4857
 3638TIP3    H210921   4.413   0.985   1.644 -1.6573  0.6955  1.9503
 3639TIP3   OH210922   0.385   1.019   3.402  0.0160 -0.1767  0.5400
 3639TIP3    H110923   0.318   1.053   3.342  1.1035  1.8349  0.3546
 3639TIP3    H210924   0.382   1.079   3.477 -0.4244 -1.8759  1.9372
 3640TIP3   OH210925   3.603   4.264   4.461  0.0676  0.6538  0.6821
 3640TIP3    H110926   3.561   4.286   4.378  0.9871  1.5658  0.4295
 3640TIP3    H210927   3.695   4.249   4.437  0.9089  3.4646  1.8499
 3641TIP3   OH210928   6.282   0.445   0.335 -0.6812  0.2438  0.5697
 3641TIP3    H110929   6.368   0.424   0.297 -1.6043 -0.1430 -1.4389
 3641TIP3    H210930   6.286   0.411   0.425  0.8817 -0.7501  0.1570
 3642TIP3   OH210931   5.515   0.885   3.431 -0.3960 -0.3764 -0.3371
 3642TIP3    H110932   5.554   0.840   3.506 -0.1267 -0.2995 -0.4303
 3642TIP3    H210933   5.496   0.973   3.464  1.5923  0.3287 -0.9145
 3643TIP3   OH210934   1.145   5.699   1.345 -0.4007 -0.1577  0.4585
 3643TIP3    H110935   1.062   5.684   1.298  0.8388 -2.4477 -1.1782
 3643TIP3    H210936   1.120   5.756   1.418 -3.7520 -1.9912  0.9795
 3644TIP3   OH210937   4.940   5.583   4.035  0.7486  0.4738 -0.1871
 3644TIP3    H110938   4.881   5.539   4.097  2.5645 -0.2210  1.1327
 3644TIP3    H210939   4.944   5.524   3.960 -0.6581  0.8123 -0.5622
 3645TIP3   OH210940   2.814   0.596   1.127  0.8733 -0.1956 -0.3027
 3645TIP3    H110941   2.877   0.540   1.170  1.9516  0.6200 -0.7756
 3645TIP3    H210942   2.729   0.568   1.161  1.6931  1.1297  3.2921
 3646TIP3   OH210943   6.030   2.943   3.024 -0.1891  0.2694 -0.2425
 3646TIP3    H110944   6.041   2.849   3.040  0.6084  0.6008  1.4082
 3646TIP3    H210945   6.096   2.964   2.959 -0.2987 -0.2883 -0.5404
 3647TIP3   OH210946   4.009   1.370   2.988  0.7837 -0.6439 -0.2798
 3647TIP3    H110947   3.950   1.357   3.062  1.4710 -3.0603 -0.0405
 3647TIP3    H210948   4.079   1.305   3.002  2.7810  1.1668 -1.2522
 3648TIP3   OH210949   1.363   2.467   2.304 -0.2542 -0.0560  0.3471
 3648TIP3    H110950   1.283   2.503   2.266 -0.8301 -1.0980  0.5308
 3648TIP3    H210951   1.403   2.541   2.349 -0.7837  0.6315 -0.2742
 3649TIP3   OH210952   1.282   3.538   1.615 -0.1434 -0.2954 -0.4747
 3649TIP3    H110953   1.333   3.597   1.672  0.3984 -1.9296  0.8233
 3649TIP3    H210954   1.341   3.518   1.542  0.0539 -0.0307 -0.3887
 3650TIP3   OH210955   4.249   4.619   1.441  0.2372  0.7245  0.3531
 3650TIP3    H110956   4.180   4.567   1.398  0.1031 -1.9938  3.4143
 3650TIP3    H210957   4.201   4.684   1.492  0.0663  0.5517  0.4163
 3651TIP3   OH210958   3.300   3.285   4.833  0.3193 -0.5253  0.2597
 3651TIP3    H110959   3.394   3.299   4.829  0.5359 -1.7548  0.5255
 3651TIP3    H210960   3.263   3.351   4.774  1.2488  0.6787  0.9864
 3652TIP3   OH210961   2.089   1.987   4.390 -0.0899  0.1485  0.1483
 3652TIP3    H110962   2.036   1.964   4.314  0.5081  0.8634 -0.5064
 3652TIP3    H210963   2.028   2.026   4.452 -0.6591 -0.8407  0.2241
 3653TIP3   OH210964   6.230   0.994   4.460  0.5701 -0.3834 -0.0162
 3653TIP3    H110965   6.238   0.936   4.384  1.5870  0.7702 -0.8280
 3653TIP3    H210966   6.201   1.078   4.423 -0.5531 -0.2598  1.0917
 3654TIP3   OH210967   6.250   1.173   1.823 -0.0412  0.0155  0.9529
 3654TIP3    H110968   6.165   1.132   1.808  1.5139 -2.1727 -3.4118
 3654TIP3    H210969   6.235   1.266   1.807 -2.1426  0.2479  3.6213
 3655TIP3   OH210970   5.014   0.895   2.734  0.8020 -0.0632 -0.2080
 3655TIP3    H110971   5.104   0.914   2.706  0.3211  2.8238 -0.0516
 3655TIP3    H210972   5.020   0.888   2.829  0.8286  0.2273 -0.1895
 3656TIP3   OH210973   4.574   1.268   2.608  0.0764  0.1648  0.4677
 3656TIP3    H110974   4.620   1.350   2.624  1.2334 -0.5299  0.8250
 3656TIP3    H210975   4.514   1.287   2.537  0.6768  1.1946  0.2234
 3657TIP3   OH210976   0.915   1.351   3.488 -0.5743  0.4323  0.5265
 3657TIP3    H110977   0.999   1.311   3.465  0.0400 -0.1816  3.4074
 3657TIP3    H210978   0.860   1.340   3.410  1.4925 -0.5585 -0.8770
 3658TIP3   OH210979   4.231   4.886   0.307 -0.4132  0.3629 -0.1951
 3658TIP3    H110980   4.177   4.815   0.339  1.3114 -0.5295  0.8902
 3658TIP3    H210981   4.221   4.956   0.372 -0.2074  0.1819  0.0290
 3659TIP3   OH210982   1.498   2.857   3.538 -0.4607 -0.2796  0.2951
 3659TIP3    H110983   1.506   2.863   3.633  1.3228 -0.3501  0.1830
 3659TIP3    H210984   1.569   2.798   3.511 -0.6464  0.0956 -1.1286
 3660TIP3   OH210985   3.723   0.182   3.872 -0.2568  0.1095 -0.7029
 3660TIP3    H110986   3.736   0.087   3.877  1.8781  0.3195 -1.2969
 3660TIP3    H210987   3.691   0.197   3.783  0.5739  0.0339 -1.0241
 3661TIP3   OH210988   3.875   1.531   0.984 -0.0750 -0.6577  0.3227
 3661TIP3    H110989   3.825   1.452   1.003 -1.2680 -0.3272 -1.2680
 3661TIP3    H210990   3.810   1.600   0.979  0.8336  0.2414  0.6264
 3662TIP3   OH210991   5.407   5.208   1.630  0.4464 -0.4324  0.2404
 3662TIP3    H110992   5.500   5.229   1.625  0.5515 -1.0100 -0.6572
 3662TIP3    H210993   5.363   5.292   1.621  0.8815 -0.1006  1.1226
 3663TIP3   OH210994   6.035   1.737   3.835 -0.4220  0.0748  0.2177
 3663TIP3    H110995   5.983   1.817   3.829 -1.0235 -0.3835 -0.8163
 3663TIP3    H210996   6.055   1.714   3.744  0.1235 -0.7138  0.5241
 3664TIP3   OH210997   3.656   5.133   2.948  0.1423 -0.5377 -0.6161
 3664TIP3    H110998   3.680   5.064   3.011  1.0939  1.2677  1.0951
 3664TIP3    H210999   3.586   5.182   2.992 -0.1367 -0.0608 -1.5732
 3665TIP3   OH211000   0.385   4.622   0.840 -0.9158 -0.2924  0.2687
 3665TIP3    H111001   0.420   4.710   0.824 -1.1241 -0.1013  0.8194
 3665TIP3    H211002   0.361   4.589   0.754  1.2495 -0.7020 -0.2339
 3666TIP3   OH211003   0.687   4.238   4.032 -0.0489  0.1263 -0.1665
 3666TIP3    H111004   0.761   4.295   4.053 -1.1844  1.8888 -0.7307
 3666TIP3    H211005   0.610   4.290   4.055 -1.2645  0.2356 -3.8950
 3667TIP3   OH211006   2.717   5.927   0.803 -0.5225 -0.2073 -0.2988
 3667TIP3    H111007   2.794   5.981   0.786 -0.5130 -0.4232 -0.9689
 3667TIP3    H211008   2.749   5.857   0.859  0.2333 -1.3991 -2.1148
 3668TIP3   OH211009   2.619   2.421   3.271  0.3031  0.5599 -0.1442
 3668TIP3    H111010   2.690   2.449   3.328  1.0060  0.0780 -0.7585
 3668TIP3    H211011   2.660   2.412   3.184 -0.9204  2.0883 -0.9247
 3669TIP3   OH211012   0.705   1.702   1.791 -0.2801 -0.4447  0.1865
 3669TIP3    H111013   0.787   1.689   1.839  0.3649  0.7051 -0.5843
 3669TIP3    H211014   0.701   1.628   1.730  0.4363 -0.2305 -0.1205
 3670TIP3   OH211015   5.688   5.482   3.679 -0.0680  0.3499 -0.1947
 3670TIP3    H111016   5.637   5.466   3.599 -1.2781 -0.6475  0.7404
 3670TIP3    H211017   5.775   5.444   3.659 -0.5101 -0.3589 -0.8562
 3671TIP3   OH211018   4.320   2.462   3.288  0.4315  0.2416  0.1926
 3671TIP3    H111019   4.279   2.466   3.375 -0.2717  0.5382 -0.1388
 3671TIP3    H211020   4.402   2.415   3.302  0.4211  0.4589  1.0533
 3672TIP3   OH211021   0.340   3.170   3.584  0.1388 -0.1175 -0.1901
 3672TIP3    H111022   0.424   3.141   3.620  0.5652 -0.6847 -1.5624
 3672TIP3    H211023   0.364   3.229   3.512 -0.6630  0.4611  0.0006
 3673TIP3   OH211024   3.066   2.502   3.438 -0.2308  0.2764 -1.0814
 3673TIP3    H111025   3.073   2.465   3.350 -1.8752 -1.0761 -0.6992
 3673TIP3    H211026   3.086   2.595   3.426 -0.4146  0.1259 -2.8799
 3674TIP3   OH211027   0.018   5.057   4.003  0.1146 -0.2354 -0.2536
 3674TIP3    H111028   0.048   4.968   4.024  0.7326  0.0774  0.2392
 3674TIP3    H211029   0.011   5.058   3.908  0.4435 -0.7152 -0.2883
 3675TIP3   OH211030   1.122   2.281   1.834 -0.2675  0.2131 -0.5067
 3675TIP3    H111031   1.157   2.359   1.879 -3.4248  1.2288  0.4480
 3675TIP3    H211032   1.107   2.310   1.744 -0.0685  0.2340 -0.5340
 3676TIP3   OH211033   5.769   0.102   2.176 -0.2265 -0.0014 -0.1315
 3676TIP3    H111034   5.852   0.131   2.138 -1.3327  2.0223 -1.1742
 3676TIP3    H211035   5.703   0.129   2.112 -1.9255  0.9328  1.8875
 3677TIP3   OH211036   0.064   4.188   2.911  0.2092 -0.1028  0.0468
 3677TIP3    H111037   0.089   4.266   2.860  0.4400  0.3503  0.8291
 3677TIP3    H211038   0.148   4.149   2.938  0.0946 -0.6789 -0.4165
 3678TIP3   OH211039   6.105   2.973   0.947  0.3303 -0.1282  0.0275
 3678TIP3    H111040   6.043   2.962   0.875  0.6009  1.1243 -0.4445
 3678TIP3    H211041   6.115   3.068   0.954  0.9122 -0.2661  1.2076
 3679TIP3   OH211042   1.483   2.142   2.489 -0.2577  0.2044 -0.1128
 3679TIP3    H111043   1.539   2.113   2.417 -0.4591 -0.3710 -0.0443
 3679TIP3    H211044   1.499   2.236   2.496  0.7606  0.0272 -0.0301
 3680TIP3   OH211045   2.050   5.094   3.645 -0.5175  0.3655  0.0034
 3680TIP3    H111046   2.129   5.149   3.648 -0.1837 -0.1177  0.1310
 3680TIP3    H211047   2.034   5.070   3.736 -0.8687  0.5361 -0.0120
 3681TIP3   OH211048   1.180   2.760   1.507 -0.7636  0.7017 -0.6413
 3681TIP3    H111049   1.085   2.745   1.515 -0.7017  1.2636  2.2576
 3681TIP3    H211050   1.216   2.675   1.484 -1.8206 -0.0016  0.1792
 3682TIP3   OH211051   3.559   4.219   5.200 -0.2065 -0.0656  0.8406
 3682TIP3    H111052   3.508   4.220   5.119 -0.0480 -0.6623  0.7305
 3682TIP3    H211053   3.635   4.164   5.180  0.2870  0.4958  1.1229
 3683TIP3   OH211054   4.690   2.562   1.036 -0.0266 -1.2667  0.4996
 3683TIP3    H111055   4.746   2.484   1.024  0.3676 -0.9612  0.3171
 3683TIP3    H211056   4.616   2.531   1.088  0.2550 -1.7107  0.6419
 3684TIP3   OH211057   3.977   5.457   0.636 -0.0299 -0.4524  0.0218
 3684TIP3    H111058   3.888   5.488   0.623  0.5638  2.4904  2.0959
 3684TIP3    H211059   4.024   5.485   0.558 -0.5907 -0.7286 -0.4205
 3685TIP3   OH211060   1.003   5.065   2.592 -0.1189 -0.4035 -0.0951
 3685TIP3    H111061   1.022   5.007   2.518  1.6394 -0.3982  0.3017
 3685TIP3    H211062   0.937   5.019   2.643 -0.4397 -0.9770 -1.0068
 3686TIP3   OH211063   1.351   0.131   3.260  0.1787 -0.5337 -0.8917
 3686TIP3    H111064   1.422   0.068   3.249 -0.2514 -1.6345  1.8580
 3686TIP3    H211065   1.273   0.077   3.275 -0.6137  0.6569 -0.5284
 3687TIP3   OH211066   3.346   0.587   1.612 -0.5676  0.7024  0.1321
 3687TIP3    H111067   3.432   0.621   1.585 -0.4117  0.5467  0.4273
 3687TIP3    H211068   3.298   0.663   1.642  0.0502  0.5786  1.5210
 3688TIP3   OH211069   4.086   4.394   0.748  0.0301 -0.7006  0.6105
 3688TIP3    H111070   4.154   4.443   0.792  0.3180  2.1464 -2.6273
 3688TIP3    H211071   4.132   4.345   0.679 -0.9302  0.0671 -0.6335
 3689TIP3   OH211072   2.175   5.922   0.663  0.7100 -0.1168 -0.5751
 3689TIP3    H111073   2.207   6.012   0.668  1.8963 -0.5194 -0.6330
 3689TIP3    H211074   2.217   5.887   0.584  1.5503 -1.1925  0.3206
 3690TIP3   OH211075   4.297   1.000   4.667  0.1925  0.1992 -0.4275
 3690TIP3    H111076   4.213   0.974   4.705  0.2990 -0.7572 -0.8316
 3690TIP3    H211077   4.323   1.077   4.718 -1.3109  1.0125 -0.8206
 3691TIP3   OH211078   5.375   1.598   1.823 -0.3921 -0.1952  0.0834
 3691TIP3    H111079   5.468   1.617   1.810 -0.5073 -0.3318 -1.0568
 3691TIP3    H211080   5.352   1.644   1.903  0.7085 -0.3315  0.4913
 3692TIP3   OH211081   3.299   2.328   1.505 -0.2981  0.6458 -0.1248
 3692TIP3    H111082   3.296   2.261   1.437  0.2908  0.3287  0.1577
 3692TIP3    H211083   3.349   2.400   1.466  1.3647 -0.1317  0.4731
 3693TIP3   OH211084   3.798   2.961   1.782 -0.2471 -0.2555 -0.6424
 3693TIP3    H111085   3.796   3.047   1.825 -0.0291  0.4816 -2.0567
 3693TIP3    H211086   3.710   2.951   1.746 -0.0889 -0.3448 -1.0041
 3694TIP3   OH211087   3.997   0.119   2.102 -0.0859  0.3016 -0.1106
 3694TIP3    H111088   3.910   0.123   2.140 -0.1769  1.2728 -0.4042
 3694TIP3    H211089   4.011   0.205   2.063  0.9379  0.1068 -0.2172
 3695TIP3   OH211090   0.596   3.894   2.911 -0.1280  0.3253 -0.2090
 3695TIP3    H111091   0.670   3.934   2.867 -0.3333  0.7089 -0.2121
 3695TIP3    H211092   0.586   3.944   2.992  0.4871 -0.6198  0.4705
 3696TIP3   OH211093   4.709   2.665   0.248 -0.3948  0.3278  0.2923
 3696TIP3    H111094   4.741   2.614   0.321  0.0998 -1.9633 -1.4117
 3696TIP3    H211095   4.614   2.652   0.250 -0.2623 -0.8468 -0.2089
 3697TIP3   OH211096   1.070   5.169   1.339 -0.1998 -0.5298  0.5027
 3697TIP3    H111097   1.149   5.126   1.373  0.0551  0.2022  0.8499
 3697TIP3    H211098   1.043   5.115   1.265 -0.7733 -2.1904  1.8577
 3698TIP3   OH211099   3.643   1.995   0.095  0.0135 -0.4189  0.3671
 3698TIP3    H111100   3.696   1.926   0.057 -0.1905 -0.1032 -0.5091
 3698TIP3    H211101   3.641   2.064   0.029  1.7023  1.2225  1.9071
 3699TIP3   OH211102   4.503   5.267   2.678 -0.3038  0.2127  0.6923
 3699TIP3    H111103   4.597   5.282   2.689 -0.3027  1.4919 -0.7462
 3699TIP3    H211104   4.465   5.354   2.669 -1.4604 -0.3269  0.1218
 3700TIP3   OH211105   0.917   4.400   1.134 -0.3335 -0.3172  0.3037
 3700TIP3    H111106   0.828   4.369   1.149 -0.2054 -0.5465  0.6159
 3700TIP3    H211107   0.966   4.321   1.110 -0.0424 -0.3400  0.9385
 3701TIP3   OH211108   1.656   0.883   3.108  0.0523 -0.2498 -0.1439
 3701TIP3    H111109   1.702   0.868   3.190  1.3776  3.0350 -0.1278
 3701TIP3    H211110   1.707   0.834   3.043  1.0537 -0.1105  0.5120
 3702TIP3   OH211111   4.139   2.399   4.765  0.0231  0.3172 -0.0854
 3702TIP3    H111112   4.103   2.425   4.850 -1.3944  0.5779 -0.7489
 3702TIP3    H211113   4.147   2.481   4.717 -0.3088  0.0302 -0.6296
 3703TIP3   OH211114   5.193   5.616   1.062 -0.4589  0.3916 -0.1875
 3703TIP3    H111115   5.279   5.656   1.049 -1.2201  2.8078  1.5035
 3703TIP3    H211116   5.212   5.523   1.078  1.8484  0.8683  0.2050
 3704TIP3   OH211117   0.667   2.879   2.878 -0.4757 -0.2569  0.0303
 3704TIP3    H111118   0.657   2.804   2.937 -0.6324 -0.0950  0.2073
 3704TIP3    H211119   0.730   2.848   2.812  0.8103  0.0239  1.0718
 3705TIP3   OH211120   3.079   1.999   0.208 -0.0584 -0.0983  0.4386
 3705TIP3    H111121   3.098   1.972   0.298  1.6900  0.4036  0.2565
 3705TIP3    H211122   3.163   1.991   0.163 -0.8675 -0.1473 -1.1067
 3706TIP3   OH211123   0.560   3.324   3.297 -0.0633 -0.2021 -0.2287
 3706TIP3    H111124   0.467   3.322   3.319  0.2207  0.7473  1.2067
 3706TIP3    H211125   0.563   3.306   3.203 -1.6815 -0.3779 -0.2715
 3707TIP3   OH211126   0.669   3.258   2.490 -0.1485 -0.1606  0.2171
 3707TIP3    H111127   0.727   3.319   2.536  0.8480 -0.9964  0.0949
 3707TIP3    H211128   0.725   3.215   2.426 -0.9928 -0.7349 -0.1538
 3708TIP3   OH211129   3.006   0.903   2.274 -0.1507 -0.2391 -0.1724
 3708TIP3    H111130   2.981   0.960   2.201  0.3840 -0.1354 -0.2807
 3708TIP3    H211131   2.989   0.954   2.352 -0.2919 -0.1745 -0.2465
 3709TIP3   OH211132   1.841   5.660   0.915 -0.1642  0.3409  0.1326
 3709TIP3    H111133   1.837   5.685   1.007 -0.7500 -0.8625  0.4681
 3709TIP3    H211134   1.890   5.730   0.872  1.2205  0.2985  1.5724
 3710TIP3   OH211135   0.273   3.885   4.842 -0.3428  0.5595  0.4846
 3710TIP3    H111136   0.205   3.950   4.823  0.1767  0.8906 -0.3105
 3710TIP3    H211137   0.273   3.829   4.764  0.5553  0.8016  0.3001
 3711TIP3   OH211138   5.308   0.824   1.204  0.1142 -0.4182 -0.0232
 3711TIP3    H111139   5.366   0.758   1.242 -1.0998 -0.2859  2.2137
 3711TIP3    H211140   5.284   0.880   1.277 -3.3504 -0.8600 -0.6869
 3712TIP3   OH211141   4.873   3.242   1.837  0.2818 -0.2342 -0.1567
 3712TIP3    H111142   4.784   3.207   1.829  0.4079 -0.4332 -0.7836
 3712TIP3    H211143   4.902   3.215   1.924 -0.6561  0.7385  0.4836
 3713TIP3   OH211144   6.187   4.260   1.475 -0.1801 -0.5787  0.4575
 3713TIP3    H111145   6.116   4.319   1.453  0.4259  0.2440  0.6823
 3713TIP3    H211146   6.243   4.260   1.397 -0.9868 -2.1009 -0.1630
 3714TIP3   OH211147   1.663   3.767   5.147  0.5239  0.3019  0.3243
 3714TIP3    H111148   1.656   3.711   5.069  0.9631  0.6993 -0.0102
 3714TIP3    H211149   1.609   3.724   5.213  0.1275 -0.0288 -0.2091
 3715TIP3   OH211150   3.765   0.462   0.013  0.3450  0.0798  0.1966
 3715TIP3    H111151   3.787   0.369   0.004  1.3533  0.3841 -0.7064
 3715TIP3    H211152   3.820   0.493   0.085 -0.3739 -0.1327  0.8427
 3716TIP3   OH211153   1.598   1.770   2.369 -0.3259 -0.3368 -0.1739
 3716TIP3    H111154   1.628   1.722   2.291 -1.1844 -0.7870 -0.2404
 3716TIP3    H211155   1.515   1.729   2.391 -0.7465  0.6871  0.1813
 3717TIP3   OH211156   1.259   0.981   1.339  0.1912  0.1414  0.1775
 3717TIP3    H111157   1.196   0.992   1.268  1.2963  0.4336 -0.7853
 3717TIP3    H211158   1.272   1.070   1.373  0.7757  0.2286 -0.2540
 3718TIP3   OH211159   2.909   1.055   4.766  0.4298  0.0835  0.0439
 3718TIP3    H111160   2.879   1.146   4.765  0.9911  0.2755  0.0997
 3718TIP3    H211161   2.909   1.028   4.674 -1.0133 -0.3024  0.1354
 3719TIP3   OH211162   1.867   2.502   3.213  0.3717 -0.0417 -0.0246
 3719TIP3    H111163   1.805   2.562   3.256  0.2829  0.0402 -0.2636
 3719TIP3    H211164   1.854   2.517   3.120  0.4540 -0.3296 -0.0847
 3720TIP3   OH211165   5.280   3.195   4.879  0.0322  0.3146 -0.3662
 3720TIP3    H111166   5.289   3.159   4.791  0.3930  0.8585 -0.5552
 3720TIP3    H211167   5.304   3.287   4.870 -0.3386  0.4717  0.2212
 3721TIP3   OH211168   5.206   5.796   3.697 -0.5370 -0.0580 -0.6987
 3721TIP3    H111169   5.284   5.826   3.649  0.1874 -0.0160  0.4726
 3721TIP3    H211170   5.133   5.823   3.642  0.1973  1.6782 -0.8902
 3722TIP3   OH211171   3.373   1.102   5.095 -0.2198 -0.3455 -0.1027
 3722TIP3    H111172   3.283   1.131   5.086  0.2492  1.2907  0.1107
 3722TIP3    H211173   3.422   1.154   5.031  0.5722 -1.2679 -0.2782
 3723TIP3   OH211174   1.483   0.174   0.103  0.9941 -0.1837  0.3231
 3723TIP3    H111175   1.474   0.078   0.101 -0.2239 -0.1632  2.3646
 3723TIP3    H211176   1.414   0.204   0.044  3.9252 -0.5195 -3.6873
 3724TIP3   OH211177   0.019   2.609   2.771 -0.3982 -0.3193 -0.4577
 3724TIP3    H111178  -0.049   2.560   2.818 -0.6190  0.8481  0.4864
 3724TIP3    H211179   0.085   2.544   2.750 -0.7371 -1.0605  0.6700
 3725TIP3   OH211180   2.771   5.259   2.943 -0.3684 -0.7960  0.4892
 3725TIP3    H111181   2.721   5.328   2.899 -0.5971 -1.0515  0.3470
 3725TIP3    H211182   2.710   5.221   3.006  0.4141  0.6540  2.2406
 3726TIP3   OH211183   0.795   4.919   1.046 -0.0361  0.0012  0.0671
 3726TIP3    H111184   0.863   4.987   1.051  0.0789 -0.2150  1.6665
 3726TIP3    H211185   0.843   4.838   1.028  0.0323 -0.0010  0.2625
 3727TIP3   OH211186   2.827   5.198   0.213 -0.1107  0.2984 -0.6335
 3727TIP3    H111187   2.830   5.117   0.263  0.8032 -0.9104 -2.5284
 3727TIP3    H211188   2.888   5.257   0.259 -2.0893  0.6182  1.7663
 3728TIP3   OH211189   2.743   4.321   4.097  0.2399 -0.2310  0.3453
 3728TIP3    H111190   2.666   4.269   4.121 -0.6179  0.8119 -0.0577
 3728TIP3    H211191   2.707   4.398   4.052  1.6174 -0.6774 -1.6388
 3729TIP3   OH211192   1.584   5.028   0.386  0.2276  0.1060 -0.3142
 3729TIP3    H111193   1.582   5.036   0.290 -3.1120 -0.1465 -0.3619
 3729TIP3    H211194   1.667   4.983   0.404  0.8545 -0.0262 -3.1016
 3730TIP3   OH211195   6.151   0.744   2.468 -0.3371  0.4437 -0.1065
 3730TIP3    H111196   6.061   0.726   2.440 -0.2198  1.5795 -1.2832
 3730TIP3    H211197   6.196   0.660   2.457 -0.8438  0.2961 -1.2382
 3731TIP3   OH211198   3.165   2.829   1.636  0.7731  0.0972  0.4547
 3731TIP3    H111199   3.188   2.817   1.728 -1.9755 -2.8441  0.9403
 3731TIP3    H211200   3.111   2.908   1.635 -0.3931 -0.6169  1.7438
 3732TIP3   OH211201   0.962   4.575   4.642  0.3260  0.4545  0.6391
 3732TIP3    H111202   1.031   4.542   4.700 -1.3967 -0.3372  2.3416
 3732TIP3    H211203   0.993   4.662   4.616  2.0328  0.0610  1.1906
 3733TIP3   OH211204   3.998   5.985   2.657  0.5186  0.4867 -0.0841
 3733TIP3    H111205   4.048   5.928   2.598 -0.2632 -1.2274  0.8540
 3733TIP3    H211206   4.058   6.002   2.730  0.2234 -0.5009  0.4111
 3734TIP3   OH211207   3.763   3.026   3.039 -0.0136  0.5323 -0.6245
 3734TIP3    H111208   3.839   3.076   3.009 -0.3449 -0.0421 -2.5844
 3734TIP3    H211209   3.793   2.936   3.044  0.0502  0.6132  0.9750
 3735TIP3   OH211210   4.046   3.025   3.239 -0.5650 -0.6503  0.6619
 3735TIP3    H111211   4.097   2.967   3.295  0.1137 -0.9169 -0.2150
 3735TIP3    H211212   4.004   2.966   3.176 -1.0130 -0.3208  0.6498
 3736TIP3   OH211213   2.323   4.082   3.492  0.0959  0.4615  0.6058
 3736TIP3    H111214   2.415   4.060   3.478  0.2763  2.0225 -1.0667
 3736TIP3    H211215   2.312   4.081   3.587  1.5829 -0.6915  0.7930
 3737TIP3   OH211216   5.174   1.672   4.902 -0.4592  0.3877 -0.1245
 3737TIP3    H111217   5.097   1.725   4.883  0.2531  1.6106  0.2833
 3737TIP3    H211218   5.229   1.728   4.958 -0.3969 -1.3556  1.6817
 3738TIP3   OH211219   3.186   0.422   5.065  0.0210 -0.2001 -0.5000
 3738TIP3    H111220   3.169   0.514   5.087  0.7621 -0.0663 -0.4623
 3738TIP3    H211221   3.164   0.374   5.145  1.9117  0.1999  0.3249
 3739TIP3   OH211222   3.741   4.468   1.125 -0.2800  0.1041 -0.2527
 3739TIP3    H111223   3.779   4.478   1.213  1.1905  0.1669 -0.8779
 3739TIP3    H211224   3.815   4.471   1.066 -1.2339 -0.1873 -1.5071
 3740TIP3   OH211225   6.244   2.648   3.615 -0.1744 -0.5760 -0.3556
 3740TIP3    H111226   6.255   2.715   3.548 -0.7075  0.7149  0.8012
 3740TIP3    H211227   6.257   2.565   3.569  0.3689  0.3087 -1.8453
 3741TIP3   OH211228   3.756   5.461   4.005 -0.2060 -0.3076 -0.2547
 3741TIP3    H111229   3.763   5.366   4.007  1.2358 -0.3416 -2.6601
 3741TIP3    H211230   3.663   5.478   3.997 -0.4800 -1.5020  0.1798
 3742TIP3   OH211231   5.185   5.510   1.415  0.2680 -0.2005 -0.1344
 3742TIP3    H111232   5.098   5.549   1.407 -0.2695 -1.1924  0.5959
 3742TIP3    H211233   5.245   5.584   1.408 -0.6624  0.6077  0.1208
 3743TIP3   OH211234   0.910   1.483   4.712  0.3528 -0.1834 -0.2769
 3743TIP3    H111235   0.853   1.490   4.636 -0.4350 -0.3249  0.2891
 3743TIP3    H211236   0.899   1.566   4.759 -0.1109 -0.5797  0.3274
 3744TIP3   OH211237   6.083   5.331   5.010  0.6202 -0.1027 -0.7846
 3744TIP3    H111238   6.093   5.413   4.961  0.3820  0.7571  0.5641
 3744TIP3    H211239   6.172   5.305   5.030  0.6745  0.2151 -0.6002
 3745TIP3   OH211240   4.864   0.804   4.042  0.6969 -0.7328 -0.1504
 3745TIP3    H111241   4.798   0.780   4.108  0.4476 -0.9829 -0.4888
 3745TIP3    H211242   4.850   0.741   3.971 -1.8730  2.0480 -2.3733
 3746TIP3   OH211243   2.270   5.263   2.061 -0.7350  0.3378  0.0061
 3746TIP3    H111244   2.241   5.328   1.997  0.4131  0.9202  0.0724
 3746TIP3    H211245   2.347   5.301   2.102 -1.4514 -0.0205  1.7734
 3747TIP3   OH211246   4.986   2.807   2.049  0.3457 -0.4856  0.1743
 3747TIP3    H111247   5.060   2.839   1.997 -1.2819  2.4185 -0.5421
 3747TIP3    H211248   4.913   2.802   1.988 -0.2721 -2.7465  0.9890
 3748TIP3   OH211249   4.337   1.022   0.446 -0.2806  0.3375  0.0142
 3748TIP3    H111250   4.288   1.082   0.501  0.7126  0.3718  0.8877
 3748TIP3    H211251   4.300   0.935   0.465  0.3369  0.2946  1.0613
 3749TIP3   OH211252   0.397   1.821   0.576 -0.0908 -0.2971 -0.0995
 3749TIP3    H111253   0.474   1.782   0.618  0.6758  0.0778 -1.1182
 3749TIP3    H211254   0.348   1.861   0.648  2.2596  2.1893  0.3022
 3750TIP3   OH211255   2.361   1.003   2.128  0.1137  0.1604  0.0651
 3750TIP3    H111256   2.344   1.071   2.064  2.4440  2.7806  1.9932
 3750TIP3    H211257   2.418   0.941   2.082  1.2891  1.6857 -0.6222
 3751TIP3   OH211258   4.072   3.495   0.405 -0.0232 -1.0178 -0.0898
 3751TIP3    H111259   4.081   3.407   0.441 -0.9555 -0.9241  0.3986
 3751TIP3    H211260   4.147   3.543   0.440  0.4136 -1.5703 -0.2445
 3752TIP3   OH211261   3.768   3.721   4.062 -0.2042 -0.2983  0.0369
 3752TIP3    H111262   3.773   3.728   4.158 -0.4902 -1.0139  0.1056
 3752TIP3    H211263   3.676   3.703   4.044 -0.1267 -0.2859 -0.3678
 3753TIP3   OH211264   2.640   5.583   2.059 -0.0871  0.0688 -0.0322
 3753TIP3    H111265   2.731   5.566   2.083 -0.6959 -1.7762  1.1976
 3753TIP3    H211266   2.615   5.509   2.003 -1.4867 -0.7931  1.6196
 3754TIP3   OH211267   4.513   2.232   1.786 -0.3949  0.1220  0.1198
 3754TIP3    H111268   4.436   2.281   1.757 -0.1267  0.7132  0.4027
 3754TIP3    H211269   4.487   2.140   1.776 -0.9520  0.3160 -0.2724
 3755TIP3   OH211270   0.623   2.717   3.254 -0.5487 -0.1089  0.0995
 3755TIP3    H111271   0.640   2.811   3.251 -0.3611 -0.1483 -0.1378
 3755TIP3    H211272   0.624   2.690   3.162  0.2799 -0.4994  0.2189
 3756TIP3   OH211273   4.691   3.728   2.589 -0.0993 -0.1510  0.0654
 3756TIP3    H111274   4.730   3.701   2.672 -0.6254 -0.6258  0.1566
 3756TIP3    H211275   4.751   3.695   2.522 -1.2033 -2.4499  0.1142
 3757TIP3   OH211276   1.826   1.228   2.445  0.4227 -0.2551 -0.4501
 3757TIP3    H111277   1.734   1.211   2.464  0.5884 -1.4245 -0.6064
 3757TIP3    H211278   1.873   1.161   2.495  1.2406  0.7282  0.1522
 3758TIP3   OH211279   1.668   1.801   0.877  0.3958 -0.0524  0.2999
 3758TIP3    H111280   1.599   1.739   0.855  0.6813 -0.7440  1.2846
 3758TIP3    H211281   1.641   1.883   0.835 -2.1774  0.3286  2.4467
 3759TIP3   OH211282   5.465   5.580   0.273 -0.1396 -0.2570 -0.0333
 3759TIP3    H111283   5.488   5.546   0.359  4.0283  0.9988 -0.4614
 3759TIP3    H211284   5.439   5.502   0.222  0.2692 -1.4225  1.4851
 3760TIP3   OH211285   2.002   2.390   4.767  0.0451 -0.5954 -0.3992
 3760TIP3    H111286   2.058   2.418   4.840  1.3296 -1.1619 -1.1268
 3760TIP3    H211287   2.052   2.322   4.723 -1.2103 -1.0785 -1.1394
 3761TIP3   OH211288   3.435   0.944   2.488 -0.4174  0.0438  0.2358
 3761TIP3    H111289   3.363   0.924   2.547 -0.9251  0.2043 -0.3172
 3761TIP3    H211290   3.443   0.866   2.434 -0.7837  0.3711 -0.3038
 3762TIP3   OH211291   2.994   0.006   3.500  0.3444 -0.4733  0.0631
 3762TIP3    H111292   3.044  -0.025   3.575  0.3198  0.7536  0.6047
 3762TIP3    H211293   2.957   0.089   3.528 -1.3966 -0.9863 -0.5814
 3763TIP3   OH211294   0.223   0.991   2.341  0.1160  0.6168  0.3467
 3763TIP3    H111295   0.177   0.966   2.422  2.6903 -2.8822  1.0017
 3763TIP3    H211296   0.227   0.910   2.290  1.0049  2.0679 -2.0509
 3764TIP3   OH211297   5.882   4.579   4.924 -0.1901 -0.0265  0.3949
 3764TIP3    H111298   5.817   4.569   4.993 -0.5486  3.6359  0.7895
 3764TIP3    H211299   5.833   4.573   4.842 -0.3423 -0.9873  0.5482
 3765TIP3   OH211300   5.929   3.467   4.912  0.6112 -0.4482 -0.3150
 3765TIP3    H111301   5.889   3.439   4.994 -0.6713 -0.3236 -0.8808
 3765TIP3    H211302   6.006   3.518   4.940 -0.0956  0.0436  0.8143
 3766TIP3   OH211303   3.077   5.389   3.179 -0.3535  0.0828  0.2822
 3766TIP3    H111304   3.030   5.402   3.262  0.1374  1.2074  0.4109
 3766TIP3    H211305   3.045   5.459   3.122 -1.4221 -1.2739 -0.8439
 3767TIP3   OH211306   1.555   5.376   2.417 -0.7616  0.1228 -0.3362
 3767TIP3    H111307   1.552   5.281   2.431  2.2056 -0.0132 -0.0122
 3767TIP3    H211308   1.531   5.388   2.325  0.7483 -1.1682 -0.9370
 3768TIP3   OH211309   3.821   3.876   0.339 -0.2633  0.4655 -0.2423
 3768TIP3    H111310   3.850   3.958   0.298  1.6964 -0.2012 -0.2769
 3768TIP3    H211311   3.822   3.894   0.433  0.2333  0.4787 -0.2458
 3769TIP3   OH211312   1.724   1.518   4.508  0.1096 -0.1108 -0.3815
 3769TIP3    H111313   1.731   1.449   4.442  0.5097 -0.9383  0.5112
 3769TIP3    H211314   1.700   1.472   4.588  0.4404  0.7813  0.2436
 3770TIP3   OH211315   2.009   0.996   3.867 -0.2223  0.0295 -0.2999
 3770TIP3    H111316   2.045   1.085   3.861  0.9618 -0.1016  2.7749
 3770TIP3    H211317   1.914   1.009   3.875 -0.3560  0.7807 -2.5448
 3771TIP3   OH211318   6.117   1.038   1.160 -0.4296 -0.2667  0.1461
 3771TIP3    H111319   6.110   0.944   1.142 -1.1222 -0.4097  1.0739
 3771TIP3    H211320   6.026   1.067   1.165 -0.2232  0.2472  0.8873
 3772TIP3   OH211321   0.110   0.181   3.335  0.4792  0.6213  0.1278
 3772TIP3    H111322   0.062   0.170   3.417 -1.4167 -1.7790 -1.1793
 3772TIP3    H211323   0.064   0.252   3.290  0.3343  0.6742  0.3593
 3773TIP3   OH211324   2.791   3.028   2.504  0.2357  0.3597  0.1798
 3773TIP3    H111325   2.799   2.937   2.535 -1.1744  0.3442  0.5939
 3773TIP3    H211326   2.791   3.080   2.584 -0.2320  0.6010  0.0282
 3774TIP3   OH211327   2.233   5.045   0.789  0.1801  0.6174  0.4063
 3774TIP3    H111328   2.154   5.084   0.827  0.1111  1.2117 -0.3221
 3774TIP3    H211329   2.299   5.056   0.857 -0.3055  0.3242  0.9322
 3775TIP3   OH211330   2.913   2.015   3.607  0.0392 -0.3818  0.0165
 3775TIP3    H111331   2.835   2.019   3.552  0.2349 -1.1746 -0.3372
 3775TIP3    H211332   2.899   1.939   3.663 -0.3723  0.6904  1.4229
 3776TIP3   OH211333   1.774   2.829   4.681  0.3095  0.2702 -0.1197
 3776TIP3    H111334   1.860   2.832   4.638  0.1765  1.5366 -0.3440
 3776TIP3    H211335   1.766   2.739   4.713  1.2491 -0.1608 -1.0444
 3777TIP3   OH211336   3.072   4.707   4.059  0.4964  0.1334  0.1262
 3777TIP3    H111337   3.075   4.729   4.152  1.8623  0.8845 -0.0603
 3777TIP3    H211338   3.011   4.771   4.021  0.0168 -0.1080  0.4861
 3778TIP3   OH211339   3.685   3.356   3.083 -0.6188 -0.8355  0.0136
 3778TIP3    H111340   3.712   3.268   3.109 -0.6570 -0.8568 -0.0185
 3778TIP3    H211341   3.755   3.386   3.025 -0.8760 -1.0574 -0.4121
 3779TIP3   OH211342   5.564   1.014   1.200 -0.9891  0.5164 -0.0452
 3779TIP3    H111343   5.581   0.984   1.290  0.1599  0.5518 -0.2267
 3779TIP3    H211344   5.487   1.070   1.207 -0.7877  0.6828  0.9603
 3780TIP3   OH211345   2.423   1.518   4.455  0.1564 -0.2839  0.3310
 3780TIP3    H111346   2.457   1.487   4.539  1.8276  0.0888 -0.1832
 3780TIP3    H211347   2.362   1.449   4.427 -0.2336 -0.5302  1.7107
 3781TIP3   OH211348   3.891   2.767   0.647  0.1042 -0.4445 -0.5859
 3781TIP3    H111349   3.915   2.859   0.635 -0.3461 -0.5293 -2.4975
 3781TIP3    H211350   3.873   2.759   0.741  2.8633  0.7133  0.1345
 3782TIP3   OH211351   3.050   3.893   1.896 -0.2679  0.2232  0.0383
 3782TIP3    H111352   3.113   3.826   1.921 -1.0502 -0.3417  0.5450
 3782TIP3    H211353   3.054   3.957   1.966 -0.6278 -0.0819  0.3453
 3783TIP3   OH211354   0.975   1.239   2.014  0.3077 -0.1403 -0.2052
 3783TIP3    H111355   1.062   1.278   2.003 -0.3610  1.0289 -1.5464
 3783TIP3    H211356   0.930   1.256   1.931 -1.3019 -0.4902  0.5626
 3784TIP3   OH211357   1.082   2.323   5.026  0.0343  0.0494  0.1002
 3784TIP3    H111358   1.115   2.344   4.938  1.4428 -0.1190  0.5696
 3784TIP3    H211359   1.161   2.314   5.080 -0.8305  1.1080  1.6168
 3785TIP3   OH211360   5.634   5.547   0.662  0.0730 -0.0365 -0.2284
 3785TIP3    H111361   5.580   5.492   0.718  0.6252 -0.2743  0.0698
 3785TIP3    H211362   5.573   5.614   0.629  0.0539  1.0985  1.9148
 3786TIP3   OH211363   0.343   2.796   1.367 -0.0152 -0.1049 -0.1736
 3786TIP3    H111364   0.312   2.762   1.283 -0.7122  0.4733 -0.1558
 3786TIP3    H211365   0.270   2.846   1.402  0.5775  0.4113  0.3692
 3787TIP3   OH211366   5.355   4.954   2.138 -0.3237  0.3202 -0.6299
 3787TIP3    H111367   5.290   5.011   2.179 -0.2136  1.3939 -1.8795
 3787TIP3    H211368   5.409   4.923   2.211  0.2467  2.6366  0.0230
 3788TIP3   OH211369   3.096   0.754   3.708  0.0472  0.2718 -0.1055
 3788TIP3    H111370   3.005   0.778   3.691 -0.1570 -1.7114 -2.2195
 3788TIP3    H211371   3.136   0.835   3.741 -1.6358  2.2176 -2.4347
 3789TIP3   OH211372   5.901   2.820   1.358  0.3411  0.5088  0.5010
 3789TIP3    H111373   5.873   2.751   1.418  1.8259  1.6978  2.6964
 3789TIP3    H211374   5.869   2.901   1.398 -1.7476  1.2011 -2.2144
 3790TIP3   OH211375   4.144   3.978   4.660  0.3899 -0.2346  0.9502
 3790TIP3    H111376   4.169   3.887   4.676 -1.7226 -1.1344 -0.3350
 3790TIP3    H211377   4.126   3.981   4.566  0.3647  1.5136  0.9809
 3791TIP3   OH211378   1.326   4.641   3.663  0.3868 -0.1589  0.0908
 3791TIP3    H111379   1.387   4.570   3.643  0.5827 -0.1589  0.6568
 3791TIP3    H211380   1.382   4.716   3.681  0.2510 -0.2845  1.1017
 3792TIP3   OH211381   2.165   3.270   0.265  0.5037  0.3880 -0.2546
 3792TIP3    H111382   2.140   3.199   0.325  0.8238  1.2681  0.9774
 3792TIP3    H211383   2.138   3.350   0.311  2.4642  1.2019 -0.4176
 3793TIP3   OH211384   0.131   0.892   4.620  0.5165 -0.1950  0.1788
 3793TIP3    H111385   0.099   0.956   4.557  2.8480  0.0935 -0.8241
 3793TIP3    H211386   0.193   0.940   4.675  0.9143 -1.1512  0.6020
 3794TIP3   OH211387   2.095   2.874   2.070  0.1111 -0.2462 -0.1071
 3794TIP3    H111388   2.032   2.944   2.088  1.1317  0.6044  0.2531
 3794TIP3    H211389   2.168   2.891   2.130  0.4615 -1.5146 -0.1530
 3795TIP3   OH211390   0.151   3.975   0.041 -0.8289  0.1131 -0.0923
 3795TIP3    H111391   0.065   3.934   0.038 -0.5459 -0.4810 -0.1330
 3795TIP3    H211392   0.134   4.064   0.072 -1.4576  0.0016 -0.1138
 3796TIP3   OH211393   5.863   1.010   0.093  0.0449  0.3720 -0.1646
 3796TIP3    H111394   5.886   0.946   0.025  1.2267  1.4582 -0.8281
 3796TIP3    H211395   5.918   1.086   0.074  0.9063  0.4853  2.4042
 3797TIP3   OH211396   0.412   5.690   4.049  0.1568 -0.0173 -0.0843
 3797TIP3    H111397   0.372   5.769   4.086 -0.0141  0.0729 -0.4602
 3797TIP3    H211398   0.481   5.667   4.111  0.5135  0.6920 -0.2097
 3798TIP3   OH211399   2.641   5.672   3.445 -0.0637  0.3324 -0.6123
 3798TIP3    H111400   2.554   5.632   3.448 -0.5082  1.0112 -2.7597
 3798TIP3    H211401   2.626   5.765   3.462  0.5869  0.1349  1.3089
 3799TIP3   OH211402   2.799   4.171   2.295 -0.1567 -0.1166 -0.3029
 3799TIP3    H111403   2.738   4.156   2.367 -0.7086 -0.8981 -0.9029
 3799TIP3    H211404   2.856   4.241   2.325  0.8700 -1.7106  1.6659
 3800TIP3   OH211405   5.830   5.979   4.665  0.2940 -0.4240  0.3532
 3800TIP3    H111406   5.860   5.948   4.750  0.2160  2.0193  1.3727
 3800TIP3    H211407   5.748   5.933   4.650 -1.2775  1.2285  3.1188
 3801TIP3   OH211408   4.912   3.990   4.422 -0.1860 -0.3256 -0.1744
 3801TIP3    H111409   4.820   4.008   4.440 -0.7011 -3.2994  0.6766
 3801TIP3    H211410   4.921   4.004   4.328 -1.0733  1.5643 -0.0118
 3802TIP3   OH211411   4.042   4.648   3.419 -0.3136 -0.4624 -0.1559
 3802TIP3    H111412   4.068   4.665   3.510 -1.7252  0.2647  0.1414
 3802TIP3    H211413   4.086   4.716   3.369  1.2804 -1.4651 -0.1845
 3803TIP3   OH211414   4.208   5.636   3.588 -0.5014 -0.0985  0.3122
 3803TIP3    H111415   4.245   5.548   3.594  1.9647  0.9007  1.1735
 3803TIP3    H211416   4.146   5.641   3.660  1.9528 -0.0687  2.5683
 3804TIP3   OH211417   5.517   4.089   1.266 -0.0608 -0.2192  0.1641
 3804TIP3    H111418   5.436   4.125   1.232 -0.1479 -0.4035  0.1764
 3804TIP3    H211419   5.581   4.103   1.196  0.1459  0.8430  0.5402
 3805TIP3   OH211420   4.369   1.370   0.487 -0.7667  0.1938 -0.5290
 3805TIP3    H111421   4.373   1.433   0.560  1.5672 -2.4185  1.8589
 3805TIP3    H211422   4.277   1.342   0.485 -0.5874 -1.2232  3.0490
 3806TIP3   OH211423   4.958   3.252   3.283  0.2933  0.1902  0.2017
 3806TIP3    H111424   4.891   3.191   3.312 -0.2646  0.0454 -1.2975
 3806TIP3    H211425   5.025   3.197   3.242  0.1407  0.5034 -0.4937
 3807TIP3   OH211426   2.855   1.676   2.022  0.7347 -0.2664 -0.1638
 3807TIP3    H111427   2.831   1.752   2.075  2.7655  0.6205 -0.4218
 3807TIP3    H211428   2.778   1.659   1.968 -1.3228 -1.0026  2.7232
 3808TIP3   OH211429   3.007   3.836   3.871 -0.3346  0.9086 -0.1685
 3808TIP3    H111430   3.009   3.811   3.963 -1.5299 -0.6444 -0.5290
 3808TIP3    H211431   3.099   3.849   3.847  0.1871 -1.0842  0.6314
 3809TIP3   OH211432   0.933   5.781   0.024 -0.2099 -0.0517 -0.1382
 3809TIP3    H111433   0.963   5.860  -0.020  0.3608  0.1653  0.6145
 3809TIP3    H211434   0.925   5.807   0.116  1.9953 -1.3910  0.5010
 3810TIP3   OH211435   0.800   4.851   2.579 -0.0665 -0.2351 -0.2716
 3810TIP3    H111436   0.755   4.832   2.496 -1.2852  0.5592  0.1811
 3810TIP3    H211437   0.851   4.772   2.596  1.9785  0.3720 -2.8642
 3811TIP3   OH211438   0.424   1.251   1.761  0.3404  0.4976 -0.0048
 3811TIP3    H111439   0.346   1.201   1.783  0.1764 -0.2068 -1.9596
 3811TIP3    H211440   0.495   1.206   1.806 -0.1684  0.1221  0.4291
 3812TIP3   OH211441   4.762   2.063   3.678  0.0445 -0.1311 -0.3963
 3812TIP3    H111442   4.731   2.113   3.603 -1.5353  0.2615  0.4907
 3812TIP3    H211443   4.687   2.012   3.707  0.8521 -0.9028  0.4393
 3813TIP3   OH211444   4.827   4.491   3.039 -0.2298 -0.0067 -0.5871
 3813TIP3    H111445   4.792   4.519   3.124 -0.9427 -2.0454 -0.1450
 3813TIP3    H211446   4.791   4.553   2.976 -2.7595 -0.5993  0.1702
 3814TIP3   OH211447   1.987   0.464   1.067 -0.0381  0.7547 -0.0154
 3814TIP3    H111448   1.907   0.452   1.016  1.5637 -0.5407 -2.4553
 3814TIP3    H211449   2.036   0.531   1.019  1.8678 -1.0700 -0.7789
 3815TIP3   OH211450   1.132   5.054   4.914 -0.3780 -0.0244 -0.3093
 3815TIP3    H111451   1.221   5.071   4.882 -0.4264  1.9542  0.4388
 3815TIP3    H211452   1.141   4.974   4.966  1.6954  1.6182  2.1532
 3816TIP3   OH211453   2.815   2.205   4.043  0.1220 -0.2341  0.2528
 3816TIP3    H111454   2.760   2.225   3.967 -0.6120  1.5652  1.1899
 3816TIP3    H211455   2.903   2.231   4.016  0.0646 -0.6439 -0.3499
 3817TIP3   OH211456   5.613   0.553   4.596 -0.2669 -0.0380  0.4681
 3817TIP3    H111457   5.551   0.493   4.637 -1.4995  1.3806  0.7502
 3817TIP3    H211458   5.591   0.550   4.503 -1.7173  1.4711  0.7226
 3818TIP3   OH211459   1.804   0.851   3.693  0.2833 -0.1068  0.6973
 3818TIP3    H111460   1.898   0.865   3.688  0.3528  0.3372  2.4851
 3818TIP3    H211461   1.793   0.779   3.755 -0.5201 -1.0328 -0.4780
 3819TIP3   OH211462   5.726   3.524   0.529 -0.1170 -0.3401  0.0737
 3819TIP3    H111463   5.686   3.487   0.450  0.1454  1.5271 -0.9763
 3819TIP3    H211464   5.813   3.553   0.500 -0.0499  0.4460  1.0316
 3820TIP3   OH211465   1.002   4.060   4.972 -0.1264  0.0208  0.9870
 3820TIP3    H111466   0.999   3.978   4.922  2.5240  0.1531  0.4476
 3820TIP3    H211467   0.984   4.033   5.062  0.0689 -1.0750  0.7234
 3821TIP3   OH211468   5.541   3.041   2.221 -0.2773 -0.3617  0.1517
 3821TIP3    H111469   5.478   2.973   2.245 -0.0896 -0.2132  1.1074
 3821TIP3    H211470   5.619   3.020   2.272  0.9871 -1.3557 -2.0498
 3822TIP3   OH211471   3.919   0.356   3.861 -0.0922  0.0367 -0.2196
 3822TIP3    H111472   3.850   0.295   3.839 -1.1479  1.1712 -0.1545
 3822TIP3    H211473   3.894   0.391   3.947  1.3594 -0.6479  0.5194
 3823TIP3   OH211474   5.045   4.444   1.073  0.0199  0.2614  0.4852
 3823TIP3    H111475   5.104   4.473   1.143 -1.7558  0.5517  1.9359
 3823TIP3    H211476   5.028   4.523   1.021 -0.3760  0.5725  1.0706
 3824TIP3   OH211477   4.758   0.273   0.512 -0.3153  0.2341  0.1634
 3824TIP3    H111478   4.724   0.326   0.584 -0.9841  0.9494 -0.6462
 3824TIP3    H211479   4.709   0.303   0.435 -2.2265 -2.9138 -0.0566
 3825TIP3   OH211480   4.383   2.728   1.536 -0.1367  0.2652  0.1452
 3825TIP3    H111481   4.299   2.709   1.494 -0.0708 -3.9203  1.4569
 3825TIP3    H211482   4.447   2.726   1.465 -0.7083 -0.4999 -0.3629
 3826TIP3   OH211483   4.483   3.283   1.564  0.0600 -0.0609 -0.1375
 3826TIP3    H111484   4.415   3.349   1.550  0.9790  1.0944  0.6553
 3826TIP3    H211485   4.555   3.331   1.605  0.9961 -1.4439 -0.0975
 3827TIP3   OH211486   6.258   4.999   1.078 -0.0386  0.5681  0.2415
 3827TIP3    H111487   6.180   4.948   1.055  0.9763 -1.6994  1.4308
 3827TIP3    H211488   6.314   4.993   1.001  0.0797 -0.2040  0.3760
 3828TIP3   OH211489   1.301   1.413   5.156  0.0516 -0.3461 -0.6361
 3828TIP3    H111490   1.354   1.337   5.179 -0.1660 -0.1665  0.5233
 3828TIP3    H211491   1.341   1.447   5.076  1.0223 -0.8355 -0.3746
 3829TIP3   OH211492   2.034   5.876   4.563  0.1884  0.0335 -0.2635
 3829TIP3    H111493   2.017   5.901   4.473 -0.8983 -0.2636 -0.1505
 3829TIP3    H211494   2.048   5.781   4.559 -1.6789 -0.2947  0.0979
 3830TIP3   OH211495   6.186   5.141   1.458  0.7683 -0.3497  0.4431
 3830TIP3    H111496   6.209   5.195   1.533  1.5293 -1.7590  1.2647
 3830TIP3    H211497   6.090   5.134   1.462  0.6743  0.7213  0.4357
 3831TIP3   OH211498   1.042   1.415   5.189 -0.8307  0.2909 -0.2574
 3831TIP3    H111499   1.136   1.412   5.205 -1.2824  1.1263  3.5586
 3831TIP3    H211500   1.032   1.389   5.098  3.2836  3.0780 -1.7582
 3832TIP3   OH211501   1.834   5.734   4.710 -0.1579 -0.0606 -0.2234
 3832TIP3    H111502   1.881   5.788   4.647 -2.9471  0.3267 -2.1585
 3832TIP3    H211503   1.743   5.763   4.704 -1.5238 -3.7136 -0.0653
 3833TIP3   OH211504   3.423   5.294   0.008 -0.1395 -0.1473 -0.4415
 3833TIP3    H111505   3.451   5.246   0.086 -0.1948  1.6450  0.7439
 3833TIP3    H211506   3.501   5.295  -0.048  0.2418 -0.5283  0.0682
 3834TIP3   OH211507   4.058   3.589   4.747  0.0637 -0.0964  0.1856
 3834TIP3    H111508   4.141   3.557   4.710  0.0294  0.7279 -0.6372
 3834TIP3    H211509   4.084   3.633   4.828  0.3379 -0.5227  0.3303
 3835TIP3   OH211510   2.898   4.424   0.446  0.0371  0.2259  0.2197
 3835TIP3    H111511   2.843   4.394   0.374  0.6387 -0.3940  0.0135
 3835TIP3    H211512   2.958   4.487   0.406 -1.4777  2.0877  0.7204
 3836TIP3   OH211513   5.645   2.434   0.862 -0.2187  0.2688  0.4643
 3836TIP3    H111514   5.608   2.346   0.869 -0.6401  0.4276  0.2130
 3836TIP3    H211515   5.738   2.422   0.884 -0.2931 -0.2208  0.5236
 3837TIP3   OH211516   1.652   3.797   2.722 -0.1378  0.2583  0.0432
 3837TIP3    H111517   1.698   3.839   2.796  1.3998  0.1202 -0.7895
 3837TIP3    H211518   1.722   3.775   2.660 -1.3857  0.2597 -1.4113
 3838TIP3   OH211519   6.317   2.815   0.400 -0.1573 -0.2084  0.1251
 3838TIP3    H111520   6.282   2.831   0.488  0.2929  1.6805 -0.0083
 3838TIP3    H211521   6.255   2.754   0.361 -1.8950  1.0470  0.7999
 3839TIP3   OH211522   2.577   5.372   4.819  0.3025  0.2709 -0.3732
 3839TIP3    H111523   2.639   5.303   4.841 -0.6126 -1.0020 -1.6063
 3839TIP3    H211524   2.620   5.453   4.848  2.2089 -0.6228 -0.5191
 3840TIP3   OH211525   6.131   5.035   4.502 -0.0366  0.0705  0.4932
 3840TIP3    H111526   6.067   5.103   4.480 -0.3565 -1.0642 -2.6630
 3840TIP3    H211527   6.205   5.052   4.444 -0.0892 -2.1183 -0.3241
 3841TIP3   OH211528   1.163   1.425   3.894 -0.2817 -0.0427  0.4298
 3841TIP3    H111529   1.232   1.474   3.849  0.1373  0.5347  1.6685
 3841TIP3    H211530   1.147   1.349   3.838 -0.1534  0.9188 -0.9666
 3842TIP3   OH211531   4.795   0.605   0.526 -0.6978  0.2839  0.6104
 3842TIP3    H111532   4.704   0.623   0.550 -0.3291  2.6888  0.4496
 3842TIP3    H211533   4.810   0.659   0.448  0.3765 -1.4672 -0.4774
 3843TIP3   OH211534   2.888   2.011   2.043  0.5287  0.2554 -0.3328
 3843TIP3    H111535   2.837   2.087   2.015  1.1363  0.7141 -0.2267
 3843TIP3    H211536   2.896   1.958   1.964  0.8825  0.7650 -0.6500
 3844TIP3   OH211537   4.986   4.764   0.361 -0.0766 -0.0726 -0.7012
 3844TIP3    H111538   5.013   4.696   0.423 -3.1712  0.2112  1.2305
 3844TIP3    H211539   4.892   4.748   0.349 -0.7764  3.3430 -0.7588
 3845TIP3   OH211540   2.098   0.291   3.410  0.0345  0.2777  0.1676
 3845TIP3    H111541   2.186   0.265   3.381  0.6185  1.5907  0.6920
 3845TIP3    H211542   2.047   0.301   3.330  0.5603  0.2000 -0.1786
 3846TIP3   OH211543   1.281   1.762   3.066  0.1171  0.4457 -0.1556
 3846TIP3    H111544   1.251   1.786   3.154 -1.5323 -1.3927 -0.1475
 3846TIP3    H211545   1.249   1.833   3.009 -1.2251  0.2612  0.3539
 3847TIP3   OH211546   6.068   0.390   1.525  0.7419  0.0836  0.3682
 3847TIP3    H111547   6.074   0.480   1.492 -1.6972 -0.2687 -1.2986
 3847TIP3    H211548   6.008   0.397   1.600  2.6938  0.1780  2.0097
 3848TIP3   OH211549   5.529   5.328   0.348  0.0802  0.4272  0.2887
 3848TIP3    H111550   5.437   5.343   0.326 -0.4535 -3.3161 -0.7644
 3848TIP3    H211551   5.527   5.292   0.437  0.4613 -0.0908  0.0918
 3849TIP3   OH211552   3.030   5.222   0.603  0.1290  0.2811 -0.2316
 3849TIP3    H111553   3.106   5.246   0.656  0.0139 -1.5467  0.8503
 3849TIP3    H211554   3.065   5.212   0.514  0.9279  0.5336  0.0432
 3850TIP3   OH211555   2.232   4.637   2.079 -0.2908  0.0495 -0.2517
 3850TIP3    H111556   2.237   4.542   2.065  1.5518 -0.4734  2.7703
 3850TIP3    H211557   2.317   4.670   2.048  0.1284  0.2342  1.0131
 3851TIP3   OH211558   4.043   5.035   0.132 -0.1487  0.7374 -0.2328
 3851TIP3    H111559   3.956   5.029   0.092 -0.8948  0.7425  1.3009
 3851TIP3    H211560   4.063   4.945   0.160  0.2799  0.7640 -0.4447
 3852TIP3   OH211561   1.380   3.836   2.746 -0.3561  0.6948  0.0541
 3852TIP3    H111562   1.353   3.779   2.818 -2.4216 -1.5627 -2.3071
 3852TIP3    H211563   1.471   3.810   2.729 -0.5568 -0.3211  0.4547
 3853TIP3   OH211564   1.974   5.839   2.597  0.2691 -0.3757  0.0828
 3853TIP3    H111565   1.898   5.879   2.554  1.1538  0.5462 -0.6685
 3853TIP3    H211566   2.049   5.878   2.553  1.1962 -0.6083  1.4260
 3854TIP3   OH211567   4.790   3.496   5.111 -0.7262  0.5924  0.2556
 3854TIP3    H111568   4.700   3.486   5.144 -0.7913  0.0711 -0.0744
 3854TIP3    H211569   4.781   3.497   5.016 -0.3751  0.4524  0.2194
 3855TIP3   OH211570   0.050   2.224   3.850  0.2797 -0.0856 -0.0619
 3855TIP3    H111571  -0.020   2.210   3.914  1.1924  0.3934  1.0702
 3855TIP3    H211572   0.112   2.282   3.895  1.9283 -1.3248 -0.6441
 3856TIP3   OH211573   2.126   3.685   4.212 -0.6202  0.0525  0.0657
 3856TIP3    H111574   2.097   3.718   4.126 -0.2274 -2.7821 -1.2554
 3856TIP3    H211575   2.176   3.758   4.249 -0.6579  1.3225 -2.1661
 3857TIP3   OH211576   0.447   5.629   3.112 -0.0271  0.3479  0.0794
 3857TIP3    H111577   0.408   5.624   3.025 -0.5999 -1.2350  0.3931
 3857TIP3    H211578   0.525   5.574   3.107  0.0545  0.4153  0.5245
 3858TIP3   OH211579   6.321   0.999   0.218 -0.3945 -0.1753 -0.5038
 3858TIP3    H111580   6.412   1.011   0.245 -0.7544 -1.5727  1.4832
 3858TIP3    H211581   6.314   0.906   0.198 -1.2866  0.0152 -1.1522
 3859TIP3   OH211582   2.376   4.105   0.228  0.2346 -0.4204  0.2041
 3859TIP3    H111583   2.338   4.175   0.175 -1.9703 -2.4966 -1.1447
 3859TIP3    H211584   2.306   4.080   0.288  1.7357 -0.0685  2.2117
 3860TIP3   OH211585   3.845   3.913   3.580 -0.5265  0.7297 -0.5206
 3860TIP3    H111586   3.935   3.942   3.591 -0.6114  1.4602 -1.6132
 3860TIP3    H211587   3.814   3.896   3.669  0.5998  0.7051 -0.1151
 3861TIP3   OH211588   1.942   3.964   2.529 -0.0415 -0.1136  0.1209
 3861TIP3    H111589   2.014   3.929   2.580 -1.1682 -2.9639 -0.0260
 3861TIP3    H211590   1.911   4.040   2.578  2.5123  0.7105  0.5593
 3862TIP3   OH211591   2.152   3.991   1.576 -0.4115  0.2297 -0.0080
 3862TIP3    H111592   2.061   3.963   1.589 -0.8346  1.0051 -1.1950
 3862TIP3    H211593   2.177   4.030   1.660 -1.1111 -0.1437  0.3853
 3863TIP3   OH211594   4.463   3.098   0.975 -0.1148 -0.2666 -0.4496
 3863TIP3    H111595   4.507   3.037   0.916  0.7270 -0.6841  0.5779
 3863TIP3    H211596   4.443   3.046   1.053 -2.2345 -0.0295 -0.7517
 3864TIP3   OH211597   1.573   4.578   2.160 -0.7438  0.7077  0.2836
 3864TIP3    H111598   1.492   4.623   2.136 -0.1911  0.4628 -2.2923
 3864TIP3    H211599   1.641   4.645   2.158 -0.7108  0.7395  1.5867
 3865TIP3   OH211600   5.986   4.813   3.353  0.0557 -1.0582 -0.7330
 3865TIP3    H111601   5.957   4.791   3.265 -3.6733 -1.9195  0.5189
 3865TIP3    H211602   5.989   4.909   3.354 -0.5263 -1.0197 -1.6133
 3866TIP3   OH211603   3.257   2.194   3.881  0.2805 -0.1858  0.2630
 3866TIP3    H111604   3.296   2.110   3.906 -0.1734 -0.4420  0.1315
 3866TIP3    H211605   3.195   2.171   3.811 -1.6150 -0.1033  1.8224
 3867TIP3   OH211606   1.832   4.405   1.685  0.6288  0.0227  0.0696
 3867TIP3    H111607   1.788   4.487   1.706 -0.5431 -0.3860 -0.6712
 3867TIP3    H211608   1.784   4.338   1.733  0.4440 -0.4327 -0.7296
 3868TIP3   OH211609   3.629   3.467   2.323  0.1768 -0.2576 -0.4347
 3868TIP3    H111610   3.665   3.547   2.286  0.2753 -0.3298 -0.4966
 3868TIP3    H211611   3.543   3.458   2.281  0.6713 -0.8324 -1.3581
 3869TIP3   OH211612   0.367   3.921   3.451 -0.0914  0.2441  0.1198
 3869TIP3    H111613   0.333   3.866   3.380 -1.3075  0.7546  0.2769
 3869TIP3    H211614   0.308   3.904   3.525 -0.3525  1.5712  0.2362
 3870TIP3   OH211615   5.870   2.908   2.071  0.4125 -0.2336  0.1719
 3870TIP3    H111616   5.818   2.830   2.090  0.7043 -0.6123 -0.5246
 3870TIP3    H211617   5.890   2.945   2.156 -0.4039 -0.4742  0.4812
 3871TIP3   OH211618   4.103   5.054   3.484  0.1688 -0.6911  0.7445
 3871TIP3    H111619   4.111   5.137   3.532 -1.6508  0.9341 -1.5182
 3871TIP3    H211620   4.182   5.050   3.429 -0.0974 -0.0193  0.2967
 3872TIP3   OH211621   1.523   4.886   3.012  0.5752  0.2322 -0.7671
 3872TIP3    H111622   1.567   4.839   3.083  3.9962 -0.3511 -3.0315
 3872TIP3    H211623   1.441   4.838   2.998 -0.4715  0.6735  2.9647
 3873TIP3   OH211624   1.650   4.263   1.834  0.1976 -0.6638 -0.0808
 3873TIP3    H111625   1.711   4.281   1.905  0.7807 -0.8783 -0.5203
 3873TIP3    H211626   1.634   4.169   1.840  0.2457 -0.6820 -0.2268
 3874TIP3   OH211627   0.554   2.640   3.763  0.2818  0.2173 -0.2570
 3874TIP3    H111628   0.635   2.619   3.810 -0.0758 -0.2233  0.1651
 3874TIP3    H211629   0.493   2.571   3.787 -0.1335  0.3827 -0.8101
 3875TIP3   OH211630   0.295   2.040   3.781 -0.7097 -0.0386 -0.8660
 3875TIP3    H111631   0.320   2.000   3.864  0.4870 -4.0209 -2.8638
 3875TIP3    H211632   0.201   2.058   3.791 -0.5027  0.0600  1.4624
 3876TIP3   OH211633   5.873   0.411   2.191  0.3768 -0.2344  0.0378
 3876TIP3    H111634   5.946   0.356   2.165 -0.3573 -0.8613 -0.7914
 3876TIP3    H211635   5.869   0.479   2.124  0.8973  0.4743  0.7146
 3877TIP3   OH211636   0.597   2.860   1.457 -0.3103  0.3107 -0.2587
 3877TIP3    H111637   0.604   2.948   1.495 -0.4863 -0.0971  0.7475
 3877TIP3    H211638   0.504   2.850   1.438 -0.9842 -0.9558  2.9739
 3878TIP3   OH211639   0.871   0.978   3.623 -0.7282  0.8902  0.1552
 3878TIP3    H111640   0.893   0.983   3.716 -0.9044  1.2173  0.1794
 3878TIP3    H211641   0.778   0.959   3.621 -0.8868  1.6490  0.0467
 3879TIP3   OH211642   5.829   5.466   3.094  0.0937  0.0574  0.0202
 3879TIP3    H111643   5.911   5.416   3.093  1.4138  2.0985 -0.0703
 3879TIP3    H211644   5.780   5.431   3.168  1.8875  0.0096  1.2474
 3880TIP3   OH211645   4.830   1.740   1.412  0.6070 -0.2629 -0.1611
 3880TIP3    H111646   4.754   1.688   1.440  0.6575 -0.1531  0.1821
 3880TIP3    H211647   4.871   1.769   1.494  1.2256 -0.6145 -0.3370
 3881TIP3   OH211648   4.623   1.995   4.680  0.5431  0.0186  0.1923
 3881TIP3    H111649   4.648   1.978   4.770 -0.3480  2.0784  0.9031
 3881TIP3    H211650   4.693   1.957   4.627  1.1001 -1.1801  1.7391
 3882TIP3   OH211651   4.182   2.532   2.674  0.6908 -0.0394 -0.4929
 3882TIP3    H111652   4.159   2.464   2.738  0.7334  1.3041  1.0272
 3882TIP3    H211653   4.166   2.491   2.589 -0.9539 -1.3745  0.3843
 3883TIP3   OH211654   2.410   0.811   5.087  0.9216 -0.0913 -0.3345
 3883TIP3    H111655   2.405   0.898   5.048  2.1377 -0.3568 -1.1317
 3883TIP3    H211656   2.345   0.813   5.157  1.4212  1.6913  0.1343
 3884TIP3   OH211657   4.511   3.165   0.045  0.0795 -0.0169  0.1640
 3884TIP3    H111658   4.474   3.079   0.024 -0.2168 -0.2271  1.4370
 3884TIP3    H211659   4.591   3.146   0.093 -0.6363  0.3585  1.5930
 3885TIP3   OH211660   3.636   1.964   3.028  0.2848  0.1405  0.8923
 3885TIP3    H111661   3.541   1.976   3.025  0.2694  0.3769  1.7862
 3885TIP3    H211662   3.671   2.053   3.032  0.6466  0.1194 -1.1018
 3886TIP3   OH211663   2.338   2.388   1.846  0.1758  0.1326  0.0673
 3886TIP3    H111664   2.431   2.400   1.863  0.1022 -0.5924  1.0730
 3886TIP3    H211665   2.331   2.380   1.751  1.3972 -1.7925  0.1008
 3887TIP3   OH211666   4.121   2.747   4.340 -0.6622 -0.2361 -0.7194
 3887TIP3    H111667   4.205   2.701   4.334 -0.0012  0.9879 -1.1552
 3887TIP3    H211668   4.130   2.804   4.417 -1.8581 -1.5309  0.4479
 3888TIP3   OH211669   2.480   2.936   1.465 -0.0616 -0.1372 -0.0887
 3888TIP3    H111670   2.481   2.912   1.558 -1.3105 -0.4434 -0.1321
 3888TIP3    H211671   2.400   2.988   1.455  0.9331  1.3290 -0.6587
 3889TIP3   OH211672   0.322   2.507   0.131 -0.0867  0.4385  0.5522
 3889TIP3    H111673   0.331   2.421   0.090 -0.5777  0.1627  1.0012
 3889TIP3    H211674   0.274   2.560   0.066  1.2543  0.7469 -0.2177
 3890TIP3   OH211675   3.449   3.875   1.827 -0.4918 -0.6323  0.1264
 3890TIP3    H111676   3.407   3.838   1.904 -0.8370 -1.6857 -0.5387
 3890TIP3    H211677   3.376   3.901   1.770 -0.3287  2.4035  1.0917
 3891TIP3   OH211678   3.698   1.049   0.991  0.2235 -0.3275  0.1908
 3891TIP3    H111679   3.744   1.033   0.909  0.4443  0.1057  0.2267
 3891TIP3    H211680   3.647   0.970   1.006  2.3159 -1.5906  1.0581
 3892TIP3   OH211681   1.185   0.394   2.495  0.2198  0.1797 -0.0155
 3892TIP3    H111682   1.149   0.324   2.440 -0.8520  1.6941 -1.3495
 3892TIP3    H211683   1.271   0.413   2.457 -0.2032  0.7055 -0.7488
 3893TIP3   OH211684   3.817   3.599   0.382 -0.2376 -0.1799  0.1956
 3893TIP3    H111685   3.901   3.553   0.388 -0.7353 -1.1864 -0.3968
 3893TIP3    H211686   3.840   3.692   0.389  0.9443 -0.4317 -0.1676
 3894TIP3   OH211687   3.061   4.773   4.333 -0.0683  0.0834 -0.3671
 3894TIP3    H111688   3.035   4.711   4.400 -0.5643  0.1104 -0.5353
 3894TIP3    H211689   3.045   4.859   4.372 -1.4058  0.1001 -0.9211
 3895TIP3   OH211690   4.799   0.002   2.565 -0.3029 -0.0745  0.1315
 3895TIP3    H111691   4.826   0.094   2.569  1.2529 -0.5368  1.0969
 3895TIP3    H211692   4.872  -0.043   2.523 -0.5295 -1.0393  0.7269
 3896TIP3   OH211693   5.074   2.540   4.227  0.0888 -0.2528 -0.4359
 3896TIP3    H111694   5.111   2.622   4.195  0.6836 -0.3648 -0.0510
 3896TIP3    H211695   5.119   2.472   4.177  1.7047 -0.4822  1.2085
 3897TIP3   OH211696   0.908   2.659   2.808 -0.0574 -0.2065 -0.5030
 3897TIP3    H111697   0.835   2.600   2.785  0.8603 -0.3276 -3.6336
 3897TIP3    H211698   0.897   2.734   2.749  0.9314  0.9944  0.7795
 3898TIP3   OH211699   4.791   4.016   1.985 -0.5782  0.4897 -0.0716
 3898TIP3    H111700   4.714   3.997   1.932 -1.1310  0.2622  0.8053
 3898TIP3    H211701   4.778   4.105   2.017 -0.0624  0.7701 -0.6045
 3899TIP3   OH211702   3.787   3.117   3.856  0.2611  0.3888 -0.6775
 3899TIP3    H111703   3.759   3.186   3.797  0.1145  0.2354 -0.7900
 3899TIP3    H211704   3.705   3.085   3.895  0.4658  1.4183  0.6515
 3900TIP3   OH211705   2.351   5.813   2.741  0.0462  0.4196  0.9219
 3900TIP3    H111706   2.386   5.750   2.679 -1.7293 -0.6144  0.8849
 3900TIP3    H211707   2.422   5.875   2.756  1.4243 -0.8690 -0.0165
 3901TIP3   OH211708   0.304   0.281   1.656  0.0598  0.5925  0.2936
 3901TIP3    H111709   0.273   0.367   1.628  0.6457  0.4239 -0.9520
 3901TIP3    H211710   0.285   0.278   1.750 -1.7767  1.2978 -0.0116
 3902TIP3   OH211711   3.804   2.416   4.446  0.2387  0.2594  0.6286
 3902TIP3    H111712   3.806   2.490   4.506  1.6422 -0.0434  1.0101
 3902TIP3    H211713   3.875   2.359   4.477  0.7434 -0.0983 -1.0684
 3903TIP3   OH211714   2.762   4.384   3.759 -0.3942 -0.3408 -0.0915
 3903TIP3    H111715   2.780   4.431   3.841  0.8714  1.4630 -1.3283
 3903TIP3    H211716   2.678   4.419   3.730 -0.2398 -0.0442 -0.1853
 3904TIP3   OH211717   0.781   3.033   4.950 -0.0576 -0.0891  0.0837
 3904TIP3    H111718   0.694   3.047   4.913 -0.7579  0.1752  1.7426
 3904TIP3    H211719   0.807   3.120   4.980 -0.0382 -0.5039  1.2865
 3905TIP3   OH211720   5.506   5.151   0.965 -0.1855  0.4240 -0.2280
 3905TIP3    H111721   5.443   5.090   1.004  0.5773 -0.6942 -0.7114
 3905TIP3    H211722   5.586   5.138   1.015 -0.0132  1.0516 -0.3290
 3906TIP3   OH211723   1.685   1.058   3.604 -0.0300 -0.0269 -0.0157
 3906TIP3    H111724   1.758   1.119   3.612  0.0715 -0.2826  1.0806
 3906TIP3    H211725   1.715   0.979   3.649  0.1635 -1.2225 -2.0625
 3907TIP3   OH211726   1.959   5.978   3.470 -0.1103  0.0699  0.0908
 3907TIP3    H111727   1.916   5.972   3.385  1.3961 -0.7091 -0.6462
 3907TIP3    H211728   2.033   5.918   3.464  0.5079  0.6279  1.6666
 3908TIP3   OH211729   5.459   5.635   2.217  0.2593 -0.2390  0.4571
 3908TIP3    H111730   5.540   5.608   2.261  0.3174 -0.2352  0.3537
 3908TIP3    H211731   5.481   5.635   2.124 -0.1389 -1.1620  0.3577
 3909TIP3   OH211732   6.146   3.279   2.605  0.2725  0.5553  0.1078
 3909TIP3    H111733   6.083   3.210   2.584 -0.9878  1.7070 -0.0565
 3909TIP3    H211734   6.092   3.353   2.633  1.4099  2.2442 -1.8752
 3910TIP3   OH211735   3.994   4.602   0.086  0.1951  0.3532  0.0982
 3910TIP3    H111736   4.020   4.567   0.001 -1.3542  0.8355 -0.6015
 3910TIP3    H211737   4.048   4.680   0.098  0.1100  0.5309 -0.6542
 3911TIP3   OH211738   4.454   2.843   4.723 -0.4351  0.4046 -0.3991
 3911TIP3    H111739   4.385   2.782   4.748 -3.0655  2.8820 -1.1274
 3911TIP3    H211740   4.491   2.873   4.806 -0.6800 -0.4538  0.0306
 3912TIP3   OH211741   6.259   3.052   5.085  0.1380 -0.4076 -0.7850
 3912TIP3    H111742   6.167   3.071   5.067 -0.8512 -1.9500  2.0894
 3912TIP3    H211743   6.295   3.135   5.114 -1.2826 -0.4346  1.2531
 3913TIP3   OH211744  -0.012   2.985   3.170  0.5527  0.2446 -0.0539
 3913TIP3    H111745   0.002   2.958   3.079  1.3936  0.2271  0.0773
 3913TIP3    H211746   0.071   2.969   3.213  0.1349  0.1742  0.7469
 3914TIP3   OH211747   5.766   4.455   2.840  0.2454 -0.5294  0.1391
 3914TIP3    H111748   5.750   4.378   2.786  1.4510 -1.0879  0.5538
 3914TIP3    H211749   5.683   4.471   2.885  0.0891 -1.8152  0.3413
 3915TIP3   OH211750   1.094   4.935   3.528  0.4886 -0.3345  0.0470
 3915TIP3    H111751   1.025   5.001   3.528 -0.0473 -0.8850  0.6028
 3915TIP3    H211752   1.048   4.851   3.530  1.1375 -0.7678 -1.5017
 3916TIP3   OH211753   3.096  -0.010   3.798  0.7846  0.3701 -0.7305
 3916TIP3    H111754   3.157   0.045   3.846  0.0699  0.5986 -0.0488
 3916TIP3    H211755   3.012   0.035   3.806  0.6877  0.5226 -2.4109
 3917TIP3   OH211756   5.446   1.078   0.557 -0.6007 -0.1230 -0.2810
 3917TIP3    H111757   5.393   1.078   0.637  1.1651  1.5371  0.9838
 3917TIP3    H211758   5.497   0.997   0.563 -2.0680 -1.1390 -0.9206
 3918TIP3   OH211759   0.406   4.760   2.808  0.0194 -0.1198 -0.8586
 3918TIP3    H111760   0.437   4.781   2.720  1.3779  0.3194 -0.3122
 3918TIP3    H211761   0.413   4.842   2.856 -1.2755 -0.2119 -0.4819
 3919TIP3   OH211762   2.954   4.112   2.093 -0.0786 -0.1619  0.4882
 3919TIP3    H111763   2.913   4.143   2.174  1.1878  0.5082  0.9079
 3919TIP3    H211764   3.018   4.180   2.071  0.1448 -0.7088 -0.6532
 3920TIP3   OH211765   5.328   4.735   4.535  0.2733  0.4543 -0.2517
 3920TIP3    H111766   5.367   4.775   4.457  0.5661  1.1136  0.2173
 3920TIP3    H211767   5.362   4.787   4.608  0.2862 -0.3727  0.3473
 3921TIP3   OH211768   0.907   4.485   3.364  0.1343  0.3892 -0.1685
 3921TIP3    H111769   0.881   4.576   3.350  0.7393  0.5404 -0.3264
 3921TIP3    H211770   0.984   4.491   3.420 -0.0342 -0.0464  0.1169
 3922TIP3   OH211771   5.990   4.064   1.539 -0.3776  0.7018  0.2936
 3922TIP3    H111772   6.032   3.983   1.569 -0.6483  0.4804  0.0802
 3922TIP3    H211773   6.062   4.127   1.531 -0.1513  0.4554  0.3714
 3923TIP3   OH211774   3.450   1.235   2.790 -0.0737 -0.2834 -0.0737
 3923TIP3    H111775   3.484   1.148   2.809  0.5462 -0.0038  0.1231
 3923TIP3    H211776   3.500   1.293   2.848 -0.7316  0.1603  0.0521
 3924TIP3   OH211777   1.788   3.467   1.165  0.1880  0.5110  0.2419
 3924TIP3    H111778   1.737   3.449   1.086 -0.7745  0.2466  0.9022
 3924TIP3    H211779   1.817   3.381   1.195 -2.7363  0.0817  2.2948
 3925TIP3   OH211780   5.202   3.047   0.717  0.0193 -0.2523 -0.0338
 3925TIP3    H111781   5.195   2.990   0.793 -0.6224 -1.1806 -0.7605
 3925TIP3    H211782   5.152   3.125   0.741 -1.1000 -0.9899  0.1046
 3926TIP3   OH211783   3.171   1.562   0.341 -0.1770 -0.0780  0.2784
 3926TIP3    H111784   3.266   1.577   0.343 -0.3798  1.2778  1.5852
 3926TIP3    H211785   3.147   1.568   0.249  1.1029 -1.2143 -0.1612
 3927TIP3   OH211786   2.540   2.553   1.543  0.5384  0.0461  0.9217
 3927TIP3    H111787   2.482   2.479   1.563  0.2375 -0.6808 -2.1198
 3927TIP3    H211788   2.483   2.630   1.547  0.5152 -0.0184  2.6326
 3928TIP3   OH211789   0.459   2.151   0.700  0.3426 -1.0701  0.3449
 3928TIP3    H111790   0.521   2.101   0.647  0.3968 -0.9666  0.3108
 3928TIP3    H211791   0.424   2.217   0.641  0.1796 -1.1467  0.3577
 3929TIP3   OH211792   1.359   4.023   2.454  0.3911  0.0072  0.7073
 3929TIP3    H111793   1.408   4.103   2.437  1.7698 -0.9529  0.0519
 3929TIP3    H211794   1.353   4.018   2.550 -0.3709  1.2639  0.7416
 3930TIP3   OH211795   2.785   4.780   4.046  0.5802  0.0038  0.1202
 3930TIP3    H111796   2.787   4.874   4.067  1.7913 -0.0385  0.2866
 3930TIP3    H211797   2.794   4.736   4.131  0.3494 -0.2592  0.0100
 3931TIP3   OH211798   5.779   0.635   0.416  0.3030 -0.5600 -0.1980
 3931TIP3    H111799   5.808   0.694   0.486  0.8360 -0.8239 -0.1926
 3931TIP3    H211800   5.831   0.556   0.430 -0.5272 -1.0928 -0.1015
 3932TIP3   OH211801   5.415   3.977   0.146  0.0819  0.6030 -0.1613
 3932TIP3    H111802   5.392   3.886   0.167 -0.3856  0.4574 -1.2173
 3932TIP3    H211803   5.480   3.969   0.076  2.0515  1.0551  1.5258
 3933TIP3   OH211804   1.528   0.277   0.741  0.2040 -0.2595  0.5536
 3933TIP3    H111805   1.482   0.321   0.812  0.1841  0.6608 -0.0166
 3933TIP3    H211806   1.498   0.321   0.662  1.7265  0.0800  0.1297
 3934TIP3   OH211807   0.188   3.493   3.748  0.5722 -0.7623 -0.3734
 3934TIP3    H111808   0.271   3.457   3.779 -0.0256 -1.6342  0.2812
 3934TIP3    H211809   0.201   3.506   3.654  1.3991 -1.0186 -0.3009
 3935TIP3   OH211810   3.634   2.796   2.001  0.5517 -0.3101  0.3573
 3935TIP3    H111811   3.643   2.768   1.910  0.1069  0.4974  0.0554
 3935TIP3    H211812   3.627   2.714   2.050 -0.5619 -0.7476 -0.4792
 3936TIP3   OH211813   3.580   1.138   4.560 -0.1298  0.3220 -0.0390
 3936TIP3    H111814   3.617   1.219   4.523 -0.7001 -0.1840 -1.8315
 3936TIP3    H211815   3.627   1.126   4.642  2.1714  0.8661 -1.1703
 3937TIP3   OH211816   3.452   3.421   3.240 -0.2549  0.2517 -0.2327
 3937TIP3    H111817   3.528   3.364   3.229 -0.3202  0.0495  0.3474
 3937TIP3    H211818   3.449   3.472   3.159 -0.8847 -1.3984 -1.3099
 3938TIP3   OH211819   3.943   1.388   2.224  0.4152  0.4862  0.5302
 3938TIP3    H111820   3.964   1.460   2.283  0.2316  0.2239  0.9174
 3938TIP3    H211821   4.018   1.383   2.165  0.1040  1.4779  0.0158
 3939TIP3   OH211822   2.949   1.945   0.953 -0.2376 -0.2186  0.4265
 3939TIP3    H111823   2.889   1.882   0.992 -0.2647 -0.7028 -0.3850
 3939TIP3    H211824   2.923   1.950   0.861  1.4012 -0.9720 -0.1186
 3940TIP3   OH211825   5.314   3.027   3.286  0.4675 -0.6630 -0.3903
 3940TIP3    H111826   5.387   2.980   3.246  0.4060 -0.0755 -1.2340
 3940TIP3    H211827   5.252   3.041   3.214 -0.0567 -0.3562  0.1102
 3941TIP3   OH211828   3.028   5.958   3.219  0.4092  0.1723 -0.0500
 3941TIP3    H111829   3.090   5.887   3.207 -0.9466 -1.3135  1.3574
 3941TIP3    H211830   2.989   5.943   3.305  0.2771  2.8078  0.4418
 3942TIP3   OH211831   3.417   1.056   1.447 -0.4840  0.3803 -0.2930
 3942TIP3    H111832   3.414   0.977   1.500 -1.3236  1.5291  1.4684
 3942TIP3    H211833   3.488   1.109   1.484  0.3719  0.3105 -1.7318
 3943TIP3   OH211834   2.807   2.882   4.833 -0.2968  0.1721  0.0696
 3943TIP3    H111835   2.781   2.970   4.860  0.8933  0.7751 -0.6921
 3943TIP3    H211836   2.892   2.893   4.791  0.8940 -1.6482  1.8342
 3944TIP3   OH211837   4.412   4.579   2.054  0.0446 -0.5121  0.4236
 3944TIP3    H111838   4.346   4.513   2.076 -1.5822  0.8875 -0.0779
 3944TIP3    H211839   4.383   4.615   1.970  0.3942  1.4350  1.0952
 3945TIP3   OH211840   3.728   0.717   3.277 -0.1211 -0.0992 -0.0559
 3945TIP3    H111841   3.712   0.713   3.183 -2.2408 -0.3353  0.2608
 3945TIP3    H211842   3.817   0.751   3.285 -0.1215  0.5267 -2.1198
 3946TIP3   OH211843   5.542   1.229   4.418 -0.3350  0.4456 -0.2710
 3946TIP3    H111844   5.494   1.312   4.418 -1.2193 -0.0530 -0.5330
 3946TIP3    H211845   5.548   1.204   4.326 -0.3311  0.0716 -0.1724
 3947TIP3   OH211846   1.697   1.659   0.556  0.1203 -0.4485 -0.1371
 3947TIP3    H111847   1.705   1.636   0.648  0.2685 -0.5666 -0.1796
 3947TIP3    H211848   1.784   1.692   0.532  0.4581 -1.6050 -0.5684
 3948TIP3   OH211849   4.810   5.471   4.554 -0.2634 -0.4412  0.0454
 3948TIP3    H111850   4.839   5.413   4.625  0.0542 -0.1055  0.1916
 3948TIP3    H211851   4.719   5.492   4.576 -0.5673 -1.3398 -0.3085
 3949TIP3   OH211852   0.247   3.488   0.395 -0.0042  1.2808  0.2687
 3949TIP3    H111853   0.217   3.523   0.479  0.6080  0.0526  1.0385
 3949TIP3    H211854   0.337   3.460   0.412  0.2304  1.2647 -0.8934
 3950TIP3   OH211855   2.005   1.363   2.268  0.2814  0.0981  0.6133
 3950TIP3    H111856   1.954   1.319   2.200  0.0448  0.9024  0.2676
 3950TIP3    H211857   2.084   1.392   2.223  0.6886 -0.4279  0.9666
 3951TIP3   OH211858   0.390   1.975   1.810  0.7547 -0.0805  0.4702
 3951TIP3    H111859   0.339   1.966   1.891 -0.0009  2.6424  0.3905
 3951TIP3    H211860   0.481   1.975   1.839  0.4866  0.9528  1.3491
 3952TIP3   OH211861   0.610   2.068   4.595 -0.3616  0.4747 -0.0080
 3952TIP3    H111862   0.613   2.157   4.630 -0.2999  0.4451  0.0618
 3952TIP3    H211863   0.535   2.028   4.639 -1.5210  1.0598 -1.3919
 3953TIP3   OH211864   5.932   3.100   2.658  0.9756  0.3688  0.4745
 3953TIP3    H111865   5.872   3.110   2.732  0.7004 -0.5165  0.3785
 3953TIP3    H211866   5.916   3.011   2.625  2.1341  0.2117  0.2724
 3954TIP3   OH211867   4.788   5.737   0.760  0.2580 -0.3004  0.0701
 3954TIP3    H111868   4.730   5.726   0.684 -0.5819 -1.1656  0.8224
 3954TIP3    H211869   4.751   5.681   0.827  1.3916 -0.0679  0.9168
 3955TIP3   OH211870   2.652   4.009   4.026  0.2135 -0.2613  0.7847
 3955TIP3    H111871   2.709   3.953   4.081  2.0877  1.8355  1.1145
 3955TIP3    H211872   2.598   4.057   4.089 -0.0021 -0.2731  0.6093
 3956TIP3   OH211873   0.087   2.857   2.926  0.5653  0.0807  0.6273
 3956TIP3    H111874   0.183   2.862   2.925  0.6001 -0.5945  0.1090
 3956TIP3    H211875   0.066   2.779   2.875 -0.2304 -0.3038  1.4950
 3957TIP3   OH211876   2.967   3.723   5.149  0.7399  0.0578  0.2814
 3957TIP3    H111877   3.048   3.763   5.117 -1.2360  3.6461 -0.7758
 3957TIP3    H211878   2.928   3.683   5.072  0.2906  0.7171  0.1517
 3958TIP3   OH211879   5.937   3.638   0.973  0.2382 -0.3709  0.4410
 3958TIP3    H111880   5.845   3.610   0.975 -0.0493  0.4598 -0.3517
 3958TIP3    H211881   5.938   3.718   1.025  0.9379 -1.4949  2.2040
 3959TIP3   OH211882   3.950   5.659   2.218  0.0622 -0.7275 -0.0035
 3959TIP3    H111883   3.925   5.569   2.194 -0.1877 -0.5461 -0.4359
 3959TIP3    H211884   3.876   5.691   2.270 -0.4553 -0.3236 -0.9599
 3960TIP3   OH211885   4.571   5.669   4.439 -0.2631 -0.0207 -0.5242
 3960TIP3    H111886   4.592   5.605   4.507 -1.1612 -1.8569 -1.8616
 3960TIP3    H211887   4.511   5.730   4.480 -0.0162 -0.5155  0.6015
 3961TIP3   OH211888   1.909   2.214   3.212 -0.3572  0.2533  0.3664
 3961TIP3    H111889   1.896   2.309   3.203 -0.1857  0.1976 -0.6832
 3961TIP3    H211890   1.839   2.175   3.159 -1.5214 -0.2779  2.2068
 3962TIP3   OH211891   1.941   1.247   2.015 -0.4856 -0.1224  0.0958
 3962TIP3    H111892   1.980   1.285   1.936 -2.0811  0.4285 -0.4534
 3962TIP3    H211893   1.964   1.154   2.009  0.4468  0.1144 -0.3690
 3963TIP3   OH211894   4.338   5.942   4.117 -0.2324  0.4376  0.3353
 3963TIP3    H111895   4.274   6.012   4.125 -1.2336 -0.0882 -2.1644
 3963TIP3    H211896   4.420   5.986   4.098 -0.2367  1.0211  1.5536
 3964TIP3   OH211897   2.208   0.412   2.880  0.0876 -0.0172 -1.1765
 3964TIP3    H111898   2.282   0.469   2.860 -0.7690  1.1423 -1.1344
 3964TIP3    H211899   2.202   0.353   2.805  0.7011  0.2488 -1.4411
 3965TIP3   OH211900   5.334   5.840   4.533 -0.5873  0.2959 -0.5257
 3965TIP3    H111901   5.284   5.885   4.602 -2.6045 -0.4358 -1.4491
 3965TIP3    H211902   5.332   5.901   4.459 -0.6088  0.0141 -0.7563
 3966TIP3   OH211903   4.334   3.378   3.628  0.2937 -0.3121  0.2560
 3966TIP3    H111904   4.340   3.283   3.630 -1.0814 -0.4463 -0.6215
 3966TIP3    H211905   4.240   3.397   3.639 -0.1277  0.7131 -3.5982
 3967TIP3   OH211906   3.657   1.700   2.340 -0.1346  0.2095 -0.2870
 3967TIP3    H111907   3.725   1.735   2.397 -0.4654  1.8200 -0.8296
 3967TIP3    H211908   3.575   1.725   2.383 -0.3879 -0.2489 -0.4931
 3968TIP3   OH211909   5.576   1.466   0.338  0.2430  0.2899  0.3779
 3968TIP3    H111910   5.623   1.394   0.295 -1.9105 -0.4709 -0.8834
 3968TIP3    H211911   5.525   1.506   0.268 -0.7166  1.2944  1.6094
 3969TIP3   OH211912   0.705   4.607   0.745 -0.5032  0.8731  0.1511
 3969TIP3    H111913   0.661   4.691   0.753 -1.6468  0.2840  0.1772
 3969TIP3    H211914   0.656   4.548   0.801 -1.2241 -0.4034 -1.7160
 3970TIP3   OH211915   5.569   2.698   1.882 -0.3317 -0.1848 -0.1062
 3970TIP3    H111916   5.503   2.629   1.895 -1.8827  1.0375 -1.1216
 3970TIP3    H211917   5.525   2.779   1.908  1.0269  0.5825 -0.1185
 3971TIP3   OH211918   2.025   5.146   0.969  0.2779 -0.3114 -0.6496
 3971TIP3    H111919   2.070   5.188   1.042 -1.1433 -1.5945  1.0411
 3971TIP3    H211920   1.976   5.217   0.927  0.4179  0.2945  0.1904
 3972TIP3   OH211921   1.827   4.666   3.622 -0.8211  0.2018  0.6380
 3972TIP3    H111922   1.749   4.619   3.652 -0.0490 -0.2751  1.9339
 3972TIP3    H211923   1.791   4.739   3.570 -2.0542 -2.0999 -2.0569
 3973TIP3   OH211924   1.086   4.812   4.568 -0.2823  0.0546  0.4681
 3973TIP3    H111925   1.019   4.880   4.561  0.2666  0.7887  1.8749
 3973TIP3    H211926   1.156   4.853   4.618  0.2050 -1.4626  1.0801
 3974TIP3   OH211927   0.662   3.129   0.245  0.5383  0.2500  0.7394
 3974TIP3    H111928   0.755   3.111   0.230  0.0681 -1.3328 -0.5590
 3974TIP3    H211929   0.624   3.044   0.267 -0.9546  0.4949 -0.7212
 3975TIP3   OH211930   1.210   0.449   3.595 -0.4780  0.2317 -0.0320
 3975TIP3    H111931   1.172   0.414   3.514 -1.5037  0.8941  0.1488
 3975TIP3    H211932   1.301   0.470   3.572 -1.1489  1.7756 -1.4342
 3976TIP3   OH211933   6.181   4.964   1.952 -0.0987 -0.1023 -0.1506
 3976TIP3    H111934   6.276   4.957   1.950 -0.0505  0.1945  0.6192
 3976TIP3    H211935   6.150   4.873   1.951  0.1950 -0.2030 -0.1820
 3977TIP3   OH211936   4.252   0.098   2.564 -0.1110 -0.2406  0.5267
 3977TIP3    H111937   4.347   0.083   2.565  0.0679  0.6180 -0.9099
 3977TIP3    H211938   4.233   0.126   2.474 -1.3379  2.0743  1.4210
 3978TIP3   OH211939   5.624   0.210   1.195  0.5413  0.6920  0.7006
 3978TIP3    H111940   5.574   0.257   1.261 -0.4343 -0.3177  0.7252
 3978TIP3    H211941   5.665   0.138   1.243 -0.9468 -0.6157  0.0958
 3979TIP3   OH211942   4.628   4.337   1.161  0.2793 -0.3122 -0.5388
 3979TIP3    H111943   4.633   4.417   1.109 -0.1722  0.3347  0.3888
 3979TIP3    H211944   4.717   4.323   1.193  0.2284  0.1727 -0.1849
 3980TIP3   OH211945   5.296   1.328   0.872 -0.5480 -0.5034 -0.4309
 3980TIP3    H111946   5.268   1.331   0.780  0.1819  1.5238 -0.6473
 3980TIP3    H211947   5.268   1.412   0.908  0.0817 -0.8552  0.9385
 3981TIP3   OH211948   1.653   2.885   5.137 -0.3421  0.0333  0.3270
 3981TIP3    H111949   1.673   2.928   5.054 -0.5743 -0.1969  0.1519
 3981TIP3    H211950   1.695   2.941   5.203 -1.2212  0.9149  0.1662
 3982TIP3   OH211951   0.958   0.487   1.340  0.7105 -0.0246 -0.1739
 3982TIP3    H111952   0.871   0.507   1.307  0.2084 -1.3443  0.2893
 3982TIP3    H211953   1.018   0.520   1.273 -0.2105 -0.8759 -1.4583
 3983TIP3   OH211954   2.322   4.109   1.730 -0.0234 -0.2994 -0.3728
 3983TIP3    H111955   2.414   4.095   1.708 -0.3794 -0.2960 -1.9587
 3983TIP3    H211956   2.305   4.200   1.708 -0.2878 -0.1449  0.4206
 3984TIP3   OH211957   5.817   0.436   4.095 -0.1741  0.4322 -0.0932
 3984TIP3    H111958   5.774   0.366   4.045  1.6267 -1.9033  1.3799
 3984TIP3    H211959   5.791   0.421   4.185  0.7621  1.2636  0.3348
 3985TIP3   OH211960   3.416   4.382   0.380 -0.1651  0.2675  0.3155
 3985TIP3    H111961   3.460   4.297   0.386 -0.9354 -0.1830 -0.2271
 3985TIP3    H211962   3.412   4.413   0.471  0.7346  0.0457  0.4369
 3986TIP3   OH211963   5.259   5.376   3.253  0.1034  0.2074  0.0235
 3986TIP3    H111964   5.321   5.449   3.252 -0.5059  0.7703  1.5056
 3986TIP3    H211965   5.233   5.366   3.161  0.6486  1.4614 -0.2878
 3987TIP3   OH211966   5.794   4.381   3.834  0.6694 -0.4299 -0.3072
 3987TIP3    H111967   5.843   4.299   3.838 -0.3485 -1.0336  0.0288
 3987TIP3    H211968   5.809   4.414   3.746  1.0064 -1.0228 -0.4736
 3988TIP3   OH211969   5.174   0.320   2.939  0.5176  0.0087 -0.8243
 3988TIP3    H111970   5.159   0.227   2.923  1.7651 -0.2063 -0.8906
 3988TIP3    H211971   5.265   0.324   2.970 -0.1391  0.9713  1.1473
 3989TIP3   OH211972   5.355   5.942   3.235  0.1788 -0.0249  0.7566
 3989TIP3    H111973   5.310   6.022   3.260  0.9369  1.0814 -1.2054
 3989TIP3    H211974   5.308   5.912   3.157  2.2911  0.7531 -0.8982
 3990TIP3   OH211975   2.080   3.631   0.824  0.2946 -0.7614 -0.0336
 3990TIP3    H111976   2.039   3.691   0.762  2.7093 -1.0575 -2.0556
 3990TIP3    H211977   2.140   3.686   0.875  1.9674 -1.2232 -1.3976
 3991TIP3   OH211978   3.212   2.772   1.120 -0.5629  0.5025 -0.4244
 3991TIP3    H111979   3.253   2.696   1.163 -0.1940  1.3574  0.7780
 3991TIP3    H211980   3.200   2.744   1.029 -0.0472 -0.8479 -0.1024
 3992TIP3   OH211981   4.392   1.270   4.730  0.6076  0.1807  0.6204
 3992TIP3    H111982   4.357   1.279   4.641  2.5303  1.3404 -0.0764
 3992TIP3    H211983   4.487   1.272   4.719  0.9098  1.7129  2.8149
 3993TIP3   OH211984   3.488   5.421   3.258  0.6199  0.1620  0.3514
 3993TIP3    H111985   3.470   5.359   3.187  2.9651  0.1428 -0.3370
 3993TIP3    H211986   3.477   5.507   3.218  0.6011  0.1642  0.3615
 3994TIP3   OH211987   2.039   4.614   1.227  0.0616 -0.9382  0.6007
 3994TIP3    H111988   2.097   4.669   1.279  1.2635 -1.5414 -0.0571
 3994TIP3    H211989   1.958   4.610   1.278  1.1714 -1.4999  2.4191
 3995TIP3   OH211990   5.279   3.469   1.298  0.2996 -0.4758  0.7900
 3995TIP3    H111991   5.305   3.389   1.344 -0.4444 -0.7741  0.6922
 3995TIP3    H211992   5.195   3.493   1.337 -0.1284 -0.4927 -0.1145
 3996TIP3   OH211993   5.232   1.690   1.288  0.3271 -0.4437  0.6300
 3996TIP3    H111994   5.209   1.782   1.294 -0.0110 -0.4610 -0.2104
 3996TIP3    H211995   5.312   1.688   1.235 -0.5124 -0.7140 -0.6948
 3997TIP3   OH211996   3.971   2.716   2.802  0.4954  0.2811  0.0646
 3997TIP3    H111997   4.036   2.680   2.741  0.1063  0.3335 -0.3840
 3997TIP3    H211998   3.887   2.687   2.767  0.1781  1.5368 -0.2516
 3998TIP3   OH211999   2.581   2.255   4.616 -0.4274  0.2139 -0.5302
 3998TIP3    H112000   2.510   2.204   4.577  0.6033 -0.8750 -1.0676
 3998TIP3    H212001   2.661   2.211   4.586  0.5486  2.4974 -1.5213
 3999TIP3   OH212002   1.194   2.553   3.223  0.4355 -0.1567 -0.1313
 3999TIP3    H112003   1.167   2.626   3.278  0.7965  0.1622 -0.3642
 3999TIP3    H212004   1.122   2.490   3.227 -0.1696  0.5148 -0.4672
 4000TIP3   OH212005   1.393   3.707   1.984  0.4140  0.3393  0.4340
 4000TIP3    H112006   1.386   3.748   2.070 -0.4253 -0.7090  0.8941
 4000TIP3    H212007   1.321   3.644   1.981  1.2188 -0.5937 -0.5043
 4001TIP3   OH212008   3.723   2.397   3.703 -0.4678  0.0028 -0.3063
 4001TIP3    H112009   3.683   2.484   3.703 -0.5114  0.0126 -1.8983
 4001TIP3    H212010   3.663   2.343   3.754 -1.4419  0.4967 -0.8911
 4002TIP3   OH212011   6.200   3.133   4.273  0.1006 -0.1815  0.0830
 4002TIP3    H112012   6.150   3.052   4.276 -0.2893  0.0354 -0.4084
 4002TIP3    H212013   6.282   3.113   4.318  0.3148 -1.0599 -0.6773
 4003TIP3   OH212014   2.463   5.631   1.217 -0.1303  0.6588 -0.2864
 4003TIP3    H112015   2.494   5.620   1.127  0.7186  1.4538 -0.1042
 4003TIP3    H212016   2.505   5.561   1.266  0.7398  1.2260 -0.2024
 4004TIP3   OH212017   2.140   5.640   3.830  0.3167  0.1842 -0.3371
 4004TIP3    H112018   2.109   5.576   3.767  1.0132  0.3762 -0.8971
 4004TIP3    H212019   2.133   5.597   3.915 -2.3553  0.5635 -0.3072
 4005TIP3   OH212020   1.951   0.549   1.421  0.2251  0.1601  0.3381
 4005TIP3    H112021   2.029   0.588   1.382  0.0783 -0.8065 -0.9794
 4005TIP3    H212022   1.915   0.493   1.353 -0.5914 -0.8516  1.5443
 4006TIP3   OH212023   0.493   2.282   2.015  0.1048  0.2433  0.0034
 4006TIP3    H112024   0.533   2.284   1.928  0.3073  2.3947  0.1039
 4006TIP3    H212025   0.562   2.312   2.074 -0.8128  1.4094  0.5318
 4007TIP3   OH212026   5.184   3.713   2.827  0.6314  0.5223  0.4473
 4007TIP3    H112027   5.199   3.799   2.865  2.9846 -0.1750  1.2330
 4007TIP3    H212028   5.244   3.655   2.873  0.1075 -1.2976 -1.0228
 4008TIP3   OH212029   4.439   0.207   3.857 -0.4086 -0.2479 -0.3535
 4008TIP3    H112030   4.353   0.249   3.865  0.4339  1.2358  2.5781
 4008TIP3    H212031   4.445   0.151   3.934  1.1643 -0.4796 -0.6057
 4009TIP3   OH212032   4.761   5.368   1.794  0.1419  0.4447 -0.1763
 4009TIP3    H112033   4.739   5.276   1.805 -1.7279  0.5400 -2.3310
 4009TIP3    H212034   4.677   5.414   1.804  0.4436  1.5458 -2.2479
 4010TIP3   OH212035   1.042   5.433   0.331 -0.4096 -0.0975 -0.5777
 4010TIP3    H112036   1.035   5.343   0.300 -0.1044 -0.1495 -0.4981
 4010TIP3    H212037   1.136   5.450   0.333 -0.4102 -0.1640  0.5145
 4011TIP3   OH212038   0.252  -0.008   1.863 -0.3048  0.0208 -0.1321
 4011TIP3    H112039   0.320   0.059   1.851 -0.9276  1.0552  1.6435
 4011TIP3    H212040   0.171   0.036   1.838 -0.7125 -0.0690  0.9695
 4012TIP3   OH212041   1.609   5.011   4.466 -0.5203 -0.2291  0.0880
 4012TIP3    H112042   1.610   4.926   4.423 -2.0728 -0.1879 -0.0809
 4012TIP3    H212043   1.590   4.991   4.558  0.4587 -0.1418  0.3245
 4013TIP3   OH212044   3.045   0.764   0.473 -0.0062  0.5859  0.1093
 4013TIP3    H112045   3.079   0.776   0.384  0.5448 -0.3558  0.1818
 4013TIP3    H212046   3.114   0.797   0.530  0.6850 -0.9762  0.2439
 4014TIP3   OH212047   2.337   1.883   2.239 -0.7734 -0.4128  0.4620
 4014TIP3    H112048   2.369   1.794   2.231  0.1333 -0.1477  0.9486
 4014TIP3    H212049   2.274   1.879   2.311 -0.1684 -0.5220  0.9933
 4015TIP3   OH212050   2.056   0.948   1.635 -0.3386  0.4583  0.5008
 4015TIP3    H112051   1.981   1.008   1.636  0.9390  2.1591  0.0490
 4015TIP3    H212052   2.098   0.961   1.720 -0.0887  0.1547  0.4244
 4016TIP3   OH212053   6.119   4.879   4.777 -0.1053  0.2107 -0.1798
 4016TIP3    H112054   6.101   4.931   4.699  3.0320  1.3707 -0.2623
 4016TIP3    H212055   6.090   4.935   4.849 -1.3542 -0.1011 -0.4244
 4017TIP3   OH212056   5.568   3.832   1.385  0.1252 -0.2228  0.5684
 4017TIP3    H112057   5.563   3.904   1.322 -1.4238  0.9580  1.9693
 4017TIP3    H212058   5.531   3.867   1.465  0.9572 -2.0634  1.8336
 4018TIP3   OH212059   6.134   2.141   3.939  0.0625  0.3098  0.4606
 4018TIP3    H112060   6.154   2.115   3.850  1.8122 -0.7779  1.1302
 4018TIP3    H212061   6.091   2.227   3.930 -0.3344 -0.0439 -1.4234
 4019TIP3   OH212062   3.839   4.758   1.715 -0.5022 -0.4573  0.1981
 4019TIP3    H112063   3.820   4.667   1.739 -1.4972  0.1767  2.0450
 4019TIP3    H212064   3.761   4.787   1.668  0.7240 -1.1556 -2.4695
 4020TIP3   OH212065   3.580   2.234   5.017  0.3452  0.0034 -0.3485
 4020TIP3    H112066   3.495   2.214   4.978  0.2904 -1.8127  0.5813
 4020TIP3    H212067   3.569   2.215   5.110  1.4600  0.8505 -0.0197
 4021TIP3   OH212068   5.063   3.046   3.117  0.0266  0.3631 -0.0838
 4021TIP3    H112069   5.097   2.966   3.077 -0.3016 -0.2335  0.8089
 4021TIP3    H212070   4.997   3.077   3.055  0.6817  0.3587 -0.7931
 4022TIP3   OH212071   0.990   0.151   4.038 -0.2939 -0.1063  0.4568
 4022TIP3    H112072   0.936   0.072   4.037 -0.0029 -0.3196 -0.5433
 4022TIP3    H212073   0.984   0.184   3.948  1.4014 -0.2624  0.2601
 4023TIP3   OH212074   0.024   3.688   3.505  0.0895  0.4436 -0.1402
 4023TIP3    H112075  -0.009   3.712   3.419  0.2648  0.8817 -0.0854
 4023TIP3    H212076   0.116   3.667   3.490  0.0035  0.0430 -0.1413
 4024TIP3   OH212077   3.691   1.539   3.018  0.5524 -0.2126 -0.3873
 4024TIP3    H112078   3.676   1.464   3.075 -1.3227 -0.3305 -0.9640
 4024TIP3    H212079   3.735   1.604   3.074  1.6335 -1.4745  0.2795
 4025TIP3   OH212080   1.452   0.265   3.758 -0.2311  0.1297 -0.2839
 4025TIP3    H112081   1.457   0.281   3.664 -1.2324 -0.7054 -0.4835
 4025TIP3    H212082   1.544   0.254   3.785 -0.0270 -1.0953 -1.4181
 4026TIP3   OH212083   3.669   5.994   1.314  0.1952  0.5032  0.1285
 4026TIP3    H112084   3.597   5.980   1.376 -0.2335 -0.6622 -0.5960
 4026TIP3    H212085   3.714   5.910   1.311 -0.9000 -0.0937 -2.4685
 4027TIP3   OH212086   2.972   0.313   1.901 -0.7384 -0.3054 -0.0729
 4027TIP3    H112087   2.919   0.261   1.962  1.6052 -2.9876 -0.1515
 4027TIP3    H212088   3.057   0.270   1.900  0.2426  1.4442 -3.0048
 4028TIP3   OH212089   2.193   4.069   1.320  0.3323 -0.2274 -0.0910
 4028TIP3    H112090   2.280   4.088   1.285  0.2111 -2.1994 -1.6559
 4028TIP3    H212091   2.205   4.065   1.415  1.5134  1.4435 -0.1430
 4029TIP3   OH212092   5.519   3.669   2.929  0.2955 -0.5522  0.0716
 4029TIP3    H112093   5.470   3.749   2.911  0.4037 -0.5069 -0.0292
 4029TIP3    H212094   5.537   3.672   3.023 -0.5867 -0.9708  0.2652
 4030TIP3   OH212095   6.301   1.855   4.505 -0.2003  0.0296  0.4116
 4030TIP3    H112096   6.344   1.781   4.549 -0.7169 -0.7919 -0.4307
 4030TIP3    H212097   6.292   1.827   4.414 -0.6936  1.0097  0.1457
 4031TIP3   OH212098   4.508   4.048   1.583 -0.0390  0.0243  0.0333
 4031TIP3    H112099   4.596   4.079   1.559 -0.4207  0.8009 -0.4003
 4031TIP3    H212100   4.488   3.981   1.517  0.3220 -0.3481  0.2905
 4032TIP3   OH212101   0.532   2.571   1.561  0.0460  0.2430 -0.4446
 4032TIP3    H112102   0.438   2.587   1.555  0.1828  1.3320  0.0905
 4032TIP3    H212103   0.572   2.658   1.551  0.9905 -0.1912 -0.5740
 4033TIP3   OH212104   0.124   5.694   3.760 -0.3193  0.0509 -0.0510
 4033TIP3    H112105   0.135   5.721   3.669 -0.2627 -1.8520 -0.6579
 4033TIP3    H212106   0.030   5.705   3.777 -0.3715  0.1792 -0.4157
 4034TIP3   OH212107   5.692   3.935   4.304 -0.2030  0.0129 -0.0276
 4034TIP3    H112108   5.687   3.839   4.301 -1.6082  0.0961 -1.1377
 4034TIP3    H212109   5.623   3.965   4.245  0.9806  1.7149 -0.6444
 4035TIP3   OH212110   5.301   2.545   3.522 -0.7692 -0.3416  0.1624
 4035TIP3    H112111   5.312   2.529   3.616 -0.4305 -0.4294  0.1093
 4035TIP3    H212112   5.368   2.610   3.501 -2.2797  1.3912  0.4222
 4036TIP3   OH212113   1.974   2.543   0.316 -0.0196  0.0388 -0.6751
 4036TIP3    H112114   1.947   2.476   0.378 -0.0475 -0.3165 -1.0630
 4036TIP3    H212115   2.026   2.496   0.251  2.4834  0.8484  0.5874
 4037TIP3   OH212116   3.028   5.905   0.642  0.4576  0.2214  0.0763
 4037TIP3    H112117   3.078   5.925   0.563 -0.1003 -0.3558 -0.4284
 4037TIP3    H212118   2.958   5.970   0.642 -0.3129 -0.5853 -0.6176
 4038TIP3   OH212119   5.700   0.833   2.026  0.3573 -0.2465  0.7595
 4038TIP3    H112120   5.652   0.774   2.085  1.4772  0.1200  2.0830
 4038TIP3    H212121   5.637   0.854   1.957 -1.1552 -0.3747  2.0443
 4039TIP3   OH212122   4.700   4.281   2.378 -0.5201 -0.1918 -0.0712
 4039TIP3    H112123   4.625   4.231   2.347  0.1224 -1.2665  0.0161
 4039TIP3    H212124   4.697   4.363   2.330 -0.8303 -0.8965 -1.2945
 4040TIP3   OH212125   5.361   5.814   2.416  0.4650  0.1645 -0.2848
 4040TIP3    H112126   5.272   5.842   2.394  1.4660  2.5665 -1.6117
 4040TIP3    H212127   5.376   5.737   2.360 -1.4683 -1.7116  1.5861
 4041TIP3   OH212128   2.646   5.838   1.967  0.1109 -0.1098 -0.0349
 4041TIP3    H112129   2.640   5.746   1.995 -1.3268  0.0999  0.4374
 4041TIP3    H212130   2.556   5.862   1.946  0.7114  0.7187 -1.7869
 4042TIP3   OH212131   2.901   0.128   0.448  0.0040 -0.4638  0.0599
 4042TIP3    H112132   2.914   0.190   0.377  0.9376 -1.4861 -0.7071
 4042TIP3    H212133   2.808   0.135   0.470  0.0495  1.0073 -0.1610
 4043TIP3   OH212134   5.341   3.968   4.420  0.6334  0.1527 -0.0908
 4043TIP3    H112135   5.359   3.884   4.378  1.9486  0.1282  0.4715
 4043TIP3    H212136   5.312   4.025   4.348 -1.2788 -1.0182 -0.3278
 4044TIP3   OH212137   0.244   3.165   4.094  0.1858 -0.1141 -0.0756
 4044TIP3    H112138   0.257   3.167   3.999 -0.0659 -1.7686 -0.1594
 4044TIP3    H212139   0.271   3.077   4.120 -4.1256 -1.4253  0.7327
 4045TIP3   OH212140   3.916   4.119   0.264 -0.5574  0.0185  0.0607
 4045TIP3    H112141   3.953   4.167   0.190  0.7558 -0.6463  0.2675
 4045TIP3    H212142   3.900   4.186   0.331  0.4911  0.2852  0.0525
 4046TIP3   OH212143   2.444   3.838   1.770 -0.2054 -0.4582  0.2937
 4046TIP3    H112144   2.457   3.931   1.785 -1.0141 -0.2156 -0.4060
 4046TIP3    H212145   2.523   3.809   1.725  0.8004 -0.4983  1.9952
 4047TIP3   OH212146   2.343   1.138   1.440 -0.3174 -0.1295 -0.1240
 4047TIP3    H112147   2.314   1.182   1.361 -0.0884 -0.2684 -0.2868
 4047TIP3    H212148   2.396   1.064   1.409 -1.6744 -1.2457  0.0933
 4048TIP3   OH212149   2.709   5.436   0.772  0.0759  0.5833 -0.5008
 4048TIP3    H112150   2.797   5.473   0.767 -0.5540  2.0221 -1.7123
 4048TIP3    H212151   2.700   5.407   0.862  0.8345  2.9202  0.3919
 4049TIP3   OH212152   0.160   3.438   1.750 -0.6386 -0.6517 -0.2227
 4049TIP3    H112153   0.089   3.487   1.711 -0.5633  0.2411  0.7271
 4049TIP3    H212154   0.195   3.385   1.678 -1.6710 -0.4340 -0.9045
 4050TIP3   OH212155   2.073   5.379   5.183 -0.1517 -1.0928  0.3867
 4050TIP3    H112156   2.128   5.418   5.116  0.7764 -1.5435  0.8613
 4050TIP3    H212157   1.989   5.363   5.140  0.1581 -0.5972 -0.4108
 4051TIP3   OH212158   1.950   4.310   3.928  0.2209 -0.0381 -0.0201
 4051TIP3    H112159   1.943   4.223   3.889 -0.3892 -0.2891  0.6293
 4051TIP3    H212160   1.937   4.371   3.855 -3.1908 -0.4685  0.0637
 4052TIP3   OH212161   6.132   3.332   1.586 -0.3584 -0.0285  0.2013
 4052TIP3    H112162   6.195   3.400   1.563 -0.2818  0.4229  1.6916
 4052TIP3    H212163   6.094   3.306   1.502 -1.1816  2.5996 -0.3294
 4053TIP3   OH212164   2.135   4.540   3.779 -0.3591  0.3143  0.0110
 4053TIP3    H112165   2.056   4.591   3.800 -0.6941 -0.0761 -0.2652
 4053TIP3    H212166   2.103   4.470   3.722  0.2044  0.1864 -0.1513
 4054TIP3   OH212167   3.014   4.362   1.088  0.3343 -0.5775  0.0904
 4054TIP3    H112168   3.098   4.365   1.133  0.4850 -2.4564  0.0126
 4054TIP3    H212169   2.949   4.365   1.157  0.5551 -2.5826  0.4573
 4055TIP3   OH212170   2.861   5.959   2.101 -0.2884 -0.4882  0.3659
 4055TIP3    H112171   2.784   5.910   2.074 -0.0045 -0.5617 -0.3172
 4055TIP3    H212172   2.834   6.051   2.095 -0.6065 -0.5349  1.0044
 4056TIP3   OH212173   3.080   2.861   4.720 -0.0158 -0.5283 -0.4188
 4056TIP3    H112174   3.175   2.872   4.725  0.0662  0.3920 -2.5546
 4056TIP3    H212175   3.067   2.767   4.708  0.8517 -0.4244 -2.6198
 4057TIP3   OH212176   6.156   3.571   2.884 -0.2473  0.6549 -0.1143
 4057TIP3    H112177   6.100   3.522   2.823  0.1440 -1.7081  1.3021
 4057TIP3    H212178   6.151   3.522   2.966 -0.0109  3.2021  1.5332
 4058TIP3   OH212179   3.617   3.740   0.214 -0.2425 -0.1032 -0.9257
 4058TIP3    H112180   3.701   3.762   0.253 -0.2174  0.0495 -1.0658
 4058TIP3    H212181   3.552   3.764   0.280 -0.2238  0.4962 -1.1249
 4059TIP3   OH212182   3.500   5.654   3.977 -0.0030 -0.0549  0.5507
 4059TIP3    H112183   3.541   5.705   3.907  0.9480  0.7143  1.6397
 4059TIP3    H212184   3.407   5.675   3.970 -0.0156 -0.4937 -0.8718
 4060TIP3   OH212185   4.801   2.931   4.841 -0.4141 -0.1448  0.0907
 4060TIP3    H112186   4.726   2.988   4.859 -0.3403  0.2516 -0.7786
 4060TIP3    H212187   4.831   2.958   4.754  0.1095 -0.9896 -0.0035
 4061TIP3   OH212188   2.852   0.582   1.518  0.4473  0.8159  0.5830
 4061TIP3    H112189   2.790   0.652   1.542  0.9321  1.1619  0.8478
 4061TIP3    H212190   2.899   0.563   1.600 -0.8660 -1.0532  0.9766
 4062TIP3   OH212191   0.361   5.115   1.124  0.1404  0.2282 -0.7137
 4062TIP3    H112192   0.363   5.127   1.029  0.0028  0.9672 -0.6283
 4062TIP3    H212193   0.436   5.057   1.141 -0.9083 -1.4162 -1.4505
 4063TIP3   OH212194   4.161   0.414   5.103  0.2195 -0.2615  0.4508
 4063TIP3    H112195   4.165   0.432   5.197  1.8036 -3.0791  1.0570
 4063TIP3    H212196   4.075   0.374   5.090  1.5679 -4.0856  1.7843
 4064TIP3   OH212197   1.778   3.479   1.949 -0.0104 -0.4323  0.0598
 4064TIP3    H112198   1.759   3.563   1.991 -0.3301  0.4185 -1.6865
 4064TIP3    H212199   1.707   3.422   1.977  1.0248 -0.6513  2.5063
 4065TIP3   OH212200   2.836   4.963   1.852 -0.1810 -0.6285  0.1090
 4065TIP3    H112201   2.872   5.037   1.901 -0.1034 -0.0557 -0.7933
 4065TIP3    H212202   2.867   4.885   1.899 -1.0127 -0.0984  1.6022
 4066TIP3   OH212203   6.067   1.260   2.479  0.0228  0.4643  0.2133
 4066TIP3    H112204   6.101   1.337   2.433  1.5805  0.6041  1.5151
 4066TIP3    H212205   5.991   1.293   2.527 -0.6508  0.6750 -0.9782
 4067TIP3   OH212206   6.183   0.089   3.288  0.3936  0.0758  0.2159
 4067TIP3    H112207   6.193   0.149   3.215 -1.0314  0.3475  0.2117
 4067TIP3    H212208   6.217   0.137   3.364 -1.1992  1.1202  0.3014
 4068TIP3   OH212209   2.303   4.127   1.999  0.0999  0.1003  0.0809
 4068TIP3    H112210   2.392   4.119   2.033  0.5000 -0.0624 -0.9542
 4068TIP3    H212211   2.309   4.096   1.909 -0.5655  1.9923 -0.6797
 4069TIP3   OH212212   6.099   0.515   4.767  0.1496 -0.2610  0.0769
 4069TIP3    H112213   6.081   0.423   4.783  0.9065 -0.5374 -0.6135
 4069TIP3    H212214   6.194   0.522   4.769  0.2526  0.0064 -2.3612
 4070TIP3   OH212215   2.488   4.381   0.424  0.5343 -0.2519  0.0023
 4070TIP3    H112216   2.404   4.338   0.438 -0.2429  1.2807  0.3778
 4070TIP3    H212217   2.537   4.368   0.506 -0.0705  0.3516  0.4727
 4071TIP3   OH212218   2.916   4.843   3.521  0.5549  0.2470  0.0842
 4071TIP3    H112219   2.890   4.821   3.610 -0.7930 -0.1568 -0.3839
 4071TIP3    H212220   2.958   4.763   3.488 -1.1728 -0.5051 -0.4339
 4072TIP3   OH212221   2.948   5.083   3.403 -0.2709  0.2037 -0.3776
 4072TIP3    H112222   2.979   5.007   3.452 -0.1903 -0.4964 -1.4849
 4072TIP3    H212223   3.026   5.137   3.391  0.1850 -0.6994 -1.6296
 4073TIP3   OH212224   1.354   2.938   2.460 -0.1829  0.4819 -0.2880
 4073TIP3    H112225   1.296   2.927   2.384  0.3091  0.0691 -0.6189
 4073TIP3    H212226   1.433   2.977   2.424 -0.4194  1.4874  0.2418
 4074TIP3   OH212227   2.444   4.758   2.465 -0.6060 -1.0331  0.3088
 4074TIP3    H112228   2.509   4.768   2.535  1.0301 -1.3812 -1.0786
 4074TIP3    H212229   2.427   4.664   2.461  2.3398 -1.6246 -2.2191
 4075TIP3   OH212230   0.823   0.861   0.900  0.1500 -0.2288 -0.0897
 4075TIP3    H112231   0.897   0.920   0.916  0.2634  0.0475 -1.5053
 4075TIP3    H212232   0.821   0.804   0.977  1.6261 -0.0057  0.1503
 4076TIP3   OH212233   4.479   1.714   0.486  0.0449 -0.0717  0.2998
 4076TIP3    H112234   4.472   1.720   0.391 -0.6058 -0.9124  0.2783
 4076TIP3    H212235   4.397   1.750   0.519  0.6285  1.0455  0.6007
 4077TIP3   OH212236   4.943   2.412   2.370 -0.4780 -0.1211 -0.3849
 4077TIP3    H112237   5.025   2.404   2.418 -0.0922  0.3740 -0.9472
 4077TIP3    H212238   4.943   2.502   2.337 -0.3062 -0.7102 -2.0625
 4078TIP3   OH212239   3.718   3.274   0.218  0.4874 -0.0629 -0.6052
 4078TIP3    H112240   3.693   3.356   0.261  1.0534 -0.8304  1.3034
 4078TIP3    H212241   3.792   3.298   0.162  0.3068  0.8082 -0.4913
 4079TIP3   OH212242   1.428   1.816   3.911 -0.0140  0.1182  0.1009
 4079TIP3    H112243   1.461   1.774   3.991 -2.3045  1.6463  1.9997
 4079TIP3    H212244   1.365   1.753   3.875  0.7470 -0.4124 -0.3426
 4080TIP3   OH212245   5.970   3.492   2.698  0.2718 -0.1945 -0.0240
 4080TIP3    H112246   5.951   3.539   2.616  0.4542 -0.9119 -0.4919
 4080TIP3    H212247   5.916   3.535   2.764  1.1722  1.3014 -0.2395
 4081TIP3   OH212248   1.182   3.270   0.684  0.5220  0.3552  0.2340
 4081TIP3    H112249   1.129   3.291   0.607 -0.4244  0.7983  0.9796
 4081TIP3    H212250   1.272   3.274   0.653  0.1286 -0.8163 -1.1744
 4082TIP3   OH212251   5.905   2.330   0.241  0.0741  0.1167 -0.1688
 4082TIP3    H112252   5.878   2.248   0.283  0.3218 -1.7260 -3.2989
 4082TIP3    H212253   5.824   2.378   0.227 -0.0061  0.8548  2.3334
 4083TIP3   OH212254   0.383   3.309   4.668  0.4052  0.0873 -0.1376
 4083TIP3    H112255   0.316   3.244   4.688 -0.6490  0.8748 -0.9502
 4083TIP3    H212256   0.435   3.270   4.598  1.5059 -0.9737  1.2338
 4084TIP3   OH212257   2.803   1.854   4.460  0.4049 -0.2099  0.2643
 4084TIP3    H112258   2.883   1.852   4.407  0.0930 -1.2588 -0.1789
 4084TIP3    H212259   2.832   1.829   4.548  0.5429 -0.7266  0.0744
 4085TIP3   OH212260   6.024   0.789   1.224  0.4405 -0.0681 -0.3997
 4085TIP3    H112261   6.071   0.710   1.197  1.2321  0.5548 -0.9092
 4085TIP3    H212262   5.933   0.773   1.201  0.7591 -0.4214 -1.4502
 4086TIP3   OH212263   3.151   1.515   4.289 -0.0274 -0.2530 -0.1330
 4086TIP3    H112264   3.161   1.531   4.195 -0.7536  0.5158 -0.0933
 4086TIP3    H212265   3.112   1.428   4.293 -1.2633  0.2491 -0.6231
 4087TIP3   OH212266   1.432   5.072   3.900 -0.5422 -0.5260 -0.4184
 4087TIP3    H112267   1.374   4.996   3.905 -0.0140 -0.8905  0.1347
 4087TIP3    H212268   1.375   5.142   3.865 -0.9315 -1.2513 -1.2828
 4088TIP3   OH212269   0.945   0.923   2.107  0.5399  0.1089  0.1136
 4088TIP3    H112270   0.912   1.010   2.130 -2.5605 -0.5782 -1.1869
 4088TIP3    H212271   1.013   0.906   2.171 -1.2263  2.0422  2.7348
 4089TIP3   OH212272   3.318   4.302   0.824 -0.1124  0.4606 -0.3959
 4089TIP3    H112273   3.327   4.241   0.751  1.4222  0.9518 -0.6380
 4089TIP3    H212274   3.405   4.308   0.862 -0.7213  0.8118  1.0183
 4090TIP3   OH212275   1.501   3.104   0.105 -0.1590 -0.1507  0.6816
 4090TIP3    H112276   1.544   3.073   0.025 -0.0929  0.4237  0.4942
 4090TIP3    H212277   1.535   3.046   0.173 -0.7430 -1.1048  0.1961
 4091TIP3   OH212278   4.154   4.408   0.346 -0.2047 -0.0939  0.4463
 4091TIP3    H112279   4.060   4.394   0.360  0.0100 -0.8271  1.2496
 4091TIP3    H212280   4.168   4.501   0.365 -0.7046 -0.0675  0.6896
 4092TIP3   OH212281   3.508   0.603   4.725  0.6072 -0.2320  0.5233
 4092TIP3    H112282   3.461   0.621   4.644 -0.1686 -0.6904  0.8703
 4092TIP3    H212283   3.512   0.688   4.769 -0.5090 -0.3195  0.8145
 4093TIP3   OH212284   2.133   5.363   4.314 -0.2637  0.0818 -0.2220
 4093TIP3    H112285   2.186   5.390   4.239  0.2492 -2.3665 -0.8403
 4093TIP3    H212286   2.052   5.412   4.304  0.3791  0.9656 -1.5015
 4094TIP3   OH212287   4.686   2.859   0.658  0.6619 -0.2025  0.4036
 4094TIP3    H112288   4.772   2.821   0.676  1.0639  0.3252 -0.3762
 4094TIP3    H212289   4.628   2.820   0.724  1.1981 -1.6537  0.0365
 4095TIP3   OH212290   3.863   5.152   1.499 -0.4847  0.4845  0.1680
 4095TIP3    H112291   3.820   5.220   1.552  1.1892  2.3618 -0.7250
 4095TIP3    H212292   3.798   5.082   1.493 -2.1677  1.8273  1.4883
 4096TIP3   OH212293   1.774   2.066   4.142 -0.0064  0.1919  0.1771
 4096TIP3    H112294   1.865   2.048   4.120 -0.6888 -1.2902 -1.7030
 4096TIP3    H212295   1.758   2.015   4.222  0.1459 -1.6449 -0.9238
 4097TIP3   OH212296   2.524   4.095   0.485  0.6801  0.3506 -0.2076
 4097TIP3    H112297   2.522   4.001   0.465  2.0914 -0.0277  1.2818
 4097TIP3    H212298   2.485   4.136   0.407 -0.1891 -1.4550 -0.7913
 4098TIP3   OH212299   0.606   0.947   3.228  0.4744  0.1762  0.3892
 4098TIP3    H112300   0.570   0.859   3.231  1.1477 -0.1580 -0.8906
 4098TIP3    H212301   0.537   1.002   3.265 -0.1538 -0.8055  0.7175
 4099TIP3   OH212302   4.173   1.150   0.636 -0.2145 -0.1058 -0.0762
 4099TIP3    H112303   4.089   1.196   0.643  0.2765  0.6157  1.5424
 4099TIP3    H212304   4.198   1.134   0.727  1.6740  0.1875 -0.5163
 4100TIP3   OH212305   3.250   1.299   3.135 -0.3437 -0.4941 -0.1057
 4100TIP3    H112306   3.317   1.322   3.199 -0.3394  0.4433 -0.4206
 4100TIP3    H212307   3.231   1.382   3.090 -1.2695 -0.8716 -0.4368
 4101TIP3   OH212308   0.819   0.215   2.094  0.3002 -0.5418 -0.2377
 4101TIP3    H112309   0.792   0.127   2.068 -2.1887  0.0075  0.2286
 4101TIP3    H212310   0.844   0.258   2.012 -1.7484 -0.6853 -1.0088
 4102TIP3   OH212311   1.734   4.259   5.167 -0.4325 -0.1582 -0.0455
 4102TIP3    H112312   1.768   4.333   5.217  1.0517 -0.9627  0.1977
 4102TIP3    H212313   1.726   4.292   5.077  0.7162  0.1576 -0.0438
 4103TIP3   OH212314   2.033   4.105   4.920 -0.2995  0.0096  0.4756
 4103TIP3    H112315   1.965   4.038   4.929  1.3576 -1.9328 -0.5671
 4103TIP3    H212316   2.035   4.148   5.005 -1.2584 -1.4567  1.2918
 4104TIP3   OH212317   5.711   1.065   2.638  0.2571 -0.1933  0.3878
 4104TIP3    H112318   5.714   1.114   2.720 -0.7833 -0.1754  0.4385
 4104TIP3    H212319   5.802   1.051   2.614  0.5777  1.1485  0.7450
 4105TIP3   OH212320   2.506   3.406   3.391  0.3553 -0.2919  0.6499
 4105TIP3    H112321   2.515   3.334   3.328  0.0260 -0.5918  0.9414
 4105TIP3    H212322   2.572   3.390   3.457  0.7259  0.0438  0.3659
 4106TIP3   OH212323   5.513   1.385   0.628 -0.5128 -0.4147 -0.5706
 4106TIP3    H112324   5.505   1.290   0.630 -0.7507 -0.4107 -1.1741
 4106TIP3    H212325   5.549   1.405   0.542  2.1965 -0.1237  0.5169
 4107TIP3   OH212326   3.038   2.383   4.537  0.2697  0.0629 -0.2969
 4107TIP3    H112327   3.070   2.340   4.458  0.1217  1.3972 -1.1010
 4107TIP3    H212328   2.943   2.374   4.533  0.3259 -1.0168  0.4180
 4108TIP3   OH212329   1.849   2.738   1.604 -0.0090 -0.3336  0.4163
 4108TIP3    H112330   1.759   2.714   1.583 -0.7269  0.2897  2.5545
 4108TIP3    H212331   1.861   2.709   1.694  1.1956  1.5960  0.9208
 4109TIP3   OH212332   1.409   0.365   4.480 -0.0575 -0.0985  0.1689
 4109TIP3    H112333   1.410   0.439   4.420 -0.6390 -0.8116 -0.7492
 4109TIP3    H212334   1.367   0.400   4.560  2.8029  1.4905  1.1083
 4110TIP3   OH212335   5.959   4.841   3.999  0.0964 -0.3187  0.0603
 4110TIP3    H112336   5.873   4.861   4.036 -0.0584 -2.0301  0.6998
 4110TIP3    H212337   6.022   4.873   4.064 -0.0965 -0.3167  0.2448
 4111TIP3   OH212338   3.568   0.060   4.415 -0.2258  0.5769 -0.3001
 4111TIP3    H112339   3.641   0.000   4.399  0.7759  1.0536  2.1469
 4111TIP3    H212340   3.568   0.074   4.510 -3.2332  0.9602 -0.2587
 4112TIP3   OH212341   5.091   2.553   1.684 -0.0740  0.2939  0.5093
 4112TIP3    H112342   5.176   2.582   1.650  0.7455 -0.5897  1.6892
 4112TIP3    H212343   5.110   2.528   1.775 -1.7492  0.6977  0.9880
 4113TIP3   OH212344   2.321   4.080   4.008  0.1225  0.4776 -0.4853
 4113TIP3    H112345   2.340   4.171   4.030  2.2833 -0.1650  0.7035
 4113TIP3    H212346   2.239   4.061   4.052  0.2841  1.5188  0.3004
 4114TIP3   OH212347   2.596   0.582   5.121 -0.3130 -0.5037  0.4068
 4114TIP3    H112348   2.680   0.600   5.163  0.3438 -2.0345 -0.2081
 4114TIP3    H212349   2.561   0.669   5.099  1.0060  0.1580  0.8359
 4115TIP3   OH212350   2.299   5.571   0.639  0.0200 -0.1779 -0.5495
 4115TIP3    H112351   2.231   5.556   0.705  1.0200 -0.5746  0.4312
 4115TIP3    H212352   2.345   5.487   0.633  0.1965 -0.0254 -1.4699
 4116TIP3   OH212353   2.601   1.986   4.828  0.0988 -0.1200  0.2011
 4116TIP3    H112354   2.531   1.945   4.879  0.2794 -0.2024  0.3880
 4116TIP3    H212355   2.558   2.054   4.778  0.1905  1.2237  1.8704
 4117TIP3   OH212356   0.628   4.106   3.739  0.1991 -0.0164 -0.2521
 4117TIP3    H112357   0.650   4.163   3.812 -0.7017  0.3595 -0.2606
 4117TIP3    H212358   0.554   4.053   3.770 -0.3849  0.3472 -0.9668
 4118TIP3   OH212359   3.468   1.814   2.729 -0.0743 -0.1832  0.2849
 4118TIP3    H112360   3.423   1.766   2.799 -0.5597  0.1047  0.1720
 4118TIP3    H212361   3.443   1.769   2.648  1.2050 -1.0792  0.3545
 4119TIP3   OH212362   1.552   2.314   2.981  0.0624 -0.4001 -0.7513
 4119TIP3    H112363   1.631   2.367   2.974  0.4155 -0.8856 -0.4878
 4119TIP3    H212364   1.487   2.360   2.927  0.4256  0.1772 -0.6981
 4120TIP3   OH212365   4.457   5.503   0.835 -0.5401 -0.2679 -0.3939
 4120TIP3    H112366   4.537   5.488   0.885  0.2123  1.1265 -1.1255
 4120TIP3    H212367   4.464   5.445   0.759 -0.8306 -1.0349  0.1389
 4121TIP3   OH212368   2.736   0.254   0.255  0.1508 -0.2185 -0.1975
 4121TIP3    H112369   2.789   0.235   0.178 -0.2868  0.3043 -0.6415
 4121TIP3    H212370   2.695   0.170   0.277 -0.1396 -0.2575 -0.8620
 4122TIP3   OH212371   1.751   5.902   1.383 -0.5492  0.7587  0.2445
 4122TIP3    H112372   1.784   5.832   1.328 -2.0840  1.4366 -1.6602
 4122TIP3    H212373   1.743   5.863   1.470  2.9836 -0.0342  0.3457
 4123TIP3   OH212374   5.111   4.835   1.851  0.0708  0.2026 -0.0269
 4123TIP3    H112375   5.061   4.876   1.780  0.2897  0.2019 -0.1815
 4123TIP3    H212376   5.106   4.899   1.923 -0.3500  0.0979  0.0409
 4124TIP3   OH212377   3.487   5.957   1.525 -0.2225 -0.3125 -0.0915
 4124TIP3    H112378   3.536   5.876   1.538 -1.1553 -1.0482 -1.0153
 4124TIP3    H212379   3.423   5.958   1.597  0.7648  0.3882  0.8092
 4125TIP3   OH212380   5.713   1.538   4.629  0.1008 -0.5429  0.0349
 4125TIP3    H112381   5.686   1.629   4.639 -0.2516 -0.6793  0.3691
 4125TIP3    H212382   5.699   1.499   4.716 -0.5434 -1.1166 -0.3178
 4126TIP3   OH212383   2.940   4.162   3.993 -0.7057  0.0800  0.0647
 4126TIP3    H112384   2.857   4.206   4.013 -1.7863 -0.9548 -1.8484
 4126TIP3    H212385   2.915   4.072   3.974  0.7703 -0.1199 -1.1010
 4127TIP3   OH212386   3.492   4.937   2.431  0.5710 -0.2579 -0.8118
 4127TIP3    H112387   3.483   4.981   2.515 -1.7970 -2.6747  0.3829
 4127TIP3    H212388   3.577   4.892   2.436  0.7965  0.2353 -0.0336
 4128TIP3   OH212389   0.719   0.780   1.428 -0.5226 -0.4758  0.0943
 4128TIP3    H112390   0.649   0.716   1.440 -0.3280 -0.9397 -1.1160
 4128TIP3    H212391   0.745   0.804   1.517 -1.8845 -0.6570  0.5577
 4129TIP3   OH212392   6.093   3.045   0.070 -1.3725 -0.7866  0.1678
 4129TIP3    H112393   6.052   2.959   0.074 -1.9509 -0.5576 -0.6789
 4129TIP3    H212394   6.171   3.032   0.016 -0.5517 -1.1163  1.3828
 4130TIP3   OH212395   4.066   1.623   4.985  0.1722  0.0371 -0.4634
 4130TIP3    H112396   4.028   1.557   4.927 -0.2953 -0.8875  0.8392
 4130TIP3    H212397   4.132   1.575   5.036  1.5059  1.1150 -1.1077
 4131TIP3   OH212398   3.623   4.039   1.244  0.4234  0.7765  0.1804
 4131TIP3    H112399   3.698   4.069   1.192 -0.5810 -1.2836 -2.7206
 4131TIP3    H212400   3.627   3.944   1.240 -1.9126  0.5895  0.6115
 4132TIP3   OH212401   6.206   3.116   3.983 -0.1326  0.2831  0.1964
 4132TIP3    H112402   6.237   3.026   3.974 -0.3837  0.2017  0.1532
 4132TIP3    H212403   6.196   3.129   4.077 -0.8601  0.0082  0.1597
 4133TIP3   OH212404   3.656   2.153   2.012 -0.0729  0.4255  0.3309
 4133TIP3    H112405   3.654   2.102   1.931 -0.3987  1.2301 -0.1741
 4133TIP3    H212406   3.584   2.215   2.003 -0.3776  0.2492  1.4253
 4134TIP3   OH212407   4.802   2.307   1.033 -0.5532 -0.4126 -0.4068
 4134TIP3    H112408   4.831   2.336   1.120 -0.8166 -1.5183  0.0713
 4134TIP3    H212409   4.779   2.214   1.045  0.9674 -1.0510 -2.0311
 4135TIP3   OH212410   0.566   1.100   2.505 -0.5144  0.0239  0.4990
 4135TIP3    H112411   0.586   1.010   2.480  0.7819  0.2884  0.5131
 4135TIP3    H212412   0.652   1.141   2.515 -1.0870  1.1359  0.9456
 4136TIP3   OH212413   2.908   0.106   2.455 -0.2185  0.1613  0.3086
 4136TIP3    H112414   2.955   0.091   2.372  1.3852  0.3055  1.1521
 4136TIP3    H212415   2.933   0.032   2.510 -2.4227 -0.7110  0.2272
 4137TIP3   OH212416   5.174   5.233   1.363 -0.2478 -0.3021  0.7645
 4137TIP3    H112417   5.260   5.194   1.378  0.9449  1.7584 -0.2751
 4137TIP3    H212418   5.188   5.327   1.373 -2.1437  0.1804 -0.5028
 4138TIP3   OH212419   4.156   5.888   3.780  0.0209  0.2170 -0.3400
 4138TIP3    H112420   4.244   5.852   3.785  0.6797  1.4077 -2.1977
 4138TIP3    H212421   4.098   5.812   3.790  1.2971 -0.9181 -1.2283
 4139TIP3   OH212422   1.234   0.092   3.765 -0.4008 -0.5044  0.1883
 4139TIP3    H112423   1.161   0.153   3.755 -0.1256 -0.0374  0.9881
 4139TIP3    H212424   1.312   0.147   3.766 -0.1317 -0.8859  0.7256
 4140TIP3   OH212425   0.760   2.555   3.934 -0.0288  0.4758  0.3933
 4140TIP3    H112426   0.737   2.487   3.997  0.8828 -0.5103 -0.3044
 4140TIP3    H212427   0.814   2.617   3.984 -0.6227  0.5495  0.9597
 4141TIP3   OH212428   1.894   4.472   1.413  0.0459  0.2918 -0.8792
 4141TIP3    H112429   1.928   4.393   1.371  0.7351  1.0355 -1.7582
 4141TIP3    H212430   1.800   4.455   1.423  0.5011 -1.5213  0.9721
 4142TIP3   OH212431   2.180   2.096   3.224  0.0621 -0.0949 -0.3021
 4142TIP3    H112432   2.248   2.163   3.211 -1.6372  1.5510 -1.3946
 4142TIP3    H212433   2.098   2.145   3.219 -1.2387 -2.1069  0.2377
 4143TIP3   OH212434   0.484   2.872   4.015  0.1659 -0.2409  0.7287
 4143TIP3    H112435   0.461   2.921   3.935  0.6409  0.1737  0.8400
 4143TIP3    H212436   0.570   2.905   4.039 -0.1559 -0.0424  1.6628
 4144TIP3   OH212437   5.773   3.015   3.908 -0.2835 -0.0924 -0.6064
 4144TIP3    H112438   5.727   2.950   3.855 -0.7493 -0.2890  0.0234
 4144TIP3    H212439   5.851   3.036   3.858 -0.5090 -0.5771 -1.1746
 4145TIP3   OH212440   0.472   2.284   3.380 -0.2177  0.0231  0.0088
 4145TIP3    H112441   0.465   2.376   3.405  0.3140  0.2386 -0.5866
 4145TIP3    H212442   0.482   2.287   3.284  3.1716 -0.4125  0.2095
 4146TIP3   OH212443   3.706   3.558   4.622  0.3132 -0.5494 -0.1278
 4146TIP3    H112444   3.770   3.503   4.577 -1.1906 -0.2674 -2.8065
 4146TIP3    H212445   3.759   3.621   4.671  2.0490 -2.2780  0.3371
 4147TIP3   OH212446   5.833   2.375   0.562  0.5241  0.5384 -0.5780
 4147TIP3    H112447   5.887   2.385   0.641  0.9468 -0.5625 -0.6998
 4147TIP3    H212448   5.836   2.281   0.544  0.3516  0.7651 -1.8541
 4148TIP3   OH212449   3.899   4.544   4.871 -0.2137 -0.2861 -0.0581
 4148TIP3    H112450   3.879   4.495   4.791 -0.8423 -0.2851  0.0891
 4148TIP3    H212451   3.940   4.625   4.840  2.9310 -1.8023 -0.2172
 4149TIP3   OH212452   0.442   3.642   2.459  0.8339  0.6706 -0.0292
 4149TIP3    H112453   0.436   3.607   2.370 -1.1988  1.8356 -0.4135
 4149TIP3    H212454   0.453   3.737   2.447 -2.4808  1.2927  0.8416
 4150TIP3   OH212455   0.244   1.900   4.427 -0.1688  0.0596  0.4437
 4150TIP3    H112456   0.182   1.842   4.382 -0.2111 -0.1723  0.7915
 4150TIP3    H212457   0.254   1.975   4.369  1.2260 -1.0611 -0.8350
 4151TIP3   OH212458   3.023   3.773   0.991 -0.7013 -0.5710  0.5127
 4151TIP3    H112459   3.098   3.825   1.020 -0.8564  0.1170 -0.2704
 4151TIP3    H212460   2.979   3.745   1.071 -1.9054  2.3988  1.0025
 4152TIP3   OH212461   5.336   4.109   0.995  0.2013  0.1888 -0.5568
 4152TIP3    H112462   5.416   4.081   0.949 -0.0367 -0.3815 -0.6323
 4152TIP3    H212463   5.302   4.028   1.034 -1.0518  0.1698 -1.6189
 4153TIP3   OH212464   5.636   0.851   3.929  0.0851 -0.2496 -0.3181
 4153TIP3    H112465   5.708   0.805   3.973  0.6051  0.1105 -0.7802
 4153TIP3    H212466   5.557   0.811   3.965  0.4834  0.3131  1.2372
 4154TIP3   OH212467   5.404   1.753   1.591  0.1526 -0.1124 -0.1170
 4154TIP3    H112468   5.362   1.696   1.655  0.4152 -1.4683 -1.1155
 4154TIP3    H212469   5.457   1.694   1.537  2.3556  1.3661  0.2904
 4155TIP3   OH212470   2.729   0.736   4.344 -0.2194  0.6671  0.0308
 4155TIP3    H112471   2.757   0.732   4.435 -0.8463  3.0651  0.3787
 4155TIP3    H212472   2.805   0.708   4.293  0.1208 -0.7265  1.2506
 4156TIP3   OH212473   6.305   0.690   2.868  0.4371  0.5480  0.2525
 4156TIP3    H112474   6.308   0.705   2.962 -1.6584 -2.0964  0.8458
 4156TIP3    H212475   6.332   0.599   2.857 -3.4029 -0.6121 -1.1394
 4157TIP3   OH212476   5.975   2.380   1.382 -0.6593 -0.3838 -0.2916
 4157TIP3    H112477   6.063   2.350   1.402 -0.3868 -0.5872 -1.7019
 4157TIP3    H212478   5.919   2.334   1.444  0.2466 -0.0596  0.7822
 4158TIP3   OH212479   0.385  -0.013   0.410 -0.8567 -0.1296 -0.0839
 4158TIP3    H112480   0.445   0.050   0.370  0.2054 -1.3512 -0.5120
 4158TIP3    H212481   0.331   0.039   0.469  0.8418  0.9928  0.5509
 4159TIP3   OH212482   3.683   0.725   2.991  0.0906 -0.1389 -0.0306
 4159TIP3    H112483   3.652   0.664   2.924  0.3887  1.0789 -1.3241
 4159TIP3    H212484   3.752   0.775   2.947  1.3091 -0.2856  1.6461
 4160TIP3   OH212485   5.871   2.503   1.157  0.1783  0.1945  0.0789
 4160TIP3    H112486   5.822   2.574   1.199  2.0048  1.2106  0.6102
 4160TIP3    H212487   5.906   2.452   1.230  1.0221  0.2971 -0.2407
 4161TIP3   OH212488   2.617   4.638   4.556 -0.0654  0.3264  0.1039
 4161TIP3    H112489   2.635   4.724   4.519  2.4241 -0.1777 -0.0271
 4161TIP3    H212490   2.619   4.651   4.650  0.7406  0.3413  0.0866
 4162TIP3   OH212491   4.488   3.617   3.600 -0.0156  0.1263  0.5494
 4162TIP3    H112492   4.444   3.532   3.588 -1.5948  1.0345 -0.5204
 4162TIP3    H212493   4.557   3.616   3.534 -2.2157  0.9637 -1.9648
 4163TIP3   OH212494   3.790   2.887   4.500 -0.4930 -0.0528 -0.1760
 4163TIP3    H112495   3.785   2.791   4.500 -1.5177 -0.0155  0.0613
 4163TIP3    H212496   3.883   2.906   4.513 -0.1025 -1.0122 -1.3665
 4164TIP3   OH212497   0.619   5.801   2.395 -0.1298  0.5625  0.3257
 4164TIP3    H112498   0.593   5.864   2.327  1.1457  1.0243  0.2371
 4164TIP3    H212499   0.625   5.854   2.475 -0.3776  0.2832  0.5275
 4165TIP3   OH212500   1.741   0.561   2.268 -0.2309 -0.3497  0.7576
 4165TIP3    H112501   1.718   0.641   2.222 -0.9583  0.3708  2.3029
 4165TIP3    H212502   1.739   0.493   2.200  1.4232  1.0405 -0.8122
 4166TIP3   OH212503   0.424   3.145   0.650 -0.2304 -0.0389  0.5034
 4166TIP3    H112504   0.500   3.196   0.623  0.2182 -1.0829 -0.2136
 4166TIP3    H212505   0.350   3.188   0.606  0.1964 -0.2567 -0.4459
 4167TIP3   OH212506   1.961   5.131   3.385 -0.1741  0.4760  0.5820
 4167TIP3    H112507   2.000   5.117   3.471 -0.3953  2.1042  0.9680
 4167TIP3    H212508   2.018   5.084   3.325  2.5465  2.8999  1.0767
 4168TIP3   OH212509   1.521   0.968   1.416 -0.0726 -0.0072 -0.3148
 4168TIP3    H112510   1.541   0.973   1.509 -0.8138 -0.5383 -0.1171
 4168TIP3    H212511   1.427   0.949   1.412 -0.0758  0.1299 -1.1689
 4169TIP3   OH212512   2.420   5.885   2.324 -0.1708 -0.5394  0.1294
 4169TIP3    H112513   2.412   5.904   2.230 -1.0611 -0.8080  0.1432
 4169TIP3    H212514   2.410   5.970   2.366 -0.4000 -0.5096  0.0144
 4170TIP3   OH212515   5.571   0.085   3.433 -0.1738  0.1090 -0.1305
 4170TIP3    H112516   5.507   0.088   3.362 -1.5252  3.5538  1.0321
 4170TIP3    H212517   5.546   0.009   3.485 -0.7473 -0.9647 -1.8962
 4171TIP3   OH212518   1.693   4.664   0.989 -0.5704 -0.5817  0.5504
 4171TIP3    H112519   1.717   4.686   1.079 -0.3468  2.2497 -0.1124
 4171TIP3    H212520   1.721   4.739   0.937 -3.6189 -0.6236 -1.4426
 4172TIP3   OH212521   1.185   0.708   0.143  0.3481 -0.1619  0.7672
 4172TIP3    H112522   1.229   0.739   0.064 -0.5989  0.9682  0.6517
 4172TIP3    H212523   1.178   0.786   0.199 -0.6303 -0.5244  1.1799
 4173TIP3   OH212524   4.525   1.059   2.142 -0.0767  0.1560  0.2060
 4173TIP3    H112525   4.512   1.054   2.048  0.4956 -2.4148  0.1845
 4173TIP3    H212526   4.440   1.087   2.177 -0.7856 -0.4583 -0.9731
 4174TIP3   OH212527   3.062   4.626   0.265 -0.3476  0.2096  0.0257
 4174TIP3    H112528   3.070   4.538   0.227  0.3014 -0.2199  1.1206
 4174TIP3    H212529   3.066   4.685   0.190 -0.1634 -0.6655 -0.6672
 4175TIP3   OH212530   3.482   2.480   2.807  0.3858 -1.0133 -0.3997
 4175TIP3    H112531   3.390   2.464   2.829  0.0805  1.3468  0.3741
 4175TIP3    H212532   3.479   2.552   2.744  1.7121  0.9035  1.5718
 4176TIP3   OH212533   1.924   2.655   1.889  0.0545 -0.0791  0.0061
 4176TIP3    H112534   1.879   2.733   1.923  0.5232 -0.5796  1.9348
 4176TIP3    H212535   1.937   2.600   1.967  2.1120 -0.8870 -0.8477
 4177TIP3   OH212536   6.144   5.484   0.354  0.2801  1.1800 -0.4733
 4177TIP3    H112537   6.052   5.507   0.369  0.3586  1.8789 -0.9907
 4177TIP3    H212538   6.193   5.542   0.412  0.3916  0.6635 -0.0441
 4178TIP3   OH212539   4.502   1.937   3.724  0.3595  0.3313  0.1720
 4178TIP3    H112540   4.500   1.906   3.633 -2.3153  1.0272 -0.1046
 4178TIP3    H212541   4.485   1.858   3.776  1.0989  0.0722  0.0364
 4179TIP3   OH212542   3.237   0.388   0.510 -0.2958  0.1141  0.4704
 4179TIP3    H112543   3.152   0.430   0.522 -0.4900 -0.1834  0.1548
 4179TIP3    H212544   3.239   0.364   0.417  1.3945  2.8562 -0.3093
 4180TIP3   OH212545   5.599   5.123   2.250  0.2106  0.1202  0.2742
 4180TIP3    H112546   5.583   5.202   2.303  0.7452  0.8241 -0.5797
 4180TIP3    H212547   5.545   5.056   2.291 -0.6471  1.0488  0.7323
 4181TIP3   OH212548   5.590   4.792   5.006 -0.1248  0.6010 -0.6310
 4181TIP3    H112549   5.659   4.772   5.070 -0.2137  2.1366  0.0131
 4181TIP3    H212550   5.512   4.805   5.059 -0.2031  1.9062 -1.0282
 4182TIP3   OH212551   6.259   4.711   4.442 -0.3603 -0.5783  0.4959
 4182TIP3    H112552   6.252   4.634   4.386  0.2061 -1.5541  1.7149
 4182TIP3    H212553   6.353   4.726   4.450 -0.4497 -0.2016  0.8569
 4183TIP3   OH212554   6.162   1.283   1.290  0.1376 -0.2145 -0.0385
 4183TIP3    H112555   6.130   1.194   1.279 -0.6986 -0.1098  1.2459
 4183TIP3    H212556   6.254   1.273   1.313  0.4321 -0.6535 -1.3361
 4184TIP3   OH212557   1.019   0.015   4.952  0.0018 -0.5324 -0.3729
 4184TIP3    H112558   1.071  -0.050   5.000  0.4117 -0.9850 -1.3820
 4184TIP3    H212559   1.079   0.047   4.884  0.2148  1.7958  0.8118
 4185TIP3   OH212560   2.117   3.028   4.476 -0.5922 -0.2574  0.1957
 4185TIP3    H112561   2.042   3.065   4.429  1.8775  1.9874 -2.3790
 4185TIP3    H212562   2.165   3.104   4.508 -0.5956 -1.6703  4.0401
 4186TIP3   OH212563   3.478   2.253   0.743  0.1516  0.2269  0.3297
 4186TIP3    H112564   3.450   2.344   0.738 -0.6275 -0.0311 -0.2381
 4186TIP3    H212565   3.438   2.212   0.666  1.0646 -0.4415  0.1880
 4187TIP3   OH212566   2.694   1.834   1.276  0.4983  0.1322  0.3512
 4187TIP3    H112567   2.764   1.837   1.210 -1.1348 -1.4587 -1.5708
 4187TIP3    H212568   2.691   1.743   1.304 -1.0185  0.0947  0.1424
 4188TIP3   OH212569   5.810   3.386   1.544  0.0866  0.5164 -0.2830
 4188TIP3    H112570   5.840   3.390   1.635  0.7098 -1.6722 -0.3114
 4188TIP3    H212571   5.743   3.453   1.537 -0.0988  0.6181  1.8458
 4189TIP3   OH212572   4.575   2.228   2.676 -0.8577 -0.6496 -0.5898
 4189TIP3    H112573   4.619   2.144   2.683  0.7893  0.2172  0.1138
 4189TIP3    H212574   4.515   2.230   2.751 -0.2158 -0.8291 -0.0598
 4190TIP3   OH212575   3.835   1.073   4.969 -0.2767 -0.0949 -0.4421
 4190TIP3    H112576   3.909   1.043   5.022 -0.5860 -0.8142 -0.4027
 4190TIP3    H212577   3.780   1.121   5.030 -1.0907 -1.6849  0.1479
 4191TIP3   OH212578   2.109   1.910   2.970  0.0434  0.1578 -0.3277
 4191TIP3    H112579   2.051   1.922   3.045  0.8371 -1.3064  0.5571
 4191TIP3    H212580   2.050   1.905   2.895 -0.7943  1.2358  0.2127
 4192TIP3   OH212581   5.826   1.452   4.353 -0.0215  0.5837 -0.1431
 4192TIP3    H112582   5.833   1.531   4.300  3.0223  1.3521  1.2300
 4192TIP3    H212583   5.834   1.483   4.443  0.0357 -1.1789  0.4862
 4193TIP3   OH212584   5.322   5.492   2.819  0.3356  0.4710 -0.0049
 4193TIP3    H112585   5.314   5.413   2.765 -0.2196  0.6469 -0.1819
 4193TIP3    H212586   5.276   5.560   2.770  0.7127  0.8824  0.2013
 4194TIP3   OH212587   0.113   5.393   0.726 -0.2261  0.0305 -0.3479
 4194TIP3    H112588   0.050   5.400   0.798  0.0764 -0.3884 -0.0410
 4194TIP3    H212589   0.119   5.300   0.708  1.3817 -0.0926  0.5991
 4195TIP3   OH212590   3.179   3.322   3.294  0.0690 -0.7057  0.9478
 4195TIP3    H112591   3.252   3.382   3.280 -0.3235 -0.3428  0.4147
 4195TIP3    H212592   3.221   3.237   3.309  0.6218 -0.3355  1.5379
 4196TIP3   OH212593   6.291   2.099   0.423  0.4911  0.0718 -0.0596
 4196TIP3    H112594   6.288   2.179   0.369 -1.4266 -1.2056 -2.0483
 4196TIP3    H212595   6.355   2.044   0.380  1.0480  0.1175  0.6966
 4197TIP3   OH212596   4.016   1.307   3.688  0.6170 -0.2689  0.0584
 4197TIP3    H112597   3.923   1.323   3.673  0.6498  0.6113  0.7068
 4197TIP3    H212598   4.042   1.374   3.752  1.6327 -0.6682  0.0840
 4198TIP3   OH212599   5.769   5.938   0.716  0.1919 -0.2879 -0.1129
 4198TIP3    H112600   5.818   6.020   0.729 -0.5620  0.1561 -0.0308
 4198TIP3    H212601   5.692   5.948   0.772 -0.3321 -0.6960 -0.7629
 4199TIP3   OH212602   3.606   3.106   3.443 -0.9927 -0.3110  0.7431
 4199TIP3    H112603   3.594   3.050   3.367 -0.6612  2.5588 -1.5991
 4199TIP3    H212604   3.701   3.121   3.446 -1.0347 -0.1950  1.5983
 4200TIP3   OH212605   1.091   2.229   4.540  0.3332  0.3662  0.0042
 4200TIP3    H112606   1.001   2.196   4.538  0.2228  0.6986 -0.8666
 4200TIP3    H212607   1.081   2.324   4.540  0.6675  0.4335  1.5446
 4201TIP3   OH212608   2.628   0.383   4.559  1.1835  0.3777  0.5132
 4201TIP3    H112609   2.580   0.461   4.589 -0.7719 -0.2053 -0.8788
 4201TIP3    H212610   2.627   0.324   4.635 -0.4900  0.3498  0.5198
 4202TIP3   OH212611   1.690   0.536   0.690  0.4262  0.2937  0.0849
 4202TIP3    H112612   1.769   0.566   0.645  0.2535 -0.4941 -0.7801
 4202TIP3    H212613   1.619   0.586   0.648  0.3070 -0.1465 -0.2441
 4203TIP3   OH212614   0.722   1.930   5.155 -0.1390  0.2665  0.0739
 4203TIP3    H112615   0.741   2.024   5.153 -1.6035  0.5886  0.4141
 4203TIP3    H212616   0.805   1.890   5.183  0.4986  1.4495 -0.0538
 4204TIP3   OH212617   1.742   0.999  -0.021  0.1525 -0.4381 -0.0847
 4204TIP3    H112618   1.735   1.066   0.047 -0.6564 -1.2458  0.6481
 4204TIP3    H212619   1.823   0.952  -0.001 -1.2742 -2.2396  1.8238
 4205TIP3   OH212620   3.158   2.744   0.851  0.0083 -0.0543 -0.7029
 4205TIP3    H112621   3.125   2.731   0.762 -3.1444 -0.7054  0.4112
 4205TIP3    H212622   3.202   2.829   0.849 -1.9291  0.9929 -2.4223
 4206TIP3   OH212623   4.855   3.309   2.399 -0.6609 -0.0009 -0.7490
 4206TIP3    H112624   4.788   3.273   2.458  0.4235 -0.1951  0.4051
 4206TIP3    H212625   4.920   3.239   2.391  0.8940  1.2077  0.5860
 4207TIP3   OH212626   4.804   0.426   1.690 -0.5542 -0.2025 -0.1285
 4207TIP3    H112627   4.743   0.466   1.752  1.0699  0.3458  1.2001
 4207TIP3    H212628   4.754   0.418   1.609 -3.3609 -2.6087  1.6446
 4208TIP3   OH212629   1.095   1.443   1.633  0.3142  0.1089  0.1740
 4208TIP3    H112630   1.077   1.532   1.601  2.0755 -0.4000 -2.5347
 4208TIP3    H212631   1.175   1.452   1.684  0.7578  0.0009 -0.5035
 4209TIP3   OH212632   6.240   1.079   0.602  0.4995 -0.3389 -0.2387
 4209TIP3    H112633   6.219   1.045   0.688  0.1807  1.5541  0.4805
 4209TIP3    H212634   6.300   1.151   0.618 -2.2176  2.3817 -1.1922
 4210TIP3   OH212635   4.852   5.689   1.989 -0.4344  0.7216 -0.3395
 4210TIP3    H112636   4.811   5.676   1.903  1.8015 -1.6434 -1.1873
 4210TIP3    H212637   4.837   5.607   2.036 -2.2188  2.2238  1.8987
 4211TIP3   OH212638   2.766   0.831   0.256 -0.1099 -0.4149  0.2140
 4211TIP3    H112639   2.772   0.799   0.166 -1.0050 -2.9857  0.9557
 4211TIP3    H212640   2.780   0.752   0.310 -0.1319  0.9330  2.3058
 4212TIP3   OH212641   3.652   1.466   2.179 -0.0603 -0.2202  0.1638
 4212TIP3    H112642   3.640   1.553   2.215 -1.0159 -1.0621  2.0041
 4212TIP3    H212643   3.740   1.440   2.205  0.4686  0.3953 -0.9277
 4213TIP3   OH212644   5.323   4.155   2.176 -0.0786  0.3614  0.1092
 4213TIP3    H112645   5.263   4.169   2.103  0.9576 -0.8280 -1.0054
 4213TIP3    H212646   5.282   4.201   2.249 -1.5704  0.8634 -0.9919
 4214TIP3   OH212647   6.330   3.255   1.017  1.1832 -0.7877 -0.0282
 4214TIP3    H112648   6.350   3.341   1.053  1.4301 -1.0137  0.3793
 4214TIP3    H212649   6.239   3.262   0.988  1.0462 -0.5355  0.4474
 4215TIP3   OH212650   5.712   1.262   0.177 -0.3978  0.1664  0.1220
 4215TIP3    H112651   5.629   1.229   0.145  0.1790 -1.0935 -0.1249
 4215TIP3    H212652   5.769   1.186   0.180  1.4540  1.3405 -1.8780
 4216TIP3   OH212653   2.651   2.091   3.480 -0.1395  0.4009 -0.5861
 4216TIP3    H112654   2.608   2.010   3.453 -0.9275  0.6200 -0.0358
 4216TIP3    H212655   2.667   2.138   3.399  0.7596 -0.5070 -0.9558
 4217TIP3   OH212656   1.270   5.536   4.714 -0.7213 -0.7876  0.4400
 4217TIP3    H112657   1.244   5.477   4.644  1.8812  0.4337 -1.7259
 4217TIP3    H212658   1.227   5.619   4.692  1.3935  0.0639 -0.7847
 4218TIP3   OH212659   2.542   1.993   1.450 -0.2885 -0.9921  0.0438
 4218TIP3    H112660   2.479   2.035   1.392  0.1626  0.4211  0.5149
 4218TIP3    H212661   2.617   1.974   1.393  0.6732  1.5575  0.3219
 4219TIP3   OH212662   1.905   3.132   4.375 -0.0263  0.2431  0.3430
 4219TIP3    H112663   1.831   3.075   4.356  0.9168 -0.4193 -1.6958
 4219TIP3    H212664   1.880   3.216   4.338  0.7904 -0.3911 -1.8194
 4220TIP3   OH212665   3.123   0.766   0.822  0.1770  0.1355  0.2043
 4220TIP3    H112666   3.156   0.763   0.912 -1.5829  3.9764  1.1969
 4220TIP3    H212667   3.028   0.767   0.832 -0.0886 -0.8751 -1.8458
 4221TIP3   OH212668   2.466   4.062   3.757  0.2793 -0.1522  0.5616
 4221TIP3    H112669   2.559   4.068   3.776  1.2007 -1.5021 -2.6967
 4221TIP3    H212670   2.423   4.085   3.839  3.4021  2.1666  1.7557
 4222TIP3   OH212671   2.495   5.576   3.916 -0.2681 -0.8761 -0.0523
 4222TIP3    H112672   2.467   5.584   3.825  0.8551 -0.6561 -0.3916
 4222TIP3    H212673   2.538   5.491   3.920 -0.9046 -1.1859  0.4518
 4223TIP3   OH212674   2.566   0.400   4.895  0.5679  0.1768 -0.1594
 4223TIP3    H112675   2.559   0.471   4.831 -0.0771  2.2830  2.0881
 4223TIP3    H212676   2.574   0.444   4.979  0.2509 -2.4465  1.3629
 4224TIP3   OH212677   5.882   2.657   1.574  0.3811 -0.1399 -0.0191
 4224TIP3    H112678   5.919   2.574   1.605 -1.8796 -0.6580  1.5663
 4224TIP3    H212679   5.919   2.723   1.632 -0.4414 -0.5421  1.0062
 4225TIP3   OH212680   5.074   4.273   4.497 -0.3056  0.1952  0.0571
 4225TIP3    H112681   5.145   4.337   4.505  0.0910  0.0619 -1.9013
 4225TIP3    H212682   5.047   4.279   4.405 -1.9144 -0.7334  0.4409
 4226TIP3   OH212683   0.634   0.963   1.747 -0.3458 -0.2816  0.1571
 4226TIP3    H112684   0.563   0.976   1.684  0.6217  2.4255 -0.5333
 4226TIP3    H212685   0.614   1.024   1.819  0.9968  0.1775  0.1691
 4227TIP3   OH212686   5.265   2.716   0.788 -0.3604  0.2800 -0.1126
 4227TIP3    H112687   5.318   2.768   0.848 -1.0011  2.7982 -1.5810
 4227TIP3    H212688   5.183   2.700   0.837  0.1364 -0.0516  0.6349
 4228TIP3   OH212689   1.326   1.623   3.475  0.6920 -0.0616 -0.3927
 4228TIP3    H112690   1.320   1.545   3.420 -0.2938 -0.4182  0.1902
 4228TIP3    H212691   1.241   1.665   3.466  0.8445  0.3735  0.1291
 4229TIP3   OH212692   4.116   0.898   1.518  0.0775 -0.3106 -0.1122
 4229TIP3    H112693   4.104   0.990   1.495  0.6046 -0.3764 -0.6996
 4229TIP3    H212694   4.188   0.869   1.462  0.0972 -1.0094  0.2623
 4230TIP3   OH212695   5.900   4.186   3.619 -0.0936  0.2092 -0.4816
 4230TIP3    H112696   5.911   4.258   3.557 -0.0862  0.6781  0.0600
 4230TIP3    H212697   5.989   4.157   3.639 -0.1214 -1.7680 -2.7625
 4231TIP3   OH212698   2.549   5.747   1.602 -0.4837 -0.2352 -0.4287
 4231TIP3    H112699   2.492   5.760   1.526  0.6475  0.1158 -1.2345
 4231TIP3    H212700   2.553   5.833   1.644 -0.8523 -0.3528 -0.1498
 4232TIP3   OH212701   4.394   5.771   3.875  0.5786  0.7918 -0.1962
 4232TIP3    H112702   4.487   5.794   3.888  1.0243 -1.6212  1.8077
 4232TIP3    H212703   4.355   5.781   3.962 -0.7149  0.4408 -0.7114
 4233TIP3   OH212704   5.040   3.461   3.882  0.0959 -0.4237 -0.2648
 4233TIP3    H112705   5.096   3.449   3.805  0.1402 -2.8158  0.0666
 4233TIP3    H212706   5.057   3.551   3.910  3.7495 -0.9835 -0.2444
 4234TIP3   OH212707   0.290   5.184   1.374  0.0705 -0.2035  0.3644
 4234TIP3    H112708   0.211   5.131   1.367  0.6128 -0.8881 -0.7795
 4234TIP3    H212709   0.334   5.174   1.290  1.1414  0.5504  0.8056
 4235TIP3   OH212710   5.366   3.899   2.952  0.3681 -0.0279  0.3911
 4235TIP3    H112711   5.319   3.940   2.879  0.5981 -0.2826  0.0930
 4235TIP3    H212712   5.321   3.929   3.030  2.2667  3.2286  0.4400
 4236TIP3   OH212713   5.916   2.396   0.915 -0.2780  0.2112  0.3006
 4236TIP3    H112714   5.992   2.437   0.874 -0.5488  0.4381  0.0155
 4236TIP3    H212715   5.926   2.415   1.008 -0.4851  1.0811  0.1514
 4237TIP3   OH212716   5.488   4.025   1.989  0.0214 -0.0044 -0.0109
 4237TIP3    H112717   5.435   4.027   1.910 -0.0869  0.4661  0.0717
 4237TIP3    H212718   5.430   4.059   2.058 -0.1149 -1.0457  0.4100
 4238TIP3   OH212719   2.231   4.920   3.813 -0.4054 -0.1054 -0.3898
 4238TIP3    H112720   2.154   4.974   3.830 -0.4177  0.4452 -2.0546
 4238TIP3    H212721   2.213   4.878   3.729  0.8767 -0.4104 -0.5254
 4239TIP3   OH212722   5.830   0.708   4.476 -0.4071  0.2036 -0.3065
 4239TIP3    H112723   5.771   0.648   4.521 -0.7563 -0.2434 -1.3376
 4239TIP3    H212724   5.915   0.665   4.479 -0.1862  0.6693  0.8374
 4240TIP3   OH212725   2.224   4.242   3.264 -0.3774 -0.0790  0.3389
 4240TIP3    H112726   2.238   4.197   3.348  2.2799  0.7500  0.4430
 4240TIP3    H212727   2.223   4.335   3.287  0.5442  0.1665 -0.5323
 4241TIP3   OH212728   1.450   5.189   4.317  0.0983  0.0904  0.0495
 4241TIP3    H112729   1.500   5.200   4.236  0.5480 -1.5480  0.0573
 4241TIP3    H212730   1.494   5.117   4.362 -0.5515  0.5326  1.4488
 4242TIP3   OH212731   6.070   3.703   2.220 -0.5382  0.2976 -0.0203
 4242TIP3    H112732   6.129   3.631   2.200 -0.0655  1.1072 -1.6887
 4242TIP3    H212733   6.055   3.697   2.314  3.0381  0.6959  0.6883
 4243TIP3   OH212734   4.211   4.328   2.176 -0.3267  0.6270 -0.5119
 4243TIP3    H112735   4.281   4.279   2.133  0.7110  0.6735  1.0356
 4243TIP3    H212736   4.137   4.322   2.116  0.3075 -1.3235 -1.1785
 4244TIP3   OH212737   2.440   5.317   1.202 -0.0967  0.3838 -0.1767
 4244TIP3    H112738   2.466   5.242   1.149 -1.5941 -0.2960  0.0078
 4244TIP3    H212739   2.511   5.327   1.266 -0.4336 -1.6674  0.5975
 4245TIP3   OH212740   5.367   1.158   1.377 -0.2289  0.2111  0.2907
 4245TIP3    H112741   5.384   1.241   1.333 -0.6384  0.3684  0.4267
 4245TIP3    H212742   5.272   1.149   1.379 -0.1853 -1.2609 -1.5570
 4246TIP3   OH212743   0.383   4.755   2.330 -0.0424 -0.7682  0.6108
 4246TIP3    H112744   0.290   4.776   2.317  0.6505  1.5516 -1.2966
 4246TIP3    H212745   0.416   4.824   2.388  1.1923  0.6853 -1.6574
 4247TIP3   OH212746   4.883   3.750   0.767  0.7547  0.6071  0.0968
 4247TIP3    H112747   4.877   3.810   0.692 -0.3596 -0.7294 -0.9415
 4247TIP3    H212748   4.887   3.663   0.728  0.4183 -0.1148  1.5920
 4248TIP3   OH212749   3.371   5.924   0.190 -0.4976  0.3988  0.2668
 4248TIP3    H112750   3.333   5.975   0.119  0.7803  1.1450  0.0888
 4248TIP3    H212751   3.414   5.851   0.147 -0.6867  0.2223  0.3735
 4249TIP3   OH212752   1.459   4.225   1.035 -0.4021  0.3331  0.3375
 4249TIP3    H112753   1.385   4.188   0.987  0.8904 -1.0240 -0.6875
 4249TIP3    H212754   1.535   4.203   0.983  0.6726  2.6974  0.7705
 4250TIP3   OH212755   1.463   5.398   4.831 -0.0421 -0.5809  0.2342
 4250TIP3    H112756   1.538   5.422   4.776  0.0826 -1.8779 -0.2003
 4250TIP3    H212757   1.392   5.453   4.797  0.0543 -1.2815 -1.1908
 4251TIP3   OH212758   5.648   5.416   2.588 -0.1992  0.9019 -0.0944
 4251TIP3    H112759   5.639   5.511   2.581 -1.5230  0.8890  0.9771
 4251TIP3    H212760   5.700   5.402   2.667  1.8401  0.7348 -1.3824
 4252TIP3   OH212761   6.230   5.957   2.816  0.4856  0.4193  0.1799
 4252TIP3    H112762   6.165   5.900   2.776  0.3801 -0.2694  1.2853
 4252TIP3    H212763   6.314   5.923   2.785  0.7410 -2.9849  3.7630
 4253TIP3   OH212764   2.393   0.253   3.091 -0.1805  0.0619  0.5176
 4253TIP3    H112765   2.304   0.236   3.060 -0.3686  1.0251  0.4987
 4253TIP3    H212766   2.391   0.233   3.184 -0.6420  0.8279  0.6867
 4254TIP3   OH212767   1.640   2.738   2.789 -0.6667  0.0167  0.3372
 4254TIP3    H112768   1.553   2.717   2.823 -0.5089  1.8851  2.0454
 4254TIP3    H212769   1.688   2.772   2.864  0.7060  1.4762 -1.1178
 4255TIP3   OH212770   3.209   4.066   0.208  0.0326 -0.0846  0.1007
 4255TIP3    H112771   3.204   4.122   0.286 -1.4066  1.1025 -0.7865
 4255TIP3    H212772   3.125   4.020   0.207 -0.9075  1.5259 -1.8494
 4256TIP3   OH212773   1.254   3.695   4.654  0.4001  0.3185  0.1520
 4256TIP3    H112774   1.161   3.708   4.672  0.4340 -0.6532  1.0833
 4256TIP3    H212775   1.271   3.604   4.679  0.9259 -0.5221 -2.8539
 4257TIP3   OH212776   1.503   3.851   0.598 -0.2801 -0.0062  0.0423
 4257TIP3    H112777   1.426   3.843   0.541  1.6189 -2.3653 -2.4370
 4257TIP3    H212778   1.574   3.875   0.539  1.7282 -2.1609  1.4357
 4258TIP3   OH212779   6.263   2.569   4.230 -0.1278 -0.4225 -0.3345
 4258TIP3    H112780   6.341   2.514   4.233 -0.3658 -0.8719 -1.6904
 4258TIP3    H212781   6.201   2.527   4.290  0.6613 -0.0460  0.7727
 4259TIP3   OH212782   4.318   2.154   3.737  0.2251  0.1541 -0.0433
 4259TIP3    H112783   4.385   2.085   3.746  1.0629  0.9465 -0.0083
 4259TIP3    H212784   4.268   2.129   3.660  2.9667  1.4353 -2.4725
 4260TIP3   OH212785   6.313   0.729   3.886 -0.2959  0.6238  0.0633
 4260TIP3    H112786   6.318   0.801   3.822 -0.4160  1.4728  0.9859
 4260TIP3    H212787   6.220   0.717   3.901 -0.2639  0.4730  0.1379
 4261TIP3   OH212788   2.556   4.155   4.248 -0.1955 -0.3833 -0.8821
 4261TIP3    H112789   2.583   4.135   4.338 -0.9827 -0.7282 -0.7170
 4261TIP3    H212790   2.466   4.186   4.256 -0.1095  0.0558 -1.5080
 4262TIP3   OH212791   3.157   2.325   3.628  0.2840  0.4058 -1.1057
 4262TIP3    H112792   3.191   2.254   3.573 -1.0518 -0.2279 -1.1466
 4262TIP3    H212793   3.124   2.390   3.566 -0.0056  0.3043 -1.0575
 4263TIP3   OH212794   3.585   2.856   0.733 -0.5115  0.0235  0.0515
 4263TIP3    H112795   3.555   2.784   0.678 -1.0251  0.9293 -0.8925
 4263TIP3    H212796   3.631   2.914   0.673 -0.2912  0.5987  0.7613
 4264TIP3   OH212797   4.885   2.585   3.059  0.0221  0.0619 -0.3092
 4264TIP3    H112798   4.842   2.518   3.006 -0.0651  0.2177 -0.4354
 4264TIP3    H212799   4.837   2.585   3.141 -0.8419  0.9020 -0.7907
 4265TIP3   OH212800   4.024   2.103   3.826 -0.4119  0.2428 -0.0888
 4265TIP3    H112801   4.057   2.059   3.904  1.8453  1.1628 -0.4257
 4265TIP3    H212802   4.092   2.088   3.760 -0.2570  2.8969 -0.6359
 4266TIP3   OH212803   5.834   0.719   4.085  0.0150 -0.6917  0.3580
 4266TIP3    H112804   5.853   0.625   4.085  1.3947 -0.4509  1.4450
 4266TIP3    H212805   5.918   0.760   4.106 -0.7216  0.7533  0.6149
 4267TIP3   OH212806   0.787   5.840   1.442  0.6040  0.0068  0.5508
 4267TIP3    H112807   0.805   5.813   1.532  0.0760  0.2934  0.7470
 4267TIP3    H212808   0.841   5.919   1.430  1.4558 -0.6085  0.2726
 4268TIP3   OH212809   4.020   0.400   2.095 -0.0973 -0.1760 -0.4761
 4268TIP3    H112810   4.053   0.402   2.184 -0.6358 -2.1291 -0.1839
 4268TIP3    H212811   3.989   0.489   2.079  0.7904  0.4291  0.9558
 4269TIP3   OH212812   3.338   2.060   0.918 -0.0353 -0.0657  0.0973
 4269TIP3    H112813   3.270   2.110   0.961  0.7337  0.8271  0.3048
 4269TIP3    H212814   3.340   2.092   0.828 -0.7277 -0.9782 -0.2564
 4270TIP3   OH212815   2.500   3.692   4.256  0.5823  0.3911 -0.7640
 4270TIP3    H112816   2.457   3.776   4.244 -0.6930 -0.3585 -1.6776
 4270TIP3    H212817   2.432   3.634   4.291  1.5599 -0.1566  0.3113
 4271TIP3   OH212818   2.594   4.658   4.817  0.2081  0.3426  0.0606
 4271TIP3    H112819   2.654   4.649   4.890 -1.1291 -0.1457  1.1282
 4271TIP3    H212820   2.520   4.601   4.838 -1.8784  2.8456  0.0958
 4272TIP3   OH212821   1.908  -0.037   3.309  0.9326 -0.7286  0.3274
 4272TIP3    H112822   1.887   0.031   3.373  0.5730  1.2067 -1.7320
 4272TIP3    H212823   1.958   0.008   3.242 -0.7601 -2.0657 -1.9748
 4273TIP3   OH212824   5.840   1.799   2.667  0.0752 -0.1274  0.2838
 4273TIP3    H112825   5.910   1.825   2.607 -0.8504  0.9767 -0.3461
 4273TIP3    H212826   5.816   1.711   2.640  1.9563 -0.9826  1.2152
 4274TIP3   OH212827   0.470   4.576   0.037 -0.1420  0.2292  0.1145
 4274TIP3    H112828   0.509   4.497   0.001  0.2198  0.9046 -1.0388
 4274TIP3    H212829   0.512   4.587   0.122 -0.1736 -0.7911  0.2665
 4275TIP3   OH212830   4.655   1.280   0.403 -0.6041  0.2861  0.8405
 4275TIP3    H112831   4.565   1.307   0.390  0.2042  2.4232 -0.9247
 4275TIP3    H212832   4.666   1.203   0.347 -1.2459  0.1485  0.9026
 4276TIP3   OH212833   4.725   2.691   2.586 -0.0273  0.1185 -0.2263
 4276TIP3    H112834   4.696   2.615   2.535 -2.6789  0.3870  0.7614
 4276TIP3    H212835   4.737   2.760   2.521 -2.1910  0.1219 -0.6868
 4277TIP3   OH212836   5.581   5.426   4.911  0.5147 -0.4813  0.6042
 4277TIP3    H112837   5.621   5.445   4.826  0.8589 -0.4869  0.7666
 4277TIP3    H212838   5.549   5.510   4.942 -0.3779 -0.6077  0.0806
 4278TIP3   OH212839   0.133   5.915   1.871 -0.1181  0.2186 -0.2540
 4278TIP3    H112840   0.172   5.997   1.902 -0.0499 -0.4848  1.6477
 4278TIP3    H212841   0.067   5.893   1.938  0.8200 -1.9607  0.0368
 4279TIP3   OH212842   0.738   2.405   0.714 -0.4185  0.2579 -0.1516
 4279TIP3    H112843   0.696   2.410   0.628  0.9808  0.8641 -0.8267
 4279TIP3    H212844   0.766   2.494   0.734 -0.2898  0.0402  0.7194
 4280TIP3   OH212845   2.442   2.072   2.858  0.2742  0.5296 -0.1840
 4280TIP3    H112846   2.412   1.989   2.896  1.1252 -0.1939 -1.0405
 4280TIP3    H212847   2.528   2.087   2.897  0.0353  1.1310  0.1269
 4281TIP3   OH212848   4.102   4.124   3.322 -0.4277 -0.7812  0.3064
 4281TIP3    H112849   4.134   4.213   3.306 -0.1197 -1.2736 -2.3279
 4281TIP3    H212850   4.170   4.083   3.375 -0.6964  0.5888  1.7738
 4282TIP3   OH212851   0.912   5.903   0.277  0.9576 -0.4515  0.0422
 4282TIP3    H112852   0.861   5.982   0.294  0.9800  0.0955 -2.1052
 4282TIP3    H212853   1.003   5.932   0.276  1.0381 -0.6933  0.1514
 4283TIP3   OH212854   1.880   1.436   5.023  0.3271  0.4511  0.5039
 4283TIP3    H112855   1.916   1.517   4.988  2.6234 -0.8541 -0.4449
 4283TIP3    H212856   1.866   1.381   4.946 -0.3966 -0.3525  1.1886
 4284TIP3   OH212857   3.288   1.191   2.247 -0.0314 -0.2637  0.2096
 4284TIP3    H112858   3.290   1.111   2.300 -0.6430  0.0983  0.7829
 4284TIP3    H212859   3.270   1.160   2.158 -2.0164 -0.6327  0.7040
 4285TIP3   OH212860   0.827   5.081   3.617  0.1793 -0.0423  0.3030
 4285TIP3    H112861   0.778   5.065   3.698 -1.4531  1.5620 -0.3169
 4285TIP3    H212862   0.810   5.004   3.563  0.4284 -0.6469  1.0678
 4286TIP3   OH212863   0.314   3.988   1.007 -0.0993  0.7870 -0.3975
 4286TIP3    H112864   0.221   3.967   1.003  0.0832 -0.1553 -0.1333
 4286TIP3    H212865   0.332   4.037   0.926 -0.6071  0.0131 -1.0008
 4287TIP3   OH212866   0.574  -0.007   1.480  0.1563  0.0988 -0.1067
 4287TIP3    H112867   0.486   0.030   1.484  0.3094  0.4730 -0.1806
 4287TIP3    H212868   0.632   0.069   1.472  0.4701 -0.1581 -0.2931
 4288TIP3   OH212869   1.738   5.669   5.120 -0.1861 -0.0085 -0.1259
 4288TIP3    H112870   1.760   5.746   5.067 -0.4571  0.2860  0.1791
 4288TIP3    H212871   1.673   5.702   5.183  1.4677  0.1326  1.6215
 4289TIP3   OH212872   6.165  -0.007   0.782 -0.3196 -0.8212 -0.2086
 4289TIP3    H112873   6.243   0.037   0.747 -1.5155  1.0205 -0.7462
 4289TIP3    H212874   6.112  -0.026   0.704 -1.9908  1.2714  0.3112
 4290TIP3   OH212875   3.776   0.294   2.547  0.0741 -0.0543  0.3850
 4290TIP3    H112876   3.735   0.267   2.465  0.8087  1.1462 -0.4149
 4290TIP3    H212877   3.834   0.222   2.570  0.0312 -0.3099 -0.2802
 4291TIP3   OH212878   4.467   0.438   3.574 -0.1503 -0.0913 -0.2590
 4291TIP3    H112879   4.382   0.393   3.581 -1.6447  2.7040  1.2689
 4291TIP3    H212880   4.453   0.522   3.617  3.5660  0.3605  0.3691
 4292TIP3   OH212881   0.592   2.137   3.905 -0.2188 -0.1481 -0.2200
 4292TIP3    H112882   0.522   2.087   3.947 -1.0370  0.2697 -1.0382
 4292TIP3    H212883   0.637   2.073   3.850  0.8808 -0.7054  1.2515
 4293TIP3   OH212884   1.360   0.955   4.097 -0.2898  0.7117  0.0388
 4293TIP3    H112885   1.432   0.899   4.126  0.2730 -0.0594 -2.5576
 4293TIP3    H212886   1.282   0.901   4.106  0.0058  0.1404 -0.7098
 4294TIP3   OH212887   2.235   4.260   2.355  0.0381  0.0468 -0.0305
 4294TIP3    H112888   2.218   4.182   2.302  0.0299 -0.6373  0.9530
 4294TIP3    H212889   2.190   4.243   2.438 -0.1306  1.1897  0.1324
 4295TIP3   OH212890   4.462   0.553   1.625  0.3153  0.0695 -0.9936
 4295TIP3    H112891   4.432   0.473   1.669 -0.9315  0.4907 -1.0505
 4295TIP3    H212892   4.459   0.531   1.532 -2.1857  0.8464 -1.1591
 4296TIP3   OH212893   2.237   3.967   0.524 -0.4735  0.3457 -0.1226
 4296TIP3    H112894   2.239   3.873   0.511  1.6271  0.6686 -3.2868
 4296TIP3    H212895   2.308   3.985   0.584  1.5336  0.0812 -2.2791
 4297TIP3   OH212896   2.227   5.439   3.148 -0.1013 -0.3692 -0.2423
 4297TIP3    H112897   2.134   5.417   3.156 -0.3204  0.4439 -0.5129
 4297TIP3    H212898   2.235   5.479   3.062 -0.1901  2.8533  1.1268
 4298TIP3   OH212899   2.740   3.464   4.118 -0.4467 -0.6067 -0.5162
 4298TIP3    H112900   2.807   3.449   4.185 -0.0507 -1.2467 -1.0355
 4298TIP3    H212901   2.737   3.382   4.069  0.8312  0.5031 -2.6351
 4299TIP3   OH212902   2.389   2.441   4.762  0.1029  0.7648  0.3971
 4299TIP3    H112903   2.413   2.532   4.749 -1.1069  1.1740  0.8788
 4299TIP3    H212904   2.336   2.419   4.685  0.2007  0.5434  0.3930
 4300TIP3   OH212905   4.767   0.141   4.267 -0.3621 -0.2167  0.0560
 4300TIP3    H112906   4.771   0.165   4.360  1.9959  0.3621 -0.1329
 4300TIP3    H212907   4.851   0.170   4.231 -1.4029 -0.0038 -2.3888
 4301TIP3   OH212908   2.707   1.561   1.289 -0.0795  0.2201  0.0870
 4301TIP3    H112909   2.708   1.480   1.341  0.3339  0.0176 -0.2385
 4301TIP3    H212910   2.616   1.567   1.258 -0.3547  0.3812  0.8850
 4302TIP3   OH212911   0.617   4.812   0.202 -0.5334  0.0548  0.1165
 4302TIP3    H112912   0.615   4.716   0.209  0.1875  0.0509  0.3820
 4302TIP3    H212913   0.549   4.833   0.138 -0.4672 -0.6599 -0.1992
 4303TIP3   OH212914   0.644   4.893   0.797 -0.4470 -0.1597  0.2903
 4303TIP3    H112915   0.661   4.874   0.889  0.1267 -0.4153  0.1371
 4303TIP3    H212916   0.627   4.988   0.794  2.1333  0.3800  0.3219
 4304TIP3   OH212917   2.260   1.374   4.026  0.0700 -0.3741 -0.0814
 4304TIP3    H112918   2.303   1.318   4.090 -1.3845  0.1908  1.4363
 4304TIP3    H212919   2.306   1.458   4.033  1.5428 -0.9899 -1.6014
 4305TIP3   OH212920   4.029   2.201   5.065  0.2834  0.0178 -0.3167
 4305TIP3    H112921   3.975   2.142   5.118 -0.1101  0.6534 -0.0046
 4305TIP3    H212922   4.059   2.268   5.126 -0.1154  0.7163 -0.8652
 4306TIP3   OH212923   3.746   3.041   0.521 -0.4459 -0.4525  0.8850
 4306TIP3    H112924   3.796   2.988   0.459 -0.1186  0.6285  0.1903
 4306TIP3    H212925   3.683   3.089   0.467 -0.6072  0.0088  1.4647
 4307TIP3   OH212926   2.920   3.491   1.161 -0.2227  0.1130  0.8035
 4307TIP3    H112927   2.904   3.585   1.169  0.3579  0.1012  2.3580
 4307TIP3    H212928   2.889   3.454   1.244 -1.6607 -1.2657 -0.2823
 4308TIP3   OH212929   5.123   3.513   0.789 -0.3078 -0.4138  0.3344
 4308TIP3    H112930   5.042   3.556   0.815 -0.5643 -2.0610  2.5732
 4308TIP3    H212931   5.153   3.468   0.868  1.7325 -1.4830 -0.9546
 4309TIP3   OH212932   2.771   5.198   4.900 -0.2166 -0.5060 -0.3586
 4309TIP3    H112933   2.716   5.129   4.862  0.0460 -0.0756 -1.5911
 4309TIP3    H212934   2.857   5.158   4.909 -0.4643 -0.8592  0.5900
 4310TIP3   OH212935   2.832   1.279   3.744 -0.1792 -0.2666  0.0379
 4310TIP3    H112936   2.784   1.204   3.780  1.3872 -1.9139 -1.1352
 4310TIP3    H212937   2.866   1.325   3.820 -2.6900  0.3830  0.8613
 4311TIP3   OH212938   1.987   3.302   2.673  0.1037  0.6214  0.1430
 4311TIP3    H112939   2.021   3.249   2.601  1.0792  1.1457  0.2047
 4311TIP3    H212940   1.918   3.247   2.712 -0.0964  0.1263 -0.8621
 4312TIP3   OH212941   0.836   1.090   3.321  0.3408 -0.0734  0.1275
 4312TIP3    H112942   0.854   1.042   3.402 -1.2706  2.0590  1.8641
 4312TIP3    H212943   0.748   1.062   3.297  0.5008 -0.0870 -0.4434
 4313TIP3   OH212944   0.235   2.049   3.339 -0.4488 -0.1996 -0.0578
 4313TIP3    H112945   0.196   2.101   3.410 -1.0461 -2.4293  1.3665
 4313TIP3    H212946   0.316   2.014   3.377 -0.2087 -0.5275 -0.8549
 4314TIP3   OH212947   2.549   4.241   1.481  0.3473 -0.4802 -0.2859
 4314TIP3    H112948   2.604   4.318   1.469  0.0641 -0.4778 -1.7604
 4314TIP3    H212949   2.461   4.275   1.493  0.3500 -0.5492 -0.0641
 4315TIP3   OH212950   0.633   1.965   1.924 -0.3944  0.4372  0.1417
 4315TIP3    H112951   0.656   1.873   1.921 -0.6370  0.3914 -1.1232
 4315TIP3    H212952   0.665   1.996   2.008  1.4253 -0.3443 -0.2245
 4316TIP3   OH212953   3.931   2.155   1.413 -0.1170  0.3232 -0.5293
 4316TIP3    H112954   3.844   2.163   1.373 -0.2031  0.6665 -0.2755
 4316TIP3    H212955   3.979   2.097   1.354 -0.9393 -0.9592  0.0149
 4317TIP3   OH212956   0.963   0.142   3.390 -0.1436 -0.3178  0.2877
 4317TIP3    H112957   1.033   0.204   3.371  1.0515 -1.3459  1.1338
 4317TIP3    H212958   0.890   0.196   3.419  0.3289  0.7774 -0.4967
 4318TIP3   OH212959   3.072   1.200   3.652 -0.2896 -0.2440 -0.0040
 4318TIP3    H112960   2.982   1.230   3.661 -0.2749  0.1392 -0.9532
 4318TIP3    H212961   3.068   1.133   3.584  0.1131 -0.3696  0.0941
 4319TIP3   OH212962   3.795   1.781   2.110  0.5209  0.6732 -0.2011
 4319TIP3    H112963   3.723   1.761   2.051 -0.9361  0.9795  1.3774
 4319TIP3    H212964   3.787   1.717   2.181  1.3485  1.1671  0.3631
 4320TIP3   OH212965   5.119   1.501   3.137 -0.0761 -0.2125 -0.7564
 4320TIP3    H112966   5.076   1.420   3.163 -0.0614  0.3106  0.9818
 4320TIP3    H212967   5.048   1.566   3.132  0.3813  0.6139  1.9598
 4321TIP3   OH212968   5.681   4.037   2.925  0.0749 -0.4261 -0.4026
 4321TIP3    H112969   5.777   4.035   2.918  0.1787  1.9585 -0.4547
 4321TIP3    H212970   5.662   3.986   3.004  1.3166 -1.4472 -0.7340
 4322TIP3   OH212971   4.457   5.746   2.000  0.4811  0.1860  0.1440
 4322TIP3    H112972   4.473   5.828   1.954  0.7269  1.3823  2.2252
 4322TIP3    H212973   4.519   5.748   2.074 -1.0530 -0.7916  1.5217
 4323TIP3   OH212974   4.135   3.202   0.459 -0.5659  0.1405 -0.5278
 4323TIP3    H112975   4.162   3.112   0.439  1.1407  0.3931  0.4569
 4323TIP3    H212976   4.069   3.193   0.527  0.5016 -0.3604  0.4783
 4324TIP3   OH212977   5.449   4.428   3.558 -0.1220 -0.6405 -0.0159
 4324TIP3    H112978   5.380   4.374   3.596  0.0581 -0.8914 -0.0457
 4324TIP3    H212979   5.413   4.517   3.560  0.3347 -0.4672  1.7914
 4325TIP3   OH212980   5.569   0.336   1.884 -0.0151 -1.5107 -0.1225
 4325TIP3    H112981   5.636   0.381   1.936 -0.7231 -1.0764  0.4243
 4325TIP3    H212982   5.517   0.406   1.845 -0.3726 -1.8511 -0.2619
 4326TIP3   OH212983   3.009   0.505   0.564 -0.3681  0.1461 -0.4103
 4326TIP3    H112984   3.014   0.599   0.585 -0.4560  0.2353 -0.7816
 4326TIP3    H212985   2.925   0.495   0.521 -0.5643 -0.1924  0.0480
 4327TIP3   OH212986   5.305   4.259   1.222  0.1968 -0.6388  0.2747
 4327TIP3    H112987   5.279   4.346   1.250  0.8069 -0.7804  1.3482
 4327TIP3    H212988   5.244   4.237   1.151  1.3261  1.4718 -1.4851
 4328TIP3   OH212989   1.852   4.502   4.462 -0.0352  0.1535 -0.3044
 4328TIP3    H112990   1.757   4.502   4.455  0.0236 -0.6786 -1.2401
 4328TIP3    H212991   1.882   4.544   4.382  0.3669  2.3163  0.8983
 4329TIP3   OH212992   2.935   3.889   1.614 -0.1707  0.2181 -0.2930
 4329TIP3    H112993   2.982   3.879   1.697 -1.3804 -1.6215  0.2463
 4329TIP3    H212994   2.911   3.982   1.611  1.5815  0.7367  0.4272
 4330TIP3   OH212995   1.220   5.598   1.021  0.5209 -0.4554 -0.0945
 4330TIP3    H112996   1.160   5.551   1.079 -0.8110  1.3440  0.0741
 4330TIP3    H212997   1.286   5.635   1.079  1.3775 -1.7725 -0.1912
 4331TIP3   OH212998   0.458   5.004   4.383 -0.8937 -0.4566  0.6585
 4331TIP3    H112999   0.397   5.071   4.414  2.3973  2.4330  1.6571
 4331TIP3    H213000   0.439   4.995   4.290 -0.8732  2.7829  0.2312
 4332TIP3   OH213001   2.491   0.817   0.303 -0.0250 -0.4226 -0.1282
 4332TIP3    H113002   2.476   0.732   0.261  1.5607 -1.8729  2.0379
 4332TIP3    H213003   2.578   0.843   0.273 -0.9241  1.0678 -1.6486
 4333TIP3   OH213004   0.496   5.409   1.271  0.2027 -0.6478  0.7672
 4333TIP3    H113005   0.413   5.383   1.229  1.3666 -2.0644 -0.7937
 4333TIP3    H213006   0.489   5.504   1.279 -0.0360 -0.1643 -3.0470
 4334TIP3   OH213007   5.724   4.848   1.374  0.3533 -0.0079 -0.2266
 4334TIP3    H113008   5.732   4.763   1.331  0.4952  0.1038 -0.4255
 4334TIP3    H213009   5.814   4.870   1.400  0.2985  0.0239 -0.0690
 4335TIP3   OH213010   3.737   3.200   1.945 -0.5716  0.5927 -0.0278
 4335TIP3    H113011   3.678   3.190   2.019  0.0378  1.4583  0.5928
 4335TIP3    H213012   3.804   3.261   1.975 -0.0314  0.5748 -1.1252
 4336TIP3   OH213013   5.158   1.731   4.570 -0.2798 -0.3652 -0.4475
 4336TIP3    H113014   5.136   1.692   4.485 -1.2860 -1.8293  0.4217
 4336TIP3    H213015   5.102   1.684   4.632 -0.8297  1.8283  0.8350
 4337TIP3   OH213016   4.813   3.770   4.269  0.5164  0.3368  0.0779
 4337TIP3    H113017   4.901   3.801   4.248  0.1948  0.6602 -0.8012
 4337TIP3    H213018   4.821   3.674   4.268  0.6258  0.3470 -1.0550
 4338TIP3   OH213019   2.683   2.228   1.922 -0.4458  0.3717  0.6449
 4338TIP3    H113020   2.666   2.313   1.882 -1.3218  0.5897  1.4373
 4338TIP3    H213021   2.693   2.168   1.849  1.1800  1.3236  0.0462
 4339TIP3   OH213022   0.427   0.772   3.980 -0.5059 -0.4138  0.1305
 4339TIP3    H113023   0.514   0.751   4.011 -0.7577 -1.6490  0.0296
 4339TIP3    H213024   0.413   0.863   4.008  0.8716 -0.1364 -0.0349
 4340TIP3   OH213025   5.830   0.092   2.787  0.1280  0.3745 -0.1627
 4340TIP3    H113026   5.923   0.078   2.770  0.3393  2.7305 -1.3906
 4340TIP3    H213027   5.786   0.031   2.728  0.8872 -0.0879 -0.2672
 4341TIP3   OH213028   5.255   3.013   4.068  0.3354 -0.1970  0.1227
 4341TIP3    H113029   5.198   3.087   4.092 -0.4322 -0.7971  0.1707
 4341TIP3    H213030   5.323   3.053   4.014 -0.3763  0.4736 -0.3028
 4342TIP3   OH213031   0.446   1.440   4.377 -0.1068 -0.1788 -0.3113
 4342TIP3    H113032   0.504   1.443   4.301  0.0278 -0.7552 -0.2351
 4342TIP3    H213033   0.382   1.373   4.355 -0.3276 -0.0398 -0.0956
 4343TIP3   OH213034   0.548   4.526   2.322 -0.9293  0.4945 -0.1190
 4343TIP3    H113035   0.593   4.512   2.239  0.2403 -0.5738  0.6666
 4343TIP3    H213036   0.477   4.587   2.301 -0.6583  0.2398 -1.8886
 4344TIP3   OH213037   1.058   2.327   1.542  0.6545 -0.1474  0.5362
 4344TIP3    H113038   0.994   2.265   1.508 -0.3155  1.5096 -0.7766
 4344TIP3    H213039   1.140   2.278   1.542 -0.4534 -2.2038  1.8972
 4345TIP3   OH213040   0.422   4.114   0.062 -0.2249  0.6288 -0.2498
 4345TIP3    H113041   0.471   4.036   0.090  1.4001  1.5466 -0.4067
 4345TIP3    H213042   0.341   4.110   0.113  0.3225 -0.5612  0.5963
 4346TIP3   OH213043   5.486   1.601   3.613  0.3055  0.2152 -0.4982
 4346TIP3    H113044   5.555   1.640   3.560  1.0077 -0.2526  0.0577
 4346TIP3    H213045   5.407   1.611   3.560  0.4454  2.3544 -0.4014
 4347TIP3   OH213046   0.236   2.877   3.236 -0.4911 -0.1874  0.3128
 4347TIP3    H113047   0.286   2.816   3.290  1.4079  0.9227 -0.1234
 4347TIP3    H213048   0.296   2.902   3.165 -1.8833  0.7130 -0.6030
 4348TIP3   OH213049   5.080   4.847   4.518  0.6103  0.3863  0.1797
 4348TIP3    H113050   5.167   4.808   4.533  0.3587  0.2816  1.4992
 4348TIP3    H213051   5.020   4.789   4.565  0.0138  1.3342  0.6025
 4349TIP3   OH213052   1.849   4.734   3.908 -0.1951 -0.0301  0.0506
 4349TIP3    H113053   1.922   4.726   3.968 -1.7549 -0.0728  2.0376
 4349TIP3    H213054   1.825   4.826   3.912 -0.9418 -0.2291  0.2891
 4350TIP3   OH213055   1.725   1.335   4.774 -0.2587  0.4400  0.3890
 4350TIP3    H113056   1.646   1.370   4.816 -0.5340 -0.8675  1.0135
 4350TIP3    H213057   1.692   1.273   4.709  0.2294  0.8467 -0.2523
 4351TIP3   OH213058   3.858   5.429   2.818  0.5471  0.1499  0.3178
 4351TIP3    H113059   3.834   5.365   2.751  0.5416 -0.1946  0.6486
 4351TIP3    H213060   3.867   5.378   2.898 -1.6669  0.8339  1.0838
 4352TIP3   OH213061   4.137   5.695   4.431 -0.2764  0.6591 -0.3975
 4352TIP3    H113062   4.145   5.633   4.504  0.2176  1.6227  0.4083
 4352TIP3    H213063   4.082   5.651   4.367 -0.7093 -0.2309  0.5568
 4353TIP3   OH213064   2.598   1.394   0.610 -0.2487 -0.7138 -0.2002
 4353TIP3    H113065   2.647   1.347   0.543 -0.0830 -0.2822 -0.3894
 4353TIP3    H213066   2.506   1.377   0.589 -0.1876 -1.8018  0.3537
 4354TIP3   OH213067   4.401   0.594   4.366  0.0390  0.4195 -0.1762
 4354TIP3    H113068   4.473   0.545   4.407  0.3242 -0.2254 -1.4104
 4354TIP3    H213069   4.373   0.656   4.434  0.0041 -1.0933  1.2697
 4355TIP3   OH213070   5.953   5.913   0.291 -0.1588  0.3702  0.4220
 4355TIP3    H113071   5.940   5.833   0.343  1.1192 -0.0798  0.0974
 4355TIP3    H213072   5.994   5.975   0.351 -0.4533  0.5172  0.4705
 4356TIP3   OH213073   1.392   2.857   4.827 -0.2272  0.2737  0.7562
 4356TIP3    H113074   1.426   2.939   4.862 -0.4809  0.7453 -0.0623
 4356TIP3    H213075   1.297   2.870   4.823 -0.3403 -0.3188  1.2469
 4357TIP3   OH213076   1.638   2.906   3.884  0.4546  0.4331  0.4608
 4357TIP3    H113077   1.590   2.824   3.888  2.7292 -1.0903 -1.1200
 4357TIP3    H213078   1.598   2.961   3.952  0.4297 -2.8544  3.3527
 4358TIP3   OH213079   2.023   3.560   2.410  0.1116 -0.4040  0.8844
 4358TIP3    H113080   2.072   3.520   2.338 -0.2655 -0.0894  0.4542
 4358TIP3    H213081   1.954   3.497   2.429  0.0633 -0.3732  0.8101
 4359TIP3   OH213082   2.009   1.538   2.513  0.3308  0.2837  0.0641
 4359TIP3    H113083   2.016   1.594   2.589  0.1997 -1.2113  1.2316
 4359TIP3    H213084   2.085   1.559   2.459  0.7964  0.8673  0.9422
 4360TIP3   OH213085   3.838   5.314   1.059 -0.1209  0.5624 -0.4950
 4360TIP3    H113086   3.857   5.406   1.044  0.1306  0.9625  1.8703
 4360TIP3    H213087   3.921   5.269   1.046  0.0589  0.8483 -0.3236
 4361TIP3   OH213088   4.501   0.362   1.114 -0.4677 -0.1986 -1.0745
 4361TIP3    H113089   4.570   0.382   1.051 -0.0089 -0.3191 -0.6144
 4361TIP3    H213090   4.541   0.301   1.175 -0.7575  0.2880 -0.3808
 4362TIP3   OH213091   4.010   0.243   3.577 -0.3269  0.5980  0.2338
 4362TIP3    H113092   4.085   0.293   3.609 -0.6407  0.7479  0.7592
 4362TIP3    H213093   4.047   0.165   3.538  0.3463  2.1192 -2.4368
 4363TIP3   OH213094   2.833   3.103   2.769 -0.4411  0.4392  0.3465
 4363TIP3    H113095   2.782   3.031   2.809  1.5040 -0.1952  1.8489
 4363TIP3    H213096   2.837   3.169   2.838 -1.8156  1.8584 -0.8681
 4364TIP3   OH213097   0.548   3.825   0.994 -0.5318 -0.4790  0.5824
 4364TIP3    H113098   0.588   3.863   0.916  1.4442  1.5121  2.4441
 4364TIP3    H213099   0.475   3.884   1.014 -0.6719 -0.6582  0.6052
 4365TIP3   OH213100   3.511   5.651   1.752 -0.7586  0.3973  0.1469
 4365TIP3    H113101   3.443   5.661   1.684 -2.4320  0.7691  1.8010
 4365TIP3    H213102   3.534   5.559   1.750 -0.8563  0.3820 -0.8509
 4366TIP3   OH213103   0.222   4.033   2.319  0.0810  0.5864 -0.0807
 4366TIP3    H113104   0.176   3.999   2.396  0.0493  1.1871  0.1750
 4366TIP3    H213105   0.232   4.127   2.337  2.1607  0.3389  0.2483
 4367TIP3   OH213106   4.738   4.857   3.703 -0.0211 -0.1411 -0.2246
 4367TIP3    H113107   4.730   4.905   3.785 -1.8106  0.6922 -0.8527
 4367TIP3    H213108   4.822   4.885   3.667  0.8032 -0.5447  1.3179
 4368TIP3   OH213109   0.619   1.321   0.538 -0.4918 -0.2658  0.1888
 4368TIP3    H113110   0.550   1.260   0.564  0.0417 -0.8989  0.1082
 4368TIP3    H213111   0.673   1.273   0.476 -0.3835  0.4682 -0.3065
 4369TIP3   OH213112   3.046   2.666   1.470 -0.4329 -0.1440  0.0924
 4369TIP3    H113113   3.097   2.737   1.508  0.5550 -0.4044 -0.7078
 4369TIP3    H213114   3.004   2.704   1.394 -1.3883  0.0458  0.6982
 4370TIP3   OH213115   0.389   4.171   4.299  0.1100 -0.7172  0.1609
 4370TIP3    H113116   0.460   4.231   4.324 -0.4386  0.9529 -2.0595
 4370TIP3    H213117   0.434   4.089   4.278  1.2229 -0.1466  0.2462
 4371TIP3   OH213118   5.319   4.875   1.683  0.1379  0.4789 -0.1559
 4371TIP3    H113119   5.266   4.863   1.604  0.5693  2.7587 -0.8979
 4371TIP3    H213120   5.263   4.847   1.755 -0.0205 -2.3533 -1.2478
 4372TIP3   OH213121   6.033   3.110   3.790  0.3139 -0.0454 -0.1066
 4372TIP3    H113122   6.020   3.205   3.788 -1.2726 -0.2148  0.7734
 4372TIP3    H213123   6.094   3.097   3.862 -0.2548  0.2434  0.4391
 4373TIP3   OH213124   2.412   2.686   0.953 -0.2649 -0.4636 -0.2165
 4373TIP3    H113125   2.389   2.706   1.043  0.9425 -0.9334  0.2103
 4373TIP3    H213126   2.421   2.591   0.949  3.5831 -0.2867  0.2378
 4374TIP3   OH213127   4.284   3.494   4.132  0.1449 -0.3769 -0.2512
 4374TIP3    H113128   4.289   3.541   4.048  0.7993  1.8146  0.9160
 4374TIP3    H213129   4.340   3.418   4.120  2.5164  1.3701 -0.9606
 4375TIP3   OH213130   4.836   1.998   2.029  0.5769 -0.3263 -0.2300
 4375TIP3    H113131   4.820   2.041   2.112 -0.7124 -0.4591 -0.3851
 4375TIP3    H213132   4.909   1.939   2.046 -0.0405 -0.7842  0.9784
 4376TIP3   OH213133   1.451   5.953   2.551 -0.1740  0.1216  0.1077
 4376TIP3    H113134   1.436   5.860   2.562  0.9658 -0.4101 -2.2338
 4376TIP3    H213135   1.364   5.991   2.541 -0.5822 -0.9206 -0.3432
 4377TIP3   OH213136   5.749   1.559   0.012 -0.0650 -0.4444  0.4829
 4377TIP3    H113137   5.786   1.480   0.052 -0.3999 -0.8398  0.0348
 4377TIP3    H213138   5.808   1.579  -0.061  1.0208  0.7667  1.6560
 4378TIP3   OH213139   0.928   0.360   2.729  0.0330  0.0720  0.3619
 4378TIP3    H113140   1.023   0.343   2.728  0.3399  1.6219  1.0548
 4378TIP3    H213141   0.908   0.378   2.821 -0.5776  1.5751 -0.0463
 4379TIP3   OH213142   3.880   3.557   1.329  0.4431 -0.3916 -0.2364
 4379TIP3    H113143   3.838   3.623   1.383 -1.3595 -0.9114 -0.9411
 4379TIP3    H213144   3.920   3.497   1.392  0.1051  0.1065  0.4609
 4380TIP3   OH213145   0.901   0.643   2.092  0.6123  0.2532 -0.8292
 4380TIP3    H113146   0.899   0.738   2.091 -4.8464  0.8153  4.4614
 4380TIP3    H213147   0.830   0.616   2.034  0.3923 -0.3051 -0.3203
 4381TIP3   OH213148   5.570   0.539   1.102  0.4778 -0.2856  0.3218
 4381TIP3    H113149   5.532   0.503   1.182  2.0387  1.2032  1.8139
 4381TIP3    H213150   5.495   0.558   1.046 -0.5403 -4.1144  0.0878
 4382TIP3   OH213151   5.369   5.772   3.915 -0.0569 -0.5620 -0.3327
 4382TIP3    H113152   5.460   5.760   3.886 -0.1224 -0.0146 -0.7896
 4382TIP3    H213153   5.320   5.786   3.833 -0.1759  1.4977  0.0339
 4383TIP3   OH213154   5.972   3.943   5.097 -0.1223 -0.2537 -0.1924
 4383TIP3    H113155   5.924   3.867   5.065 -0.2156  0.1153 -0.9440
 4383TIP3    H213156   6.063   3.914   5.102 -0.2521 -0.6078  0.1463
 4384TIP3   OH213157   4.192   0.034   4.342 -0.1169 -0.4027 -0.6040
 4384TIP3    H113158   4.264   0.093   4.361  0.7830 -1.6575  0.0918
 4384TIP3    H213159   4.168   0.052   4.252  1.0332  0.0913 -0.8249
 4385TIP3   OH213160   5.600   5.735   3.771 -0.2516 -0.1401  0.7248
 4385TIP3    H113161   5.588   5.786   3.691 -2.7750 -0.1630  1.0009
 4385TIP3    H213162   5.617   5.646   3.740 -1.1218 -0.1348  0.2005
 4386TIP3   OH213163   5.611   5.427   3.423  0.6062 -0.0504  0.3429
 4386TIP3    H113164   5.543   5.429   3.356 -0.1296 -0.4845  1.0542
 4386TIP3    H213165   5.676   5.365   3.389 -0.3645 -1.2269  0.5802
 4387TIP3   OH213166   0.501   3.951   4.196  0.4533 -0.1223 -0.5890
 4387TIP3    H113167   0.527   3.861   4.216  2.2229  0.3911 -0.4548
 4387TIP3    H213168   0.540   3.968   4.110  0.9766  0.8324 -0.1743
 4388TIP3   OH213169   5.591   3.174   1.998  0.6397  0.0975 -0.1623
 4388TIP3    H113170   5.521   3.238   1.984  0.8482  0.5482  0.7731
 4388TIP3    H213171   5.568   3.132   2.080  0.4656 -1.1127 -0.8108
 4389TIP3   OH213172   0.499   0.593   1.449  0.3152 -0.2809  0.3111
 4389TIP3    H113173   0.430   0.645   1.491  1.2119  1.2325 -0.0404
 4389TIP3    H213174   0.451   0.530   1.394 -0.8686  2.6235 -2.2484
 4390TIP3   OH213175   4.826   3.450   3.171 -0.0490  0.2205  0.3396
 4390TIP3    H113176   4.878   3.380   3.209  0.2503  0.1507 -0.1905
 4390TIP3    H213177   4.789   3.413   3.091  0.8843  0.9411 -0.4578
 4391TIP3   OH213178   3.555   2.171   1.422 -0.0266  0.8369 -0.0685
 4391TIP3    H113179   3.607   2.190   1.344 -0.5906  0.1095 -0.6283
 4391TIP3    H213180   3.468   2.149   1.389 -0.9217  2.6510  0.8928
 4392TIP3   OH213181   5.585   5.239   5.096  0.4004  0.1809  0.3998
 4392TIP3    H113182   5.579   5.290   5.015  0.9256 -0.5496 -0.1116
 4392TIP3    H213183   5.651   5.172   5.077 -1.1120 -1.4372  0.6342
 4393TIP3   OH213184   6.069   3.276   0.888  0.2774  0.2260 -0.7775
 4393TIP3    H113185   6.052   3.353   0.833 -0.5245 -0.4728 -1.5387
 4393TIP3    H213186   6.023   3.295   0.970  0.9404  0.9948 -0.5718
 4394TIP3   OH213187   0.108   1.978   0.241 -0.5576 -0.1221  0.0224
 4394TIP3    H113188   0.106   1.977   0.145 -1.2738  1.3705  0.0040
 4394TIP3    H213189   0.186   2.029   0.262 -0.7727  0.1134  0.2366
 4395TIP3   OH213190   0.146   1.063   3.293  0.6442  0.2946 -0.2275
 4395TIP3    H113191   0.096   1.003   3.237  0.0821  2.4446 -2.1510
 4395TIP3    H213192   0.096   1.065   3.375  1.4129 -2.8217  0.4531
 4396TIP3   OH213193   4.706   3.879   5.187  0.4396 -0.2108 -0.6496
 4396TIP3    H113194   4.686   3.933   5.110 -0.9045  1.2938  0.6917
 4396TIP3    H213195   4.794   3.844   5.169  0.5568  0.8781 -2.4291
 4397TIP3   OH213196   5.521   4.846   4.740  0.5393  0.5040 -0.0355
 4397TIP3    H113197   5.590   4.793   4.699 -0.8848 -1.5812  0.1061
 4397TIP3    H213198   5.508   4.806   4.825 -0.8307  0.8819 -0.0552
 4398TIP3   OH213199   5.525   2.636   2.784 -0.0491  0.1087  0.5002
 4398TIP3    H113200   5.430   2.639   2.788 -0.2514 -1.4859 -1.4961
 4398TIP3    H213201   5.552   2.728   2.778 -1.6537  0.5323 -1.3434
 4399TIP3   OH213202   4.180   3.121   2.347 -0.1062  0.3368  0.1335
 4399TIP3    H113203   4.183   3.117   2.252  3.8359  0.4918  0.0978
 4399TIP3    H213204   4.210   3.210   2.368 -0.5327  0.1682  1.5390
 4400TIP3   OH213205   4.376   5.828   4.543 -0.7380  0.2446 -0.3600
 4400TIP3    H113206   4.369   5.912   4.498  1.2962  1.1293  0.8157
 4400TIP3    H213207   4.290   5.788   4.533 -2.0531  2.8326 -0.2699
 4401TIP3   OH213208   3.547   3.470   1.838 -0.3725  0.2354  0.2962
 4401TIP3    H113209   3.596   3.484   1.918  1.4335 -0.7615 -0.5784
 4401TIP3    H213210   3.571   3.544   1.782  0.5635 -0.5123 -0.3145
 4402TIP3   OH213211   5.691   2.557   4.431 -0.1849 -0.3126  0.2208
 4402TIP3    H113212   5.734   2.642   4.445 -0.0254 -0.3845  0.1687
 4402TIP3    H213213   5.612   2.579   4.381 -1.5100  0.1206  2.3812
 4403TIP3   OH213214   2.695   3.293   4.656  0.1244 -0.1009 -0.5523
 4403TIP3    H113215   2.784   3.321   4.679 -0.1635  0.3385  0.0780
 4403TIP3    H213216   2.695   3.290   4.560  0.3537  1.5253 -0.6437
 4404TIP3   OH213217   0.071   2.163   1.678  0.3995  0.5173  0.5013
 4404TIP3    H113218   0.074   2.121   1.592  1.9237  1.1143  0.2367
 4404TIP3    H213219   0.047   2.093   1.738 -1.1051  0.1723 -0.4283
 4405TIP3   OH213220   1.375   1.515   3.741  0.2870 -0.1579 -0.3151
 4405TIP3    H113221   1.363   1.524   3.646  0.5023 -1.7781 -0.5297
 4405TIP3    H213222   1.458   1.469   3.751  0.4913  0.3948  0.6990
 4406TIP3   OH213223   4.291   4.566   0.905  0.2033 -0.1436  0.2073
 4406TIP3    H113224   4.258   4.584   0.993  0.3597  0.3195  0.1758
 4406TIP3    H213225   4.386   4.569   0.914  0.2405  2.1809 -0.4076
 4407TIP3   OH213226   4.071   0.172   1.039 -0.0729  0.0084 -0.5591
 4407TIP3    H113227   4.072   0.199   1.130  0.0451  0.3165 -0.6496
 4407TIP3    H213228   4.061   0.253   0.990  1.4279  0.0266 -0.8836
 4408TIP3   OH213229   6.293   5.703   4.141 -0.2853  0.1168 -0.4041
 4408TIP3    H113230   6.364   5.639   4.136 -1.6037 -1.6387  1.5198
 4408TIP3    H213231   6.216   5.656   4.109 -1.0921  1.0572  0.0992
 4409TIP3   OH213232   2.697   3.075   3.399  0.2974  0.3280 -0.9393
 4409TIP3    H113233   2.640   3.098   3.472  0.2875 -0.4013 -0.7068
 4409TIP3    H213234   2.785   3.095   3.430  0.2986 -0.0312 -0.6948
 4410TIP3   OH213235   4.343   3.814   0.143  0.0410  0.6038 -0.7080
 4410TIP3    H113236   4.281   3.790   0.212 -1.1939 -0.7178 -2.2006
 4410TIP3    H213237   4.292   3.868   0.082  0.5033  0.0143 -1.6424
 4411TIP3   OH213238   1.301   0.493   1.346  0.1080 -0.2311  1.3118
 4411TIP3    H113239   1.259   0.575   1.318  1.1424 -0.3873 -0.9287
 4411TIP3    H213240   1.389   0.518   1.373  1.0316 -0.7132 -1.0026
 4412TIP3   OH213241   3.316   5.787   1.929  0.5822 -0.1838  0.0033
 4412TIP3    H113242   3.389   5.838   1.965 -1.8158  2.4857  1.5206
 4412TIP3    H213243   3.358   5.717   1.880  4.1479  0.3551  1.9127
 4413TIP3   OH213244   1.235   3.108   1.933  0.5914  0.1086  0.4487
 4413TIP3    H113245   1.236   3.095   2.028  0.6623  1.0007  0.5777
 4413TIP3    H213246   1.327   3.122   1.910  0.6468 -0.6934  0.1560
 4414TIP3   OH213247   3.142   3.336   4.051 -0.4670 -0.1696  0.3166
 4414TIP3    H113248   3.178   3.362   4.136  0.6803 -0.5570 -0.0307
 4414TIP3    H213249   3.219   3.313   3.999 -0.9104  2.2120 -1.6054
 4415TIP3   OH213250   5.310   1.973   3.207 -0.5267 -0.3480 -0.2337
 4415TIP3    H113251   5.277   1.970   3.117  2.0902  0.1668 -1.3094
 4415TIP3    H213252   5.304   2.066   3.231 -0.4243 -0.3466 -0.2127
 4416TIP3   OH213253   5.163   1.376   2.185  0.1852 -0.2296 -0.0322
 4416TIP3    H113254   5.092   1.436   2.161  0.9464  1.1365  0.9812
 4416TIP3    H213255   5.136   1.292   2.149 -0.8984  0.7178 -1.5726
 4417TIP3   OH213256   4.281   2.039   1.363 -0.4801  0.3132  0.6530
 4417TIP3    H113257   4.280   1.968   1.427  0.4992  0.4129  0.7930
 4417TIP3    H213258   4.307   2.117   1.412  3.1233 -0.1209 -0.2758
 4418TIP3   OH213259   5.863   2.803   0.149  0.6877  0.1433 -0.2743
 4418TIP3    H113260   5.788   2.793   0.207 -0.1018 -0.4285 -1.3458
 4418TIP3    H213261   5.939   2.782   0.203  0.1934  1.6301  1.0836
 4419TIP3   OH213262   3.122   2.294   2.202  0.1110 -0.3872  0.2405
 4419TIP3    H113263   3.101   2.309   2.109  0.8186 -1.0051 -0.0320
 4419TIP3    H213264   3.037   2.279   2.243 -0.2527  0.3705 -0.2112
 4420TIP3   OH213265   1.123   3.256   2.739  0.1265  0.8303  0.1915
 4420TIP3    H113266   1.168   3.217   2.814  0.9397  0.3383 -0.5298
 4420TIP3    H213267   1.191   3.307   2.694  0.1535 -0.4212 -1.2576
 4421TIP3   OH213268   3.500   0.095   5.062 -0.1415  0.3413 -0.1091
 4421TIP3    H113269   3.558   0.169   5.046 -2.1988  2.1154  0.1339
 4421TIP3    H213270   3.459   0.077   4.977  0.2488 -0.4650 -0.1384
 4422TIP3   OH213271   1.910   0.411   1.657  0.7531 -0.0058  0.7036
 4422TIP3    H113272   1.816   0.394   1.660  0.3809  1.9000  1.8984
 4422TIP3    H213273   1.930   0.422   1.564 -0.2889  0.0371  0.4722
 4423TIP3   OH213274   1.346   5.929   3.598  0.3517 -0.2022  0.0475
 4423TIP3    H113275   1.428   5.892   3.565 -0.8642  0.1695 -4.0442
 4423TIP3    H213276   1.355   6.023   3.582 -0.2600  0.0498  1.1140
 4424TIP3   OH213277   5.521   5.325   2.073  0.3937 -0.8669 -0.4020
 4424TIP3    H113278   5.539   5.235   2.099 -0.1721 -1.0770 -0.7047
 4424TIP3    H213279   5.554   5.379   2.145 -0.9561 -1.4169  0.6671
 4425TIP3   OH213280   0.253   0.420   3.441 -0.5626 -0.0179  0.1561
 4425TIP3    H113281   0.249   0.339   3.492 -0.1346  1.2911  2.3767
 4425TIP3    H213282   0.312   0.399   3.368  1.7129 -0.9857  2.1333
 4426TIP3   OH213283   3.844   0.100   0.851  0.2490 -0.0347  0.2052
 4426TIP3    H113284   3.780   0.160   0.888  1.7250  1.4208  0.5049
 4426TIP3    H213285   3.850   0.029   0.914 -1.4132 -0.4622 -0.0767
 4427TIP3   OH213286   6.085   0.567   1.926  0.1269  0.5990  0.3505
 4427TIP3    H113287   6.108   0.586   2.017  0.3812  0.8333  0.2402
 4427TIP3    H213288   6.148   0.618   1.875 -0.1941  0.6894  0.0414
 4428TIP3   OH213289   4.834   3.406   4.444 -0.5030  0.2106  0.1284
 4428TIP3    H113290   4.742   3.417   4.469 -0.3282  1.1703  0.3886
 4428TIP3    H213291   4.841   3.446   4.357  0.0105  1.6980  0.8207
 4429TIP3   OH213292   3.298   3.058   3.345  0.3827 -0.3280  0.3023
 4429TIP3    H113293   3.324   3.054   3.438  1.5983 -2.5741 -0.0477
 4429TIP3    H213294   3.380   3.043   3.298 -0.2964  0.3878 -1.1434
 4430TIP3   OH213295   3.582   2.879   3.623  0.0504  0.4030 -0.2613
 4430TIP3    H113296   3.504   2.931   3.600 -0.3524 -0.3007 -0.5166
 4430TIP3    H213297   3.625   2.862   3.539 -0.5753 -0.8463 -0.3450
 4431TIP3   OH213298   1.780   3.572   3.228  0.2395 -0.4852  0.0824
 4431TIP3    H113299   1.836   3.650   3.226  2.2229 -1.8234  0.5524
 4431TIP3    H213300   1.745   3.565   3.140 -1.6427  2.0185  0.5070
 4432TIP3   OH213301   5.377   4.383   0.076 -0.5077  0.5774 -0.5640
 4432TIP3    H113302   5.451   4.432   0.040 -0.5997 -0.5488 -2.3974
 4432TIP3    H213303   5.362   4.313   0.013 -2.6748  0.3357  0.1576
 4433TIP3   OH213304   4.138   4.384   1.675 -0.3614  0.3107  0.0676
 4433TIP3    H113305   4.229   4.388   1.646 -0.2445  2.5774  0.5134
 4433TIP3    H213306   4.094   4.451   1.623 -1.8023 -0.7475 -0.1339
 4434TIP3   OH213307   0.568   4.257   2.789 -0.4463  0.0193  0.2734
 4434TIP3    H113308   0.478   4.225   2.779 -0.5807  0.2243  0.7779
 4434TIP3    H213309   0.619   4.207   2.725 -0.9332 -0.0454 -0.0646
 4435TIP3   OH213310   4.802   5.485   4.261  0.3983  0.0484  0.7189
 4435TIP3    H113311   4.805   5.507   4.354  1.7045 -2.6991  1.4406
 4435TIP3    H213312   4.716   5.446   4.248  1.6177 -3.4633  1.9440
 4436TIP3   OH213313   0.811   5.278   0.994  0.6038 -0.4873  0.3187
 4436TIP3    H113314   0.768   5.286   1.079  0.5115  1.4157  0.1341
 4436TIP3    H213315   0.750   5.228   0.940 -0.0406 -0.3521  0.9188
 4437TIP3   OH213316   4.403   5.346   1.215  0.0436 -0.3839 -0.2263
 4437TIP3    H113317   4.318   5.341   1.171 -0.7393  0.4519  1.0975
 4437TIP3    H213318   4.384   5.328   1.307  1.3524 -0.4466  0.0587
 4438TIP3   OH213319   1.476   0.073   4.414  0.5164  0.0032 -0.1417
 4438TIP3    H113320   1.381   0.080   4.417  0.4860 -0.3428 -0.2765
 4438TIP3    H213321   1.507   0.150   4.461  0.2400  2.4991 -3.6379
 4439TIP3   OH213322   1.031   1.084   0.885  0.2526  0.3105 -0.6946
 4439TIP3    H113323   1.106   1.143   0.888  0.4082  0.1077 -0.5569
 4439TIP3    H213324   1.045   1.032   0.806  0.9104 -0.5716 -0.0299
 4440TIP3   OH213325   4.409   1.048   4.115 -0.2951 -1.1569  0.3549
 4440TIP3    H113326   4.393   1.011   4.202  0.6787  1.7193  1.8907
 4440TIP3    H213327   4.504   1.062   4.113  0.0707 -3.2524 -2.1746
 4441TIP3   OH213328   5.576   2.379   2.876  0.3343  0.4726  0.0788
 4441TIP3    H113329   5.485   2.347   2.879  0.7080 -1.4080 -3.3977
 4441TIP3    H213330   5.568   2.472   2.856 -0.9539 -0.0170 -2.0806
 4442TIP3   OH213331   0.970   0.431   0.691 -0.0811 -0.2049  0.6189
 4442TIP3    H113332   1.047   0.374   0.684 -0.4944 -0.5716 -1.5103
 4442TIP3    H213333   1.007   0.518   0.708  0.7005 -0.6136  1.1065
 4443TIP3   OH213334   2.975   1.342   2.021 -0.4337 -0.3202 -0.0916
 4443TIP3    H113335   2.892   1.358   2.066 -0.6568  1.0264 -0.9085
 4443TIP3    H213336   2.983   1.416   1.961  0.3241 -1.5588 -1.5592
 4444TIP3   OH213337   5.668   1.106   2.003  0.1699  0.1215  0.0795
 4444TIP3    H113338   5.707   1.019   1.994 -0.0647  0.0948 -0.8819
 4444TIP3    H213339   5.645   1.113   2.095 -1.1611 -1.4406 -0.0780
 4445TIP3   OH213340   1.495   2.185   4.960  0.0348  0.0338 -0.4825
 4445TIP3    H113341   1.537   2.180   4.874  0.1726  0.0693 -0.4187
 4445TIP3    H213342   1.444   2.105   4.966  0.0870 -0.0065 -0.5663
 4446TIP3   OH213343   2.401   1.087   0.378 -0.0655 -0.3279  0.0954
 4446TIP3    H113344   2.392   0.993   0.370  0.5764 -0.5806  1.8221
 4446TIP3    H213345   2.314   1.122   0.357 -0.1078 -1.2057 -1.3069
 4447TIP3   OH213346   4.061   4.234   5.123  0.9220  0.1986  0.2538
 4447TIP3    H113347   4.015   4.178   5.061  0.9477  0.8081 -0.3288
 4447TIP3    H213348   3.992   4.282   5.168  0.8909 -0.4409  0.8912
 4448TIP3   OH213349   5.080   0.163   4.225  0.2018 -0.2907  0.7561
 4448TIP3    H113350   5.102   0.176   4.318 -2.9287 -0.9448  1.7165
 4448TIP3    H213351   5.103   0.247   4.184  1.5724  0.0537  2.0936
 4449TIP3   OH213352   4.256   0.319   1.927 -0.2097  0.1355  0.1821
 4449TIP3    H113353   4.305   0.378   1.984 -0.3298  0.5802 -0.1653
 4449TIP3    H213354   4.165   0.328   1.956 -0.3620  0.8341 -0.4655
 4450TIP3   OH213355   3.368   1.844   3.272 -0.1297  0.0072 -0.3198
 4450TIP3    H113356   3.339   1.935   3.270  1.2920  0.4732 -1.8433
 4450TIP3    H213357   3.303   1.799   3.325 -0.5920  2.0013  0.8915
 4451TIP3   OH213358   6.279   4.576   3.593 -0.3797 -0.1352  0.0582
 4451TIP3    H113359   6.367   4.597   3.626 -0.6092  0.9847 -0.0266
 4451TIP3    H213360   6.286   4.485   3.564  0.3212 -0.5896  1.5356
 4452TIP3   OH213361   0.627   0.645   3.223 -0.1023 -0.2749  0.0618
 4452TIP3    H113362   0.582   0.639   3.307  0.4692  0.8368  0.4577
 4452TIP3    H213363   0.681   0.565   3.219 -0.4298 -0.5255  0.5653
 4453TIP3   OH213364   2.318   1.827   0.699 -0.3487  0.1797  0.4254
 4453TIP3    H113365   2.326   1.732   0.701  0.1770  0.2335  1.3833
 4453TIP3    H213366   2.226   1.843   0.720 -0.3182 -0.1068  0.7965
 4454TIP3   OH213367   2.534   3.563   1.246 -0.5729  0.5479 -0.0216
 4454TIP3    H113368   2.619   3.605   1.233 -0.0960 -0.7437 -1.4000
 4454TIP3    H213369   2.471   3.624   1.209  0.2484 -0.4865 -3.6077
 4455TIP3   OH213370   1.534   4.511   4.619  0.3565 -0.2974  0.5317
 4455TIP3    H113371   1.478   4.481   4.547 -0.1423  0.1951  0.7078
 4455TIP3    H213372   1.508   4.457   4.693  1.1270 -1.0613  0.2693
 4456TIP3   OH213373   2.049   1.040   2.265  0.1465  0.3971 -0.0389
 4456TIP3    H113374   2.006   1.108   2.317 -1.1050 -0.3804 -0.0232
 4456TIP3    H213375   2.043   0.961   2.318  0.8930  0.0928 -0.3903
 4457TIP3   OH213376   0.858   3.520   3.307  0.3153 -0.1833 -0.0074
 4457TIP3    H113377   0.790   3.579   3.277 -1.1975 -2.0987 -0.5381
 4457TIP3    H213378   0.921   3.518   3.234 -0.2760 -0.2148 -0.5261
 4458TIP3   OH213379   4.069   3.405   2.255  0.1893 -0.6100  0.3086
 4458TIP3    H113380   4.117   3.348   2.194  1.9695 -0.1882  1.2689
 4458TIP3    H213381   3.977   3.387   2.235  0.6995 -1.6628 -1.4065
 4459TIP3   OH213382   4.632   5.238   1.050 -0.0939 -0.1736 -0.5520
 4459TIP3    H113383   4.573   5.284   1.109 -1.1397  0.1599 -1.8051
 4459TIP3    H213384   4.709   5.294   1.044  0.4390 -0.6521  1.1668
 4460TIP3   OH213385   4.899   1.194   2.883  0.3099 -0.4271  0.1962
 4460TIP3    H113386   4.846   1.122   2.848 -0.4269 -0.0610  0.5399
 4460TIP3    H213387   4.979   1.193   2.830  0.9646 -2.4182  1.1197
 4461TIP3   OH213388   3.418   5.580   2.157 -0.4527 -0.0471  0.0460
 4461TIP3    H113389   3.369   5.644   2.208 -1.2197 -0.7052  0.1570
 4461TIP3    H213390   3.458   5.523   2.223 -1.9288 -1.2567 -0.0633
 4462TIP3   OH213391   6.101   1.180   5.178 -0.1327  0.2593 -0.1226
 4462TIP3    H113392   6.179   1.190   5.123  0.1071  1.8004  0.4507
 4462TIP3    H213393   6.036   1.140   5.120  1.2713 -1.7404 -0.4122
 4463TIP3   OH213394   3.421   4.936   1.546 -0.2492 -0.1085 -0.2169
 4463TIP3    H113395   3.410   4.937   1.451  0.0700 -1.0188 -0.2739
 4463TIP3    H213396   3.335   4.912   1.580 -0.6537  1.2839 -0.2072
 4464TIP3   OH213397   3.553   5.531   0.342 -0.5371  0.3220  0.1686
 4464TIP3    H113398   3.632   5.499   0.298 -2.2184 -0.1569 -2.7319
 4464TIP3    H213399   3.550   5.624   0.322 -0.9835  0.2267 -0.2234
 4465TIP3   OH213400   1.749   1.363   4.293  0.6544 -0.0464  0.3997
 4465TIP3    H113401   1.744   1.276   4.333  0.9346 -0.7808 -1.1100
 4465TIP3    H213402   1.703   1.354   4.210  1.5554  0.9945 -0.2305
 4466TIP3   OH213403   2.382   2.286   3.276 -0.5061 -0.2301  0.0423
 4466TIP3    H113404   2.368   2.253   3.365  0.1076 -3.8021 -1.0607
 4466TIP3    H213405   2.475   2.311   3.275 -0.0440 -1.8611 -0.0363
 4467TIP3   OH213406   5.230   5.328   2.633  0.3080  0.3156 -0.3290
 4467TIP3    H113407   5.204   5.342   2.542  0.4438 -0.5131 -0.4991
 4467TIP3    H213408   5.249   5.234   2.639 -0.2811  0.2528  0.7093
 4468TIP3   OH213409   2.144   5.552   1.567  0.5951  0.2705 -0.2839
 4468TIP3    H113410   2.072   5.529   1.626  1.6088 -0.9450  0.5446
 4468TIP3    H213411   2.223   5.533   1.618  1.5174  1.9956 -1.0076
 4469TIP3   OH213412   5.189   4.533   2.258 -0.4494  0.4961 -0.7564
 4469TIP3    H113413   5.125   4.586   2.210 -0.7581  1.0141  0.1822
 4469TIP3    H213414   5.271   4.582   2.251 -0.5351  0.6616 -0.6116
 4470TIP3   OH213415   5.279   0.440   3.544 -0.0266 -0.2084 -0.5895
 4470TIP3    H113416   5.372   0.420   3.553 -0.1190  0.3233  3.1825
 4470TIP3    H213417   5.276   0.515   3.485  2.0003  0.2562 -0.1742
 4471TIP3   OH213418   5.236   5.727   3.375 -0.7014  0.1895  0.4727
 4471TIP3    H113419   5.191   5.702   3.295  0.3605 -0.1700 -0.0219
 4471TIP3    H213420   5.243   5.823   3.370  1.0017  0.0423 -0.7863
 4472TIP3   OH213421   6.350   3.834   4.663  0.0237  0.3474  0.2211
 4472TIP3    H113422   6.298   3.903   4.619 -0.0641  0.2113  0.1087
 4472TIP3    H213423   6.329   3.844   4.756 -0.3793  0.1536  0.1553
 4473TIP3   OH213424   5.518   5.764   0.527 -0.4503  0.4212  0.2148
 4473TIP3    H113425   5.490   5.786   0.439 -1.4389  0.7773  0.6091
 4473TIP3    H213426   5.481   5.832   0.583 -0.4923 -0.2183  0.9982
 4474TIP3   OH213427   5.517   2.876   1.301  0.4169 -0.1349  0.4472
 4474TIP3    H113428   5.589   2.890   1.239  1.2702 -0.7492  1.2619
 4474TIP3    H213429   5.472   2.798   1.268  0.6396 -0.2441  0.4010
 4475TIP3   OH213430   0.697   2.926   0.446 -0.0476  0.3081 -0.6873
 4475TIP3    H113431   0.753   2.926   0.368 -1.1058 -0.5922 -1.4731
 4475TIP3    H213432   0.610   2.904   0.413 -0.5251 -0.0467  0.7515
 4476TIP3   OH213433   6.132   2.356   4.787  0.4529 -0.3820 -0.3725
 4476TIP3    H113434   6.052   2.402   4.765  1.3406  1.2564 -0.3285
 4476TIP3    H213435   6.183   2.354   4.706  0.5061 -1.1359 -0.3293
 4477TIP3   OH213436   2.375   5.526   4.469 -0.8257  0.8815 -0.5036
 4477TIP3    H113437   2.447   5.574   4.429 -0.2023  0.8120  0.5041
 4477TIP3    H213438   2.406   5.435   4.475 -0.7085  0.9746  0.5454
 4478TIP3   OH213439   0.346   2.289   1.411 -0.8271 -0.1533  0.0636
 4478TIP3    H113440   0.311   2.333   1.489  0.6374  0.8774  0.1784
 4478TIP3    H213441   0.286   2.314   1.341 -1.3732  0.0447  0.5898
 4479TIP3   OH213442   2.814   0.992   0.492 -0.7763 -0.4838 -0.3406
 4479TIP3    H113443   2.904   0.960   0.497 -0.7102 -0.1210  1.6259
 4479TIP3    H213444   2.780   0.955   0.410  1.3095 -0.1377 -1.4284
 4480TIP3   OH213445   2.378   1.100   4.991  0.2001  0.3526 -0.1123
 4480TIP3    H113446   2.360   1.144   5.074 -1.1266 -0.3216  0.0009
 4480TIP3    H213447   2.303   1.123   4.935  0.0928 -0.7599 -0.4516
 4481TIP3   OH213448   3.681   3.984   1.663  0.0436 -0.9507 -0.0997
 4481TIP3    H113449   3.645   4.065   1.627  0.6737 -1.2560 -1.4775
 4481TIP3    H213450   3.618   3.956   1.729 -1.2828 -0.4941 -1.1405
 4482TIP3   OH213451   3.108   3.875   0.665 -0.1595 -0.0572  0.2300
 4482TIP3    H113452   3.077   3.965   0.667  0.9333  0.4596 -2.0393
 4482TIP3    H213453   3.200   3.880   0.694  0.2583 -0.2087 -0.9968
 4483TIP3   OH213454   6.155   4.378   1.980 -0.0217  0.0514  0.1812
 4483TIP3    H113455   6.099   4.401   1.906 -1.8790  2.6829  2.2198
 4483TIP3    H213456   6.244   4.396   1.949 -0.8621  2.8571 -0.9303
 4484TIP3   OH213457   3.277   0.233   0.767 -0.0256 -0.3624  0.6164
 4484TIP3    H113458   3.283   0.274   0.680 -0.2278 -0.1899  0.6841
 4484TIP3    H213459   3.204   0.171   0.759 -0.3517 -0.0064  0.8009
 4485TIP3   OH213460   6.128   0.100   1.027  0.0097  0.0318 -0.2361
 4485TIP3    H113461   6.128   0.045   0.948 -2.9289  0.0759 -0.3778
 4485TIP3    H213462   6.039   0.092   1.061  0.5854  1.7750  1.8564
 4486TIP3   OH213463   3.497   0.244   3.718  0.4423  0.2983  0.2480
 4486TIP3    H113464   3.442   0.288   3.653  1.2397 -0.1974 -0.7960
 4486TIP3    H213465   3.584   0.282   3.705  0.6131  0.1933  1.0355
 4487TIP3   OH213466   4.740   1.482   4.139 -0.2791 -0.1053  0.0601
 4487TIP3    H113467   4.701   1.509   4.222  0.1856  0.9375 -0.0558
 4487TIP3    H213468   4.788   1.402   4.161  0.2769  0.4468  0.9260
 4488TIP3   OH213469   6.209   3.211   2.050 -0.4880  0.1972 -0.1300
 4488TIP3    H113470   6.167   3.175   1.972  0.2140 -0.5052 -0.1868
 4488TIP3    H213471   6.203   3.142   2.116  1.1790 -0.1845 -0.3473
 4489TIP3   OH213472   0.100   0.818   0.911  0.0126  0.0117 -0.2309
 4489TIP3    H113473   0.057   0.775   0.985  0.1711  0.0997 -0.0884
 4489TIP3    H213474   0.111   0.748   0.846  0.0728 -0.1143 -0.0854
 4490TIP3   OH213475   2.804   5.820   2.364 -0.4579 -0.1920 -0.6966
 4490TIP3    H113476   2.713   5.794   2.377 -0.7696  0.6615 -1.1251
 4490TIP3    H213477   2.824   5.791   2.275 -0.9735  1.4265 -1.3813
 4491TIP3   OH213478   1.709   4.172   0.211 -0.3340  0.2004  0.1679
 4491TIP3    H113479   1.736   4.247   0.265  0.4099 -0.8990  1.3735
 4491TIP3    H213480   1.765   4.177   0.134 -1.5837  1.9394 -0.7186
 4492TIP3   OH213481   5.356   4.525   2.815  0.0637 -0.2156 -0.0822
 4492TIP3    H113482   5.416   4.549   2.744 -0.3390  0.4980 -0.1910
 4492TIP3    H213483   5.412   4.517   2.893  0.7262 -2.3294 -0.7000
 4493TIP3   OH213484   2.598   5.352   1.884  0.1613  0.1172 -0.1801
 4493TIP3    H113485   2.539   5.276   1.882  0.7363 -0.3829  1.0387
 4493TIP3    H213486   2.631   5.358   1.795  0.3098 -1.2415 -0.2414
 4494TIP3   OH213487   0.278   2.809   2.697 -0.0618 -0.0367  0.5066
 4494TIP3    H113488   0.271   2.904   2.693 -0.1592 -0.0783 -0.8335
 4494TIP3    H213489   0.331   2.792   2.775  0.6249  1.1563  0.3318
 4495TIP3   OH213490   6.016   4.851   2.256 -0.0548  0.1261  0.0212
 4495TIP3    H113491   6.026   4.793   2.332  0.1680 -0.9639 -0.8212
 4495TIP3    H213492   5.953   4.807   2.200 -1.8886  1.9707  0.5220
 4496TIP3   OH213493   0.655   2.364   2.292 -0.0343  0.6156 -0.9695
 4496TIP3    H113494   0.721   2.410   2.344  0.6285 -1.4053  0.0756
 4496TIP3    H213495   0.705   2.302   2.239 -1.0388 -2.3861  1.2974
 4497TIP3   OH213496   2.628   0.155   4.067 -0.4512 -0.0023 -0.6632
 4497TIP3    H113497   2.635   0.161   3.971 -0.2328 -1.1772 -0.7325
 4497TIP3    H213498   2.534   0.153   4.084 -0.4990  0.6054 -0.8148
 4498TIP3   OH213499   0.658   5.177   3.177  0.1540  0.5436  0.1139
 4498TIP3    H113500   0.687   5.249   3.122  1.3039  0.5015  0.6461
 4498TIP3    H213501   0.664   5.212   3.266 -0.3125  0.1377  0.3091
 4499TIP3   OH213502   4.003   0.957   0.527  0.0187  0.2147  0.0665
 4499TIP3    H113503   3.961   0.935   0.444 -0.3868 -0.9011  0.5479
 4499TIP3    H213504   4.055   1.034   0.508 -2.0729  1.5315 -0.6161
 4500TIP3   OH213505   0.685   5.520   1.998  0.1713  0.0536  0.4881
 4500TIP3    H113506   0.616   5.540   2.062 -0.3348 -0.3197  0.0641
 4500TIP3    H213507   0.675   5.587   1.931 -1.2868 -1.3210 -0.7454
 4501TIP3   OH213508   0.097   3.091   0.611 -0.2478 -0.3410 -0.5719
 4501TIP3    H113509   0.099   3.140   0.693 -0.9450  0.0588 -0.7893
 4501TIP3    H213510   0.016   3.118   0.568 -1.1865 -2.4111 -0.2535
 4502TIP3   OH213511   1.243   0.260   3.032 -0.4896  0.0953 -0.0749
 4502TIP3    H113512   1.302   0.207   3.086  1.0507  0.7911 -1.0009
 4502TIP3    H213513   1.264   0.351   3.055  0.4604  0.4269 -1.9931
 4503TIP3   OH213514   1.007   0.762   3.821  0.0930 -0.0550  0.5505
 4503TIP3    H113515   1.031   0.741   3.731  0.2629 -0.9247  0.7846
 4503TIP3    H213516   1.012   0.857   3.826  0.7063 -0.0394 -0.1843
 4504TIP3   OH213517   5.475   2.713   5.095  0.1123  0.1420 -0.2822
 4504TIP3    H113518   5.409   2.698   5.163 -0.7868 -1.1634 -1.4038
 4504TIP3    H213519   5.425   2.734   5.017  1.1556  2.2375 -0.4625
 4505TIP3   OH213520   5.416   3.488   3.389 -0.3067  0.7056 -0.0761
 4505TIP3    H113521   5.477   3.414   3.401 -0.9627  0.4361  1.8776
 4505TIP3    H213522   5.359   3.460   3.318  1.0220  0.4214 -1.0762
 4506TIP3   OH213523   3.343   3.215   5.183  0.2393 -0.1053  0.5701
 4506TIP3    H113524   3.289   3.190   5.108  0.7626  1.5462 -0.4367
 4506TIP3    H213525   3.302   3.295   5.217  1.3348  0.5026  0.5259
 4507TIP3   OH213526   1.600   3.394   1.627  0.0638 -0.3313  0.1277
 4507TIP3    H113527   1.655   3.472   1.639 -0.3432 -0.2424  1.7028
 4507TIP3    H213528   1.541   3.416   1.555  1.3140  0.0046 -0.8333
 4508TIP3   OH213529   4.438   0.008   3.689 -0.0627  0.2127 -0.3254
 4508TIP3    H113530   4.467   0.085   3.737  0.1752  0.5718 -1.0317
 4508TIP3    H213531   4.346  -0.001   3.712  0.5922 -1.0928  2.1443
 4509TIP3   OH213532   0.727   0.476   0.342 -0.1120  0.5066  0.2874
 4509TIP3    H113533   0.674   0.448   0.417  0.0238  2.4527  1.1552
 4509TIP3    H213534   0.795   0.531   0.380  2.0815 -1.2261 -0.9128
 4510TIP3   OH213535   1.196   1.420   1.952 -0.6359  0.5423 -0.1412
 4510TIP3    H113536   1.287   1.405   1.929 -1.1348 -1.1593 -1.2025
 4510TIP3    H213537   1.175   1.506   1.914  0.7631  1.4215  0.9970
 4511TIP3   OH213538   3.830   1.045   3.900 -0.0952  0.1856  0.1443
 4511TIP3    H113539   3.783   0.962   3.901  0.2263 -0.0039  1.0231
 4511TIP3    H213540   3.776   1.104   3.953  0.7391 -0.1012  1.3592
 4512TIP3   OH213541   5.146   3.795   3.180  0.4843 -0.0057 -0.2773
 4512TIP3    H113542   5.179   3.877   3.218 -0.8311  0.4457 -0.0681
 4512TIP3    H213543   5.059   3.817   3.148  0.8052 -0.8775 -1.8635
 4513TIP3   OH213544   0.518   1.882   0.123  0.0687  0.1922 -0.5689
 4513TIP3    H113545   0.435   1.846   0.155 -0.2431  2.5593  1.6247
 4513TIP3    H213546   0.508   1.883   0.028 -1.4723 -1.6342 -0.5051
 4514TIP3   OH213547   2.774   2.322   0.346  0.4952  0.0122 -0.0177
 4514TIP3    H113548   2.707   2.389   0.329  0.0436 -0.5325 -0.4415
 4514TIP3    H213549   2.726   2.239   0.341  0.0982 -0.2883  4.7136
 4515TIP3   OH213550   2.210   5.354   3.432 -0.3326 -0.3459 -0.5360
 4515TIP3    H113551   2.192   5.381   3.342  2.1834  0.3385 -0.9168
 4515TIP3    H213552   2.245   5.265   3.423 -1.8186 -1.0156 -0.0015
 4516TIP3   OH213553   4.699   4.423   0.260  0.0766  0.1054 -0.6524
 4516TIP3    H113554   4.722   4.409   0.168  0.9541 -2.0989 -0.1709
 4516TIP3    H213555   4.630   4.359   0.277  0.2896  0.1193  0.3340
 4517TIP3   OH213556   2.114   5.148   1.735  0.3500  0.3781  0.6207
 4517TIP3    H113557   2.169   5.217   1.698 -1.7302  0.5982 -2.4123
 4517TIP3    H213558   2.169   5.069   1.732  1.1479  0.9486 -0.4999
 4518TIP3   OH213559   2.357   3.554   4.448 -0.3645  0.4441 -0.0857
 4518TIP3    H113560   2.426   3.600   4.496 -0.8473  0.4562  0.6066
 4518TIP3    H213561   2.293   3.530   4.515 -0.4572 -0.6258 -0.5359
 4519TIP3   OH213562   3.028   2.784   3.104 -0.7530  0.6785  0.0803
 4519TIP3    H113563   3.081   2.864   3.102 -1.8070  1.3818  0.0213
 4519TIP3    H213564   2.941   2.813   3.129 -1.2642 -0.4004 -0.3930
 4520TIP3   OH213565   4.161   2.633   1.418 -0.2726  0.2401 -0.0349
 4520TIP3    H113566   4.224   2.566   1.445  0.5319  0.5871 -1.0189
 4520TIP3    H213567   4.082   2.584   1.395 -0.0498 -0.2720  0.2704
 4521TIP3   OH213568   3.833   0.610   0.420 -0.1339  0.1470 -0.6691
 4521TIP3    H113569   3.833   0.679   0.354  1.4839 -0.3511 -1.2405
 4521TIP3    H213570   3.841   0.529   0.370 -0.0373 -0.3116  0.0747
 4522TIP3   OH213571   4.521   3.467   0.093  0.3770 -0.2992 -0.6514
 4522TIP3    H113572   4.583   3.515   0.038  0.4333 -1.4256 -1.6097
 4522TIP3    H213573   4.518   3.379   0.055 -1.3254 -0.4576 -0.2407
 4523TIP3   OH213574   2.844   3.404   2.492 -0.3883 -0.0571  0.4449
 4523TIP3    H113575   2.832   3.331   2.430 -1.3648 -0.4761  1.1081
 4523TIP3    H213576   2.936   3.429   2.482  0.3265 -2.2112  1.0883
 4524TIP3   OH213577   1.157   5.792   4.717  0.4563  0.0032  0.1768
 4524TIP3    H113578   1.138   5.873   4.763 -1.6934 -0.1372 -0.3408
 4524TIP3    H213579   1.147   5.814   4.624  0.9507 -0.5861 -0.0230
 4525TIP3   OH213580   2.087   4.368   0.669  0.3462 -0.4043  0.1787
 4525TIP3    H113581   2.000   4.408   0.666  0.3662 -0.3724  0.0447
 4525TIP3    H213582   2.146   4.441   0.686  0.3352 -0.4438  0.4015
 4526TIP3   OH213583   5.335   0.637   1.571 -0.5314  0.1873 -0.4626
 4526TIP3    H113584   5.255   0.588   1.550  0.4324 -1.3842 -0.5574
 4526TIP3    H213585   5.378   0.649   1.486 -0.9103  1.5574 -0.4956
 4527TIP3   OH213586   4.608   3.681   0.803 -0.2893  0.1393 -0.1880
 4527TIP3    H113587   4.631   3.677   0.896  1.0556  0.2826 -0.4916
 4527TIP3    H213588   4.687   3.715   0.760 -1.5892  2.1570 -1.1422
 4528TIP3   OH213589   6.257   5.428   1.982 -0.2532 -0.0257 -0.3379
 4528TIP3    H113590   6.205   5.364   1.934  1.7190 -0.3689 -2.1684
 4528TIP3    H213591   6.235   5.512   1.943  1.0965 -0.2663 -1.7084
 4529TIP3   OH213592   3.167   2.758   3.736  0.3378 -0.0412  0.0660
 4529TIP3    H113593   3.249   2.726   3.774 -0.7741 -1.0695  1.7288
 4529TIP3    H213594   3.099   2.714   3.786 -1.2504  0.6221 -1.4202
 4530TIP3   OH213595   2.140   1.743   4.540 -0.1070 -0.7333 -0.1071
 4530TIP3    H113596   2.230   1.719   4.519  0.1352 -0.9340  1.1020
 4530TIP3    H213597   2.137   1.838   4.527 -0.0634 -0.8705 -1.2906
 4531TIP3   OH213598   2.418   3.773   3.639  0.2456 -0.1032 -0.0904
 4531TIP3    H113599   2.424   3.805   3.728 -1.5977  0.6562 -0.1881
 4531TIP3    H213600   2.487   3.819   3.591  2.5571 -1.9451  1.2644
 4532TIP3   OH213601   4.936   1.691   4.031 -0.1013  0.0218  0.4148
 4532TIP3    H113602   4.865   1.632   4.057  0.2145  0.0574  1.3680
 4532TIP3    H213603   4.898   1.743   3.960 -1.1424  0.2753  1.1405
 4533TIP3   OH213604   2.332   4.433   1.019 -0.1936 -0.2450 -0.1383
 4533TIP3    H113605   2.337   4.338   1.012 -1.6963 -0.4268  0.9594
 4533TIP3    H213606   2.354   4.452   1.110  0.4801  0.5036 -0.4453
 4534TIP3   OH213607   4.139   3.266   3.137  0.0452  0.1372 -0.1303
 4534TIP3    H113608   4.134   3.172   3.156  0.4705 -0.1803 -1.4931
 4534TIP3    H213609   4.198   3.301   3.204  2.2343 -1.0875 -1.3165
 4535TIP3   OH213610   4.891   4.346   2.828  0.3460  0.5937  0.0384
 4535TIP3    H113611   4.902   4.386   2.914 -0.1241  0.3967  0.1896
 4535TIP3    H213612   4.806   4.303   2.832 -0.2775  1.6855 -0.9642
 4536TIP3   OH213613   5.644   4.480   4.098  0.0466 -0.1269 -0.0524
 4536TIP3    H113614   5.667   4.465   4.007  0.8875 -0.2339  0.1672
 4536TIP3    H213615   5.555   4.446   4.107  1.1418 -3.3614 -0.0177
 4537TIP3   OH213616   4.713   0.447   2.284 -0.2787 -0.0860  0.3130
 4537TIP3    H113617   4.750   0.359   2.282 -0.7376 -0.2773  0.1606
 4537TIP3    H213618   4.786   0.505   2.261 -0.5021 -0.6010 -1.9367
 4538TIP3   OH213619   2.122   1.476   3.193 -0.2388  0.5497 -0.3783
 4538TIP3    H113620   2.075   1.535   3.253 -0.8475 -1.6625  1.4633
 4538TIP3    H213621   2.104   1.388   3.227  2.0990 -0.6306 -1.9257
 4539TIP3   OH213622   5.309   0.176   3.932 -0.0298  0.1126 -0.3154
 4539TIP3    H113623   5.336   0.176   4.024  0.5099  1.3933 -0.4588
 4539TIP3    H213624   5.230   0.230   3.931  1.6392  2.7217 -1.0190
 4540TIP3   OH213625   4.309   5.883   0.471  0.7163  0.4324 -0.1803
 4540TIP3    H113626   4.365   5.933   0.530 -0.6039  2.4327 -0.5124
 4540TIP3    H213627   4.294   5.942   0.397 -2.8605  0.6147  0.4866
 4541TIP3   OH213628   1.605   3.287   2.010 -0.1660  0.7889 -0.4141
 4541TIP3    H113629   1.518   3.309   2.043  0.8686  1.8661  1.8221
 4541TIP3    H213630   1.589   3.224   1.940 -2.6612 -0.9570  1.5304
 4542TIP3   OH213631   3.430   4.056   4.256  0.3491  0.2022 -0.3450
 4542TIP3    H113632   3.390   4.130   4.302  1.6208  1.5475 -1.2963
 4542TIP3    H213633   3.394   4.060   4.168 -0.4847 -1.0818 -0.0834
 4543TIP3   OH213634   4.941   1.587   3.349  0.0760  0.3442  0.6653
 4543TIP3    H113635   4.906   1.632   3.273 -0.1985 -0.8391  0.0648
 4543TIP3    H213636   5.031   1.619   3.356  0.3180 -0.0162 -0.5666
 4544TIP3   OH213637   1.249   3.072   3.094 -0.4128 -0.7440  0.0043
 4544TIP3    H113638   1.298   3.034   3.021  0.7104  0.4810  0.0785
 4544TIP3    H213639   1.161   3.085   3.060 -0.1234 -0.9613 -0.8563
 4545TIP3   OH213640   3.270   2.596   4.604  0.1304 -0.4144 -0.0430
 4545TIP3    H113641   3.191   2.542   4.607 -0.3231  0.2757  1.3426
 4545TIP3    H213642   3.284   2.614   4.511 -2.0100  0.3882 -0.2664
 4546TIP3   OH213643   1.979   2.317   4.168  0.4198 -0.3882  0.2031
 4546TIP3    H113644   1.960   2.267   4.247  0.5675 -0.3041  0.2925
 4546TIP3    H213645   1.934   2.270   4.098 -0.8428  0.2672  0.5290
 4547TIP3   OH213646   2.395   4.733   2.909  0.4260 -0.3187 -0.1939
 4547TIP3    H113647   2.485   4.703   2.917  0.5549 -0.9537 -2.9293
 4547TIP3    H213648   2.358   4.678   2.840 -2.6556 -1.3102  2.0378
 4548TIP3   OH213649   4.024   4.858   3.839 -0.0526 -0.3583  0.5112
 4548TIP3    H113650   4.033   4.948   3.870 -0.1650  0.0011 -0.4389
 4548TIP3    H213651   4.041   4.803   3.916  1.9387  0.4335  0.7039
 4549TIP3   OH213652   1.929   0.121   4.475  0.0118  0.3556 -0.2842
 4549TIP3    H113653   1.904   0.164   4.557  0.9351 -0.6962  0.5825
 4549TIP3    H213654   2.016   0.157   4.455  0.4226 -0.4802 -0.0085
 4550TIP3   OH213655   3.340   1.885   4.845  0.1743 -0.4475  0.2640
 4550TIP3    H113656   3.413   1.888   4.907  0.4058  1.8729 -0.0118
 4550TIP3    H213657   3.379   1.853   4.764  0.8382  0.4707  0.2075
 4551TIP3   OH213658   0.622   5.926   2.634  0.6032 -0.4365  0.7286
 4551TIP3    H113659   0.704   5.908   2.679  0.6226 -0.6545  0.6070
 4551TIP3    H213660   0.577   5.989   2.690  1.4538  0.7398  0.1251
 4552TIP3   OH213661   5.800   2.650   4.088 -0.6150  0.2756  0.2332
 4552TIP3    H113662   5.805   2.563   4.127 -0.8834 -0.6713 -1.7373
 4552TIP3    H213663   5.725   2.646   4.029 -0.1940  1.6015 -0.4320
 4553TIP3   OH213664   0.252   4.174   4.906  0.5999  0.1432 -0.1496
 4553TIP3    H113665   0.286   4.239   4.968  0.8818 -1.2977  1.2790
 4553TIP3    H213666   0.324   4.159   4.845  1.0379  0.1530  0.3575
 4554TIP3   OH213667   5.433   0.026   3.153 -0.0546  0.5255 -0.0415
 4554TIP3    H113668   5.520   0.012   3.115 -0.7334  0.1523 -1.5146
 4554TIP3    H213669   5.372  -0.008   3.087 -1.3799  1.8455  0.4573
 4555TIP3   OH213670   4.918   4.161   2.297 -0.0772  0.6511  0.0405
 4555TIP3    H113671   4.842   4.219   2.307  0.8771  2.3841 -1.9633
 4555TIP3    H213672   4.881   4.073   2.294 -1.7992  1.2841  0.9588
 4556TIP3   OH213673   4.131   5.650   4.121 -0.5915 -0.1408  0.1752
 4556TIP3    H113674   4.081   5.725   4.154 -2.1967 -2.0357  2.3456
 4556TIP3    H213675   4.222   5.674   4.137 -1.1147  0.9423  1.8082
 4557TIP3   OH213676   2.783   2.475   1.450 -0.2110  0.2349  0.4381
 4557TIP3    H113677   2.708   2.535   1.440 -0.6925 -0.2255  1.1396
 4557TIP3    H213678   2.781   2.421   1.372 -0.0131  0.8702 -0.0140
 4558TIP3   OH213679   2.677   1.534   3.730 -0.0428 -0.2250 -0.2056
 4558TIP3    H113680   2.587   1.553   3.753  0.8666  1.4320  2.3446
 4558TIP3    H213681   2.693   1.447   3.766 -0.8175 -0.9435 -1.4961
 4559TIP3   OH213682   3.993   4.533   3.116  0.1820  0.2044 -0.0870
 4559TIP3    H113683   3.940   4.567   3.045 -2.1852 -0.9137  1.0502
 4559TIP3    H213684   4.053   4.471   3.074 -1.2719 -0.5601 -1.1096
 4560TIP3   OH213685   3.755   0.297   3.603 -0.5688 -0.8891 -0.2878
 4560TIP3    H113686   3.845   0.263   3.608 -0.0963  0.4097  0.5369
 4560TIP3    H213687   3.758   0.365   3.537 -1.4621 -2.1979 -1.7573
 4561TIP3   OH213688   0.271   5.698   2.069  0.6096 -0.0806 -0.0920
 4561TIP3    H113689   0.274   5.631   2.000  0.7352  0.3781 -0.5360
 4561TIP3    H213690   0.179   5.700   2.096  0.7464 -1.0108  0.5067
 4562TIP3   OH213691   6.243   0.319   3.133  0.3244  1.1479  0.3117
 4562TIP3    H113692   6.165   0.372   3.145 -0.1574  0.6956 -0.7118
 4562TIP3    H213693   6.316   0.382   3.133 -0.0545  1.5969  0.9787
 4563TIP3   OH213694   5.167   1.144   0.998  0.0305 -0.2134 -0.2077
 4563TIP3    H113695   5.212   1.223   0.970 -1.7248  0.5483 -1.0050
 4563TIP3    H213696   5.166   1.150   1.094 -0.4884  0.9889 -0.2662
 4564TIP3   OH213697   2.732   2.231   0.852 -0.4753  0.1322 -0.4569
 4564TIP3    H113698   2.731   2.312   0.800 -0.6354 -1.2424 -2.7161
 4564TIP3    H213699   2.807   2.182   0.817 -0.4930 -0.7912  0.7544
 4565TIP3   OH213700   0.226   2.384   3.971 -0.3125 -0.0432 -0.2151
 4565TIP3    H113701   0.152   2.443   3.978 -0.3756 -0.1967  0.4844
 4565TIP3    H213702   0.286   2.412   4.041 -1.1681 -1.9443  1.3659
 4566TIP3   OH213703   0.353   0.808   2.815  0.0813  0.3917  0.2715
 4566TIP3    H113704   0.432   0.824   2.867  1.0079  0.0799 -1.0040
 4566TIP3    H213705   0.349   0.713   2.806  0.0196  0.4523 -0.3637
 4567TIP3   OH213706   4.247   1.833   2.955  0.0425  0.3164 -0.3440
 4567TIP3    H113707   4.209   1.888   2.887 -0.7023  2.7574  1.9154
 4567TIP3    H213708   4.186   1.759   2.963 -0.0790  0.2045 -1.9700
 4568TIP3   OH213709   2.711   4.550   2.700  0.2680 -0.3452 -0.3063
 4568TIP3    H113710   2.705   4.646   2.695 -2.3426 -0.3700  0.6761
 4568TIP3    H213711   2.804   4.532   2.702  0.8462  2.1625 -0.8768
 4569TIP3   OH213712   3.731   3.847   3.150 -0.1561 -0.1086 -0.0383
 4569TIP3    H113713   3.803   3.794   3.116 -1.5777 -2.2488  0.0740
 4569TIP3    H213714   3.774   3.923   3.189  2.1070 -1.6208  0.6288
 4570TIP3   OH213715   3.211   4.844   2.365 -0.4138 -0.0309  0.1011
 4570TIP3    H113716   3.194   4.756   2.399 -0.4812  0.1883  0.6352
 4570TIP3    H213717   3.306   4.854   2.372 -0.3554 -0.2273 -0.3739
 4571TIP3   OH213718   0.122   4.926   1.614  0.0354  0.7562 -0.0209
 4571TIP3    H113719   0.155   4.920   1.525  0.1789 -0.4141  0.1071
 4571TIP3    H213720   0.054   4.859   1.620 -0.5154  1.3385  0.5298
 4572TIP3   OH213721   5.578   1.547   4.211  0.3445  0.6745  0.1372
 4572TIP3    H113722   5.568   1.461   4.171 -0.6014  0.4897  0.7502
 4572TIP3    H213723   5.541   1.538   4.299  2.3419  1.0658  1.0927
 4573TIP3   OH213724   5.096   0.913   4.903 -0.1900  0.5464 -0.0419
 4573TIP3    H113725   5.160   0.891   4.971 -1.3395 -2.5774  0.2130
 4573TIP3    H213726   5.070   1.003   4.923  2.5398  1.2103  1.0582
 4574TIP3   OH213727   0.487   2.380   3.811  0.0543  0.1278 -0.2090
 4574TIP3    H113728   0.538   2.302   3.831 -0.2442 -0.4122 -1.5108
 4574TIP3    H213729   0.412   2.375   3.871  1.7765  1.2737  2.1994
 4575TIP3   OH213730   1.142   4.572   3.479  0.1985 -0.2957  0.7812
 4575TIP3    H113731   1.183   4.617   3.405 -3.4993  2.2161 -0.0143
 4575TIP3    H213732   1.192   4.602   3.556  1.2289  0.8223 -0.2795
 4576TIP3   OH213733   5.964   3.146   4.729  0.7529 -0.4734  0.3688
 4576TIP3    H113734   6.032   3.214   4.726 -1.5726  2.0226  0.8277
 4576TIP3    H213735   5.950   3.123   4.637 -0.0013  1.3987 -0.0236
 4577TIP3   OH213736   2.094   0.756   4.935 -0.1753  0.3093  0.0960
 4577TIP3    H113737   2.104   0.813   5.012 -1.7132 -1.2941  1.5813
 4577TIP3    H213738   2.181   0.718   4.922  0.5258  1.9142 -0.0561
 4578TIP3   OH213739   6.328   0.113   3.576  0.1095  0.9405 -0.8965
 4578TIP3    H113740   6.406   0.059   3.561 -0.7374  0.0911 -2.5191
 4578TIP3    H213741   6.278   0.065   3.642 -0.7353 -0.4495 -2.4712
 4579TIP3   OH213742   0.505   3.497   4.818  0.6687 -0.5630  0.0502
 4579TIP3    H113743   0.437   3.449   4.770 -0.0685  0.0913  0.4155
 4579TIP3    H213744   0.545   3.431   4.875  0.9835 -1.1623 -0.8374
 4580TIP3   OH213745   1.575   0.614   1.496 -0.2823  0.5464  0.3833
 4580TIP3    H113746   1.550   0.656   1.413 -3.0082  0.3575  1.0250
 4580TIP3    H213747   1.558   0.680   1.563  0.9894  0.3686  0.9094
 4581TIP3   OH213748   0.287   5.229   3.850  0.2705 -0.1046 -0.1309
 4581TIP3    H113749   0.280   5.224   3.755  0.2542  1.5938 -0.2588
 4581TIP3    H213750   0.198   5.252   3.879  0.1352 -1.2013  0.3625
 4582TIP3   OH213751   4.092   5.350   4.133 -0.6882  0.4482 -0.1202
 4582TIP3    H113752   4.031   5.356   4.206 -1.2138  1.0960 -0.6028
 4582TIP3    H213753   4.131   5.437   4.126 -0.2775  0.2539 -0.3084
 4583TIP3   OH213754   3.094   3.781   3.283 -0.4366  0.3615  0.5259
 4583TIP3    H113755   3.056   3.695   3.300 -0.8800  0.0406 -1.7407
 4583TIP3    H213756   3.128   3.810   3.368 -0.5419 -1.9007  1.4052
 4584TIP3   OH213757   4.672   4.827   1.789  0.2328  0.1658  0.1122
 4584TIP3    H113758   4.667   4.753   1.850 -0.0413 -0.1161 -0.2485
 4584TIP3    H213759   4.590   4.823   1.740  0.7579 -0.0468 -0.7708
 4585TIP3   OH213760   3.474   4.837   3.850 -0.5290  0.1297 -0.1285
 4585TIP3    H113761   3.420   4.811   3.775  0.1419  0.1114 -0.6196
 4585TIP3    H213762   3.426   4.806   3.927 -0.0517 -2.0337 -0.6513
 4586TIP3   OH213763   2.206   0.258   4.581 -0.1242  0.0913 -0.1772
 4586TIP3    H113764   2.172   0.342   4.613 -0.1647 -0.9000  2.6041
 4586TIP3    H213765   2.260   0.225   4.652  0.5957 -1.8870 -1.5504
 4587TIP3   OH213766   2.593   2.547   1.211 -0.0933 -0.1452  0.2697
 4587TIP3    H113767   2.636   2.533   1.127  0.9749  0.3210  0.7126
 4587TIP3    H213768   2.561   2.637   1.208 -0.0533 -0.1273  0.3501
 4588TIP3   OH213769   1.760   1.037   3.956  1.1346  0.0905  0.4445
 4588TIP3    H113770   1.691   0.970   3.950  2.8526 -1.7175 -0.2036
 4588TIP3    H213771   1.718   1.110   4.002 -1.5937 -0.3754 -1.0646
 4589TIP3   OH213772   1.193   4.685   1.280  0.6808  0.0502  0.9116
 4589TIP3    H113773   1.261   4.677   1.346  2.0578  0.4373 -0.3955
 4589TIP3    H213774   1.204   4.607   1.225 -0.5164 -0.3278  1.1832
 4590TIP3   OH213775   6.144   4.232   3.025 -0.5099 -0.5960 -0.2059
 4590TIP3    H113776   6.095   4.283   2.961 -0.4056  0.6509  0.6791
 4590TIP3    H213777   6.234   4.234   2.992  0.0401  2.1540  1.1600
 4591TIP3   OH213778   0.358   0.185   4.941 -0.1560 -0.6678 -0.2061
 4591TIP3    H113779   0.431   0.222   4.991  0.1172  0.3281 -1.2963
 4591TIP3    H213780   0.394   0.169   4.854 -1.7470  2.0163 -1.4989
 4592TIP3   OH213781   0.526   2.025   0.414 -0.0124 -0.0991 -0.0286
 4592TIP3    H113782   0.497   1.981   0.334  0.2234  0.0037 -0.1716
 4592TIP3    H213783   0.511   1.961   0.483  0.1882 -0.3532 -0.2149
 4593TIP3   OH213784   2.829   1.013   3.462 -0.2142  0.0278 -0.8591
 4593TIP3    H113785   2.779   0.932   3.467 -0.6616  0.3374  0.0787
 4593TIP3    H213786   2.919   0.985   3.451 -0.0172 -0.7387  1.8959
 4594TIP3   OH213787   4.643   5.332   3.068  0.0670 -0.0314 -0.4224
 4594TIP3    H113788   4.594   5.251   3.053 -0.3677  0.0482  0.4489
 4594TIP3    H213789   4.584   5.385   3.121  0.9317  0.2470  0.2861
 4595TIP3   OH213790   5.047   1.489   4.725  0.1668 -0.1561 -0.1822
 4595TIP3    H113791   5.115   1.435   4.687  0.8312  0.4893  0.0588
 4595TIP3    H213792   5.088   1.528   4.803 -0.2760  0.7123 -0.3719
 4596TIP3   OH213793   4.427   4.702   1.208 -0.1092 -0.4111  0.4853
 4596TIP3    H113794   4.397   4.786   1.174 -0.9492 -0.8019  0.2537
 4596TIP3    H213795   4.349   4.662   1.245  0.3642 -0.9334  0.9233
 4597TIP3   OH213796   2.025   2.037   3.989 -0.2106 -0.4393 -0.4410
 4597TIP3    H113797   1.992   1.955   3.952 -0.3934 -0.4421 -0.2721
 4597TIP3    H213798   1.992   2.105   3.930  0.3479 -0.5265 -0.8552
 4598TIP3   OH213799   3.196   1.244   1.500  0.1843  0.2854  0.2149
 4598TIP3    H113800   3.265   1.188   1.465 -0.3530 -0.2761  0.0355
 4598TIP3    H213801   3.127   1.183   1.526 -0.7157  0.9086 -0.6577
 4599TIP3   OH213802   2.661   1.182   3.347  0.2781  0.5716  0.2661
 4599TIP3    H113803   2.680   1.258   3.402 -2.1160  1.0384  0.5423
 4599TIP3    H213804   2.714   1.111   3.386  1.5670  1.7694  0.7806
 4600TIP3   OH213805   2.104   4.757   3.609  0.8940  0.2574 -0.0696
 4600TIP3    H113806   2.010   4.739   3.602  0.1801  3.1729  0.7560
 4600TIP3    H213807   2.143   4.672   3.631 -1.4037 -1.2100 -1.2426
 4601TIP3   OH213808   2.183   0.273   1.115  0.0388  0.8276 -0.1271
 4601TIP3    H113809   2.186   0.217   1.037  0.3013 -0.4577  0.7721
 4601TIP3    H213810   2.126   0.345   1.090 -1.7915 -0.7560 -0.7711
 4602TIP3   OH213811   5.565   5.258   3.213 -0.1735  0.1248 -0.7920
 4602TIP3    H113812   5.555   5.284   3.122  2.0203  0.4653 -1.0000
 4602TIP3    H213813   5.615   5.176   3.209 -2.6653 -1.5247  0.0398
 4603TIP3   OH213814   0.369   2.758   2.952  0.3467 -0.0412 -0.2164
 4603TIP3    H113815   0.406   2.843   2.974  1.2028  0.4866 -3.2816
 4603TIP3    H213816   0.431   2.695   2.989 -0.3529  0.5588  2.1737
 4604TIP3   OH213817   1.783   1.862   4.351  0.5902  0.7065  0.4978
 4604TIP3    H113818   1.749   1.861   4.441  0.5798 -0.8507  0.5097
 4604TIP3    H213819   1.844   1.788   4.348  0.7086  0.8303 -0.7487
 4605TIP3   OH213820   1.937   2.972   2.737  0.1279  0.9184  0.5026
 4605TIP3    H113821   2.009   2.967   2.800  0.2670  0.8019  0.3369
 4605TIP3    H213822   1.956   2.903   2.674  0.9323  2.1461 -0.6570
 4606TIP3   OH213823   0.409   3.277   2.265 -0.0385 -0.4203 -0.1812
 4606TIP3    H113824   0.481   3.315   2.313 -0.5498 -0.1226  0.3584
 4606TIP3    H213825   0.437   3.187   2.247 -0.1402 -0.7818  1.3275
 4607TIP3   OH213826   2.065   4.146   4.130  0.0342 -0.1053 -0.9764
 4607TIP3    H113827   2.129   4.188   4.186  1.2115 -1.0493 -1.5552
 4607TIP3    H213828   2.050   4.209   4.059 -1.9062  1.3456  0.6087
 4608TIP3   OH213829   0.355   0.988   1.626 -0.0434  0.1026 -0.0812
 4608TIP3    H113830   0.265   0.978   1.657  0.3334 -1.4678  0.5794
 4608TIP3    H213831   0.365   0.921   1.558  1.1148 -0.9547  1.0570
 4609TIP3   OH213832   5.467   3.411   0.665  0.1818 -0.0058 -0.4954
 4609TIP3    H113833   5.477   3.428   0.759 -0.1077  0.1558 -0.4939
 4609TIP3    H213834   5.544   3.451   0.625 -0.2508  0.9008 -0.4435
 4610TIP3   OH213835   1.345   2.948   1.300 -0.6315 -0.2375  0.2742
 4610TIP3    H113836   1.288   2.892   1.353 -0.5772 -1.5827 -1.0403
 4610TIP3    H213837   1.357   3.027   1.354 -0.6692 -1.4773  2.2053
 4611TIP3   OH213838   3.916   0.493   3.107  0.2219 -0.5492 -0.2064
 4611TIP3    H113839   3.858   0.499   3.183  0.5498 -1.5302  0.1277
 4611TIP3    H213840   3.918   0.400   3.085 -0.0818 -0.2589 -1.5875
 4612TIP3   OH213841   0.032   1.533   2.655 -0.3249  0.3105 -0.1882
 4612TIP3    H113842   0.098   1.579   2.707  1.0243 -1.2973 -0.4112
 4612TIP3    H213843  -0.018   1.603   2.613  1.8105  1.6059 -0.7352
 4613TIP3   OH213844   3.783   2.324   2.231  0.1550 -0.3417 -0.0945
 4613TIP3    H113845   3.829   2.338   2.148  0.0380 -0.4769 -0.1819
 4613TIP3    H213846   3.741   2.239   2.222  1.5312 -1.1426  0.7544
 4614TIP3   OH213847   2.659   2.473   1.776 -0.4052 -0.3461 -0.0076
 4614TIP3    H113848   2.667   2.487   1.682  0.6261  1.0672  0.2433
 4614TIP3    H213849   2.621   2.555   1.809  0.2565 -0.3912  0.9116
 4615TIP3   OH213850   4.156   2.546   5.064 -0.3421 -0.0528  0.3858
 4615TIP3    H113851   4.219   2.579   5.128 -0.3032 -0.7950  0.7341
 4615TIP3    H213852   4.098   2.489   5.115  0.2121 -1.3474 -0.3903
 4616TIP3   OH213853   4.681   5.564   3.760 -0.6555  0.2510 -0.4202
 4616TIP3    H113854   4.628   5.558   3.839  2.1848 -0.7160  1.5770
 4616TIP3    H213855   4.746   5.632   3.780  0.2158 -0.1198 -1.8570
 4617TIP3   OH213856   0.420   4.167   1.231  0.1192  0.0904 -0.7775
 4617TIP3    H113857   0.354   4.234   1.251  0.1237 -0.7123  2.4694
 4617TIP3    H213858   0.376   4.109   1.169 -1.9275  0.1378  0.5156
 4618TIP3   OH213859   5.719   3.989   0.334 -0.5612 -0.0108 -0.7154
 4618TIP3    H113860   5.625   3.975   0.324 -0.2883 -1.5463 -1.5116
 4618TIP3    H213861   5.738   3.963   0.424 -1.1551  2.1536  0.0969
 4619TIP3   OH213862   5.722   4.065   3.789  0.3329 -0.2040  0.6157
 4619TIP3    H113863   5.767   4.096   3.711  1.3161 -1.3758  0.6942
 4619TIP3    H213864   5.789   4.060   3.856  0.0370 -1.5690  0.8492
 4620TIP3   OH213865   5.732   4.455   3.564  0.2605  0.2250  0.4215
 4620TIP3    H113866   5.639   4.439   3.578  0.3291 -1.5748 -0.9467
 4620TIP3    H213867   5.735   4.509   3.485  0.4094 -0.8189 -0.3004
 4621TIP3   OH213868   4.530   0.098   0.472  0.4755 -0.3119 -0.3543
 4621TIP3    H113869   4.622   0.120   0.484  0.8987 -2.5821  1.4918
 4621TIP3    H213870   4.530   0.004   0.453 -1.4498 -0.4906  0.2426
 4622TIP3   OH213871   0.727   4.167   2.548  0.6193 -0.2772  0.0430
 4622TIP3    H113872   0.692   4.101   2.487  0.0782  0.4918 -0.5033
 4622TIP3    H213873   0.820   4.172   2.528  0.3125  0.5252 -1.2891
 4623TIP3   OH213874   0.349   0.763   5.174  0.0500 -0.4840  0.0609
 4623TIP3    H113875   0.335   0.700   5.244 -0.3173 -1.5683 -0.9472
 4623TIP3    H213876   0.419   0.724   5.121  1.0575  0.8248  0.3900
 4624TIP3   OH213877   2.602   5.614   4.356  0.5103 -0.3786  0.4547
 4624TIP3    H113878   2.651   5.693   4.336  0.5579 -0.3204  0.7865
 4624TIP3    H213879   2.636   5.548   4.296 -0.4040  0.1599 -0.6806
 4625TIP3   OH213880   1.750   2.113   1.467  0.4786 -0.2885  0.3439
 4625TIP3    H113881   1.806   2.092   1.542  0.4380 -0.1692  0.4067
 4625TIP3    H213882   1.720   2.203   1.483  2.2216  0.5513 -0.9001
 4626TIP3   OH213883   0.674   1.469   1.621  0.1011  0.2235 -0.0220
 4626TIP3    H113884   0.700   1.410   1.692  0.8151  0.5379 -0.0150
 4626TIP3    H213885   0.726   1.440   1.546 -0.3006  0.1975 -0.2904
 4627TIP3   OH213886   6.115   0.078   1.598  0.4600 -0.4448  0.2892
 4627TIP3    H113887   6.073   0.138   1.537  0.3557 -2.1160 -1.3818
 4627TIP3    H213888   6.047   0.056   1.661 -0.1546 -0.4641 -0.3667
 4628TIP3   OH213889   3.868   2.020   5.206  0.1825  0.0033  0.1955
 4628TIP3    H113890   3.895   1.929   5.196  0.9513  0.2367  0.0679
 4628TIP3    H213891   3.809   2.036   5.132  0.2761 -0.3077  0.0522
 4629TIP3   OH213892   4.141   2.248   2.105  0.3609 -0.5194 -0.1477
 4629TIP3    H113893   4.163   2.155   2.100 -0.7774 -0.9302  1.6764
 4629TIP3    H213894   4.064   2.257   2.049  1.1152 -0.4344 -1.1918
 4630TIP3   OH213895   3.842   1.184   3.434 -0.2520 -0.8273  0.0673
 4630TIP3    H113896   3.921   1.130   3.439  0.0508 -0.4228 -0.2660
 4630TIP3    H213897   3.777   1.137   3.487  0.4414 -0.7665  0.9935
 4631TIP3   OH213898   1.019   4.685   2.370 -0.2458 -0.2834 -0.6577
 4631TIP3    H113899   1.077   4.656   2.440  0.4881 -1.0615 -1.5641
 4631TIP3    H213900   0.953   4.616   2.363  0.0969 -0.5700 -1.1897
 4632TIP3   OH213901   6.113   2.724   4.701  0.1676 -0.2073 -0.0197
 4632TIP3    H113902   6.037   2.666   4.706  0.1724 -0.4641 -2.1467
 4632TIP3    H213903   6.080   2.808   4.733 -0.4806 -0.7659  0.8492
 4633TIP3   OH213904   0.376   0.610   3.611 -0.0737  0.1609 -0.6358
 4633TIP3    H113905   0.391   0.544   3.679 -1.9625 -0.1819 -0.5007
 4633TIP3    H213906   0.331   0.562   3.541  0.3174  0.8824 -1.3908
 4634TIP3   OH213907   6.352   1.231   0.953 -0.1674 -0.0178  0.7175
 4634TIP3    H113908   6.382   1.242   0.863  0.3583 -0.1893  0.8649
 4634TIP3    H213909   6.307   1.147   0.953 -2.1073  0.9654  0.1281
 4635TIP3   OH213910   3.155   4.556   1.472  0.0352 -0.6900  0.0148
 4635TIP3    H113911   3.075   4.571   1.522  0.7075  0.7130  0.7483
 4635TIP3    H213912   3.226   4.581   1.533  0.9467 -0.3653 -1.1417
 4636TIP3   OH213913   1.362   1.375   1.687 -0.2444 -0.2458 -0.0867
 4636TIP3    H113914   1.415   1.353   1.764 -1.6244 -2.7031  0.2716
 4636TIP3    H213915   1.411   1.446   1.644  1.1144  0.4949  2.4404
 4637TIP3   OH213916   3.036   4.570   4.505 -0.1654 -0.1437  0.0469
 4637TIP3    H113917   2.960   4.520   4.475 -0.4671 -0.1343  0.7677
 4637TIP3    H213918   3.021   4.581   4.599  1.1399 -0.8798  0.3611
 4638TIP3   OH213919   3.011   5.432   3.585 -0.2671 -0.3644  0.0490
 4638TIP3    H113920   2.934   5.447   3.640  0.2825  0.9977  0.4744
 4638TIP3    H213921   3.042   5.519   3.562  1.8230 -0.8595  0.8173
 4639TIP3   OH213922   0.410   4.792   3.829  0.5008  0.0758  0.1614
 4639TIP3    H113923   0.465   4.714   3.822  1.0961  0.5017  0.0136
 4639TIP3    H213924   0.429   4.842   3.750  0.5432  0.6303  0.5153
 4640TIP3   OH213925   0.642   0.757   4.546  0.1851 -0.0228  0.0001
 4640TIP3    H113926   0.687   0.808   4.614  0.5429 -0.2243 -0.0828
 4640TIP3    H213927   0.701   0.762   4.471 -0.3878  0.5208 -0.4243
 4641TIP3   OH213928   1.452   4.634   2.550  0.0937 -0.0096  0.0196
 4641TIP3    H113929   1.522   4.598   2.604  0.1827  2.9436  2.1099
 4641TIP3    H213930   1.495   4.661   2.469  1.2783  0.9904  0.9422
 4642TIP3   OH213931   6.299   2.301   4.323 -0.1770  0.6755 -0.2408
 4642TIP3    H113932   6.326   2.251   4.400  0.3051  1.0397 -0.1709
 4642TIP3    H213933   6.231   2.247   4.283  0.0954  0.1206  0.0226
 4643TIP3   OH213934   4.774   1.827   0.570  0.3071 -0.2083  0.0178
 4643TIP3    H113935   4.694   1.782   0.595  0.5107 -0.2316  0.6327
 4643TIP3    H213936   4.791   1.889   0.641  0.4472  0.3004 -0.4502
 4644TIP3   OH213937   4.407   4.209   1.981  0.4513 -0.0287  0.1352
 4644TIP3    H113938   4.485   4.243   1.936  0.6713  0.3624  0.7858
 4644TIP3    H213939   4.344   4.193   1.911  0.7779  0.5821 -0.3131
 4645TIP3   OH213940   5.144   2.425   2.556 -0.0877 -0.1095  0.3161
 4645TIP3    H113941   5.117   2.517   2.562  1.1891  0.3691 -0.9707
 4645TIP3    H213942   5.073   2.378   2.600 -0.9715  1.4389  0.6564
 4646TIP3   OH213943   2.634   4.235   0.262 -0.4175  0.1904  0.0022
 4646TIP3    H113944   2.581   4.294   0.315 -0.0609 -2.3911  3.6140
 4646TIP3    H213945   2.581   4.219   0.184 -1.8923  2.7476  0.3655
 4647TIP3   OH213946   0.298   0.795   1.426 -0.3253  0.1880 -0.0333
 4647TIP3    H113947   0.316   0.829   1.339  0.2732 -0.8336 -0.3247
 4647TIP3    H213948   0.202   0.790   1.431 -0.4510  2.0817  0.1129
 4648TIP3   OH213949   5.153   2.310   3.480  0.1953 -0.2158  0.5326
 4648TIP3    H113950   5.189   2.398   3.490  3.3717 -1.0655 -1.9388
 4648TIP3    H213951   5.208   2.268   3.414 -2.9770 -3.1397 -0.5897
 4649TIP3   OH213952   2.457   2.538   3.474 -0.3261 -0.3085 -0.5972
 4649TIP3    H113953   2.514   2.480   3.423 -0.5922 -1.0158 -0.0981
 4649TIP3    H213954   2.468   2.624   3.432 -0.1860 -0.7753 -1.5618
 4650TIP3   OH213955   1.111   0.820   4.158 -0.1160 -0.0609  0.1393
 4650TIP3    H113956   1.097   0.833   4.252 -0.9662  1.5670 -0.1754
 4650TIP3    H213957   1.058   0.888   4.116 -2.3731 -2.6770 -1.6694
 4651TIP3   OH213958   2.907   0.154   3.259 -0.4836 -0.0390  0.6845
 4651TIP3    H113959   2.882   0.076   3.308 -2.3566  0.8323  1.2490
 4651TIP3    H213960   2.839   0.162   3.191  0.6601  0.1626 -0.4703
 4652TIP3   OH213961   5.224   5.344   1.046  0.1754 -0.1757  0.4301
 4652TIP3    H113962   5.193   5.298   1.124 -0.6406  0.7988  0.7012
 4652TIP3    H213963   5.286   5.284   1.006  2.1537  0.0660  2.8847
 4653TIP3   OH213964   3.601   3.437   0.408 -0.6236 -0.3488 -0.4386
 4653TIP3    H113965   3.662   3.510   0.399 -0.4148 -0.4499  0.0710
 4653TIP3    H213966   3.633   3.389   0.484  0.4399 -2.1308 -1.9324
 4654TIP3   OH213967   4.445   5.817   4.918 -0.1293 -0.2877 -0.0730
 4654TIP3    H113968   4.443   5.886   4.984 -1.2210  0.5105 -0.9060
 4654TIP3    H213969   4.492   5.745   4.960  0.0944  0.5692  1.1952
 4655TIP3   OH213970   1.364   2.465   3.698 -0.1181 -0.3712  0.0428
 4655TIP3    H113971   1.406   2.384   3.726  0.4564  0.6571  2.4308
 4655TIP3    H213972   1.367   2.462   3.603 -0.6872 -3.4138  0.0259
 4656TIP3   OH213973   4.005   1.338   1.803  0.2982 -0.2408  0.1494
 4656TIP3    H113974   3.966   1.411   1.755 -0.3751  0.0832  1.1759
 4656TIP3    H213975   3.938   1.271   1.803 -0.2904  0.3117  1.9077
 4657TIP3   OH213976   5.025   4.577   1.744  0.5035 -0.4099 -0.0276
 4657TIP3    H113977   4.981   4.588   1.659  0.1484 -2.2226 -0.1241
 4657TIP3    H213978   5.057   4.664   1.766 -0.0730  0.2539 -1.6564
 4658TIP3   OH213979   1.570   1.316   4.056  0.5859  0.0403 -0.2127
 4658TIP3    H113980   1.569   1.354   3.969  1.4470 -0.6144 -0.5287
 4658TIP3    H213981   1.480   1.287   4.072  0.2517  0.8814 -0.5491
 4659TIP3   OH213982   5.343   5.169   3.728 -0.5742 -0.1007 -0.4484
 4659TIP3    H113983   5.343   5.152   3.633  2.0685  1.6634 -0.8732
 4659TIP3    H213984   5.418   5.119   3.761 -1.0196 -0.0993  0.5848
 4660TIP3   OH213985   2.963   4.914   1.198 -0.8147 -0.3163  0.6597
 4660TIP3    H113986   2.952   4.843   1.134 -0.4575 -1.6750  2.0524
 4660TIP3    H213987   2.905   4.890   1.270 -0.3979  0.6200  1.3180
 4661TIP3   OH213988   4.355   4.537   3.780 -0.0186  0.2391  0.2356
 4661TIP3    H113989   4.332   4.537   3.687 -1.2711 -0.1178  0.5200
 4661TIP3    H213990   4.403   4.618   3.794 -0.9418  0.9209 -0.4673
 4662TIP3   OH213991   0.661   4.281   4.376 -0.2768 -0.2032 -0.1266
 4662TIP3    H113992   0.729   4.302   4.440 -0.6392 -1.0443  0.5406
 4662TIP3    H213993   0.704   4.294   4.291 -0.6751  4.0902  0.0899
 4663TIP3   OH213994   4.167   3.161   4.845 -0.0690 -0.5828  0.0705
 4663TIP3    H113995   4.104   3.113   4.900 -1.9308  1.0687 -0.5132
 4663TIP3    H213996   4.132   3.250   4.842  2.3520  0.4020 -0.3041
 4664TIP3   OH213997   5.009   5.177   3.573 -0.0923 -0.1862  0.0560
 4664TIP3    H113998   5.038   5.133   3.652 -0.7932 -0.6971  0.0420
 4664TIP3    H213999   5.069   5.251   3.563 -0.7189  0.6030  1.7387
 4665TIP3   OH214000   5.311   0.001   3.735 -0.2590 -0.3549 -0.0893
 4665TIP3    H114001   5.316   0.084   3.784 -0.3006 -0.2946 -0.1877
 4665TIP3    H214002   5.217  -0.010   3.718 -0.5511 -1.6177  1.9893
 4666TIP3   OH214003   4.636   5.030   3.297  0.1957 -0.9083 -0.0159
 4666TIP3    H114004   4.706   5.027   3.232 -1.2443 -1.6251 -1.6099
 4666TIP3    H214005   4.679   5.062   3.377  1.8348  0.9000 -1.5266
 4667TIP3   OH214006   3.211   5.269   3.920  0.2688  0.4328 -0.2964
 4667TIP3    H114007   3.189   5.201   3.855 -1.5769  0.1972  0.5051
 4667TIP3    H214008   3.195   5.351   3.875  1.0169  0.3281 -0.7779
 4668TIP3   OH214009   4.774   1.335   1.056 -0.0265  0.0711 -0.0178
 4668TIP3    H114010   4.799   1.262   1.113  1.0811  0.5074  0.0831
 4668TIP3    H214011   4.806   1.310   0.970 -2.7426 -1.1311 -0.7827
 4669TIP3   OH214012   2.035   4.026   0.863  0.0510 -0.0704 -0.2276
 4669TIP3    H114013   2.126   4.056   0.866  0.1041 -0.2986  1.0284
 4669TIP3    H214014   1.984   4.098   0.899  0.2359 -1.5031  3.3219
 4670TIP3   OH214015   6.002   2.199   0.015  0.4292 -0.1334  0.2194
 4670TIP3    H114016   6.032   2.239   0.096 -0.0756  1.6453 -0.4394
 4670TIP3    H214017   5.972   2.272  -0.039 -1.9030 -1.4823 -0.4747
 4671TIP3   OH214018   3.186   4.888   1.695  0.3774 -0.3837  0.4137
 4671TIP3    H114019   3.140   4.830   1.635  0.6603 -0.5028  0.3116
 4671TIP3    H214020   3.198   4.836   1.775 -2.0501  0.5079  1.4552
 4672TIP3   OH214021   6.144   4.547   0.773  0.4298  0.5408  0.0120
 4672TIP3    H114022   6.208   4.540   0.702  0.8830 -2.2062  0.5644
 4672TIP3    H214023   6.191   4.517   0.850 -0.9238  0.5450  0.8646
 4673TIP3   OH214024   3.144   2.222   0.605 -0.7168 -0.6434  0.0439
 4673TIP3    H114025   3.112   2.260   0.523  2.0392  0.5323 -0.5849
 4673TIP3    H214026   3.205   2.153   0.577  0.3707 -0.1268  1.0891
 4674TIP3   OH214027   5.331   1.207   0.331  0.3055 -0.7437 -0.0642
 4674TIP3    H114028   5.374   1.196   0.247  2.2254  2.1131  0.4042
 4674TIP3    H214029   5.386   1.158   0.393  0.2081 -0.9346 -0.1279
 4675TIP3   OH214030   5.360   3.712   1.249 -0.2640 -0.5367 -0.0616
 4675TIP3    H114031   5.334   3.622   1.266 -2.1384  0.2162  1.3664
 4675TIP3    H214032   5.420   3.733   1.321 -2.7597  0.4613  1.8528
 4676TIP3   OH214033   0.714   4.425   3.075  0.1818  0.1244 -0.4395
 4676TIP3    H114034   0.782   4.358   3.065  1.4286  1.2877 -0.0529
 4676TIP3    H214035   0.714   4.472   2.991  1.3805  1.4773  0.2821
 4677TIP3   OH214036   2.374   5.257   2.436  0.2527  0.5347  0.5237
 4677TIP3    H114037   2.387   5.352   2.431 -0.9750  0.8316  2.1364
 4677TIP3    H214038   2.280   5.245   2.423  0.4156 -0.4902  0.2065
 4678TIP3   OH214039   1.622   3.441   0.951 -0.1491  0.2510 -0.0853
 4678TIP3    H114040   1.540   3.433   0.999  0.1348 -1.3880  0.1645
 4678TIP3    H214041   1.615   3.526   0.906 -1.7160  0.3968  0.3794
 4679TIP3   OH214042   0.734   5.279   1.853 -0.1273 -0.0359 -0.3913
 4679TIP3    H114043   0.719   5.366   1.889  0.7391  0.9323 -2.2148
 4679TIP3    H214044   0.657   5.228   1.879 -0.0992  0.9181  1.6843
 4680TIP3   OH214045   4.934   2.470   3.990 -0.1943 -0.5266 -0.3394
 4680TIP3    H114046   4.853   2.427   3.962 -0.0902 -0.9997  0.0757
 4680TIP3    H214047   4.985   2.401   4.032 -0.3440  0.1420  1.0098
 4681TIP3   OH214048   4.183   1.558   0.685 -0.1265  0.1359 -0.0011
 4681TIP3    H114049   4.135   1.512   0.754  0.6667 -1.6835 -0.5882
 4681TIP3    H214050   4.145   1.525   0.603  0.3718  0.6442 -0.4490
 4682TIP3   OH214051   4.577   2.608   4.032 -0.3120 -0.5300  0.4880
 4682TIP3    H114052   4.514   2.592   4.102  0.9203 -2.8791  1.1854
 4682TIP3    H214053   4.661   2.620   4.077  0.1309  0.3036 -0.5085
 4683TIP3   OH214054   6.074   1.570   2.100 -0.4027  0.3373 -0.2431
 4683TIP3    H114055   6.097   1.617   2.020  0.8439 -1.4602 -0.9997
 4683TIP3    H214056   5.991   1.527   2.080 -0.5700  0.6634 -0.2426
 4684TIP3   OH214057   3.730   3.973   2.330  0.0700  0.0471  0.1907
 4684TIP3    H114058   3.773   3.927   2.402  1.3743  0.2795 -0.4212
 4684TIP3    H214059   3.788   3.962   2.255  0.2922  2.3818 -0.0760
 4685TIP3   OH214060   1.586   4.297   1.479 -0.3357 -0.4671 -0.9169
 4685TIP3    H114061   1.657   4.257   1.528  0.1418  0.4718 -0.8243
 4685TIP3    H214062   1.567   4.234   1.409  2.1332  0.2643 -2.3326
 4686TIP3   OH214063   3.978   1.036   3.677  0.5798  0.4456 -0.4571
 4686TIP3    H114064   3.927   1.029   3.758 -0.5210 -0.3874 -1.1856
 4686TIP3    H214065   3.995   1.129   3.667 -1.3701  0.8374 -0.5068
 4687TIP3   OH214066   3.049   2.979   0.027  0.4023 -0.0788 -0.4788
 4687TIP3    H114067   2.990   3.015  -0.039  0.6991  0.7739 -0.2859
 4687TIP3    H214068   3.071   3.053   0.083 -0.5451 -0.9467  1.1307
 4688TIP3   OH214069   1.743   5.460   2.109 -0.0391 -0.3864 -0.4105
 4688TIP3    H114070   1.655   5.466   2.072 -0.8429 -1.4861  1.1837
 4688TIP3    H214071   1.797   5.427   2.037 -0.2680  2.8039 -2.2485
 4689TIP3   OH214072   0.925   4.804   1.332 -0.0425 -0.1738 -0.0705
 4689TIP3    H114073   0.981   4.788   1.408 -0.0679 -0.4093 -0.0986
 4689TIP3    H214074   0.980   4.782   1.256  0.2270  0.7677 -0.1633
 4690TIP3   OH214075   5.177   4.342   2.676 -0.6502 -0.2513  0.0715
 4690TIP3    H114076   5.232   4.307   2.607 -0.2596  2.6644 -1.2598
 4690TIP3    H214077   5.237   4.386   2.736 -1.3168  2.9312 -1.3739
 4691TIP3   OH214078   1.317   2.390   0.655  0.1275  0.0217  0.7913
 4691TIP3    H114079   1.251   2.436   0.707  1.8038  2.3464  1.0438
 4691TIP3    H214080   1.388   2.373   0.717  1.0735  0.4437 -0.1543
 4692TIP3   OH214081   4.630   4.534   2.248 -0.1980 -0.1327 -0.0089
 4692TIP3    H114082   4.552   4.539   2.194 -0.3592  0.8880  0.2854
 4692TIP3    H214083   4.644   4.624   2.279  1.8392  0.0018 -1.0942
 4693TIP3   OH214084   5.171   1.840   0.145  0.1028  0.1278  0.3820
 4693TIP3    H114085   5.160   1.818   0.238  2.4516  1.1086  0.9818
 4693TIP3    H214086   5.126   1.924   0.135  0.5551  0.4416  0.8868
 4694TIP3   OH214087   0.828   1.730   3.665  0.1676  0.7635 -0.4905
 4694TIP3    H114088   0.752   1.748   3.611  0.4044  1.6344 -0.5562
 4694TIP3    H214089   0.902   1.729   3.603 -0.0085 -2.3936 -0.7964
 4695TIP3   OH214090   2.953   2.572   1.732 -0.1327 -0.3757 -0.3244
 4695TIP3    H114091   3.036   2.585   1.777 -0.7511 -2.4861  1.6059
 4695TIP3    H214092   2.887   2.606   1.792 -0.7465  1.3357 -1.8611
 4696TIP3   OH214093   2.999   4.883   2.162  0.2668 -0.0574  0.1737
 4696TIP3    H114094   3.045   4.847   2.238 -1.0074  0.7910  1.4012
 4696TIP3    H214095   2.959   4.808   2.120  0.4878 -0.4692  0.6908
 4697TIP3   OH214096   4.805   5.448   2.102 -0.0328  0.3700  0.4749
 4697TIP3    H114097   4.725   5.406   2.067 -0.1314 -0.0431  1.1878
 4697TIP3    H214098   4.791   5.451   2.196 -0.7660  3.5250  0.3853
 4698TIP3   OH214099   4.417   3.306   2.577 -0.0186 -0.1070 -0.6046
 4698TIP3    H114100   4.398   3.279   2.667 -0.4915  0.8284 -0.4062
 4698TIP3    H214101   4.498   3.261   2.555  0.5930  0.3292  0.6271
 4699TIP3   OH214102   3.033   0.394   4.560  0.1697  0.0232 -0.0371
 4699TIP3    H114103   2.952   0.391   4.510 -0.3477 -0.4017  0.8142
 4699TIP3    H214104   3.102   0.386   4.494 -0.5186 -2.6650 -0.5491
 4700TIP3   OH214105   1.132   4.235   3.989  0.3254 -0.2858 -0.6896
 4700TIP3    H114106   1.203   4.284   3.948  0.4734 -1.1658 -1.5267
 4700TIP3    H214107   1.068   4.223   3.919 -1.2283  1.5000  0.3327
 4701TIP3   OH214108   3.669   3.630   0.624  0.5965 -0.5268  0.2519
 4701TIP3    H114109   3.747   3.586   0.590  0.4965 -0.9001  0.5007
 4701TIP3    H214110   3.645   3.580   0.702  0.5657  0.0605  0.6245
 4702TIP3   OH214111   2.901   1.448   2.984 -0.1701 -0.4075 -0.2840
 4702TIP3    H114112   2.837   1.496   2.931 -0.2249 -0.1382  0.0219
 4702TIP3    H214113   2.862   1.445   3.071  0.5604  0.4210  0.0960
 4703TIP3   OH214114   4.952   0.630   1.441 -0.2027  0.2191 -0.3325
 4703TIP3    H114115   4.912   0.626   1.354 -1.0487 -0.8242  0.0923
 4703TIP3    H214116   4.905   0.699   1.487 -0.5698 -0.0530 -0.3006
 4704TIP3   OH214117   1.390   2.725   2.914  0.1708 -0.7528  0.3102
 4704TIP3    H114118   1.435   2.745   2.996  1.2461  1.6814 -0.7614
 4704TIP3    H214119   1.298   2.715   2.938  0.5144 -0.4083  1.8590
 4705TIP3   OH214120   1.321   4.884   4.740 -0.7581 -0.5302  0.1771
 4705TIP3    H114121   1.323   4.976   4.766 -0.9535 -0.1321 -1.1445
 4705TIP3    H214122   1.364   4.837   4.812 -0.6852  0.5870  0.8754
 4706TIP3   OH214123   0.338   5.575   2.874 -0.9000 -0.1995  0.3934
 4706TIP3    H114124   0.252   5.533   2.865 -1.8381  1.9194 -1.6606
 4706TIP3    H214125   0.363   5.598   2.784  1.3393  0.2151  1.0646
 4707TIP3   OH214126   0.135   2.238   0.663  0.2783  0.2616 -0.1056
 4707TIP3    H114127   0.043   2.210   0.665  0.1188  0.8078  0.6959
 4707TIP3    H214128   0.175   2.192   0.737  0.7501 -0.2829 -0.6917
 4708TIP3   OH214129   0.617   5.457   4.665  0.0454  0.2232  0.5329
 4708TIP3    H114130   0.694   5.401   4.673  1.3126  1.6437 -0.9399
 4708TIP3    H214131   0.601   5.491   4.753  1.1868  0.0062  0.8334
 4709TIP3   OH214132   0.477   0.728   0.890  0.0061  0.0340  0.1301
 4709TIP3    H114133   0.397   0.697   0.847 -0.0868 -1.0160  1.0176
 4709TIP3    H214134   0.524   0.648   0.913 -0.8240  0.4087  3.6106
 4710TIP3   OH214135   4.689   2.669   4.387  0.0781 -0.0741 -0.2709
 4710TIP3    H114136   4.705   2.752   4.432  0.4731 -0.7334  0.8549
 4710TIP3    H214137   4.651   2.613   4.455 -0.4435 -0.7311 -1.0956
 4711TIP3   OH214138   3.886   0.108   4.459  0.0163  0.3448 -0.0730
 4711TIP3    H114139   3.836   0.027   4.454 -0.2127  0.4254  0.8038
 4711TIP3    H214140   3.967   0.089   4.412 -0.4512 -0.0624 -0.7450
 4712TIP3   OH214141   1.332   5.417   2.148  0.1239  0.0491 -0.4990
 4712TIP3    H114142   1.286   5.403   2.231 -2.3919 -0.1285 -1.8303
 4712TIP3    H214143   1.403   5.352   2.148  1.8168  1.7054  2.5427
 4713TIP3   OH214144   2.941   2.158   1.690 -0.3461 -0.0543  0.3602
 4713TIP3    H114145   2.999   2.086   1.665 -0.2974 -0.4220  1.4726
 4713TIP3    H214146   2.853   2.121   1.685 -0.5226  0.5030 -1.3261
 4714TIP3   OH214147   5.464   0.455   2.503  0.2636 -0.0033  0.6907
 4714TIP3    H114148   5.525   0.430   2.434 -0.7806  0.0006 -0.2569
 4714TIP3    H214149   5.407   0.520   2.462 -0.4237 -0.0662  1.5277
 4715TIP3   OH214150   4.580   5.503   4.680  0.1377  0.0897  0.5789
 4715TIP3    H114151   4.617   5.578   4.728 -1.2009 -0.0678  1.9453
 4715TIP3    H214152   4.578   5.432   4.744  0.8761 -0.9771 -0.5474
 4716TIP3   OH214153   6.291   1.231   0.012 -0.5198  0.0836  0.1371
 4716TIP3    H114154   6.278   1.153   0.066  0.7406  0.1949  0.6566
 4716TIP3    H214155   6.213   1.283   0.025 -0.6612 -0.3463  1.0880
 4717TIP3   OH214156   0.371   4.324   2.296  0.3676  0.0989 -0.0633
 4717TIP3    H114157   0.339   4.281   2.375  0.1873  0.7217  0.2090
 4717TIP3    H214158   0.436   4.387   2.327 -0.5822  1.2202 -0.2715
 4718TIP3   OH214159   4.787   4.019   1.463 -0.0717 -0.1624  0.4243
 4718TIP3    H114160   4.845   3.976   1.400  0.3935 -1.0724  1.4470
 4718TIP3    H214161   4.834   4.015   1.546 -0.6174  1.1387  0.8208
 4719TIP3   OH214162   4.828   3.517   0.625  0.3877  0.1605 -0.1276
 4719TIP3    H114163   4.850   3.562   0.544  0.9899  1.1504  0.5644
 4719TIP3    H214164   4.741   3.480   0.609  0.5816  0.1676 -1.2816
 4720TIP3   OH214165   1.800   4.123   4.691  0.5563  0.5902  0.0963
 4720TIP3    H114166   1.710   4.135   4.662  0.4360  0.5902  0.4695
 4720TIP3    H214167   1.794   4.065   4.766  0.6746  2.1055  1.3272
 4721TIP3   OH214168   4.264   0.476   3.088 -1.1693  0.4143 -0.3033
 4721TIP3    H114169   4.226   0.454   3.002 -1.3238  0.0053 -0.1321
 4721TIP3    H214170   4.244   0.569   3.100 -2.0383  0.2310 -0.2612
 4722TIP3   OH214171   0.227   0.988   0.728 -0.2067 -0.3560 -0.0653
 4722TIP3    H114172   0.162   0.935   0.774 -2.0019  0.1668 -1.8467
 4722TIP3    H214173   0.263   1.046   0.795 -2.5328  0.2170  0.7809
 4723TIP3   OH214174   2.671   4.396   0.633  0.3730 -0.3495  0.3349
 4723TIP3    H114175   2.667   4.481   0.676  0.4727 -0.3816  0.4070
 4723TIP3    H214176   2.756   4.394   0.589  0.0931 -0.1389 -0.2362
 4724TIP3   OH214177   4.676   0.207   3.087 -0.6431  0.0962 -0.8110
 4724TIP3    H114178   4.670   0.249   3.173  0.7442 -3.3291  1.1782
 4724TIP3    H214179   4.604   0.143   3.087  0.2607 -0.9614 -1.5185
 4725TIP3   OH214180   2.209   3.055   1.868  0.0534  0.2737 -0.0300
 4725TIP3    H114181   2.187   3.071   1.776  0.3901 -2.4234 -0.6599
 4725TIP3    H214182   2.127   3.068   1.915 -0.2774  1.0277 -0.7792
 4726TIP3   OH214183   0.996   1.771   0.052  0.3464  0.4756  0.4034
 4726TIP3    H114184   0.930   1.821   0.100  0.4853 -0.9565  2.2047
 4726TIP3    H214185   1.060   1.745   0.118 -0.8674 -3.9819  0.2134
 4727TIP3   OH214186   6.207   4.115   4.118 -0.0417 -0.1503 -0.1284
 4727TIP3    H114187   6.188   4.208   4.105 -1.3036 -0.7341 -3.4399
 4727TIP3    H214188   6.162   4.092   4.199  1.5434  2.3515  1.6280
 4728TIP3   OH214189   1.509   0.661   1.223 -0.4642  0.3685  0.1007
 4728TIP3    H114190   1.596   0.702   1.216 -0.2654 -0.2196 -1.1206
 4728TIP3    H214191   1.474   0.665   1.134 -0.7209 -1.4665  0.0948
 4729TIP3   OH214192   1.716   4.943   1.937 -0.3797 -0.2536 -0.0268
 4729TIP3    H114193   1.798   4.911   1.899 -0.0360 -1.5379  1.6713
 4729TIP3    H214194   1.741   5.025   1.981 -0.1436 -0.2913 -0.0896
 4730TIP3   OH214195   3.143   5.840   4.421  0.1360 -0.2065 -0.0720
 4730TIP3    H114196   3.171   5.930   4.438 -0.2427 -0.0171 -0.4343
 4730TIP3    H214197   3.136   5.800   4.507  1.6484 -0.3055  0.0451
 4731TIP3   OH214198   2.063   0.179   0.867  0.2593  0.3404 -0.3723
 4731TIP3    H114199   2.099   0.180   0.778 -1.0332 -0.5743 -0.9407
 4731TIP3    H214200   1.972   0.208   0.856 -0.0489 -0.2197  0.5838
 4732TIP3   OH214201   2.121   2.921   0.551  0.1215 -0.3251  0.8572
 4732TIP3    H114202   2.073   2.892   0.474  1.0443 -1.2395  0.5948
 4732TIP3    H214203   2.110   2.849   0.614 -0.4427  0.3139  1.5188
 4733TIP3   OH214204   5.149   0.746   0.587 -0.0659 -0.5823  0.4961
 4733TIP3    H114205   5.085   0.707   0.647  0.4523 -0.3808  1.2004
 4733TIP3    H214206   5.233   0.730   0.629  0.1468  1.6091  1.0266
 4734TIP3   OH214207   2.369   1.919   4.983  0.1232  0.3614  0.9648
 4734TIP3    H114208   2.409   1.910   5.070 -0.5710  0.6977  1.3332
 4734TIP3    H214209   2.288   1.967   5.000 -1.4814 -2.0132  0.5636
 4735TIP3   OH214210   5.943   2.450   1.705  0.8793  0.0759  0.1185
 4735TIP3    H114211   5.881   2.459   1.778  0.1416 -1.8968 -0.2174
 4735TIP3    H214212   6.012   2.392   1.739 -1.5970 -4.5789 -1.8501
 4736TIP3   OH214213   5.115   0.108   1.809 -0.1933  0.1099 -0.3132
 4736TIP3    H114214   5.032   0.115   1.857  0.0965 -0.6307  0.3003
 4736TIP3    H214215   5.105   0.171   1.737 -1.6351 -0.5623 -0.7593
 4737TIP3   OH214216   2.686   5.246   3.664 -0.8976  0.0158 -0.4156
 4737TIP3    H114217   2.606   5.207   3.628 -1.2324  0.2736  0.0463
 4737TIP3    H214218   2.729   5.287   3.588 -2.3372  1.8321 -0.3078
 4738TIP3   OH214219   3.291   5.084   1.866 -0.0586  0.1213 -0.5302
 4738TIP3    H114220   3.381   5.092   1.834  0.5132  0.9105  1.1997
 4738TIP3    H214221   3.247   5.034   1.797  1.6842 -0.2862 -1.4282
 4739TIP3   OH214222   2.419   0.095   1.200 -0.2952 -0.0294  0.4756
 4739TIP3    H114223   2.355   0.155   1.161 -0.0195 -0.2129 -0.2772
 4739TIP3    H214224   2.470   0.149   1.260  0.4886  0.6899 -0.8004
 4740TIP3   OH214225   1.024   0.072   2.884 -0.4614  0.5260  0.3554
 4740TIP3    H114226   1.058   0.160   2.869  0.3332 -0.1223 -2.1772
 4740TIP3    H214227   0.947   0.067   2.826 -0.5902 -0.3811  0.6009
 4741TIP3   OH214228   3.451   3.577   4.477 -0.4121  0.5991 -0.4369
 4741TIP3    H114229   3.529   3.561   4.531 -1.7926  0.5459  1.6755
 4741TIP3    H214230   3.454   3.671   4.458  0.1732  0.5893 -0.4134
 4742TIP3   OH214231   5.723   3.478   3.616 -0.3347  0.2720 -0.2575
 4742TIP3    H114232   5.709   3.552   3.676 -2.1232  0.2536 -0.5939
 4742TIP3    H214233   5.640   3.469   3.570 -0.0397 -1.7328 -0.4799
 4743TIP3   OH214234   2.302   0.909   1.812  0.0010 -0.2793  0.0067
 4743TIP3    H114235   2.314   0.999   1.845  0.2581  0.2152 -1.3868
 4743TIP3    H214236   2.247   0.867   1.878  1.1715  0.4115  1.4949
 4744TIP3   OH214237   2.136   2.194   4.661 -0.6513 -0.3819 -0.5251
 4744TIP3    H114238   2.228   2.198   4.637 -0.9253 -0.2125 -1.5920
 4744TIP3    H214239   2.118   2.101   4.673 -0.0941 -0.3467  0.7605
 4745TIP3   OH214240   4.408   4.017   3.287 -0.4293  0.1989  0.1046
 4745TIP3    H114241   4.473   4.068   3.334 -1.0656  1.5342 -0.4187
 4745TIP3    H214242   4.389   3.943   3.345  0.7492  0.3595  0.7294
 4746TIP3   OH214243   2.979   3.213   3.707  0.3028  0.2201 -0.1601
 4746TIP3    H114244   2.971   3.291   3.763  1.3995  1.1392 -1.2196
 4746TIP3    H214245   3.032   3.152   3.758  2.0088  1.3704 -0.4369
 4747TIP3   OH214246   5.665   5.875   0.239  0.1794  0.7254  0.4144
 4747TIP3    H114247   5.760   5.864   0.249  0.2137 -0.9541 -1.1645
 4747TIP3    H214248   5.646   5.836   0.153 -2.1294 -0.2314  1.2855
 4748TIP3   OH214249   3.917   3.908   1.853  0.1358  0.0233 -0.1467
 4748TIP3    H114250   3.912   3.960   1.773 -2.8291 -0.0596 -0.1276
 4748TIP3    H214251   4.006   3.875   1.855  0.6468  1.0139 -2.7741
 4749TIP3   OH214252   4.579   4.198   3.123  0.1271 -0.3382  0.1011
 4749TIP3    H114253   4.563   4.274   3.067  0.5364 -1.1852 -1.2040
 4749TIP3    H214254   4.516   4.207   3.195  0.2588  1.2908  0.0497
 4750TIP3   OH214255   1.593   1.977   2.809  0.2116 -0.3907 -0.4462
 4750TIP3    H114256   1.590   1.900   2.753 -0.5922  0.3051 -1.4158
 4750TIP3    H214257   1.512   2.025   2.788 -0.8996 -0.7969  2.3512
 4751TIP3   OH214258   2.787   4.401   2.069  0.5256 -0.5838  0.1614
 4751TIP3    H114259   2.778   4.400   2.164  2.4498  0.3404  0.4110
 4751TIP3    H214260   2.881   4.387   2.054  0.6493  1.5351 -1.4829
 4752TIP3   OH214261   2.729   1.396   3.505 -0.2601  0.2918  0.0814
 4752TIP3    H114262   2.788   1.357   3.569  0.1465 -0.4821 -0.7483
 4752TIP3    H214263   2.691   1.471   3.551 -1.8400 -1.5837  2.1047
 4753TIP3   OH214264   4.392   2.305   3.936  0.3864  0.2014  0.1432
 4753TIP3    H114265   4.370   2.268   3.851  1.6840  0.7102 -0.4370
 4753TIP3    H214266   4.444   2.238   3.979 -0.9870 -0.4171  0.9345
 4754TIP3   OH214267   6.289   4.041   0.224 -0.0220  0.0071  0.0720
 4754TIP3    H114268   6.255   3.964   0.270 -1.8804 -0.5471 -2.0307
 4754TIP3    H214269   6.212   4.082   0.186  1.3624 -0.0455 -3.1301
 4755TIP3   OH214270   0.131   3.581   4.603 -0.4445 -0.3048 -0.1705
 4755TIP3    H114271   0.081   3.662   4.610 -0.5586 -0.4103  0.3271
 4755TIP3    H214272   0.071   3.519   4.562 -0.6365 -0.3567  0.1817
 4756TIP3   OH214273   2.732   3.328   0.420 -0.0610  0.5512  0.0799
 4756TIP3    H114274   2.648   3.372   0.405 -1.2475 -1.1716  1.2779
 4756TIP3    H214275   2.778   3.337   0.337 -0.6874  3.0079 -0.0732
 4757TIP3   OH214276   1.732   4.363   4.863 -0.1779 -0.1036 -0.3430
 4757TIP3    H114277   1.798   4.307   4.822 -0.1318 -1.5268  1.5393
 4757TIP3    H214278   1.649   4.331   4.828 -0.0760 -0.6234 -0.1200
 4758TIP3   OH214279   5.341   4.705   1.928 -0.3747  0.5968  0.2179
 4758TIP3    H114280   5.255   4.743   1.912  0.7290  3.5479  0.7183
 4758TIP3    H214281   5.344   4.692   2.023 -0.2880  0.4005  0.1895
 4759TIP3   OH214282   2.144   0.490   2.130 -0.5782 -0.3864 -0.6612
 4759TIP3    H114283   2.063   0.483   2.079 -0.1488 -4.1978 -1.0523
 4759TIP3    H214284   2.119   0.544   2.206 -2.8882  0.2750 -1.8000
 4760TIP3   OH214285   2.650   4.813   2.177 -0.0104 -0.3304  0.2409
 4760TIP3    H114286   2.617   4.807   2.266  0.1030  0.5969  0.3521
 4760TIP3    H214287   2.673   4.905   2.165  0.5429 -0.5522 -0.5425
 4761TIP3   OH214288   0.365   1.279   4.741  0.6280 -0.1562  0.3114
 4761TIP3    H114289   0.375   1.357   4.796  1.9991  0.4925 -0.7865
 4761TIP3    H214290   0.383   1.206   4.800 -0.2103  0.3608  1.2496
 4762TIP3   OH214291   1.843   5.285   2.372  0.1620  0.1082  0.0036
 4762TIP3    H114292   1.753   5.299   2.401  0.0445  0.0011 -0.3089
 4762TIP3    H214293   1.854   5.344   2.297  0.8339  1.2475  0.9664
 4763TIP3   OH214294   5.333   2.229   3.294 -0.6422  0.1148  0.4990
 4763TIP3    H114295   5.417   2.220   3.339 -0.1292  0.7571 -0.3104
 4763TIP3    H214296   5.339   2.311   3.246 -1.2357 -0.4681 -0.6176
 4764TIP3   OH214297   3.340   3.352   3.635  0.2182  0.2109 -0.0731
 4764TIP3    H114298   3.261   3.394   3.671 -1.0459 -0.7475 -1.5623
 4764TIP3    H214299   3.382   3.422   3.584 -0.5747  0.3218 -0.5956
 4765TIP3   OH214300   0.675   0.383   3.125  0.1004  0.4239  0.7067
 4765TIP3    H114301   0.620   0.316   3.086 -0.1518  0.9429  0.1519
 4765TIP3    H214302   0.763   0.364   3.093 -0.0383  0.5983  0.2117
 4766TIP3   OH214303   4.498   0.401   5.097 -0.1327 -0.1814 -0.4122
 4766TIP3    H114304   4.481   0.449   5.178 -0.3612  1.5906 -1.4524
 4766TIP3    H214305   4.413   0.398   5.052  0.0685 -0.8105 -0.7691
 4767TIP3   OH214306   6.304   1.528   3.741 -0.0040  0.2345 -0.4167
 4767TIP3    H114307   6.236   1.508   3.805  1.1867 -1.8939  0.2860
 4767TIP3    H214308   6.271   1.493   3.659 -0.3734  0.5166 -0.3890
 4768TIP3   OH214309   3.459   2.953   0.016  0.2060 -0.0290  0.5299
 4768TIP3    H114310   3.432   2.889  -0.050 -1.2475  1.1159 -0.0485
 4768TIP3    H214311   3.533   2.912   0.061  0.9999 -1.0071 -1.5422
 4769TIP3   OH214312   2.765   0.169   2.052  0.0458 -0.0494  0.4049
 4769TIP3    H114313   2.739   0.205   2.137  0.4055 -0.5917  0.7442
 4769TIP3    H214314   2.684   0.168   2.001 -0.1741  0.2590  0.7463
 4770TIP3   OH214315   3.246   1.717   1.148  0.4904 -0.1942  0.2070
 4770TIP3    H114316   3.215   1.658   1.079  0.9295 -0.5159  0.2802
 4770TIP3    H214317   3.174   1.779   1.161 -0.9539 -2.0771  1.7525
 4771TIP3   OH214318   6.026   1.207   0.358 -0.4603  0.2635  0.5447
 4771TIP3    H114319   6.031   1.115   0.331  1.0401  0.4882 -0.0169
 4771TIP3    H214320   5.993   1.203   0.448  0.5438 -0.8978  0.8917
 4772TIP3   OH214321   3.276   0.860   4.857 -0.8119 -0.2385 -0.4973
 4772TIP3    H114322   3.365   0.847   4.824 -0.7252 -1.3926  0.1296
 4772TIP3    H214323   3.219   0.834   4.784 -0.6845  1.7332 -1.3665
 4773TIP3   OH214324   5.181   1.734   3.293  0.5966  0.0795 -0.0597
 4773TIP3    H114325   5.253   1.793   3.273  0.9333 -0.2769  0.0856
 4773TIP3    H214326   5.196   1.658   3.235  0.4639 -0.0898  0.1283
 4774TIP3   OH214327   2.336   2.547   0.585 -0.1224  0.9563  0.3043
 4774TIP3    H114328   2.270   2.607   0.618  0.3098  1.0186  1.0821
 4774TIP3    H214329   2.383   2.596   0.517 -0.5783  1.0563  0.0581
 4775TIP3   OH214330   4.913   1.715   3.082  0.2868 -0.3972  0.4379
 4775TIP3    H114331   4.903   1.800   3.127 -1.3262 -0.3813  0.1321
 4775TIP3    H214332   4.891   1.734   2.991 -0.5493 -1.2168  0.4523
 4776TIP3   OH214333   3.884   2.286   1.975 -0.4539  0.1530 -0.2963
 4776TIP3    H114334   3.796   2.250   1.980 -0.0150 -0.8700  0.5905
 4776TIP3    H214335   3.893   2.317   1.885 -1.3789 -0.6353 -0.6761
 4777TIP3   OH214336   2.688   0.078   3.413  0.2887 -0.5009 -0.1772
 4777TIP3    H114337   2.664  -0.014   3.399  0.2715 -0.7054  1.0996
 4777TIP3    H214338   2.681   0.091   3.508  0.9541  0.6343 -0.2636
 4778TIP3   OH214339   1.221   5.271   1.595 -0.1521  0.4253 -0.3228
 4778TIP3    H114340   1.298   5.267   1.538  0.6763  1.6515  0.6376
 4778TIP3    H214341   1.147   5.251   1.538  0.9103 -1.2731 -1.1764
 4779TIP3   OH214342   2.061   1.425   4.770 -0.2132  0.2475 -0.2982
 4779TIP3    H114343   2.135   1.477   4.801 -0.0992 -0.4015  0.5477
 4779TIP3    H214344   1.989   1.487   4.762 -0.6232  0.2512  2.5497
 4780TIP3   OH214345   0.836   3.645   4.899 -0.2658  0.0807 -0.3522
 4780TIP3    H114346   0.806   3.600   4.820 -0.5087 -1.5603  0.6332
 4780TIP3    H214347   0.779   3.612   4.969  0.1618  1.2410  0.5704
 4781TIP3   OH214348   5.031   0.279   1.585 -0.6383  0.7207  0.5789
 4781TIP3    H114349   5.101   0.326   1.539  0.4946  1.5436  2.9867
 4781TIP3    H214350   4.966   0.346   1.606 -1.6894  0.1535 -0.6784
 4782TIP3   OH214351   5.949   4.161   3.921 -0.4694  0.3319  0.3368
 4782TIP3    H114352   5.962   4.072   3.954 -0.7201 -0.2414 -1.0502
 4782TIP3    H214353   6.018   4.212   3.964  1.4376 -1.0751 -0.8441
 4783TIP3   OH214354   5.915   2.914   5.182 -0.1479  0.2337 -0.0920
 4783TIP3    H114355   5.872   2.853   5.123 -1.4583 -0.3886  1.4398
 4783TIP3    H214356   5.976   2.860   5.232  0.5718  0.6651 -0.4735
 4784TIP3   OH214357   5.208   5.764   0.598  0.5271  0.0567  0.0428
 4784TIP3    H114358   5.160   5.712   0.535 -0.0295  0.7275 -0.0899
 4784TIP3    H214359   5.155   5.760   0.678  0.9513 -0.3320  0.3155
 4785TIP3   OH214360   3.621   0.624   2.045  0.1714  0.6800 -0.1232
 4785TIP3    H114361   3.549   0.562   2.052  0.3885  0.5924  2.4187
 4785TIP3    H214362   3.694   0.573   2.010 -0.4005  0.2070 -0.6339
 4786TIP3   OH214363   5.077   1.888   1.995  0.0829  0.0889  0.9006
 4786TIP3    H114364   5.050   1.902   1.904 -1.6504 -0.6552  1.2652
 4786TIP3    H214365   5.151   1.827   1.988 -2.1435 -2.7880  0.0561
 4787TIP3   OH214366   1.567   5.234   2.127  0.2414  0.6085 -0.0896
 4787TIP3    H114367   1.555   5.145   2.159  1.5066  1.0460  1.7561
 4787TIP3    H214368   1.660   5.238   2.103  0.2293  1.4690 -0.0122
 4788TIP3   OH214369   0.454   1.061   2.204 -0.3450 -0.2222 -0.1066
 4788TIP3    H114370   0.517   0.996   2.233 -0.8309 -0.2355  0.9405
 4788TIP3    H214371   0.374   1.042   2.252 -1.4071 -0.6394 -1.9225
 4789TIP3   OH214372   3.370   0.632   4.508 -0.1147 -0.4580  0.2118
 4789TIP3    H114373   3.418   0.669   4.434 -4.6379  1.6619 -2.0470
 4789TIP3    H214374   3.313   0.566   4.469 -3.4507  1.4972  1.3931
 4790TIP3   OH214375   6.165   3.795   2.679  0.2976 -0.1302 -0.0331
 4790TIP3    H114376   6.225   3.843   2.737  0.4333 -0.6000  0.2188
 4790TIP3    H214377   6.219   3.725   2.642 -0.4092 -1.3614  1.1979
 4791TIP3   OH214378   2.227   0.650   4.404  0.0182 -0.1106  0.4802
 4791TIP3    H114379   2.313   0.649   4.363 -0.1897 -0.1931  0.0429
 4791TIP3    H214380   2.206   0.743   4.414  0.1887 -0.0900  0.6602
 4792TIP3   OH214381   1.287   2.963   4.470  0.0640  0.0114  0.1532
 4792TIP3    H114382   1.310   3.056   4.477  0.3222 -0.0380 -0.0714
 4792TIP3    H214383   1.370   2.917   4.470 -0.0868 -0.2782  1.0849
 4793TIP3   OH214384   0.826   4.011   2.806 -0.6810  0.3227  0.2264
 4793TIP3    H114385   0.825   4.024   2.711  1.8986  3.1008  0.4471
 4793TIP3    H214386   0.879   3.933   2.819 -0.6789  0.1801 -0.5766
 4794TIP3   OH214387   2.822   1.823   4.728 -0.1019  0.0937 -0.3568
 4794TIP3    H114388   2.753   1.867   4.777 -0.4951 -1.2705  0.3523
 4794TIP3    H214389   2.902   1.841   4.778 -0.6444 -2.1751  1.4882
 4795TIP3   OH214390   0.064   4.373   0.989  0.2378  0.0921  0.3215
 4795TIP3    H114391   0.028   4.286   1.003  0.3762  0.0122  0.1676
 4795TIP3    H214392  -0.005   4.432   1.021  0.6350 -0.0928  1.5688
 4796TIP3   OH214393   1.552   4.244   4.311  0.0912  0.0650  0.3364
 4796TIP3    H114394   1.516   4.257   4.224 -0.1698 -1.0256  0.2601
 4796TIP3    H214395   1.638   4.205   4.296  0.4841  0.8267  0.5560
 4797TIP3   OH214396   1.167   2.695   0.967  0.0664 -0.1930  0.3048
 4797TIP3    H114397   1.262   2.701   0.978 -0.1144 -0.1200  2.2999
 4797TIP3    H214398   1.143   2.774   0.919  1.0647 -0.5125 -0.7440
 4798TIP3   OH214399   0.387   4.884   4.107  0.0659  0.0860 -0.2523
 4798TIP3    H114400   0.471   4.846   4.135 -0.7926 -1.7513 -0.0571
 4798TIP3    H214401   0.366   4.838   4.026 -0.6364  0.7312 -0.4412
 4799TIP3   OH214402   2.169   4.015   2.212 -0.2074  0.0202  0.1671
 4799TIP3    H114403   2.206   3.935   2.251 -0.6108 -0.2667 -0.0269
 4799TIP3    H214404   2.202   4.016   2.123  0.7568  0.7049  0.5152
 4800TIP3   OH214405   4.091   3.570   3.071 -0.1512 -0.6601  0.5525
 4800TIP3    H114406   4.080   3.476   3.086 -0.5708 -0.6907  0.0573
 4800TIP3    H214407   4.170   3.592   3.119  0.8917 -1.5840 -0.6782
 4801TIP3   OH214408   1.325   0.504   3.090 -0.7712 -0.3067  0.0304
 4801TIP3    H114409   1.337   0.545   3.176  1.3400  0.8012 -0.7224
 4801TIP3    H214410   1.282   0.572   3.038 -1.0978 -0.6051 -0.0919
 4802TIP3   OH214411   5.260   5.432   1.649 -0.1540 -0.7775  0.3816
 4802TIP3    H114412   5.181   5.429   1.703 -0.4897 -0.7372 -0.1009
 4802TIP3    H214413   5.229   5.463   1.563  0.5170  0.0844  0.4354
 4803TIP3   OH214414   5.666   1.679   0.736 -0.5705  0.5706  0.5883
 4803TIP3    H114415   5.632   1.613   0.796 -0.1722  2.1109  2.6425
 4803TIP3    H214416   5.760   1.677   0.749 -0.3196 -0.1075 -1.1757
 4804TIP3   OH214417   4.777   4.082   3.251  0.3101  0.1704 -0.4359
 4804TIP3    H114418   4.859   4.126   3.227  0.9235 -1.8699 -2.4001
 4804TIP3    H214419   4.712   4.118   3.191  0.4062 -0.3022 -0.8209
 4805TIP3   OH214420   1.178   1.634   4.643  0.1860  0.0969 -0.3575
 4805TIP3    H114421   1.116   1.564   4.623 -0.8721  0.6303  0.8329
 4805TIP3    H214422   1.144   1.710   4.596  0.3167  0.2223 -0.2502
 4806TIP3   OH214423   0.820   5.225   2.803  0.6291 -0.4085  0.0708
 4806TIP3    H114424   0.814   5.284   2.728 -2.3342 -0.9490 -0.2253
 4806TIP3    H214425   0.779   5.272   2.875 -2.0776 -2.0534 -0.2456
 4807TIP3   OH214426   1.243   0.055   4.060  0.1713 -0.2499 -0.1561
 4807TIP3    H114427   1.254   0.039   3.966  1.1897  0.2148 -0.1263
 4807TIP3    H214428   1.153   0.086   4.068  0.2714  0.3105 -1.0663
 4808TIP3   OH214429   4.425   4.960   0.107 -0.7838 -0.2185  0.6256
 4808TIP3    H114430   4.398   5.041   0.064  1.5865  1.4082  1.9815
 4808TIP3    H214431   4.365   4.952   0.182 -1.3977 -0.0310  0.1606
 4809TIP3   OH214432   0.367   1.177   0.032  0.1243 -0.6194  0.6532
 4809TIP3    H114433   0.288   1.198   0.081 -0.2260  0.2510 -0.2398
 4809TIP3    H214434   0.431   1.242   0.061 -0.2215  0.1893 -0.3439
 4810TIP3   OH214435   6.195   2.215   0.699  0.0352 -0.2125 -0.0745
 4810TIP3    H114436   6.172   2.220   0.792 -1.2569 -2.1043 -0.2264
 4810TIP3    H214437   6.135   2.148   0.664 -0.0643  1.0255 -2.4358
 4811TIP3   OH214438   3.133   3.251   0.611  0.3334  0.1656 -0.4236
 4811TIP3    H114439   3.165   3.165   0.582  0.9395  0.5187 -0.8293
 4811TIP3    H214440   3.194   3.313   0.572 -0.2711  0.8012 -0.3709
 4812TIP3   OH214441   6.031   4.059   3.268  0.3997 -0.3408  0.0245
 4812TIP3    H114442   6.067   4.091   3.350 -0.5329  1.3776 -0.1944
 4812TIP3    H214443   6.104   4.065   3.205  0.3364  1.0877  0.0684
 4813TIP3   OH214444   2.764   1.879   3.238 -0.1285  0.3567  0.2561
 4813TIP3    H114445   2.685   1.846   3.278 -0.2064  0.1935 -0.0267
 4813TIP3    H214446   2.747   1.874   3.143 -0.6674  2.4522  0.1897
 4814TIP3   OH214447   4.304   5.151   4.824  0.4024  0.0399 -0.2977
 4814TIP3    H114448   4.370   5.205   4.867  0.5146  0.1815 -0.6408
 4814TIP3    H214449   4.293   5.191   4.738  1.3429 -1.1704 -1.0132
 4815TIP3   OH214450   4.101   2.939   0.395  0.3496  0.3624  0.3355
 4815TIP3    H114451   4.137   2.868   0.342 -0.3665 -0.9112  1.5020
 4815TIP3    H214452   4.028   2.974   0.343  0.3831 -0.0955 -0.0243
 4816TIP3   OH214453   2.950   4.101   4.364  0.2660 -0.2720 -0.7600
 4816TIP3    H114454   2.912   4.182   4.399  2.0444  0.5911 -0.7365
 4816TIP3    H214455   2.876   4.057   4.321 -1.5926 -0.4726  2.3588
 4817TIP3   OH214456   4.651   1.338   2.235 -0.1713 -0.6586  0.0457
 4817TIP3    H114457   4.675   1.245   2.240  0.9090 -0.4135 -0.3732
 4817TIP3    H214458   4.630   1.351   2.142  0.7455 -0.2357 -0.1062
 4818TIP3   OH214459   0.256   2.740   0.532 -0.0556  0.4314 -0.4277
 4818TIP3    H114460   0.181   2.698   0.575 -0.9810  1.6214 -0.8332
 4818TIP3    H214461   0.226   2.829   0.514  0.1480 -0.0612 -3.8377
 4819TIP3   OH214462   4.809   5.367   0.386 -0.5284 -0.1643  0.2271
 4819TIP3    H114463   4.847   5.353   0.299  1.2931  1.5107  0.7055
 4819TIP3    H214464   4.753   5.445   0.375 -0.0536  0.2340  0.6213
 4820TIP3   OH214465   2.395   0.082   2.711 -0.7302 -0.3390  0.5450
 4820TIP3    H114466   2.451   0.094   2.787 -0.1298 -0.1204  0.0772
 4820TIP3    H214467   2.436   0.135   2.642 -0.3921 -1.7059 -0.3685
 4821TIP3   OH214468   5.786   3.194   4.942  0.0771  0.4922  0.5768
 4821TIP3    H114469   5.835   3.200   4.860  0.2068  1.2249  0.6994
 4821TIP3    H214470   5.733   3.115   4.933 -0.9524  1.3125 -0.7868
 4822TIP3   OH214471   4.508   5.523   3.209 -0.3053 -0.4065  0.0270
 4822TIP3    H114472   4.453   5.602   3.204  0.1831 -0.1117 -0.8444
 4822TIP3    H214473   4.532   5.517   3.301  0.1812  0.8460  0.0017
 4823TIP3   OH214474   2.303   2.695   1.562 -0.8629  0.0598 -0.3108
 4823TIP3    H114475   2.250   2.710   1.640 -0.5587  0.0016 -0.0943
 4823TIP3    H214476   2.270   2.759   1.498 -1.3697 -0.1496 -0.2654
 4824TIP3   OH214477   4.461   4.288  -0.003 -0.0229  0.3282  0.2936
 4824TIP3    H114478   4.394   4.346   0.035 -2.0280 -1.2302 -0.6851
 4824TIP3    H214479   4.511   4.257   0.072 -0.5947  1.2908  1.0981
 4825TIP3   OH214480   1.684   5.245   4.071  0.8324  0.6926 -0.1577
 4825TIP3    H114481   1.648   5.330   4.049 -1.5935  0.1390  1.2984
 4825TIP3    H214482   1.622   5.182   4.034  1.4173 -0.3866  0.6317
 4826TIP3   OH214483   4.941   5.296   1.214  0.3684 -0.1701 -0.0209
 4826TIP3    H114484   4.881   5.238   1.261 -1.7136  2.0911  0.3034
 4826TIP3    H214485   5.020   5.297   1.268  0.3482 -2.3344  0.1586
 4827TIP3   OH214486   5.730   0.994   2.311  0.3210  0.3146  0.4055
 4827TIP3    H114487   5.671   1.069   2.307  1.2498  1.0173 -1.0183
 4827TIP3    H214488   5.818   1.032   2.306  0.9210 -0.7331  2.1995
 4828TIP3   OH214489   4.034   4.975   3.004  0.9232 -0.4678 -0.2963
 4828TIP3    H114490   4.101   4.912   2.975  0.2293 -0.7540 -1.3312
 4828TIP3    H214491   4.057   5.057   2.958 -0.2594 -0.9589 -1.8737
 4829TIP3   OH214492   4.131   1.229   1.505  0.3667  0.1056 -0.7009
 4829TIP3    H114493   4.037   1.224   1.522  0.6853 -2.5118  0.8358
 4829TIP3    H214494   4.170   1.256   1.589  1.0528  0.6004 -1.1618
 4830TIP3   OH214495   4.266   0.203   0.447  0.0676  0.5883  0.1107
 4830TIP3    H114496   4.356   0.172   0.462 -0.4506 -0.6585  0.8020
 4830TIP3    H214497   4.242   0.248   0.528 -0.2604  0.0655  0.3101
 4831TIP3   OH214498   3.782   1.793   1.372  0.1009 -1.0167  0.0399
 4831TIP3    H114499   3.796   1.703   1.341 -0.0084 -1.2579  0.6813
 4831TIP3    H214500   3.869   1.832   1.373  0.3068 -1.4833  0.8739
 4832TIP3   OH214501   4.906   0.657   2.228 -0.2594  0.0095 -0.7905
 4832TIP3    H114502   4.837   0.714   2.192 -0.8045 -0.5160 -0.5828
 4832TIP3    H214503   4.925   0.694   2.314 -2.6697 -1.7410  0.6359
 4833TIP3   OH214504   4.246   4.877   2.866 -0.3669 -0.1024  0.3906
 4833TIP3    H114505   4.185   4.848   2.798 -0.6326  2.0118 -0.3634
 4833TIP3    H214506   4.308   4.933   2.820 -0.0531  0.7113  1.7498
 4834TIP3   OH214507   2.500   1.875   3.340 -0.1412 -0.0968 -0.3340
 4834TIP3    H114508   2.452   1.794   3.323 -1.8713  0.9000 -0.3286
 4834TIP3    H214509   2.487   1.928   3.261  1.4836 -0.0148 -0.5929
 4835TIP3   OH214510   1.747   4.042   1.227  0.2609 -0.5249  0.4214
 4835TIP3    H114511   1.708   3.962   1.192  2.5121 -1.8587  0.7327
 4835TIP3    H214512   1.678   4.083   1.279 -1.1058 -1.9687 -0.1951
 4836TIP3   OH214513   4.277   1.752   1.205  0.2817  0.0808 -0.1743
 4836TIP3    H114514   4.345   1.717   1.149  1.9437  0.3097  1.5936
 4836TIP3    H214515   4.324   1.807   1.269 -1.4543 -0.3400  1.5682
 4837TIP3   OH214516   5.657   2.881   2.817  0.3044 -0.5048 -0.5707
 4837TIP3    H114517   5.714   2.955   2.835  1.9919 -2.0499  0.8912
 4837TIP3    H214518   5.646   2.838   2.902  0.3295 -2.5228 -1.5167
 4838TIP3   OH214519   3.533   5.080   4.937 -0.3941 -0.1067  0.2973
 4838TIP3    H114520   3.583   5.159   4.916  0.3177 -0.8039 -0.7535
 4838TIP3    H214521   3.495   5.098   5.023  1.7957  0.4087  1.2277
 4839TIP3   OH214522   1.619   5.239   1.665 -0.1332 -0.6123 -0.1793
 4839TIP3    H114523   1.578   5.320   1.695  1.5387  0.9415 -1.8425
 4839TIP3    H214524   1.579   5.171   1.719 -1.9848  1.2283  0.9257
 4840TIP3   OH214525   6.113   1.372   1.000 -0.1210  0.4079 -0.0075
 4840TIP3    H114526   6.105   1.342   1.090 -0.7131  0.2444 -0.1111
 4840TIP3    H214527   6.191   1.327   0.967  0.6446  1.1913  0.6934
 4841TIP3   OH214528   2.864   4.343   5.059  0.8069  0.0874  0.2008
 4841TIP3    H114529   2.932   4.391   5.011 -0.2645  1.4614  0.0068
 4841TIP3    H214530   2.897   4.253   5.064  0.4546 -0.5034 -4.2384
 4842TIP3   OH214531   2.490   4.931   3.122  0.5523 -0.0952  0.3134
 4842TIP3    H114532   2.480   4.897   3.033 -0.9901  0.7699  0.1141
 4842TIP3    H214533   2.489   4.852   3.177  1.4046 -0.6292 -0.4180
 4843TIP3   OH214534   5.058   5.783   2.700 -0.1365 -0.1356 -0.4802
 4843TIP3    H114535   5.153   5.768   2.702 -0.4099 -2.2315  0.7541
 4843TIP3    H214536   5.048   5.877   2.709  1.8350  0.0551  0.2640
 4844TIP3   OH214537   1.836   1.479   0.920  0.2621 -0.4246 -0.8001
 4844TIP3    H114538   1.914   1.530   0.898  0.1425 -0.4710 -1.3401
 4844TIP3    H214539   1.800   1.523   0.997  0.1659  0.2970 -1.2513
 4845TIP3   OH214540   2.147   3.431   2.212 -0.3031 -0.0874  0.0698
 4845TIP3    H114541   2.212   3.361   2.220 -0.3147 -0.0741  0.2824
 4845TIP3    H214542   2.090   3.402   2.141 -0.4012 -0.3677  0.2596
 4846TIP3   OH214543   4.417   0.086   3.097 -0.5219  0.1117 -0.5867
 4846TIP3    H114544   4.378   0.065   3.012  2.2638  1.0902 -2.2413
 4846TIP3    H214545   4.368   0.162   3.128 -1.0078  0.2893 -1.7377
 4847TIP3   OH214546   1.848   2.071   2.758  0.4723 -0.1549 -0.5305
 4847TIP3    H114547   1.760   2.036   2.773  1.4749 -2.0878  1.4011
 4847TIP3    H214548   1.882   2.020   2.685  0.9198 -1.3608  0.4824
 4848TIP3   OH214549   1.368   1.013   0.667  0.1602  0.2024 -0.1310
 4848TIP3    H114550   1.394   1.090   0.616  0.9445  0.3327  0.4481
 4848TIP3    H214551   1.276   0.999   0.645 -0.1627  1.6729  0.2413
 4849TIP3   OH214552   0.253   4.753   1.942  0.2572 -0.3086 -0.3806
 4849TIP3    H114553   0.267   4.690   1.871  2.3079  0.8004 -1.0293
 4849TIP3    H214554   0.330   4.809   1.941 -1.3151  2.0371  0.3949
 4850TIP3   OH214555   3.889   2.460   0.074  0.2069  0.9170 -0.4260
 4850TIP3    H114556   3.796   2.481   0.081  0.5140  2.5470 -0.9323
 4850TIP3    H214557   3.902   2.441  -0.019  0.1152 -0.8215 -0.1242
 4851TIP3   OH214558   2.206   4.191   2.612  0.0208  0.6810  0.0946
 4851TIP3    H114559   2.253   4.229   2.686 -0.2555 -0.1025  0.6815
 4851TIP3    H214560   2.267   4.126   2.576 -0.9587 -1.0671  1.4827
 4852TIP3   OH214561   0.599   1.128   1.967  0.5905 -0.5674 -0.3061
 4852TIP3    H114562   0.675   1.125   2.025  0.2293  1.4862  0.3593
 4852TIP3    H214563   0.525   1.112   2.025  0.3449 -0.0386 -0.4667
 4853TIP3   OH214564   4.312   2.112   0.447  0.1982 -0.1484  0.4003
 4853TIP3    H114565   4.308   2.188   0.388  0.7600  0.2793  0.8967
 4853TIP3    H214566   4.405   2.087   0.447  0.1719 -0.2551  0.9527
 4854TIP3   OH214567   4.103   1.435   4.198  0.0816  0.0017  0.0600
 4854TIP3    H114568   4.087   1.499   4.268  1.4675  0.2383  0.1785
 4854TIP3    H214569   4.197   1.419   4.200 -0.0090 -0.8210 -1.0484
 4855TIP3   OH214570   1.904   3.416   0.797  0.3888  0.0109  0.5612
 4855TIP3    H114571   1.954   3.496   0.815  0.0318  0.1343  1.0231
 4855TIP3    H214572   1.953   3.373   0.727 -1.3400  2.4498 -2.3955
 4856TIP3   OH214573   4.600   2.816   1.338 -0.5148  0.1998 -0.5542
 4856TIP3    H114574   4.521   2.854   1.301  0.7605  3.6078 -0.0952
 4856TIP3    H214575   4.625   2.875   1.408  0.6851 -2.5868  1.5667
 4857TIP3   OH214576   3.663   2.719   0.093  0.4078  0.0842  0.1101
 4857TIP3    H114577   3.658   2.724  -0.003  3.3719  0.3715 -0.1127
 4857TIP3    H214578   3.578   2.684   0.119  0.3629 -2.5223 -2.8551
 4858TIP3   OH214579   1.228   2.143   4.247  0.0656 -0.2193  0.0818
 4858TIP3    H114580   1.299   2.126   4.185 -0.3341  1.1773 -0.8030
 4858TIP3    H214581   1.248   2.229   4.283 -1.6500  0.6336 -0.8963
 4859TIP3   OH214582   4.264   4.262   3.560  0.1930  0.5389 -0.4745
 4859TIP3    H114583   4.355   4.280   3.585  0.1555  0.2694 -0.1340
 4859TIP3    H214584   4.249   4.317   3.483  0.1492  1.7759  0.4046
 4860TIP3   OH214585   3.079   0.010   2.965  0.2340 -0.5338  0.5546
 4860TIP3    H114586   3.081  -0.020   3.056  0.0335 -1.5296  0.2453
 4860TIP3    H214587   3.046   0.100   2.969  3.1028  0.5840  1.7487
 4861TIP3   OH214588   3.593   0.198   2.327  0.1773 -0.5302 -0.2032
 4861TIP3    H114589   3.650   0.125   2.303  0.8158 -1.6230  3.9190
 4861TIP3    H214590   3.506   0.160   2.333 -0.0932 -0.1144 -1.2556
 4862TIP3   OH214591   3.168   4.710   2.945 -0.5470  0.2667 -0.1128
 4862TIP3    H114592   3.142   4.734   3.033  0.5002  0.0987  0.2589
 4862TIP3    H214593   3.214   4.626   2.955  0.1564  0.5665 -0.7144
 4863TIP3   OH214594   1.840   1.246   0.453 -0.4523 -0.3856 -0.1509
 4863TIP3    H114595   1.804   1.270   0.538 -0.9477  0.7089 -0.6593
 4863TIP3    H214596   1.848   1.328   0.405  2.0543 -0.6570 -0.3419
 4864TIP3   OH214597   2.758   3.116   1.519 -0.0553 -0.0750 -0.1757
 4864TIP3    H114598   2.757   3.204   1.557 -0.8857 -0.3936  0.5787
 4864TIP3    H214599   2.668   3.086   1.525 -0.5431  0.3598 -3.6757
 4865TIP3   OH214600   6.038   3.579   4.068  0.3680  0.2961 -0.1830
 4865TIP3    H114601   6.001   3.658   4.107  0.9895  2.0216 -2.8080
 4865TIP3    H214602   6.123   3.569   4.111  2.2631  3.7209 -2.6331
 4866TIP3   OH214603   3.147   3.543   0.265  0.3349  0.2400 -0.1293
 4866TIP3    H114604   3.230   3.500   0.283  0.8527  2.0628  2.2720
 4866TIP3    H214605   3.112   3.566   0.351 -0.4827  3.4897 -1.1758
 4867TIP3   OH214606   4.533   0.747   4.737  0.0319  0.1842  0.4258
 4867TIP3    H114607   4.603   0.709   4.790 -0.4437  0.9993  1.6838
 4867TIP3    H214608   4.495   0.815   4.793 -2.3613 -0.8425  0.1749
 4868TIP3   OH214609   4.197   0.357   4.593  0.1947 -0.6885 -0.1309
 4868TIP3    H114610   4.261   0.314   4.537  0.5591  2.3439 -2.2908
 4868TIP3    H214611   4.237   0.358   4.680  2.3986 -0.2799 -1.0890
 4869TIP3   OH214612   4.082   2.498   0.262  0.4015  0.4852 -1.0430
 4869TIP3    H114613   4.022   2.472   0.192  1.2018 -0.7793 -1.3049
 4869TIP3    H214614   4.027   2.543   0.326 -1.4262 -2.9545  0.0463
 4870TIP3   OH214615   5.173   5.637   1.943 -0.0803  0.3056  0.1268
 4870TIP3    H114616   5.100   5.698   1.956 -1.0348 -0.7389 -0.1348
 4870TIP3    H214617   5.142   5.577   1.875  1.1901  0.0689 -0.2655
 4871TIP3   OH214618   4.074   5.447   0.393 -0.1833  0.0716  0.1390
 4871TIP3    H114619   4.161   5.478   0.366 -0.0303 -0.9939 -0.6594
 4871TIP3    H214620   4.082   5.352   0.394 -1.1164 -0.0091  0.8682
 4872TIP3   OH214621   3.238   5.061   3.718 -0.4429  0.4140  0.3243
 4872TIP3    H114622   3.182   5.052   3.641  1.8067 -2.6923 -1.1592
 4872TIP3    H214623   3.327   5.064   3.683  0.5714  1.8427  2.7261
 4873TIP3   OH214624   0.685   4.165   0.715  0.4814 -0.2868 -0.1938
 4873TIP3    H114625   0.675   4.252   0.755  1.1939 -0.1849 -0.2263
 4873TIP3    H214626   0.686   4.181   0.621 -0.6387 -0.4699 -0.2529
 4874TIP3   OH214627   0.612   2.899   0.745  0.6369 -0.8108  0.5427
 4874TIP3    H114628   0.569   2.958   0.806 -0.1420 -0.6666 -0.1321
 4874TIP3    H214629   0.553   2.894   0.670  0.8806 -2.1364  0.4173
 4875TIP3   OH214630   1.529   5.441   3.969  1.1993 -0.1280  0.2170
 4875TIP3    H114631   1.522   5.521   4.022  1.7348  0.9214 -1.2452
 4875TIP3    H214632   1.439   5.420   3.944  1.0827  0.1461  0.4033
 4876TIP3   OH214633   4.596   4.338   0.683  0.0871 -0.5647 -0.3932
 4876TIP3    H114634   4.673   4.394   0.673 -0.0447 -0.2888  0.0796
 4876TIP3    H214635   4.620   4.278   0.754  0.0005 -0.7142 -0.4905
 4877TIP3   OH214636   1.920   4.813   3.284  0.4173  0.4434  0.1377
 4877TIP3    H114637   1.989   4.857   3.234 -0.6765  0.2986 -1.5641
 4877TIP3    H214638   1.966   4.746   3.334  1.4082 -0.3628 -1.7662
 4878TIP3   OH214639   3.496   5.057   2.697  0.4507 -0.2153 -0.0717
 4878TIP3    H114640   3.401   5.072   2.700  0.7622  1.9276  1.2103
 4878TIP3    H214641   3.512   4.991   2.765 -0.3364 -2.5124 -1.9863
 4879TIP3   OH214642   3.906   0.301   5.097  0.1430  0.0114  0.2290
 4879TIP3    H114643   3.813   0.313   5.075  0.2961  1.3309  0.2461
 4879TIP3    H214644   3.908   0.217   5.144 -0.9871 -0.2045 -0.0622
 4880TIP3   OH214645   5.456   1.224   1.827  0.4831 -0.4454  0.1190
 4880TIP3    H114646   5.545   1.239   1.795  0.6378  1.1737  1.2093
 4880TIP3    H214647   5.453   1.130   1.846  2.1968 -0.4075  0.7395
 4881TIP3   OH214648   1.640   0.341   1.600 -0.3438 -0.3189 -0.4431
 4881TIP3    H114649   1.635   0.420   1.547 -2.7586 -0.1616 -0.1128
 4881TIP3    H214650   1.578   0.356   1.672  0.8241 -1.6146  0.9056
 4882TIP3   OH214651   1.642   5.409   5.083 -0.1931  0.0072 -0.1063
 4882TIP3    H114652   1.594   5.409   5.000  1.1452  1.4789 -0.9263
 4882TIP3    H214653   1.686   5.494   5.086 -2.9801  1.5891  3.8147
 4883TIP3   OH214654   1.869   0.648   4.106  0.3979 -0.2074 -0.6129
 4883TIP3    H114655   1.953   0.604   4.119  1.8324  2.0036 -1.7231
 4883TIP3    H214656   1.866   0.715   4.173  0.0079  0.4046 -1.2319
 4884TIP3   OH214657   5.109   2.777   0.201 -0.3083 -0.0295 -0.1164
 4884TIP3    H114658   5.115   2.820   0.286  0.0945 -1.0831  0.3998
 4884TIP3    H214659   5.143   2.841   0.139 -0.4800  0.6949  0.5262
 4885TIP3   OH214660   3.929   0.402   0.237  0.0758  0.6502  0.0038
 4885TIP3    H114661   3.897   0.313   0.254 -1.3245  0.6417 -2.2918
 4885TIP3    H214662   4.020   0.400   0.269 -0.0088 -1.5054  0.3128
 4886TIP3   OH214663   1.680   4.583   4.977 -0.1643 -0.2431  0.2827
 4886TIP3    H114664   1.695   4.504   4.926  1.8172  0.9556 -1.1113
 4886TIP3    H214665   1.765   4.627   4.980 -1.1497  1.7494  1.1848
 4887TIP3   OH214666   5.090   4.507   3.189  0.1759  0.0894 -0.7174
 4887TIP3    H114667   5.138   4.469   3.116 -0.9404 -2.2921 -0.3238
 4887TIP3    H214668   5.018   4.554   3.149  0.8845  0.7942 -1.1939
 4888TIP3   OH214669   4.149   4.080   4.026  0.3475 -0.4002 -0.3141
 4888TIP3    H114670   4.093   4.142   3.979 -2.1275 -2.8896 -0.8725
 4888TIP3    H214671   4.193   4.134   4.092 -1.9276  1.9064 -0.5155
 4889TIP3   OH214672   3.528   1.912   3.719  0.3466 -0.4289 -0.1943
 4889TIP3    H114673   3.498   1.957   3.640  0.0871  0.2108  0.2591
 4889TIP3    H214674   3.605   1.862   3.691 -1.4525 -2.6730 -1.5712
 4890TIP3   OH214675   3.369   5.294   1.094 -0.1102  0.1763  0.1520
 4890TIP3    H114676   3.298   5.236   1.122 -1.7497  0.7938 -2.3468
 4890TIP3    H214677   3.439   5.235   1.066  0.3211 -0.4469  2.3502
 4891TIP3   OH214678   4.652   2.537   2.194 -0.4215 -0.4986  0.0694
 4891TIP3    H114679   4.733   2.535   2.244 -1.0642  1.0316  1.2745
 4891TIP3    H214680   4.600   2.606   2.236 -1.8809 -0.6576 -1.3755
 4892TIP3   OH214681   2.887   4.767   0.657  0.1544 -0.0548 -0.5429
 4892TIP3    H114682   2.879   4.697   0.722  0.9158 -0.6303 -1.0635
 4892TIP3    H214683   2.810   4.822   0.672 -0.6815 -1.2255 -0.4109
 4893TIP3   OH214684   4.315   2.077   3.320 -0.1000 -0.2761  0.3112
 4893TIP3    H114685   4.261   2.076   3.241  0.9098 -0.2737 -0.3993
 4893TIP3    H214686   4.392   2.025   3.297  0.3425 -0.0306  1.1982
 4894TIP3   OH214687   4.404   2.031   0.159  0.3076 -0.4574 -0.1051
 4894TIP3    H114688   4.447   2.050   0.075  3.0057 -0.7053  1.1256
 4894TIP3    H214689   4.372   2.117   0.188 -1.2588 -0.4630 -1.6175
 4895TIP3   OH214690   0.825   1.717   1.314 -0.4573  0.4172  0.3871
 4895TIP3    H114691   0.915   1.744   1.297 -0.8476  1.4036 -0.2392
 4895TIP3    H214692   0.772   1.790   1.282 -1.4583  0.1226  1.3172
 4896TIP3   OH214693   5.452   4.127   5.078  0.2150  0.0278 -0.2586
 4896TIP3    H114694   5.493   4.046   5.047 -0.4657 -0.8475  1.0155
 4896TIP3    H214695   5.525   4.180   5.110  0.6876  0.0176 -1.2814
 4897TIP3   OH214696   1.438   0.955   3.488  0.2568  0.0429 -0.4324
 4897TIP3    H114697   1.410   0.874   3.531  1.3399  0.2131  0.6287
 4897TIP3    H214698   1.518   0.981   3.534  1.7808 -0.0164 -2.8757
 4898TIP3   OH214699   4.149   5.293   1.131 -0.4742  0.5439  0.0220
 4898TIP3    H114700   4.147   5.323   1.040 -0.8606 -0.9082 -0.4701
 4898TIP3    H214701   4.078   5.342   1.174 -0.3177  1.2052 -0.4606
 4899TIP3   OH214702   2.054   1.870   0.724 -0.2915  0.3081  0.1362
 4899TIP3    H114703   2.032   1.805   0.657 -2.0574  0.9992 -0.0348
 4899TIP3    H214704   2.014   1.835   0.804 -0.6578  0.8486  0.1898
 4900TIP3   OH214705   1.079   3.646   4.283  0.0044 -0.1385  0.0041
 4900TIP3    H114706   1.035   3.713   4.230 -0.6960 -0.6288 -0.0326
 4900TIP3    H214707   1.152   3.694   4.325 -0.3457  0.5960 -0.2033
 4901TIP3   OH214708   3.387   4.225   1.686  0.1549 -0.4167  0.8002
 4901TIP3    H114709   3.363   4.138   1.717  1.2722 -1.5241 -1.2643
 4901TIP3    H214710   3.422   4.211   1.598 -0.4560  2.2334  0.0430
 4902TIP3   OH214711   0.422   5.943   1.835  0.3080  0.3845  0.2147
 4902TIP3    H114712   0.423   6.013   1.900 -1.6361  1.5544 -0.9211
 4902TIP3    H214713   0.344   5.891   1.857  0.8367 -0.4938  0.0792
 4903TIP3   OH214714   0.926   2.509   3.101  0.3293  0.0579  0.6573
 4903TIP3    H114715   0.840   2.533   3.065  0.8593  0.3875 -0.4421
 4903TIP3    H214716   0.921   2.415   3.114  0.4272 -0.2524 -1.2642
 4904TIP3   OH214717   3.684   3.678   2.149  0.2631 -0.1923  0.8346
 4904TIP3    H114718   3.699   3.712   2.061  2.0258 -0.1599  1.1161
 4904TIP3    H214719   3.596   3.709   2.172  0.6929  1.7761 -0.0106
 4905TIP3   OH214720   4.990   5.480   3.351 -0.1843  0.0236  0.2228
 4905TIP3    H114721   4.960   5.567   3.325  1.2467  0.5593  0.2918
 4905TIP3    H214722   5.048   5.452   3.280  0.5376 -0.2215  0.8914
 4906TIP3   OH214723   5.111   5.086   0.859 -0.3168 -0.1616  0.5002
 4906TIP3    H114724   5.162   5.065   0.937 -2.1964  1.7155  2.3747
 4906TIP3    H214725   5.164   5.053   0.786  4.3395  2.6992  2.0761
 4907TIP3   OH214726   3.033   0.588   4.756  0.3252  0.1804 -0.0359
 4907TIP3    H114727   3.045   0.526   4.684  2.0437  1.1122 -0.5968
 4907TIP3    H214728   3.088   0.662   4.733 -1.4213  1.8029  0.7823
 4908TIP3   OH214729   2.999   0.584   1.988  0.2772  0.1207 -0.5828
 4908TIP3    H114730   3.074   0.541   2.028 -0.2600 -0.1781  0.1407
 4908TIP3    H214731   2.990   0.543   1.902  0.9689  0.1995 -0.6946
 4909TIP3   OH214732   5.242   2.590   2.194 -0.1603  0.7126  0.0484
 4909TIP3    H114733   5.297   2.519   2.227  0.1058  1.2497  0.7836
 4909TIP3    H214734   5.155   2.570   2.228  0.0453  1.0807  0.8079
 4910TIP3   OH214735   4.000   2.823   3.046  0.5281  0.1164 -0.5817
 4910TIP3    H114736   4.033   2.799   2.960  2.3551 -0.5907  0.2538
 4910TIP3    H214737   3.982   2.739   3.089  0.2470  0.4389 -0.0519
 4911TIP3   OH214738   2.931   5.653   0.713  0.0984 -0.3458  0.4757
 4911TIP3    H114739   2.892   5.672   0.798  1.2439 -0.2131  0.9816
 4911TIP3    H214740   2.953   5.738   0.677 -2.0944 -0.2600 -0.8177
 4912TIP3   OH214741   4.092   2.793   3.621  0.4565  0.8487  0.1154
 4912TIP3    H114742   4.019   2.750   3.665  0.0052  1.9398  0.4760
 4912TIP3    H214743   4.101   2.747   3.538  1.2405 -1.1692  1.2712
 4913TIP3   OH214744   0.955   0.668   2.892  0.2375  0.4102  0.7684
 4913TIP3    H114745   0.885   0.669   2.827 -0.4912 -0.4417  1.5115
 4913TIP3    H214746   0.930   0.735   2.956 -0.5135 -0.6346  1.6193
 4914TIP3   OH214747   1.377   5.133   4.804 -0.2791  0.1071 -0.3068
 4914TIP3    H114748   1.368   5.227   4.818  0.1492  0.1480 -0.2910
 4914TIP3    H214749   1.469   5.115   4.822 -0.6298 -0.5266  0.9446
 4915TIP3   OH214750   3.169   2.708   1.895 -0.0939 -0.6444 -0.6449
 4915TIP3    H114751   3.090   2.689   1.945 -0.4643 -1.6818 -1.5907
 4915TIP3    H214752   3.240   2.691   1.956 -0.5760  0.0799  0.1482
 4916TIP3   OH214753   2.563   0.020   3.661  0.3586 -0.1351 -0.2148
 4916TIP3    H114754   2.536  -0.058   3.709 -1.0158 -1.2968 -2.6569
 4916TIP3    H214755   2.485   0.077   3.662  0.2749 -0.2117 -1.0334
 4917TIP3   OH214756   0.715   4.212   0.442 -0.2682 -0.1021  0.2804
 4917TIP3    H114757   0.799   4.169   0.457 -0.7260 -1.2077 -0.2304
 4917TIP3    H214758   0.727   4.264   0.363  0.6487  1.7413  1.5520
 4918TIP3   OH214759   1.438   2.783   2.030  0.5385  0.2681  0.4251
 4918TIP3    H114760   1.407   2.803   2.118  2.5368 -1.6185  1.6835
 4918TIP3    H214761   1.359   2.778   1.977 -0.9884 -0.9170  2.6486
 4919TIP3   OH214762   3.691   1.752   0.843 -0.3138  0.2859 -0.0597
 4919TIP3    H114763   3.600   1.733   0.868 -0.2370 -0.4174 -0.3083
 4919TIP3    H214764   3.701   1.846   0.860 -1.1573  0.4149 -0.2389
 4920TIP3   OH214765   0.599   1.661   4.923 -0.3207  1.2705  0.4128
 4920TIP3    H114766   0.580   1.751   4.897 -0.9556  1.2119  0.6696
 4920TIP3    H214767   0.693   1.652   4.907 -0.6900  1.1274 -2.2251
 4921TIP3   OH214768   0.933   0.648   0.444 -0.0536 -0.0230 -0.5739
 4921TIP3    H114769   0.947   0.676   0.535 -1.4276  0.0083 -0.3511
 4921TIP3    H214770   0.877   0.716   0.407 -1.8452 -1.4464 -0.5944
 4922TIP3   OH214771   2.955   0.623   4.257 -0.3525  0.0611 -0.7110
 4922TIP3    H114772   3.011   0.566   4.204  2.6251  0.8424  1.3429
 4922TIP3    H214773   2.901   0.562   4.309 -0.2715 -0.7493 -1.5460
 4923TIP3   OH214774   1.536   2.355   0.837  0.0796 -0.3360 -0.1054
 4923TIP3    H114775   1.529   2.325   0.928 -1.9732 -1.8690 -0.6982
 4923TIP3    H214776   1.629   2.378   0.827  0.5433 -0.9583  2.1195
 4924TIP3   OH214777   2.202   1.095   0.003 -0.0215 -0.1407 -0.1672
 4924TIP3    H114778   2.215   1.178  -0.042  2.2253 -0.7406 -0.7660
 4924TIP3    H214779   2.187   1.119   0.094  0.5556  0.9157 -0.3391
 4925TIP3   OH214780   1.361   2.400   3.412  0.2343 -1.1706 -0.2747
 4925TIP3    H114781   1.338   2.471   3.352  1.0377  0.0681  0.8327
 4925TIP3    H214782   1.442   2.364   3.378 -0.6128 -2.1799 -1.3245
 4926TIP3   OH214783   0.414   2.850   3.631 -0.6763  0.2428  0.0542
 4926TIP3    H114784   0.456   2.918   3.683 -1.1147  0.1094  0.5826
 4926TIP3    H214785   0.417   2.772   3.685 -0.6733 -0.0260 -0.3269
 4927TIP3   OH214786   1.817   4.854   0.485  0.4363 -0.4801  0.1335
 4927TIP3    H114787   1.850   4.824   0.401 -0.0700 -0.7062  0.0142
 4927TIP3    H214788   1.882   4.823   0.549  2.8995  2.8567 -0.4618
 4928TIP3   OH214789   5.850   1.678   4.979  0.3724  0.3633  0.2533
 4928TIP3    H114790   5.845   1.618   4.904  0.5000 -0.3610  0.8178
 4928TIP3    H214791   5.762   1.679   5.015 -0.0242  1.7453 -0.6818
 4929TIP3   OH214792   5.734   0.142   4.025 -0.2285 -0.2096  0.2078
 4929TIP3    H114793   5.732   0.080   4.098 -0.4112 -2.1477 -1.3732
 4929TIP3    H214794   5.642   0.156   4.003 -0.1460 -1.7706 -1.3264
 4930TIP3   OH214795   0.215   0.440   2.377 -0.8417 -0.2724 -0.0939
 4930TIP3    H114796   0.221   0.534   2.389  0.2679 -0.2615 -0.6006
 4930TIP3    H214797   0.198   0.405   2.464 -0.4060  0.3379  0.2403
 4931TIP3   OH214798   1.394   0.669   3.834 -0.3706 -0.0930 -0.6452
 4931TIP3    H114799   1.402   0.671   3.738 -1.0640 -0.6384 -0.7225
 4931TIP3    H214800   1.396   0.576   3.856 -2.6577 -0.1319 -0.3683
 4932TIP3   OH214801   4.777   3.114   3.427  0.2967  0.9151 -0.1824
 4932TIP3    H114802   4.834   3.041   3.449  2.6080  1.5424 -3.3429
 4932TIP3    H214803   4.792   3.178   3.496  1.1356 -0.1000  0.6070
 4933TIP3   OH214804   4.721   0.457   3.965  0.2918  0.2212  0.2043
 4933TIP3    H114805   4.648   0.516   3.986  2.4767  2.5810  1.8460
 4933TIP3    H214806   4.691   0.408   3.889 -2.8090  1.3850  0.5282
 4934TIP3   OH214807   2.626   1.558   0.851 -0.3267 -1.1481  0.0671
 4934TIP3    H114808   2.536   1.591   0.850 -0.8149 -2.3063  1.5206
 4934TIP3    H214809   2.628   1.492   0.783 -0.0992 -0.0521 -1.0319
 4935TIP3   OH214810   0.935   5.488   4.161 -0.2408 -0.4747 -0.5086
 4935TIP3    H114811   0.871   5.417   4.151  0.4945 -1.1778 -0.3655
 4935TIP3    H214812   0.900   5.542   4.232 -0.3336 -1.2499  0.0554
 4936TIP3   OH214813   2.426   0.099   2.343  0.4500 -0.1973 -0.0994
 4936TIP3    H114814   2.401   0.176   2.394 -0.5088  0.6552 -1.7751
 4936TIP3    H214815   2.351   0.041   2.348  0.2068  0.0462 -0.8027
 4937TIP3   OH214816   1.312   0.259   5.032  0.4516  0.2227 -0.3958
 4937TIP3    H114817   1.222   0.286   5.048  0.6546  0.0277  1.2352
 4937TIP3    H214818   1.335   0.204   5.107  2.2923  1.1908 -0.1745
 4938TIP3   OH214819   5.089   2.575   3.366  0.0558 -0.1269  0.7236
 4938TIP3    H114820   5.011   2.570   3.421 -0.5970 -2.7051 -0.3052
 4938TIP3    H214821   5.159   2.601   3.426 -1.2750  0.6753  1.9964
 4939TIP3   OH214822   4.140   5.784   0.108  1.4151  0.5234 -0.1540
 4939TIP3    H114823   4.148   5.713   0.045  0.6982 -0.2318  0.5700
 4939TIP3    H214824   4.228   5.795   0.144  1.4198 -0.3866  0.1271
 4940TIP3   OH214825   3.423   4.938   0.126  0.3390  0.2493  0.5784
 4940TIP3    H114826   3.504   4.900   0.092 -0.9501 -0.0734 -2.4377
 4940TIP3    H214827   3.402   4.886   0.203  1.2836 -1.9173 -0.5399
 4941TIP3   OH214828   2.501   3.403   3.811  0.3372 -0.6248 -0.6246
 4941TIP3    H114829   2.550   3.479   3.843  0.3903 -0.6202 -0.7152
 4941TIP3    H214830   2.413   3.414   3.846 -0.2169  0.5116 -2.2292
 4942TIP3   OH214831   3.482   2.968   2.664  0.0318  0.1434  0.8310
 4942TIP3    H114832   3.493   3.020   2.584 -1.7997 -1.0905 -0.3049
 4942TIP3    H214833   3.510   3.025   2.734  2.6937  0.9325 -0.7489
 4943TIP3   OH214834   3.737   2.269   1.222 -0.4991 -0.4712  0.1942
 4943TIP3    H114835   3.719   2.335   1.155 -1.5233 -1.6208 -0.7234
 4943TIP3    H214836   3.721   2.185   1.178 -1.2543 -1.2661  1.8666
 4944TIP3   OH214837   2.400   0.200   0.662 -0.2687  0.5830  0.1961
 4944TIP3    H114838   2.313   0.170   0.688  0.8865 -2.7827  0.6676
 4944TIP3    H214839   2.394   0.212   0.567 -1.1962  0.1859  0.1949
 4945TIP3   OH214840   0.241   4.358   3.299 -0.1142  0.2525 -0.4429
 4945TIP3    H114841   0.218   4.408   3.221 -1.7739 -0.6842 -0.5891
 4945TIP3    H214842   0.312   4.300   3.271 -2.0784 -1.5863 -1.9013
 4946TIP3   OH214843   3.470   4.966   1.232  0.1330 -0.2751  0.4411
 4946TIP3    H114844   3.537   4.899   1.242  0.1845 -0.3693 -0.3946
 4946TIP3    H214845   3.389   4.916   1.217  0.1816 -0.1671 -0.2432
 4947TIP3   OH214846   2.834   2.696   4.531 -0.1329 -0.7924 -0.0274
 4947TIP3    H114847   2.814   2.608   4.498 -0.0411 -1.1440  0.8438
 4947TIP3    H214848   2.859   2.683   4.622 -0.0724  0.1369  0.0992
 4948TIP3   OH214849   6.147   2.895   1.219  0.0600  0.4913 -0.0330
 4948TIP3    H114850   6.060   2.870   1.251  0.1334  0.9081  0.5065
 4948TIP3    H214851   6.139   2.893   1.124 -0.8654  1.5842 -0.0062
 4949TIP3   OH214852   5.070   2.985   2.648 -0.0939 -0.4049  0.0355
 4949TIP3    H114853   5.068   3.073   2.688  1.4146 -0.3590  0.0589
 4949TIP3    H214854   5.059   3.001   2.554  1.4781 -0.0463 -0.1145
 4950TIP3   OH214855   0.280   0.112   4.012  0.4133  0.1650  0.8569
 4950TIP3    H114856   0.227   0.125   3.933  1.0239 -0.4813  0.3274
 4950TIP3    H214857   0.319   0.198   4.029 -1.7760  1.0062  2.0067
 4951TIP3   OH214858   4.796   1.849   4.515 -0.0066 -0.3170  0.0504
 4951TIP3    H114859   4.780   1.844   4.420 -1.8750 -0.3483  0.3301
 4951TIP3    H214860   4.881   1.891   4.522  0.1374 -0.2287 -1.6467
 4952TIP3   OH214861   4.157   0.665   3.998  0.1245 -0.3375 -0.4962
 4952TIP3    H114862   4.083   0.639   3.944 -0.4900  0.3036  0.0196
 4952TIP3    H214863   4.208   0.725   3.943  0.4249 -0.9924 -0.9477
 4953TIP3   OH214864   5.922   0.307   4.458  0.2583  0.6597 -0.0790
 4953TIP3    H114865   5.940   0.239   4.524 -0.5632 -0.5554 -1.0543
 4953TIP3    H214866   5.985   0.376   4.478  0.7222 -0.1101  1.3395
 4954TIP3   OH214867   1.361   3.086   5.041  0.5256  0.1595  0.0102
 4954TIP3    H114868   1.302   3.094   5.116 -0.0771 -0.7786 -0.3401
 4954TIP3    H214869   1.302   3.081   4.965  1.1261  2.4585 -0.7032
 4955TIP3   OH214870   5.980   4.633   2.421 -0.2887  0.4475 -0.8403
 4955TIP3    H114871   5.999   4.603   2.510  1.4592 -0.1059 -1.3710
 4955TIP3    H214872   6.039   4.582   2.365 -1.8812  0.2179 -2.4137
 4956TIP3   OH214873   4.113   1.017   2.035 -0.1366  0.6315  0.1903
 4956TIP3    H114874   4.160   0.986   2.112 -0.4350 -0.0757  0.0976
 4956TIP3    H214875   4.125   0.948   1.969 -1.9455  0.0185  0.4234
 4957TIP3   OH214876   0.301   1.017   1.970  0.2765  0.4799  0.1968
 4957TIP3    H114877   0.363   1.011   2.043  1.8925  0.9940 -1.0758
 4957TIP3    H214878   0.316   0.937   1.920  0.2747  0.8443 -0.3911
 4958TIP3   OH214879   4.397   5.401   5.024 -0.3424 -0.2031 -0.0731
 4958TIP3    H114880   4.443   5.472   5.068 -2.0741  1.9565 -1.5251
 4958TIP3    H214881   4.325   5.444   4.978 -1.6672 -2.9660 -0.7908
 4959TIP3   OH214882   3.451   0.475   3.001 -0.8239 -0.3639  0.0789
 4959TIP3    H114883   3.534   0.516   2.977  0.0684 -2.6254 -1.0892
 4959TIP3    H214884   3.472   0.424   3.080 -0.8973 -1.4075 -0.5529
 4960TIP3   OH214885   1.017   1.799   0.682 -0.8406  0.7393  0.0611
 4960TIP3    H114886   1.014   1.878   0.627 -0.7780  1.2765  0.8256
 4960TIP3    H214887   0.945   1.810   0.744  0.6197  1.3222  1.7001
 4961TIP3   OH214888   1.087   2.825   4.563 -0.4124 -0.0429  0.2480
 4961TIP3    H114889   1.059   2.873   4.642  0.6534  0.3033  0.4269
 4961TIP3    H214890   1.168   2.868   4.536 -0.4661 -0.5249 -0.7211
 4962TIP3   OH214891   2.401   4.011   0.931  0.3789 -0.0502  0.1943
 4962TIP3    H114892   2.343   4.079   0.896 -1.6584 -1.6965  0.2095
 4962TIP3    H214893   2.454   3.984   0.856 -0.6837 -0.2908 -0.4909
 4963TIP3   OH214894   1.215   1.481   0.439  0.3456 -0.3174 -0.5044
 4963TIP3    H114895   1.285   1.542   0.465 -0.7472 -0.0485  2.2133
 4963TIP3    H214896   1.193   1.435   0.520 -2.8906 -0.1093 -1.1350
 4964TIP3   OH214897   4.871   0.437   3.138 -0.0036  0.4821  0.2263
 4964TIP3    H114898   4.899   0.463   3.050 -0.0477  0.0812  0.0938
 4964TIP3    H214899   4.952   0.419   3.185  0.0220  0.7400  0.2807
 4965TIP3   OH214900   1.733   2.636   5.109 -0.2607  0.2613 -0.1849
 4965TIP3    H114901   1.664   2.585   5.152 -2.1659  2.5683 -0.3039
 4965TIP3    H214902   1.726   2.723   5.148 -0.2678  1.7082 -3.1762
 4966TIP3   OH214903   5.117   5.881   3.961 -0.1469 -0.0714 -0.8089
 4966TIP3    H114904   5.086   5.813   3.902 -2.6918  0.0760  0.2397
 4966TIP3    H214905   5.205   5.852   3.987 -0.2940 -1.8038 -2.0754
 4967TIP3   OH214906   0.053   2.872   0.128 -0.3148 -0.1607  0.6034
 4967TIP3    H114907  -0.021   2.883   0.188  0.4218 -1.4084  1.8161
 4967TIP3    H214908   0.049   2.779   0.103 -0.2933  0.2167 -0.8903
 4968TIP3   OH214909   4.967   3.573   0.026  0.0037 -0.1528 -0.0362
 4968TIP3    H114910   4.977   3.480   0.043  0.0440  0.0391  1.0959
 4968TIP3    H214911   5.036   3.614   0.080  0.4033  0.4901 -1.0107
 4969TIP3   OH214912   4.337   3.597   3.885  0.1258  0.1881  0.0722
 4969TIP3    H114913   4.378   3.516   3.856 -0.9974 -0.1025 -0.7608
 4969TIP3    H214914   4.302   3.637   3.805 -0.7791  0.6567  0.6759
 4970TIP3   OH214915   3.777   3.005   2.597  0.0550  0.3784  0.0217
 4970TIP3    H114916   3.756   3.051   2.516  1.0454 -0.5908 -0.8289
 4970TIP3    H214917   3.693   2.991   2.640 -0.3894  1.7248 -0.3813
 4971TIP3   OH214918   2.168   0.536   3.171  0.3838  0.0480  0.9221
 4971TIP3    H114919   2.262   0.541   3.186  0.5017  1.9406 -0.1909
 4971TIP3    H214920   2.157   0.464   3.109  1.5817  2.1349 -1.9366
 4972TIP3   OH214921   1.713   0.811   0.291  0.5566 -0.3078 -0.3251
 4972TIP3    H114922   1.631   0.782   0.331  1.0699 -1.7255 -0.2573
 4972TIP3    H214923   1.690   0.890   0.243 -0.1911  1.2309  2.3666
 4973TIP3   OH214924   1.573   3.678   3.010 -0.0770 -0.3086 -0.3120
 4973TIP3    H114925   1.539   3.767   3.013 -1.3214 -0.6877 -2.0362
 4973TIP3    H214926   1.539   3.636   3.090  0.8252  0.8093  0.7039
 4974TIP3   OH214927   1.881   4.225   2.630 -0.3044  0.9864 -0.4740
 4974TIP3    H114928   1.896   4.271   2.547  0.7018  0.4891 -0.5949
 4974TIP3    H214929   1.968   4.216   2.668 -0.4991 -0.5427 -0.3227
 4975TIP3   OH214930   3.719   4.772   2.408 -0.1775  0.3171  0.3893
 4975TIP3    H114931   3.798   4.813   2.443 -0.3400 -0.4205  1.6751
 4975TIP3    H214932   3.740   4.679   2.406 -0.0809  0.3421 -1.7944
 4976TIP3   OH214933   4.597   5.583   0.422  0.2805  0.2287  0.0549
 4976TIP3    H114934   4.573   5.617   0.508  3.0520  0.1970  0.9309
 4976TIP3    H214935   4.664   5.643   0.390  1.2554 -1.2785 -0.8672
 4977TIP3   OH214936   5.853   3.967   4.748 -0.4443 -0.1210  0.2977
 4977TIP3    H114937   5.795   3.967   4.671 -0.1129 -0.6229  0.0409
 4977TIP3    H214938   5.837   3.882   4.790 -0.6540  0.1694  0.8100
 4978TIP3   OH214939   2.771   2.082   5.056  0.1373  0.4840 -0.0251
 4978TIP3    H114940   2.732   2.047   4.976  0.0956 -0.1473  0.2668
 4978TIP3    H214941   2.736   2.027   5.126 -0.8168  1.8064  0.5850
 4979TIP3   OH214942   1.924   0.538   0.530 -0.0835  0.3475 -0.7221
 4979TIP3    H114943   1.884   0.465   0.481  0.0528 -0.0216 -0.2934
 4979TIP3    H214944   1.995   0.497   0.579  0.1766  0.8264 -0.6995
 4980TIP3   OH214945   3.913   5.347   4.752 -0.2254 -0.3037  0.5330
 4980TIP3    H114946   3.916   5.359   4.847  0.4618 -0.3751  0.5221
 4980TIP3    H214947   3.899   5.253   4.741 -0.7271 -0.2358  0.5642
 4981TIP3   OH214948   1.773   3.722   4.640  0.3919  0.1075 -0.0771
 4981TIP3    H114949   1.711   3.650   4.637  1.2497 -0.6246 -0.9383
 4981TIP3    H214950   1.743   3.782   4.571  0.0387  0.2825  0.2240
 4982TIP3   OH214951   4.941   4.955   1.177 -0.4371 -0.1848 -0.3521
 4982TIP3    H114952   4.914   4.973   1.087  1.5190 -2.3251 -1.4506
 4982TIP3    H214953   4.880   4.887   1.207  0.2801 -1.0900 -0.8969
 4983TIP3   OH214954   4.646   3.698   2.180 -0.1733  0.3289  0.5964
 4983TIP3    H114955   4.706   3.623   2.188 -1.7787 -1.0060  0.7266
 4983TIP3    H214956   4.585   3.672   2.110  0.0775  2.1579 -0.3586
 4984TIP3   OH214957   0.792   3.196   0.867 -0.0294  0.3630  0.2896
 4984TIP3    H114958   0.797   3.195   0.771  1.2302  2.2148  0.2686
 4984TIP3    H214959   0.711   3.243   0.886 -1.1802 -1.4982  0.1949
 4985TIP3   OH214960   0.688   3.189   0.563 -0.1432 -0.3546 -0.2482
 4985TIP3    H114961   0.683   3.093   0.565  0.3502 -0.3830  1.3196
 4985TIP3    H214962   0.741   3.209   0.487  0.0134 -1.3506 -0.4128
 4986TIP3   OH214963   4.565   0.132   4.951  0.4784 -0.0823 -0.0691
 4986TIP3    H114964   4.640   0.178   4.915  0.1022  0.5411 -0.0672
 4986TIP3    H214965   4.529   0.192   5.017  0.0532 -0.4225  0.0135
 4987TIP3   OH214966   5.178   1.010   3.004 -0.4172  0.3287  0.1922
 4987TIP3    H114967   5.124   1.006   3.083 -0.4175 -1.4047  0.1364
 4987TIP3    H214968   5.262   1.046   3.035 -0.9076  1.0816  0.6747
 4988TIP3   OH214969   4.726   1.335   5.097 -0.3321 -0.2856 -0.1804
 4988TIP3    H114970   4.696   1.270   5.161 -1.2819  1.0571  0.8075
 4988TIP3    H214971   4.782   1.286   5.037 -0.0298 -1.7562  1.2320
 4989TIP3   OH214972   3.954   3.358   0.100 -0.1618  0.1910  0.3538
 4989TIP3    H114973   4.018   3.424   0.128  1.2667 -0.9287 -0.1126
 4989TIP3    H214974   3.929   3.385   0.011  1.4501 -0.5596 -0.3785
 4990TIP3   OH214975   5.610   0.427   3.025  0.1103  0.1548 -0.0035
 4990TIP3    H114976   5.540   0.371   3.061 -0.2133  0.6986  0.2156
 4990TIP3    H214977   5.665   0.366   2.975  0.7686 -0.6746  1.6829
 4991TIP3   OH214978   1.723   5.985   2.552 -0.1007  0.7900  0.3341
 4991TIP3    H114979   1.734   5.936   2.633  1.0261 -1.3457 -1.0018
 4991TIP3    H214980   1.628   5.993   2.542 -0.5234 -3.0189 -0.3033
 4992TIP3   OH214981   1.118   2.477   0.813  0.0116 -0.0378  0.0421
 4992TIP3    H114982   1.137   2.561   0.856 -1.4878  0.0260  0.6106
 4992TIP3    H214983   1.044   2.441   0.862  0.6532 -1.7209 -0.1866
 4993TIP3   OH214984   4.475   4.793   3.013  0.2693  0.3749  0.2512
 4993TIP3    H114985   4.410   4.728   3.040 -0.8647  1.5850  0.5304
 4993TIP3    H214986   4.424   4.870   2.990  1.3890  0.3888 -2.5506
 4994TIP3   OH214987   5.292   5.342   1.916  0.2203  0.4042  0.2260
 4994TIP3    H114988   5.357   5.312   1.979 -0.6239  1.9517  1.9389
 4994TIP3    H214989   5.342   5.390   1.850  0.8218  2.9992  2.3811
 4995TIP3   OH214990   3.534   2.653   4.702 -0.4221 -0.3937  0.3857
 4995TIP3    H114991   3.454   2.637   4.652 -1.1497 -1.2926  1.7420
 4995TIP3    H214992   3.522   2.600   4.782  1.9313 -1.3000  0.2145
 4996TIP3   OH214993   3.083   0.160   4.198  0.2276 -0.6997 -0.2061
 4996TIP3    H114994   3.021   0.135   4.129 -1.0455 -1.5285  1.1722
 4996TIP3    H214995   3.147   0.089   4.200 -0.6223 -1.4713  0.4648
 4997TIP3   OH214996   4.161   0.612   1.882  0.6663  0.5370  0.4967
 4997TIP3    H114997   4.127   0.609   1.793  1.5136 -0.4770  0.1846
 4997TIP3    H214998   4.166   0.520   1.909 -2.8582  0.8483  2.9265
 4998TIP3   OH214999   5.044   5.912   2.029  0.0548 -0.4352 -0.1706
 4998TIP3    H115000   4.973   5.860   1.992 -0.6675  0.5873 -0.2633
 4998TIP3    H215001   5.102   5.929   1.955  0.1603 -0.8644 -0.1934
 4999TIP3   OH215002   0.623   3.835   0.236  0.0863 -0.2389  0.7396
 4999TIP3    H115003   0.536   3.839   0.196  0.4667  0.6683 -0.0401
 4999TIP3    H215004   0.681   3.807   0.165  1.1213  3.4315 -0.1048
 5000TIP3   OH215005   1.059   4.496   4.213  0.1292  0.0572  0.0846
 5000TIP3    H115006   1.152   4.473   4.208 -0.1955 -1.0091 -1.7716
 5000TIP3    H215007   1.058   4.591   4.222  1.3922  0.0433  0.6241
 5001TIP3   OH215008   0.756   0.014   3.178  0.2126  0.7285 -0.5893
 5001TIP3    H115009   0.703   0.084   3.138 -1.7833 -1.0019 -1.1484
 5001TIP3    H215010   0.797  -0.030   3.103 -1.1626 -0.6660 -0.5901
 5002TIP3   OH215011   6.220   1.533   4.983  0.6043 -0.3008  0.5512
 5002TIP3    H115012   6.307   1.494   4.991  0.6295 -0.4491 -0.3251
 5002TIP3    H215013   6.165   1.462   4.952  1.1569  0.8203 -3.5870
 5003TIP3   OH215014   1.900   0.825   4.324 -0.5415 -0.8583  0.3508
 5003TIP3    H115015   1.946   0.905   4.297 -0.1754 -0.7286  1.3117
 5003TIP3    H215016   1.921   0.816   4.417 -2.7351 -0.6044  0.9313
 5004TIP3   OH215017   5.118   5.395   2.406  0.5015 -0.0889 -0.6633
 5004TIP3    H115018   5.022   5.396   2.406  0.4966 -0.3662 -0.8749
 5004TIP3    H215019   5.143   5.452   2.334  0.4665 -1.2558 -1.6327
 5005TIP3   OH215020   1.181   4.195   2.737  0.0196  0.1755 -0.5991
 5005TIP3    H115021   1.268   4.158   2.725 -1.3059 -2.7554 -2.1981
 5005TIP3    H215022   1.171   4.202   2.832  1.3997 -1.0257 -0.3272
 5006TIP3   OH215023   0.960   1.485   4.050 -0.1150  0.0087 -0.4610
 5006TIP3    H115024   1.041   1.465   4.003  3.1563  1.5003  3.8286
 5006TIP3    H215025   0.978   1.569   4.092 -2.6187 -1.0443  3.1687
 5007TIP3   OH215026   4.148   4.662   1.164  0.5123  0.1627  0.0693
 5007TIP3    H115027   4.119   4.720   1.093 -0.6918  0.1608  0.5341
 5007TIP3    H215028   4.081   4.672   1.231  1.7390  0.3203  1.3041
 5008TIP3   OH215029   5.734   4.132   2.491  0.3209 -0.0944 -0.1000
 5008TIP3    H115030   5.819   4.130   2.535  0.6030 -0.4132 -0.6520
 5008TIP3    H215031   5.675   4.172   2.555  0.8326 -0.0904  0.3770
 5009TIP3   OH215032   3.591   3.258   4.879  0.5159  0.5987  0.8539
 5009TIP3    H115033   3.609   3.180   4.826 -1.8860 -1.3269  2.6473
 5009TIP3    H215034   3.677   3.290   4.904  1.6075 -0.8765 -0.7370
 5010TIP3   OH215035   1.568   6.000   0.246 -0.0865  0.3025 -0.5137
 5010TIP3    H115036   1.615   5.979   0.165 -0.6921 -0.2125 -0.7361
 5010TIP3    H215037   1.522   5.920   0.268  0.0527  0.4538  0.3338
 5011TIP3   OH215038   0.859   3.775   3.062 -0.3452  0.2768  0.2411
 5011TIP3    H115039   0.952   3.772   3.082 -0.4203  2.1790  1.1293
 5011TIP3    H215040   0.854   3.774   2.967  0.5575  0.0658  0.1903
 5012TIP3   OH215041   4.092   4.768   4.286 -0.2565  0.3815 -0.2141
 5012TIP3    H115042   4.028   4.839   4.274 -0.5039  0.2697  0.3762
 5012TIP3    H215043   4.090   4.720   4.204 -0.1215  1.0333 -0.6082
 5013TIP3   OH215044   2.399   0.183   0.396  0.3746 -0.2105 -0.1972
 5013TIP3    H115045   2.349   0.110   0.360 -1.0795  0.1338  1.0176
 5013TIP3    H215046   2.478   0.187   0.343 -0.7815 -0.9265 -2.0651
 5014TIP3   OH215047   2.807   5.490   3.751  0.1360  0.0744  0.2672
 5014TIP3    H115048   2.749   5.416   3.769  0.3276 -0.2164 -0.2875
 5014TIP3    H215049   2.844   5.513   3.836  0.0507 -0.4529  0.4501
 5015TIP3   OH215050   2.584   4.086   1.763  0.2399 -0.2543 -0.5363
 5015TIP3    H115051   2.622   4.074   1.850  1.0285  2.6362 -0.3927
 5015TIP3    H215052   2.656   4.121   1.710 -0.8218  0.2117 -1.7226
 5016TIP3   OH215053   5.614   0.047   2.530  0.2968  0.3780 -0.2367
 5016TIP3    H115054   5.553   0.007   2.592 -0.1150  0.2027 -0.7459
 5016TIP3    H215055   5.687  -0.014   2.525 -0.6492 -0.7168 -1.5587
 5017TIP3   OH215056   4.402   5.010   3.494 -0.0837  0.0048  0.0019
 5017TIP3    H115057   4.410   5.090   3.442  0.4011 -0.7592 -1.1390
 5017TIP3    H215058   4.430   5.036   3.582  0.9715  0.8623 -0.5654
 5018TIP3   OH215059   1.274   4.034   1.857 -0.2460  0.5762  0.2903
 5018TIP3    H115060   1.355   4.047   1.808  0.4677 -1.9149  0.6347
 5018TIP3    H215061   1.293   4.067   1.944 -0.8560  3.2058 -0.4840
 5019TIP3   OH215062   5.505   4.288   0.869 -0.3120 -1.1989  0.2671
 5019TIP3    H115063   5.428   4.274   0.924  0.7654 -0.8524  1.9643
 5019TIP3    H215064   5.477   4.265   0.781 -2.9046  0.7188  0.4752
 5020TIP3   OH215065   1.698   3.368   2.964  0.5791 -0.4595  0.4968
 5020TIP3    H115066   1.719   3.453   2.925 -0.3322 -0.0675  0.8227
 5020TIP3    H215067   1.610   3.349   2.933  1.0074 -1.6031 -0.0812
 5021TIP3   OH215068   3.677   4.088   2.991 -0.0927  0.1510 -0.1444
 5021TIP3    H115069   3.600   4.074   2.936 -1.0982 -0.2057  1.2938
 5021TIP3    H215070   3.644   4.082   3.080  1.6237 -0.0321  0.5122
 5022TIP3   OH215071   2.545   1.481   2.492  0.6073 -0.0718 -0.1404
 5022TIP3    H115072   2.572   1.535   2.418  0.7921 -1.3355 -1.0196
 5022TIP3    H215073   2.526   1.544   2.562  0.6881  1.1276 -1.1678
 5023TIP3   OH215074   1.658   3.274   4.631 -0.1334  0.5168  0.6332
 5023TIP3    H115075   1.671   3.191   4.586 -0.3240  0.2068  1.1412
 5023TIP3    H215076   1.578   3.261   4.683  0.0287  0.8997  0.9864
 5024TIP3   OH215077   0.167   0.161   4.479 -0.3242 -0.0042 -0.6224
 5024TIP3    H115078   0.136   0.183   4.391  1.8785 -1.1269 -1.7627
 5024TIP3    H215079   0.239   0.223   4.495 -0.1513 -0.3674  0.0291
 5025TIP3   OH215080   5.947   3.679   2.497  0.4492  0.4616 -0.4861
 5025TIP3    H115081   5.956   3.738   2.572  2.0241 -0.5824  0.2071
 5025TIP3    H215082   5.869   3.711   2.450 -0.1544  1.5857  1.1811
 5026TIP3   OH215083   2.637   4.370   2.907  0.4308  0.1127 -0.5889
 5026TIP3    H115084   2.681   4.439   2.857 -0.5769  1.2670  0.0291
 5026TIP3    H215085   2.662   4.387   2.998  0.3156 -0.4487 -0.4479
 5027TIP3   OH215086   2.098   0.486   0.760 -0.0257  0.0814  0.2285
 5027TIP3    H115087   2.125   0.564   0.808  0.4010  1.4712 -2.0872
 5027TIP3    H215088   2.157   0.417   0.789 -0.4213  0.5633  2.3454
 5028TIP3   OH215089   3.827   1.961   4.024 -0.7747  0.1596 -0.2336
 5028TIP3    H115090   3.812   2.055   4.012 -1.5280  0.0805  0.0311
 5028TIP3    H215091   3.891   1.956   4.095 -0.1443  0.4877 -0.7671
 5029TIP3   OH215092   0.943   4.060   0.446 -0.9383 -0.2773 -0.2642
 5029TIP3    H115093   0.984   4.068   0.360  0.3241 -0.3855  0.2975
 5029TIP3    H215094   1.012   4.025   0.502 -1.5440  0.3756  0.9393
 5030TIP3   OH215095   0.769   1.172   2.164  0.5461 -0.1803 -0.2538
 5030TIP3    H115096   0.717   1.236   2.212  2.0138 -0.8689  2.4494
 5030TIP3    H215097   0.847   1.220   2.137  0.1462 -0.0353 -1.1949
 5031TIP3   OH215098   5.552   0.768   2.424 -0.1859 -0.4627  0.0651
 5031TIP3    H115099   5.558   0.863   2.424 -2.3876 -0.2663  0.4343
 5031TIP3    H215100   5.622   0.739   2.482 -0.0404  0.9929  0.6531
 5032TIP3   OH215101   6.315   5.758   0.358  0.0727  0.5184  0.6563
 5032TIP3    H115102   6.245   5.727   0.301  2.0699 -0.6995 -1.2714
 5032TIP3    H215103   6.288   5.732   0.446 -2.0985  0.5466  0.0473
 5033TIP3   OH215104   4.189   4.084   4.378 -0.2939  0.5115  0.4167
 5033TIP3    H115105   4.146   4.154   4.330 -1.4348 -0.7784 -0.5288
 5033TIP3    H215106   4.118   4.042   4.427  0.6329  0.9684  2.2203
 5034TIP3   OH215107   0.485   1.609   0.306  0.1147  0.3019 -0.0356
 5034TIP3    H115108   0.434   1.583   0.382 -0.5582  1.1538 -0.1827
 5034TIP3    H215109   0.576   1.603   0.334 -0.1044 -0.1115  0.5922
 5035TIP3   OH215110   4.381   0.232   4.408 -0.1188  0.8813  0.3232
 5035TIP3    H115111   4.447   0.174   4.446 -0.0750  1.1116  0.6077
 5035TIP3    H215112   4.428   0.284   4.343 -0.2058  0.4472 -0.0889
 5036TIP3   OH215113   2.916   5.396   2.766  0.0201 -0.0905  0.2171
 5036TIP3    H115114   2.879   5.331   2.825 -1.5837  0.1702 -0.4453
 5036TIP3    H215115   2.922   5.352   2.682 -0.5933  0.4316 -0.1158
 5037TIP3   OH215116   1.566   2.203   4.691  0.0257  0.5798 -0.2299
 5037TIP3    H115117   1.470   2.205   4.682  0.1176  1.0984 -1.1995
 5037TIP3    H215118   1.592   2.121   4.650 -0.0249  0.2895  0.3126
 5038TIP3   OH215119   4.377   0.810   3.937 -0.0619  0.5097  0.1894
 5038TIP3    H115120   4.449   0.761   3.898 -0.2811 -0.9808  1.5422
 5038TIP3    H215121   4.418   0.888   3.975  1.2060 -1.0947  2.3597
 5039TIP3   OH215122   0.408   5.739   0.455 -0.2999  0.0497  0.0596
 5039TIP3    H115123   0.365   5.655   0.471 -0.3471  0.4295  2.1183
 5039TIP3    H215124   0.444   5.764   0.539  1.4245  1.1819 -0.9625
 5040TIP3   OH215125   1.645   1.083   5.093 -0.0671  0.1295  0.0740
 5040TIP3    H115126   1.674   1.001   5.132 -0.9623  0.0151  0.5339
 5040TIP3    H215127   1.618   1.061   5.005 -0.4218 -0.0916  0.2395
 5041TIP3   OH215128   4.984   5.062   4.878 -0.1767 -0.1426  0.0666
 5041TIP3    H115129   5.073   5.077   4.909  0.6896 -1.5091 -1.6405
 5041TIP3    H215130   4.943   5.011   4.948  1.1293 -1.5104 -0.1148
 5042TIP3   OH215131   5.204   5.772   3.078  0.1848 -0.0368  0.4364
 5042TIP3    H115132   5.283   5.770   3.024 -1.0769  0.7098 -1.5601
 5042TIP3    H215133   5.132   5.767   3.015 -1.4241  2.6677  1.8658
 5043TIP3   OH215134   3.383   2.074   2.791  0.0023 -0.4008  0.0621
 5043TIP3    H115135   3.402   1.981   2.795 -1.4301 -0.7068  0.1056
 5043TIP3    H215136   3.409   2.100   2.702 -0.0882 -0.9553 -0.1286
 5044TIP3   OH215137   3.863   0.951   2.931 -0.3632 -0.0839 -0.0847
 5044TIP3    H115138   3.851   1.014   3.001 -0.5479 -0.5101  0.2753
 5044TIP3    H215139   3.827   0.993   2.853  0.2011  0.5458 -0.0095
 5045TIP3   OH215140   4.647   1.058   1.134  0.3345 -0.1785 -0.6977
 5045TIP3    H115141   4.739   1.048   1.110  0.1357 -0.9570 -1.1634
 5045TIP3    H215142   4.621   1.142   1.096  1.3140  0.9175  0.9443
 5046TIP3   OH215143   1.657   3.857   3.677 -0.0310  0.2694 -0.0715
 5046TIP3    H115144   1.594   3.926   3.654 -1.7086 -1.1085  0.1619
 5046TIP3    H215145   1.687   3.823   3.593 -1.3443 -0.5502 -0.2416
 5047TIP3   OH215146   5.744   2.885   1.157  0.4415 -0.2211 -0.3812
 5047TIP3    H115147   5.781   2.864   1.071 -0.0056 -0.6321 -0.4714
 5047TIP3    H215148   5.814   2.863   1.219  1.2105  1.1444 -0.6973
 5048TIP3   OH215149   5.094   0.566   2.905  0.0062  0.1529 -0.6282
 5048TIP3    H115150   5.161   0.599   2.965 -0.5581 -1.4089  0.9762
 5048TIP3    H215151   5.127   0.481   2.877 -0.9975 -0.3743 -0.2723
 5049TIP3   OH215152   1.299   0.156   1.794 -0.1990 -0.1369 -0.0033
 5049TIP3    H115153   1.341   0.217   1.734  1.7788 -0.8586  0.5549
 5049TIP3    H215154   1.317   0.070   1.757  3.0717 -0.7796  2.5951
 5050TIP3   OH215155   3.296   5.632   5.078 -0.2887 -0.3126 -0.5142
 5050TIP3    H115156   3.258   5.560   5.128  0.2714  0.3361  0.8765
 5050TIP3    H215157   3.371   5.661   5.129 -0.1051  0.8301 -1.3897
 5051TIP3   OH215158   4.803   2.130   0.483  0.0971  0.0970 -0.4501
 5051TIP3    H115159   4.885   2.168   0.451 -0.9321  2.3940 -0.5559
 5051TIP3    H215160   4.810   2.134   0.579 -0.4664  1.8249 -0.4338
 5052TIP3   OH215161   2.564   4.656   0.447  0.1910  0.0144  0.1979
 5052TIP3    H115162   2.579   4.561   0.439  0.4380 -0.0459  1.2968
 5052TIP3    H215163   2.617   4.683   0.522 -0.8181  0.8099  0.6574
 5053TIP3   OH215164   0.381   1.939   1.086  0.2814 -0.0521  0.1439
 5053TIP3    H115165   0.392   1.955   1.180 -0.3148 -0.0395  0.2186
 5053TIP3    H215166   0.373   1.844   1.079 -1.3923  0.0498  0.3189
 5054TIP3   OH215167   0.398   4.354   0.396  0.1339  0.3805  0.5186
 5054TIP3    H115168   0.387   4.271   0.349 -0.0086 -0.2722  1.6671
 5054TIP3    H215169   0.481   4.389   0.364 -0.2820  0.3010 -0.7129
 5055TIP3   OH215170   4.653   4.840   4.854 -0.3041  0.0449 -0.0162
 5055TIP3    H115171   4.737   4.817   4.815 -0.0375 -0.8028  1.0454
 5055TIP3    H215172   4.599   4.867   4.779  0.9195  0.6834 -0.6926
 5056TIP3   OH215173   2.145   2.829   3.984 -0.3706 -0.5085 -0.2096
 5056TIP3    H115174   2.217   2.853   3.925  0.2313  0.9238  1.0314
 5056TIP3    H215175   2.083   2.902   3.977 -0.1198 -0.1392  1.1643
 5057TIP3   OH215176   0.640   1.281   1.218 -0.3926 -0.2716 -0.7493
 5057TIP3    H115177   0.675   1.344   1.281  1.0526 -1.2209 -0.5557
 5057TIP3    H215178   0.703   1.282   1.145  0.0409 -1.9374 -0.4453
 5058TIP3   OH215179   0.259   3.949   1.418 -0.3115  0.3057 -0.0383
 5058TIP3    H115180   0.201   3.992   1.356 -1.8632  0.3101  1.3393
 5058TIP3    H215181   0.342   3.998   1.411 -0.5003  0.4234 -1.8941
 5059TIP3   OH215182   3.338   4.979   2.992  0.3859  0.6947  0.2450
 5059TIP3    H115183   3.385   4.903   2.958  1.3273  1.8963 -1.2442
 5059TIP3    H215184   3.247   4.952   2.994  0.6334 -0.2849 -0.8189
 5060TIP3   OH215185   4.034   1.217   2.480 -0.1821 -0.0588 -0.8347
 5060TIP3    H115186   3.980   1.282   2.435  0.5558  0.6199 -0.7453
 5060TIP3    H215187   3.980   1.138   2.480 -1.2299  0.6328 -0.6437
 5061TIP3   OH215188   2.468   0.634   4.280 -0.4118 -0.1315  0.3841
 5061TIP3    H115189   2.553   0.644   4.322 -0.3101  1.3617 -0.1434
 5061TIP3    H215190   2.488   0.627   4.186 -0.8412 -0.3669  0.3052
 5062TIP3   OH215191   5.829   3.360   3.031 -0.8488  0.0545  0.1894
 5062TIP3    H115192   5.823   3.444   2.984 -1.9166 -0.7932 -1.2738
 5062TIP3    H215193   5.907   3.369   3.086 -0.0325  1.4420 -1.1020
 5063TIP3   OH215194   2.108   2.450   0.786  0.8276  0.0435 -0.0318
 5063TIP3    H115195   2.140   2.536   0.761  0.2797  0.2119 -0.1493
 5063TIP3    H215196   2.115   2.448   0.882 -2.9520  1.7766  0.4363
 5064TIP3   OH215197   3.484   4.664   2.606 -0.2330  0.3010 -0.5089
 5064TIP3    H115198   3.407   4.634   2.557  0.9655 -1.7173 -1.2296
 5064TIP3    H215199   3.537   4.710   2.542 -0.2606  0.6380 -0.2930
 5065TIP3   OH215200   0.486   3.423   0.511 -0.5999  0.1262 -0.3803
 5065TIP3    H115201   0.491   3.478   0.590 -1.0394  0.3940 -0.5357
 5065TIP3    H215202   0.559   3.362   0.521 -0.6397  0.1631  0.2302
 5066TIP3   OH215203   5.073   3.305   0.082  0.1398 -0.1937 -0.7018
 5066TIP3    H115204   5.123   3.285   0.161  0.7212 -1.7691 -1.4184
 5066TIP3    H215205   4.988   3.263   0.095  0.2410 -0.4674 -0.9047
 5067TIP3   OH215206   1.521   4.051   4.995 -0.2154 -0.2241  0.2568
 5067TIP3    H115207   1.481   4.130   5.032 -0.8111 -0.1175 -0.5691
 5067TIP3    H215208   1.447   3.993   4.976  0.1165 -0.5150 -0.1846
 5068TIP3   OH215209   5.592   5.231   0.095 -0.0237  0.0964  0.2177
 5068TIP3    H115210   5.511   5.251   0.046 -0.3944  0.2194  0.8659
 5068TIP3    H215211   5.573   5.260   0.184  0.4659 -0.5920  0.5485
 5069TIP3   OH215212   1.020   5.263   3.639  0.5637 -0.0944  0.4913
 5069TIP3    H115213   0.960   5.191   3.622 -0.4320  0.7177  0.4551
 5069TIP3    H215214   0.972   5.320   3.699  1.1032  0.8170  0.0778
 5070TIP3   OH215215   2.347   4.000  -0.013  0.1689  0.0422 -0.2852
 5070TIP3    H115216   2.381   4.026   0.072  0.7266 -1.8984  0.1304
 5070TIP3    H215217   2.371   3.907  -0.022 -0.8334 -0.1011 -2.0734
 5071TIP3   OH215218   1.092   3.333   2.308  0.3926  0.8201  0.0810
 5071TIP3    H115219   1.141   3.386   2.371 -1.3484  3.0683 -0.3261
 5071TIP3    H215220   1.149   3.328   2.232  1.2347  0.7600  0.6990
 5072TIP3   OH215221   4.171   0.946   2.779  0.2204  0.4197  0.6711
 5072TIP3    H115222   4.175   1.018   2.717  2.4927 -1.7583 -2.0005
 5072TIP3    H215223   4.092   0.897   2.754 -0.1228  0.7848  1.0349
 5073TIP3   OH215224   4.281   4.658   4.891  0.1508  0.4022 -0.6057
 5073TIP3    H115225   4.244   4.626   4.809 -1.4607  2.0488 -0.5850
 5073TIP3    H215226   4.243   4.745   4.902 -0.2392 -0.0402  2.2367
 5074TIP3   OH215227   1.880   2.020   0.031  0.0750  0.1701 -0.6504
 5074TIP3    H115228   1.791   2.012  -0.004  0.5500 -2.2242 -1.5112
 5074TIP3    H215229   1.909   1.929   0.043  2.0339  0.8981  0.6417
 5075TIP3   OH215230   6.238   5.325   1.658 -0.0038 -0.3778  0.0893
 5075TIP3    H115231   6.333   5.330   1.651 -0.1257  1.0484 -1.1117
 5075TIP3    H215232   6.210   5.416   1.672 -1.2349 -0.6900 -0.2142
 5076TIP3   OH215233   4.716   5.625   2.642 -0.7749 -0.0301  0.1637
 5076TIP3    H115234   4.625   5.653   2.635 -1.2009 -1.1006  1.0969
 5076TIP3    H215235   4.732   5.618   2.736  0.6795  1.3773  0.0522
 5077TIP3   OH215236   5.044   5.741   0.834  0.0386 -0.7644 -0.5466
 5077TIP3    H115237   5.029   5.705   0.922  0.2166 -0.7411 -0.5063
 5077TIP3    H215238   4.957   5.744   0.794 -0.0760 -0.5579 -0.2865
 5078TIP3   OH215239   0.216   5.340   3.530 -0.4369  0.1562  0.4707
 5078TIP3    H115240   0.198   5.248   3.509 -2.2129  0.7533 -0.8632
 5078TIP3    H215241   0.214   5.384   3.445  0.2374  1.4735  1.1111
 5079TIP3   OH215242   1.918   4.828   1.771  0.2153 -0.6980 -1.1162
 5079TIP3    H115243   2.008   4.825   1.803 -0.1437 -1.6096 -0.1811
 5079TIP3    H215244   1.922   4.785   1.686  0.5763 -1.1256 -0.8859
 5080TIP3   OH215245   5.152   0.380   2.100 -0.0269  0.2736 -0.0282
 5080TIP3    H115246   5.063   0.373   2.134  0.2057  1.0270  0.7685
 5080TIP3    H215247   5.205   0.333   2.164  0.4033  1.5947  0.6164
 5081TIP3   OH215248   4.150   3.140   0.048 -0.3014 -0.4341 -0.2283
 5081TIP3    H115249   4.176   3.230   0.066  1.0496 -0.8945  0.2737
 5081TIP3    H215250   4.229   3.089   0.062 -1.1280 -1.7522 -0.1445
 5082TIP3   OH215251   0.706   3.825   2.607 -0.1629  0.0590  0.1203
 5082TIP3    H115252   0.733   3.858   2.522  0.8329  0.3178  0.5246
 5082TIP3    H215253   0.611   3.836   2.608 -0.0675  1.0567 -0.5321
 5083TIP3   OH215254   5.481   0.782   5.109 -0.1792  0.3466  0.0617
 5083TIP3    H115255   5.527   0.832   5.041  0.2694  0.8227  0.7091
 5083TIP3    H215256   5.526   0.804   5.190 -1.3485  0.5664  0.6705
 5084TIP3   OH215257   4.315   1.583   3.645  0.3001  0.0067 -0.9811
 5084TIP3    H115258   4.410   1.578   3.660  0.5352  1.6314 -1.7338
 5084TIP3    H215259   4.280   1.622   3.725  0.0800 -1.5993 -0.2450
 5085TIP3   OH215260   2.920   5.570   0.215  0.3760 -0.2056 -0.1633
 5085TIP3    H115261   2.937   5.515   0.291  2.0774  0.5623  0.0650
 5085TIP3    H215262   2.996   5.628   0.209 -1.8218  3.0006  0.3282
 5086TIP3   OH215263   4.145   4.344   3.011 -0.3259  0.4909 -0.8085
 5086TIP3    H115264   4.065   4.292   3.007 -0.8396  1.3223 -2.1519
 5086TIP3    H215265   4.167   4.362   2.919  1.8673 -0.3851 -0.5102
 5087TIP3   OH215266   3.495   5.147   2.088 -0.1023 -0.5810  0.1131
 5087TIP3    H115267   3.449   5.065   2.069 -0.1005 -1.3616  2.9928
 5087TIP3    H215268   3.585   5.119   2.108 -0.3416 -0.0467  2.0841
 5088TIP3   OH215269   0.045   1.887   5.137  0.1726 -0.5080 -0.4266
 5088TIP3    H115270  -0.006   1.926   5.066 -0.9679  0.5028  0.8978
 5088TIP3    H215271   0.024   1.939   5.214  1.6058 -1.3849  0.6229
 5089TIP3   OH215272   6.258   2.970   4.573 -0.1730 -0.4445  0.4927
 5089TIP3    H115273   6.294   2.916   4.643  0.3014 -0.6523  0.0927
 5089TIP3    H215274   6.240   3.054   4.614  0.8521 -0.3089  0.6896
 5090TIP3   OH215275   4.410   2.682   2.648  0.4223 -0.2308  0.2742
 5090TIP3    H115276   4.467   2.611   2.677  0.2721 -0.8668 -0.9264
 5090TIP3    H215277   4.323   2.642   2.640  0.2611  0.1770 -0.0639
 5091TIP3   OH215278   1.951   5.407   4.923  0.5063 -0.3247  0.4799
 5091TIP3    H115279   1.881   5.378   4.865  1.4765 -2.0395  0.0836
 5091TIP3    H215280   1.977   5.493   4.889 -0.3536 -0.3635 -0.3109
 5092TIP3   OH215281   5.434   5.239   0.606  0.5104 -0.3619 -0.2079
 5092TIP3    H115282   5.341   5.218   0.606  0.5415 -0.6139  1.5823
 5092TIP3    H215283   5.452   5.272   0.694  2.0006  0.2235 -0.6970
 5093TIP3   OH215284   2.907   1.139   1.234  0.1598 -0.6780 -0.3140
 5093TIP3    H115285   2.929   1.213   1.176  1.9800 -1.2780 -0.4681
 5093TIP3    H215286   2.912   1.175   1.322 -3.3519  0.4288 -0.4355
 5094TIP3   OH215287   1.166   4.358   1.918 -0.1108  0.0933 -0.0079
 5094TIP3    H115288   1.189   4.445   1.885  0.5077 -0.0685 -0.0227
 5094TIP3    H215289   1.237   4.302   1.887  0.6446 -0.0206  1.8381
 5095TIP3   OH215290   4.093   4.824   1.549 -0.3865 -0.1924  0.0632
 5095TIP3    H115291   4.120   4.915   1.551 -1.6400  0.1810  0.9792
 5095TIP3    H215292   4.010   4.822   1.596 -0.1144 -1.8992  0.5563
 5096TIP3   OH215293   0.577   4.086   3.076  0.5885  0.3543  0.4419
 5096TIP3    H115294   0.534   4.104   3.160 -2.7365  1.5079 -1.3297
 5096TIP3    H215295   0.575   4.170   3.030 -1.2319 -1.0236 -2.2082
 5097TIP3   OH215296   3.056   5.715   4.656  0.3710 -0.1911  0.1149
 5097TIP3    H115297   3.035   5.781   4.722  0.7842  0.2401 -0.1793
 5097TIP3    H215298   3.138   5.675   4.686  0.2436 -0.4143  0.1724
 5098TIP3   OH215299   0.440   3.398   2.585  0.0212  0.6893  0.0952
 5098TIP3    H115300   0.444   3.482   2.540 -0.2119  1.1652  0.9510
 5098TIP3    H215301   0.514   3.348   2.550  1.5756  2.0926  1.2690
 5099TIP3   OH215302   5.251   3.037   5.116  0.2260  0.4078  0.2069
 5099TIP3    H115303   5.276   3.054   5.025 -0.4320  0.3239  0.0069
 5099TIP3    H215304   5.328   3.062   5.167 -0.0639  2.3199 -0.2162
 5100TIP3   OH215305   0.269   3.103   2.694  0.1749 -0.1377  0.3540
 5100TIP3    H115306   0.225   3.142   2.619  1.1275 -0.5774 -0.4400
 5100TIP3    H215307   0.279   3.176   2.756 -0.2035  0.3265 -0.1164
 5101TIP3   OH215308   4.896   1.830   4.267  0.1329  0.5754 -0.2275
 5101TIP3    H115309   4.975   1.872   4.302  0.4150  3.3944 -3.7016
 5101TIP3    H215310   4.922   1.799   4.181 -1.6838 -1.8787 -0.0106
 5102TIP3   OH215311   5.792   3.596   2.872 -0.4608  0.0185 -0.2053
 5102TIP3    H115312   5.699   3.593   2.892 -1.0741 -1.9059 -2.8555
 5102TIP3    H215313   5.809   3.688   2.850 -2.1194  0.1107 -1.2359
 5103TIP3   OH215314   2.657   3.621   3.909  0.3654  0.2824 -0.0881
 5103TIP3    H115315   2.575   3.670   3.913  0.6012  0.7865 -1.2490
 5103TIP3    H215316   2.678   3.603   4.001 -1.1322 -0.0275  0.2224
 5104TIP3   OH215317   0.807   2.479   1.693 -0.3630 -0.1344 -0.0670
 5104TIP3    H115318   0.888   2.442   1.658  0.6411  1.2303  0.7134
 5104TIP3    H215319   0.805   2.568   1.660 -1.3289 -0.0078  0.2998
 5105TIP3   OH215320   1.212   4.005   3.787  0.2009 -0.5228  0.4874
 5105TIP3    H115321   1.127   3.998   3.832  0.0655 -1.8288  0.0942
 5105TIP3    H215322   1.211   3.933   3.724  1.2269  0.0281 -0.1863
 5106TIP3   OH215323   0.545   0.062   0.652  0.8789 -0.2063 -0.3826
 5106TIP3    H115324   0.484  -0.004   0.686 -0.6238  0.1143 -2.2529
 5106TIP3    H215325   0.630   0.035   0.686 -0.0293 -1.7275  0.8637
 5107TIP3   OH215326   0.278   4.209   2.535  0.7202  0.3883 -0.1744
 5107TIP3    H115327   0.321   4.156   2.602  2.6253  1.4525 -0.4814
 5107TIP3    H215328   0.220   4.267   2.585  1.8666  0.9418  0.5684
 5108TIP3   OH215329   1.913   0.771   1.933  0.1663 -0.0618 -0.2094
 5108TIP3    H115330   1.943   0.682   1.911  0.8801  0.2412 -0.4852
 5108TIP3    H215331   1.817   0.764   1.936  0.1790 -0.6724 -0.9952
 5109TIP3   OH215332   0.212   4.631   3.930 -0.4420 -0.8446  0.3157
 5109TIP3    H115333   0.276   4.687   3.886 -0.7208  0.4661  1.5315
 5109TIP3    H215334   0.214   4.549   3.880 -1.4244  0.8388 -2.7385
 5110TIP3   OH215335   5.842   1.306   3.931 -0.0992 -0.3079  0.2607
 5110TIP3    H115336   5.902   1.257   3.987  1.8842 -0.0326 -1.4951
 5110TIP3    H215337   5.774   1.242   3.907  0.9702 -1.4575  0.1626
 5111TIP3   OH215338   1.241   2.789   0.310  0.5346  0.0987  0.3580
 5111TIP3    H115339   1.310   2.736   0.350  0.4066  0.2734  0.8090
 5111TIP3    H215340   1.270   2.801   0.219  0.3947 -1.0503  0.1414
 5112TIP3   OH215341   4.927   2.313   4.762  0.2452 -0.3879 -0.1090
 5112TIP3    H115342   4.980   2.389   4.787 -1.4772  0.4851  1.0334
 5112TIP3    H215343   4.837   2.344   4.763 -0.3666 -1.9306 -1.6636
 5113TIP3   OH215344   0.150   3.934   4.254  0.5367  0.3014  0.0983
 5113TIP3    H115345   0.216   3.987   4.208  1.5677  1.6301  2.8626
 5113TIP3    H215346   0.201   3.879   4.312 -0.7369 -0.2845  0.6892
 5114TIP3   OH215347   3.848   1.007   1.284 -0.2366  0.1425 -0.5909
 5114TIP3    H115348   3.859   1.089   1.236  1.4109  0.5362  0.3886
 5114TIP3    H215349   3.856   1.032   1.376 -2.7911 -0.6692 -0.0547
 5115TIP3   OH215350   1.107   0.671   0.745 -0.0138 -0.2275  0.5292
 5115TIP3    H115351   1.200   0.658   0.730  0.0853 -0.0411  0.9618
 5115TIP3    H215352   1.087   0.753   0.701 -0.0586 -0.4626  0.1067
 5116TIP3   OH215353   2.203   2.473   3.115  0.0352  0.4630 -0.1584
 5116TIP3    H115354   2.188   2.411   3.044 -0.8479 -1.1734  1.3599
 5116TIP3    H215355   2.255   2.424   3.179 -1.9779  0.6859  1.7762
 5117TIP3   OH215356   5.802   2.933   4.172  0.2626  0.2476  0.0783
 5117TIP3    H115357   5.763   2.845   4.170 -1.1307  0.7801  1.6317
 5117TIP3    H215358   5.803   2.960   4.080  2.7727 -2.1707 -0.7644
 5118TIP3   OH215359   4.927   1.814   3.680 -0.6223  0.3584 -0.3021
 5118TIP3    H115360   4.933   1.872   3.756 -1.2229 -0.9509  0.7911
 5118TIP3    H215361   4.944   1.870   3.605 -0.4845  1.7904  0.7686
 5119TIP3   OH215362   4.858   1.549   3.609  0.1608  0.3177  0.1570
 5119TIP3    H115363   4.856   1.543   3.513 -0.2446  1.6171  0.0546
 5119TIP3    H215364   4.894   1.636   3.626  1.3831 -0.3554  1.2292
 5120TIP3   OH215365   4.920   2.670   3.779  0.4899 -0.3060 -0.6463
 5120TIP3    H115366   4.914   2.605   3.848 -0.8151 -0.1905 -0.6191
 5120TIP3    H215367   4.973   2.741   3.817  0.2050 -0.4608  0.0567
 5121TIP3   OH215368   1.351   1.708   5.087  0.3086  0.3245 -0.4591
 5121TIP3    H115369   1.314   1.662   5.162  0.6634  0.4672 -0.1962
 5121TIP3    H215370   1.440   1.732   5.114 -0.0987  1.7638 -0.3427
 5122TIP3   OH215371   4.431   5.179   2.148  0.0471 -0.1167  0.1891
 5122TIP3    H115372   4.460   5.224   2.069  1.3537 -0.7974  0.2617
 5122TIP3    H215373   4.351   5.132   2.121 -0.3259  0.8022 -0.3379
 5123TIP3   OH215374   0.911   2.555   2.097  0.2523  1.1081  0.1886
 5123TIP3    H115375   0.841   2.613   2.127 -1.0679 -0.3371  0.0039
 5123TIP3    H215376   0.946   2.597   2.018 -0.1567  2.0145  0.4822
 5124TIP3   OH215377   6.046   1.924   3.082 -0.0712  0.0916 -0.0797
 5124TIP3    H115378   6.103   1.994   3.050  0.4750  0.0403  0.7481
 5124TIP3    H215379   5.977   1.970   3.130  0.5274  0.0636  0.8378
 5125TIP3   OH215380   4.636   5.352   4.924 -0.2591 -0.7395 -0.1032
 5125TIP3    H115381   4.692   5.342   5.000  0.9438 -0.2540 -0.8894
 5125TIP3    H215382   4.547   5.346   4.958  0.0786  2.8453  1.9271
 5126TIP3   OH215383   5.630   3.944   3.185  0.3514 -0.1965 -1.0005
 5126TIP3    H115384   5.617   3.978   3.274  2.8633 -0.4218 -0.4601
 5126TIP3    H215385   5.584   3.860   3.185  0.0129 -0.0311 -0.0305
 5127TIP3   OH215386   2.603   0.580   0.608 -0.0627  0.1832 -0.0048
 5127TIP3    H115387   2.651   0.524   0.669  0.1389 -0.5776 -0.8488
 5127TIP3    H215388   2.590   0.662   0.656  1.2581  0.0770  0.5771
 5128TIP3   OH215389   5.599   1.553   1.505 -0.5209  0.3839 -0.0327
 5128TIP3    H115390   5.610   1.461   1.530  1.5122  0.4603 -0.4477
 5128TIP3    H215391   5.590   1.552   1.410 -0.1528  0.6201 -0.0740
 5129TIP3   OH215392   3.594   3.222   3.694  0.3600 -0.0383 -0.3326
 5129TIP3    H115393   3.509   3.264   3.675  1.3585  1.6564 -1.3051
 5129TIP3    H215394   3.615   3.174   3.614  0.2891 -0.5056 -0.0697
 5130TIP3   OH215395   6.279   3.825   3.280 -0.1494 -0.0378 -0.2543
 5130TIP3    H115396   6.306   3.916   3.295 -0.6675 -0.0132  0.6089
 5130TIP3    H215397   6.310   3.805   3.192  1.5061  0.4077  0.1962
 5131TIP3   OH215398   1.242   3.497   2.563 -0.3765 -1.0278  0.5681
 5131TIP3    H115399   1.262   3.508   2.656  1.1616  0.6799  0.0946
 5131TIP3    H215400   1.174   3.563   2.546  0.1907 -0.5254  0.2401
 5132TIP3   OH215401   4.039   2.506   2.308 -0.3782 -0.3109 -0.1272
 5132TIP3    H115402   4.114   2.447   2.307  0.0332  0.2118 -0.4442
 5132TIP3    H215403   4.030   2.536   2.218 -2.2906 -1.9950 -0.5637
 5133TIP3   OH215404   2.379   2.709   2.426 -0.7300  0.6695 -0.1488
 5133TIP3    H115405   2.348   2.712   2.517  0.5343  2.1118  0.2640
 5133TIP3    H215406   2.428   2.627   2.421 -1.0807  0.4193  0.3760
 5134TIP3   OH215407   3.463   2.459   3.107  0.5933  0.1626 -0.0112
 5134TIP3    H115408   3.376   2.495   3.126  0.9651  0.9116  0.2937
 5134TIP3    H215409   3.463   2.448   3.012 -0.0278 -0.3451  0.0435
 5135TIP3   OH215410   5.066   2.238   5.096 -0.1507  0.2768 -0.2628
 5135TIP3    H115411   5.064   2.219   5.003  2.8811 -0.1417 -0.3316
 5135TIP3    H215412   5.159   2.238   5.119 -0.7855  0.4510  2.7470
 5136TIP3   OH215413   3.302   4.127   3.082  0.0362  0.2758  0.1404
 5136TIP3    H115414   3.250   4.106   3.159 -0.4066 -0.5495 -0.3627
 5136TIP3    H215415   3.359   4.051   3.070 -0.3577  0.0936 -0.7041
 5137TIP3   OH215416   0.939   0.877   2.674  0.3424  0.5826  0.0381
 5137TIP3    H115417   0.971   0.799   2.629  1.0105 -0.4876  2.2000
 5137TIP3    H215418   0.844   0.863   2.682  0.1355  1.0367 -1.4233
 5138TIP3   OH215419   4.618   2.880   3.991  0.5321 -0.0068  0.5444
 5138TIP3    H115420   4.599   2.791   3.962  0.0100  0.4821 -0.6821
 5138TIP3    H215421   4.712   2.890   3.979  0.4741 -0.1470 -0.0289
 5139TIP3   OH215422   5.298   5.242   4.379 -0.0758  0.1018  0.0121
 5139TIP3    H115423   5.211   5.280   4.386 -0.7370 -1.4585  0.5357
 5139TIP3    H215424   5.296   5.188   4.300  0.2871 -0.2379  0.2292
 5140TIP3   OH215425   1.860   5.842   2.053 -0.2513 -0.2278  0.0480
 5140TIP3    H115426   1.857   5.930   2.091 -0.0027  0.4714 -1.4492
 5140TIP3    H215427   1.944   5.839   2.007 -1.5475 -0.0374 -2.5549
 5141TIP3   OH215428   4.849   2.579   3.538  0.1916  0.3677  0.3326
 5141TIP3    H115429   4.835   2.497   3.586 -0.8023  0.0433 -0.4847
 5141TIP3    H215430   4.875   2.642   3.606  0.1178 -0.3971  1.0953
 5142TIP3   OH215431   1.939   3.823   3.233 -0.3769  0.1079  0.4523
 5142TIP3    H115432   2.024   3.849   3.267  0.6372 -2.0687 -0.1686
 5142TIP3    H215433   1.899   3.904   3.202  1.9322  1.0758 -0.2087
 5143TIP3   OH215434   2.198   3.370   1.816  0.4890 -0.0235  0.5847
 5143TIP3    H115435   2.223   3.425   1.742 -0.3221 -2.1073 -1.3336
 5143TIP3    H215436   2.278   3.363   1.869  1.3969  0.6140 -0.6632
 5144TIP3   OH215437   2.820   0.607   4.924  0.0089  0.6135  0.3604
 5144TIP3    H115438   2.815   0.557   5.005 -1.0084 -2.7322 -1.5833
 5144TIP3    H215439   2.905   0.584   4.886 -1.0306 -0.8324 -1.2028
 5145TIP3   OH215440   5.823   5.782   0.483  0.3194  0.5187 -0.0448
 5145TIP3    H115441   5.813   5.835   0.562 -1.2654  0.4289 -0.1421
 5145TIP3    H215442   5.733   5.772   0.450  0.9529  0.6851 -1.9458
 5146TIP3   OH215443   4.986   1.524   2.679  0.0194 -0.8752 -0.1834
 5146TIP3    H115444   4.954   1.494   2.763 -0.4757 -1.2119 -0.4914
 5146TIP3    H215445   4.920   1.495   2.615  0.9854 -1.6921 -0.8426
 5147TIP3   OH215446   3.194   5.305   4.190  0.2884 -0.6459  0.0838
 5147TIP3    H115447   3.261   5.284   4.255  0.4071 -1.8619 -0.4058
 5147TIP3    H215448   3.232   5.278   4.106  0.0003  0.5671 -0.4643
 5148TIP3   OH215449   3.037   5.118   3.056 -0.1652  0.0001  0.2003
 5148TIP3    H115450   3.089   5.168   3.120 -0.0943 -0.6927  0.6998
 5148TIP3    H215451   2.979   5.183   3.016  0.9054  0.7502 -0.1905
 5149TIP3   OH215452   4.340   0.749   2.655 -0.3490 -0.0826 -0.1801
 5149TIP3    H115453   4.294   0.814   2.706 -0.7962 -1.7978  1.7281
 5149TIP3    H215454   4.271   0.699   2.611 -0.0135  0.7222 -1.6768
 5150TIP3   OH215455   0.382   5.683   1.172  0.4290  0.4130  0.5850
 5150TIP3    H115456   0.355   5.720   1.256 -1.0990  1.6247 -0.3950
 5150TIP3    H215457   0.460   5.733   1.148  2.4644 -1.6371  2.3901
 5151TIP3   OH215458   0.150   1.597   4.778  0.3667  0.2244  0.4356
 5151TIP3    H115459   0.174   1.683   4.811  1.1613 -0.5141  1.8671
 5151TIP3    H215460   0.089   1.562   4.844  1.5312 -1.0517  0.8881
 5152TIP3   OH215461   2.606   4.825   2.718 -0.0542 -0.3075  0.4660
 5152TIP3    H115462   2.536   4.888   2.735 -0.3130 -0.3358 -0.4363
 5152TIP3    H215463   2.655   4.820   2.800 -0.1405  0.9387  0.6093
 5153TIP3   OH215464   5.948   3.361   1.783  0.3112  0.5064 -0.5309
 5153TIP3    H115465   6.024   3.340   1.728 -0.4784 -2.0330 -0.7690
 5153TIP3    H215466   5.966   3.318   1.867 -0.7722 -0.0161 -0.5473
 5154TIP3   OH215467   3.007   4.930   2.834 -0.6630  0.7857  0.1153
 5154TIP3    H115468   3.003   4.977   2.917 -2.0086 -0.0352  0.5476
 5154TIP3    H215469   3.023   4.839   2.859 -0.4555  0.6328 -0.5641
 5155TIP3   OH215470   3.427   1.334   3.354  0.0659  0.1743  0.0182
 5155TIP3    H115471   3.370   1.369   3.422 -1.2914 -0.1091 -0.9189
 5155TIP3    H215472   3.456   1.249   3.388  0.7841  0.7710  0.9366
 5156TIP3   OH215473   1.352   2.065   2.731 -0.1655 -0.2381 -0.2278
 5156TIP3    H115474   1.374   2.122   2.657  1.2799 -0.3326  0.1062
 5156TIP3    H215475   1.306   1.991   2.690 -0.8172  0.4852 -0.8272
 5157TIP3   OH215476   1.438   2.153   3.659 -0.4289  0.3614  0.2504
 5157TIP3    H115477   1.391   2.142   3.577 -0.5593 -1.6238  0.5384
 5157TIP3    H215478   1.370   2.154   3.726 -0.2054 -1.2396  0.5591
 5158TIP3   OH215479   5.785   5.329   2.813 -0.4654 -0.0112  0.0133
 5158TIP3    H115480   5.855   5.342   2.876 -0.1878  1.9513 -0.6129
 5158TIP3    H215481   5.705   5.347   2.863 -0.2947  0.7655  0.0315
 5159TIP3   OH215482   0.134   0.232   3.795  0.4831 -0.1858  0.9482
 5159TIP3    H115483   0.091   0.299   3.847  2.4582  2.6306 -0.7538
 5159TIP3    H215484   0.066   0.201   3.734 -0.0627  1.5857  0.6096
 5160TIP3   OH215485   2.127   2.720   3.059 -0.2374 -0.2754  0.0636
 5160TIP3    H115486   2.147   2.628   3.075 -1.4044 -0.3115  1.6096
 5160TIP3    H215487   2.073   2.746   3.134  0.4714  1.8109 -0.0871
 5161TIP3   OH215488   2.740   3.642   3.517  0.4682 -0.2554 -0.2836
 5161TIP3    H115489   2.707   3.555   3.542 -0.3726  0.2771  0.5332
 5161TIP3    H215490   2.707   3.700   3.586  0.6052  0.7938 -1.0848
 5162TIP3   OH215491   3.920   5.401   3.090 -0.2278  0.7045  0.0028
 5162TIP3    H115492   3.923   5.363   3.178  0.6260 -1.5740 -0.9160
 5162TIP3    H215493   3.878   5.486   3.102 -0.5526  0.2814  2.5307
 5163TIP3   OH215494   3.386   2.940   4.404 -0.5219  0.2557 -0.3800
 5163TIP3    H115495   3.477   2.955   4.381  0.0274 -1.7915  0.1861
 5163TIP3    H215496   3.371   2.993   4.482  1.2642 -1.8914  1.5480
 5164TIP3   OH215497   0.219   2.268   5.108  0.1745 -0.6122 -0.4078
 5164TIP3    H115498   0.139   2.239   5.064  0.5748  0.8346 -2.2182
 5164TIP3    H215499   0.273   2.189   5.115 -0.2627 -1.0558 -1.7822
 5165TIP3   OH215500   4.150   5.602   3.085  0.1725 -0.2639 -0.4473
 5165TIP3    H115501   4.128   5.672   3.146  1.4028  0.1316 -0.4294
 5165TIP3    H215502   4.066   5.560   3.065 -0.4296  0.4904  0.4173
 5166TIP3   OH215503   4.973   1.657   2.283 -0.4938 -0.3316 -0.2727
 5166TIP3    H115504   4.907   1.649   2.353 -0.7945  0.8621 -0.3953
 5166TIP3    H215505   4.955   1.583   2.225 -0.7897 -0.8489  0.4653
 5167TIP3   OH215506   4.520   1.978   1.592  0.3886 -0.0120  0.3073
 5167TIP3    H115507   4.549   1.950   1.679 -0.7553 -0.1995  0.6453
 5167TIP3    H215508   4.436   1.933   1.579  0.9480 -0.6590 -1.2556
 5168TIP3   OH215509   1.618   5.203   2.689 -0.2231 -0.5409  0.2304
 5168TIP3    H115510   1.646   5.118   2.723 -0.6874 -0.4899  0.7677
 5168TIP3    H215511   1.564   5.240   2.760 -1.0114 -0.3143 -0.4726
 5169TIP3   OH215512   4.477   2.146   4.933  0.3853  0.1202 -0.3354
 5169TIP3    H115513   4.392   2.141   4.977  0.0087  1.7705 -0.7743
 5169TIP3    H215514   4.468   2.087   4.858 -0.0181 -0.4518  0.1522
 5170TIP3   OH215515   5.673   5.979   2.117 -0.6883  0.4214  0.1431
 5170TIP3    H115516   5.689   5.909   2.053 -1.4990 -0.3983  0.8034
 5170TIP3    H215517   5.711   5.945   2.198 -1.3028  0.6388  0.5262
 5171TIP3   OH215518   0.486   3.046   4.982  0.6176 -0.0347  0.2556
 5171TIP3    H115519   0.416   3.006   4.928  1.0833  0.4401 -0.7279
 5171TIP3    H215520   0.450   3.047   5.070  0.1102 -1.5306  0.1043
 5172TIP3   OH215521   6.025   3.761   1.450 -0.1415  0.2128 -0.3482
 5172TIP3    H115522   6.034   3.739   1.543 -2.1939 -1.2058 -0.4126
 5172TIP3    H215523   5.964   3.834   1.448  1.9493  2.0520 -0.5026
 5173TIP3   OH215524   2.417   1.353   3.292  0.0800  0.1393  0.2656
 5173TIP3    H115525   2.504   1.314   3.301 -0.4642 -0.8165  1.8626
 5173TIP3    H215526   2.377   1.308   3.217  1.1596  1.0319 -0.8735
 5174TIP3   OH215527   0.880   3.274   5.065 -0.6997 -0.2327  0.4786
 5174TIP3    H115528   0.796   3.268   5.110 -1.0550 -0.8554 -0.2483
 5174TIP3    H215529   0.915   3.359   5.091 -1.4215 -0.0919  1.0162
 5175TIP3   OH215530   5.319   5.427   3.814  0.0646 -0.2293  0.0352
 5175TIP3    H115531   5.324   5.485   3.739  0.7432 -1.5855 -1.0164
 5175TIP3    H215532   5.294   5.342   3.777  0.6914 -0.9893  1.2866
 5176TIP3   OH215533   6.173   2.541   1.158 -0.2259 -0.8801  0.3781
 5176TIP3    H115534   6.195   2.560   1.249 -0.4344 -2.2144  0.7289
 5176TIP3    H215535   6.080   2.562   1.152 -0.2656 -1.0005  0.5430
 5177TIP3   OH215536   3.761   0.507   2.355 -0.3671 -0.1876 -0.2325
 5177TIP3    H115537   3.813   0.588   2.357 -0.8345  0.3276 -3.4038
 5177TIP3    H215538   3.673   0.534   2.378 -0.4664  0.1731 -1.0167
 5178TIP3   OH215539   5.675   2.080   3.812 -0.6480  0.3776 -0.4359
 5178TIP3    H115540   5.617   2.010   3.841  0.0370 -0.3201 -0.7161
 5178TIP3    H215541   5.738   2.037   3.754  0.4777  1.0177  0.2816
 5179TIP3   OH215542   3.479   3.622   3.041  0.9298  0.1522  0.1154
 5179TIP3    H115543   3.435   3.549   3.000  0.6185 -0.0035  0.7073
 5179TIP3    H215544   3.572   3.606   3.026  0.8165  0.1904 -0.6573
 5180TIP3   OH215545   0.499   0.677   2.545  0.0213  0.2743 -0.2708
 5180TIP3    H115546   0.420   0.731   2.537 -0.7200 -0.5020  1.3915
 5180TIP3    H215547   0.515   0.644   2.457 -0.2355  2.1710 -1.0752
 5181TIP3   OH215548   6.095   0.038   0.099 -0.7208  0.0269  0.5530
 5181TIP3    H115549   6.085   0.059   0.192  0.6661 -1.4828  1.0826
 5181TIP3    H215550   6.157  -0.034   0.097 -1.4677 -0.6333 -1.5003
 5182TIP3   OH215551   2.954   1.972   4.140 -0.0840 -0.5084 -0.1379
 5182TIP3    H115552   2.882   2.035   4.147  0.7736  0.3154  2.4709
 5182TIP3    H215553   2.913   1.892   4.107 -1.9173  0.3335 -0.0256
 5183TIP3   OH215554   5.699   1.460   3.337 -0.0353 -0.7047 -0.3360
 5183TIP3    H115555   5.650   1.379   3.321  0.3977 -0.4676 -3.2739
 5183TIP3    H215556   5.691   1.509   3.256  0.3832  1.8963  1.1001
 5184TIP3   OH215557   6.020   4.750   3.072  0.3139 -0.6195 -0.0085
 5184TIP3    H115558   6.069   4.830   3.050 -0.5226 -0.3267 -0.8838
 5184TIP3    H215559   6.086   4.690   3.106  1.1057  0.1392 -0.1745
 5185TIP3   OH215560   1.627   2.047   2.276  0.3046  0.4274 -0.2259
 5185TIP3    H115561   1.614   1.954   2.296  1.1752  0.1642 -0.8357
 5185TIP3    H215562   1.649   2.049   2.183  0.7367  1.1971 -0.1174
 5186TIP3   OH215563   0.771   5.494   0.336 -0.2685  0.5892 -0.0804
 5186TIP3    H115564   0.716   5.466   0.410  0.0228  1.0646  0.3279
 5186TIP3    H215565   0.861   5.484   0.367 -0.1497  1.5255 -0.0697
 5187TIP3   OH215566   1.988   3.307   1.962  0.6164 -0.9339  0.1708
 5187TIP3    H115567   2.057   3.337   1.903 -1.2411 -0.2205 -1.8039
 5187TIP3    H215568   1.920   3.375   1.955 -0.5773 -1.9233  1.4781
 5188TIP3   OH215569   6.116   2.889   4.358  0.1467  0.1458  0.0850
 5188TIP3    H115570   6.128   2.798   4.329 -0.9251  0.1802 -0.5362
 5188TIP3    H215571   6.162   2.894   4.441 -1.0211 -1.3952  0.8899
 5189TIP3   OH215572   4.969   1.338   3.775  0.0943 -0.0198 -0.1137
 5189TIP3    H115573   4.912   1.385   3.714 -1.1643 -1.0269  0.2245
 5189TIP3    H215574   5.026   1.406   3.812  0.0802  0.7875 -1.5177
 5190TIP3   OH215575   4.321   3.263   4.370 -0.3595  0.2178  0.7829
 5190TIP3    H115576   4.334   3.197   4.438 -1.5618  1.1690  1.9846
 5190TIP3    H215577   4.289   3.213   4.294  2.6529 -1.1122  0.2274
 5191TIP3   OH215578   2.929   4.218   3.607 -0.0276  0.1377 -0.1745
 5191TIP3    H115579   2.874   4.279   3.657  0.0603  0.8039 -0.8668
 5191TIP3    H215580   3.019   4.242   3.631 -0.0110 -1.0721  1.1005
 5192TIP3   OH215581   4.482   0.765   3.482 -0.4567  0.0115  0.2455
 5192TIP3    H115582   4.512   0.769   3.573  2.4165 -0.2341 -0.5872
 5192TIP3    H215583   4.546   0.818   3.433 -1.4463 -0.5343 -1.7396
 5193TIP3   OH215584   2.427   3.367   1.576 -0.0471  0.1165 -0.4060
 5193TIP3    H115585   2.409   3.343   1.485 -1.8780 -1.2842  0.2574
 5193TIP3    H215586   2.368   3.441   1.593  0.6704  0.7180 -0.4878
 5194TIP3   OH215587   2.882   1.343   1.430  0.3690  0.2589 -0.3074
 5194TIP3    H115588   2.959   1.399   1.445 -0.0368  0.7401  0.0288
 5194TIP3    H215589   2.837   1.342   1.514  1.0820 -1.7041  0.0988
 5195TIP3   OH215590   5.037   4.854   3.595  0.4794 -0.0992 -0.2159
 5195TIP3    H115591   5.075   4.836   3.681  0.1210 -4.6905 -0.7719
 5195TIP3    H215592   5.112   4.853   3.535  0.4465  0.4215 -0.2687
 5196TIP3   OH215593   1.335   0.235   2.054 -0.0236  0.7462 -0.5060
 5196TIP3    H115594   1.319   0.234   1.959  1.4425 -0.2126 -0.7749
 5196TIP3    H215595   1.364   0.146   2.074 -1.7322  0.5009  1.1345
 5197TIP3   OH215596   1.158   3.787   2.319  0.3648  0.3287  0.4655
 5197TIP3    H115597   1.119   3.872   2.297 -0.4139  0.2053  1.3094
 5197TIP3    H215598   1.233   3.779   2.260  0.4382  1.5924  0.3614
 5198TIP3   OH215599   3.181   0.566   3.380  0.1687  0.1299 -0.0958
 5198TIP3    H115600   3.209   0.611   3.300  1.5230 -1.0251 -0.3098
 5198TIP3    H215601   3.233   0.606   3.449 -0.9169  1.0437  0.2385
 5199TIP3   OH215602   0.914   0.876   1.260 -0.3271  0.0319  0.4958
 5199TIP3    H115603   0.845   0.846   1.319 -0.2756 -2.2018 -0.4762
 5199TIP3    H215604   0.923   0.806   1.195  1.0512  1.4527 -0.9543
 5200TIP3   OH215605   1.939   0.988   2.542  0.0826  0.0638 -0.6375
 5200TIP3    H115606   1.910   0.932   2.615  0.1765  1.8254  0.8093
 5200TIP3    H215607   1.992   0.929   2.488  0.4790 -1.1825  1.0093
 5201TIP3   OH215608   3.633   2.581   0.811  0.2412  0.5822 -0.1320
 5201TIP3    H115609   3.703   2.570   0.746  1.1382 -0.2973  0.9507
 5201TIP3    H215610   3.662   2.656   0.864  1.3349 -0.8997  1.4638
 5202TIP3   OH215611   5.047   3.871   1.477 -0.3662 -0.8181  0.1962
 5202TIP3    H115612   5.090   3.786   1.485  0.4371 -0.5189 -0.6831
 5202TIP3    H215613   4.986   3.875   1.550 -0.4121 -2.1495  0.2440
 5203TIP3   OH215614   2.793   3.379   1.393  0.1345  0.1372  0.0428
 5203TIP3    H115615   2.711   3.383   1.344  0.4859  0.2525 -0.5446
 5203TIP3    H215616   2.769   3.405   1.482 -0.4316  0.3542 -0.1676
 5204TIP3   OH215617   4.824   4.849   0.628  0.2050 -0.0932 -0.1547
 5204TIP3    H115618   4.840   4.918   0.563  0.0626  0.5154  0.4497
 5204TIP3    H215619   4.910   4.813   0.647  0.1725 -0.8414 -1.2733
 5205TIP3   OH215620   5.659   1.263   2.234 -0.0981  0.2560  0.4014
 5205TIP3    H115621   5.587   1.318   2.203  0.6000  1.3886  0.7016
 5205TIP3    H215622   5.660   1.276   2.329  1.0000  0.9357  0.3242
 5206TIP3   OH215623   3.859   0.466   4.258 -0.1005  0.1668 -0.4338
 5206TIP3    H115624   3.952   0.472   4.281 -0.3342  1.4270  0.2484
 5206TIP3    H215625   3.849   0.377   4.225  1.0370 -0.5202  0.9353
 5207TIP3   OH215626   2.471   4.989   1.876  0.1377 -0.4392  0.6506
 5207TIP3    H115627   2.531   4.975   1.802  0.5411 -2.1074  1.2573
 5207TIP3    H215628   2.523   4.967   1.953 -0.7112 -0.0999  1.3263
 5208TIP3   OH215629   3.768   3.753   1.524 -0.2412  0.0604  0.3335
 5208TIP3    H115630   3.846   3.718   1.566 -1.5852 -1.7241  1.4797
 5208TIP3    H215631   3.749   3.834   1.572  0.0417 -0.2893  1.0463
 5209TIP3   OH215632   5.555   5.662   1.694 -0.4686  0.0919  0.4827
 5209TIP3    H115633   5.508   5.637   1.615 -0.7596 -1.5607  1.1426
 5209TIP3    H215634   5.578   5.579   1.736  1.3292  0.8959  1.1814
 5210TIP3   OH215635   6.278   4.459   0.541 -0.1433 -0.1129  0.3465
 5210TIP3    H115636   6.225   4.484   0.465 -2.6294 -1.2328  1.5685
 5210TIP3    H215637   6.311   4.372   0.519  1.1980  0.5586 -0.3908
 5211TIP3   OH215638   1.189   3.092   4.845  0.1076  0.3435  0.0173
 5211TIP3    H115639   1.126   3.030   4.809 -0.6403  1.7385 -1.1814
 5211TIP3    H215640   1.155   3.178   4.821  1.2479  1.2295  1.3983
 5212TIP3   OH215641   3.328   5.621   0.681  0.2475 -0.5876 -0.5343
 5212TIP3    H115642   3.367   5.701   0.717 -0.6617 -0.4561  0.1707
 5212TIP3    H215643   3.335   5.557   0.752  1.1803 -1.2265 -1.1733
 5213TIP3   OH215644   5.180   1.724   0.405 -0.4983 -0.3343 -0.3394
 5213TIP3    H115645   5.184   1.633   0.375  3.0020 -0.5143  0.2494
 5213TIP3    H215646   5.171   1.717   0.500  0.9579 -0.1633 -0.1639
 5214TIP3   OH215647   1.804   5.609   1.833 -0.6896  0.5168 -0.7069
 5214TIP3    H115648   1.842   5.669   1.898  0.7954 -2.5002  1.4505
 5214TIP3    H215649   1.720   5.583   1.871  0.2314 -1.3442  0.1640
 5215TIP3   OH215650   3.328   3.078   3.635 -0.3132  0.3016 -0.3080
 5215TIP3    H115651   3.332   3.170   3.610 -0.4851  0.6186  0.7744
 5215TIP3    H215652   3.249   3.071   3.687 -0.2497 -0.4466 -0.2996
 5216TIP3   OH215653   2.913   0.142   0.732  0.7720 -0.7213 -0.1592
 5216TIP3    H115654   2.903   0.175   0.642  2.1683  0.9048  0.2341
 5216TIP3    H215655   2.823   0.125   0.761  0.0080  1.8204 -0.7761
 5217TIP3   OH215656   4.376   2.672   4.280  0.1466 -0.1522 -0.4753
 5217TIP3    H115657   4.455   2.626   4.307  0.5714  0.2166 -1.0660
 5217TIP3    H215658   4.407   2.757   4.249 -0.4832  0.0127 -0.6669
 5218TIP3   OH215659   3.989   4.057   4.861  0.0563 -0.0836 -0.5203
 5218TIP3    H115660   4.052   4.011   4.806  0.1442 -0.1980 -0.3241
 5218TIP3    H215661   3.917   4.079   4.801  1.3689  2.2911 -1.3586
 5219TIP3   OH215662   2.687   5.466   1.340  0.0616 -0.2240  0.3009
 5219TIP3    H115663   2.729   5.432   1.261 -0.4458 -0.0415 -0.0511
 5219TIP3    H215664   2.750   5.528   1.376  0.1430 -0.0225 -0.1729
 5220TIP3   OH215665   2.687   3.292   0.679  0.2851  0.5755 -0.6398
 5220TIP3    H115666   2.731   3.308   0.595  0.3518  0.0892 -0.6975
 5220TIP3    H215667   2.659   3.379   0.708  1.1735  0.8795 -0.6639
 5221TIP3   OH215668   4.463   4.677   1.568  0.0302  0.3911  0.6805
 5221TIP3    H115669   4.388   4.686   1.509  0.3941 -0.8149 -0.0022
 5221TIP3    H215670   4.425   4.671   1.655 -0.6162  0.6230  0.4209
 5222TIP3   OH215671   3.558   5.214   4.563  0.0577 -0.4745 -0.3178
 5222TIP3    H115672   3.468   5.242   4.581  0.6585  0.2040  1.9092
 5222TIP3    H215673   3.590   5.276   4.498 -0.4673  0.5058  0.3415
 5223TIP3   OH215674   3.116   2.792   3.467 -0.4359  0.7059 -0.1438
 5223TIP3    H115675   3.155   2.766   3.551  1.1660 -1.5379 -1.4775
 5223TIP3    H215676   3.188   2.831   3.418 -1.3193  1.8445 -0.5946
 5224TIP3   OH215677   5.633   1.867   5.076  0.6408 -0.4085 -0.0333
 5224TIP3    H115678   5.603   1.860   4.985  2.6824 -3.7943 -0.6163
 5224TIP3    H215679   5.581   1.801   5.123  1.2131 -0.3098  0.7518
 5225TIP3   OH215680  -0.017   1.776   1.702  0.1028 -0.2910  0.2009
 5225TIP3    H115681   0.073   1.753   1.681 -0.5288 -1.6916 -1.1474
 5225TIP3    H215682  -0.010   1.832   1.780  2.2089  0.9408 -0.8009
 5226TIP3   OH215683   0.305   5.764   4.662 -0.2779 -0.4257 -0.6219
 5226TIP3    H115684   0.305   5.851   4.621  0.6793  0.5853  1.3746
 5226TIP3    H215685   0.372   5.770   4.730 -0.7200 -2.5100  0.0539
 5227TIP3   OH215686   0.300   5.635   1.777 -0.5650  0.0356  0.4045
 5227TIP3    H115687   0.316   5.548   1.740 -2.1548 -0.6313  1.1445
 5227TIP3    H215688   0.235   5.674   1.718 -1.2835 -0.0733  1.0934
 5228TIP3   OH215689   6.311   3.518   4.009 -0.7311  0.1396  0.3496
 5228TIP3    H115690   6.367   3.576   4.061 -1.3943  0.1097  1.1157
 5228TIP3    H215691   6.268   3.462   4.074  0.2337 -1.5479 -0.3917
 5229TIP3   OH215692   1.685   0.283   3.908  0.0333 -0.1870  0.1731
 5229TIP3    H115693   1.728   0.208   3.949 -2.6956 -1.9883 -0.0291
 5229TIP3    H215694   1.635   0.324   3.979  1.4556  1.5244  0.2733
 5230TIP3   OH215695   5.532   1.220   5.063 -0.0552 -0.3355  0.5303
 5230TIP3    H115696   5.578   1.181   5.137  1.1405  2.2367  1.2335
 5230TIP3    H215697   5.594   1.215   4.990 -0.6301 -1.4285  0.0985
 5231TIP3   OH215698   0.535   5.783   4.838  0.0711  0.8611  0.7241
 5231TIP3    H115699   0.519   5.877   4.851  1.5274  1.1122  0.8463
 5231TIP3    H215700   0.587   5.757   4.914 -0.0674  0.0156  0.5365
 5232TIP3   OH215701   2.023   4.927   4.336  0.2952  0.7637  0.0645
 5232TIP3    H115702   1.962   4.926   4.263  0.9687 -1.3688 -0.5605
 5232TIP3    H215703   1.973   4.892   4.410 -0.1151  2.0388  0.4153
 5233TIP3   OH215704   0.518   0.006   2.628  0.2942 -0.1271 -0.4664
 5233TIP3    H115705   0.440  -0.023   2.676 -1.3049  1.3681 -1.9868
 5233TIP3    H215706   0.573   0.048   2.694 -0.8163 -0.0610  0.4478
 5234TIP3   OH215707   5.951   5.523   3.847 -0.8166 -0.6718 -0.4711
 5234TIP3    H115708   5.956   5.428   3.843 -2.4620 -0.8249  0.1249
 5234TIP3    H215709   5.874   5.541   3.901 -0.2481  1.0074 -0.1393
 5235TIP3   OH215710   6.220   3.402   0.205 -0.1727  0.1810 -0.3178
 5235TIP3    H115711   6.229   3.494   0.230 -2.5668  0.0423  1.3920
 5235TIP3    H215712   6.292   3.358   0.249 -0.5761  0.9069  1.1541
 5236TIP3   OH215713   5.526   0.330   3.799 -0.3776  0.1035 -0.1256
 5236TIP3    H115714   5.462   0.284   3.853 -0.2634  0.5481  0.3988
 5236TIP3    H215715   5.483   0.341   3.714 -0.5665 -0.5817 -0.1275
 5237TIP3   OH215716   0.454   1.710   4.141  0.8131  0.1287 -0.8696
 5237TIP3    H115717   0.442   1.745   4.229  0.2170  2.0179 -1.6454
 5237TIP3    H215718   0.544   1.678   4.139  0.7820 -0.0768  0.4599
 5238TIP3   OH215719   2.018   3.861   3.593 -0.2724 -0.2832 -0.5998
 5238TIP3    H115720   2.034   3.770   3.618 -1.4114 -0.2662  0.2840
 5238TIP3    H215721   2.080   3.878   3.521 -0.2089 -1.8217 -0.9402
 5239TIP3   OH215722   4.697   5.528   0.935 -0.2892  0.2641  0.1077
 5239TIP3    H115723   4.691   5.547   1.029 -0.7004 -0.2557  0.1940
 5239TIP3    H215724   4.784   5.492   0.924 -0.4026 -0.1051  0.3782
 5240TIP3   OH215725   3.482   2.830   2.337  0.1166  0.1245  0.0786
 5240TIP3    H115726   3.551   2.788   2.389 -0.1128 -1.4272 -0.7819
 5240TIP3    H215727   3.409   2.839   2.397  0.7256  0.8602  0.7302
 5241TIP3   OH215728   2.132   4.992   3.200 -0.2224 -0.1245 -0.8022
 5241TIP3    H115729   2.116   5.074   3.154  0.0476  0.2460 -0.2536
 5241TIP3    H215730   2.133   4.925   3.132 -1.4809  0.1869 -1.1411
 5242TIP3   OH215731   5.784   1.042   0.811 -0.0570 -0.2994  0.5051
 5242TIP3    H115732   5.772   1.121   0.863 -0.4208  1.0324 -1.4950
 5242TIP3    H215733   5.699   0.997   0.814 -0.3119  0.1762  0.4311
 5243TIP3   OH215734   1.735   5.124   3.193 -0.1883  0.6110 -0.6847
 5243TIP3    H115735   1.692   5.209   3.180 -1.9381  0.3979  2.5739
 5243TIP3    H215736   1.767   5.128   3.283 -3.5907 -3.3234  1.0337
 5244TIP3   OH215737   4.527   0.999   2.964 -0.3642  0.4436  0.6041
 5244TIP3    H115738   4.516   0.971   3.054 -3.3522  1.4475  0.6495
 5244TIP3    H215739   4.515   0.919   2.912  2.1257 -0.2895  1.0211
 5245TIP3   OH215740   2.432   5.671   2.502 -0.4927 -0.4242 -0.4564
 5245TIP3    H115741   2.426   5.752   2.452  1.0608 -1.1694 -1.9553
 5245TIP3    H215742   2.404   5.603   2.442 -0.1132 -1.1894  0.2164
 5246TIP3   OH215743   2.164   5.486   1.880 -0.0314  0.4562 -0.1538
 5246TIP3    H115744   2.239   5.495   1.821  0.0637  0.9774  0.0384
 5246TIP3    H215745   2.138   5.577   1.898  0.4831  0.3353  1.2973
 5247TIP3   OH215746   1.229   5.933   2.923 -0.0409  0.0076 -0.0651
 5247TIP3    H115747   1.217   5.850   2.970 -0.2681  0.4832  0.7334
 5247TIP3    H215748   1.141   5.959   2.897  0.1142 -0.3889 -1.0031
 5248TIP3   OH215749   1.532   3.015   3.313  0.1229 -0.8840  0.3968
 5248TIP3    H115750   1.623   3.044   3.306 -0.2514  0.5605  1.0074
 5248TIP3    H215751   1.530   2.964   3.394  0.4496 -1.1725  0.2265
 5249TIP3   OH215752   3.410   0.942   0.169 -0.4931 -0.2288 -0.7485
 5249TIP3    H115753   3.470   0.872   0.143 -0.0285 -0.2742  0.3858
 5249TIP3    H215754   3.407   1.000   0.093  1.3095 -0.0147 -0.6933
 5250TIP3   OH215755   1.691   3.907   0.420  0.0321  0.0969  0.2320
 5250TIP3    H115756   1.783   3.927   0.404  0.4512  0.5040  2.7423
 5250TIP3    H215757   1.666   3.850   0.347  1.7043  1.4938 -1.5261
 5251TIP3   OH215758   4.614   3.967   2.688  0.0219 -0.1040 -0.0186
 5251TIP3    H115759   4.657   3.887   2.658 -0.8927 -0.1698 -1.2115
 5251TIP3    H215760   4.539   3.978   2.630 -0.3785  1.1493  0.6871
 5252TIP3   OH215761   6.215   0.172   2.319 -0.0317  0.1579  0.0071
 5252TIP3    H115762   6.296   0.165   2.369 -0.9919 -0.3325  1.5915
 5252TIP3    H215763   6.156   0.220   2.377 -1.1431 -0.2829 -0.7208
 5253TIP3   OH215764   5.101   3.533   3.604 -0.2756  0.2520  0.1990
 5253TIP3    H115765   5.095   3.450   3.557  1.6204 -0.2549  0.7766
 5253TIP3    H215766   5.193   3.558   3.597 -0.6053  1.7808  0.9245
 5254TIP3   OH215767  -0.001   2.574   0.916  0.0671 -0.0662  0.1368
 5254TIP3    H115768   0.061   2.523   0.968  1.9569  1.9289  0.0144
 5254TIP3    H215769  -0.056   2.617   0.981  1.5064  1.3108  0.5112
 5255TIP3   OH215770   3.026   4.969   0.837  0.5202  0.6156 -0.2817
 5255TIP3    H115771   2.962   4.899   0.852  0.3572  0.9313  0.5510
 5255TIP3    H215772   3.065   4.949   0.752 -0.4798  0.2562 -0.6636
 5256TIP3   OH215773   1.430   5.944   0.564  0.0710  0.1968  0.0239
 5256TIP3    H115774   1.484   5.922   0.640  1.8233 -0.8680 -1.4665
 5256TIP3    H215775   1.391   5.861   0.538  1.3853  0.0555 -1.6230
 5257TIP3   OH215776   2.522   2.254   1.322  0.3329  0.3962  0.6700
 5257TIP3    H115777   2.614   2.235   1.304  0.4813 -0.9254  2.4852
 5257TIP3    H215778   2.507   2.341   1.286  2.0309  0.2542 -0.4713
 5258TIP3   OH215779   4.558   2.539   4.584 -0.0206  0.2597  0.5843
 5258TIP3    H115780   4.545   2.444   4.580 -2.1666  0.5183 -2.6756
 5258TIP3    H215781   4.600   2.554   4.669  0.9385 -3.6102  0.9947
 5259TIP3   OH215782   3.695   4.926   3.990  0.1232  0.0092  0.3681
 5259TIP3    H115783   3.741   4.849   3.956  0.1450  0.4034 -0.5514
 5259TIP3    H215784   3.617   4.933   3.935  0.9059  1.5265 -0.6291
 5260TIP3   OH215785   5.094   4.966   1.391 -0.1817  0.4632  0.1405
 5260TIP3    H115786   5.113   5.054   1.425 -3.1977  0.8487  1.0547
 5260TIP3    H215787   5.032   4.981   1.319 -1.0514 -0.9264  0.5819
 5261TIP3   OH215788   5.791   5.849   2.770 -0.3146 -0.6904  0.2789
 5261TIP3    H115789   5.759   5.939   2.773  1.2774  0.0753 -2.1594
 5261TIP3    H215790   5.787   5.819   2.860 -0.6754  1.9136  1.2274
 5262TIP3   OH215791   3.569   4.158   1.475  0.2427 -0.4118  0.6193
 5262TIP3    H115792   3.629   4.225   1.441  1.5263 -0.1712  3.1569
 5262TIP3    H215793   3.564   4.093   1.405  1.4773  0.7857 -0.6512
 5263TIP3   OH215794   0.240   2.911   4.195  0.6338  0.0426 -0.0645
 5263TIP3    H115795   0.219   2.887   4.105 -2.9463 -0.2478  0.6798
 5263TIP3    H215796   0.250   2.827   4.240  3.3864  0.1728 -0.2608
 5264TIP3   OH215797   1.052   2.502   3.696  0.2961  0.7563 -0.0116
 5264TIP3    H115798   1.146   2.509   3.709  0.2405  0.7184  0.4664
 5264TIP3    H215799   1.017   2.488   3.785 -0.1161  0.3242 -0.2360
 5265TIP3   OH215800   2.998   4.307   2.404  0.0703  0.0512  0.5764
 5265TIP3    H115801   3.040   4.224   2.380 -1.9106 -1.5722  2.3522
 5265TIP3    H215802   3.071   4.364   2.428  1.4870 -1.2780 -0.3425
 5266TIP3   OH215803   2.729   5.373   5.119  0.3229  0.5672 -0.0670
 5266TIP3    H115804   2.750   5.329   5.036  0.3159  1.1846 -0.4021
 5266TIP3    H215805   2.646   5.334   5.146  0.0601  0.7258 -0.6200
 5267TIP3   OH215806   2.727   1.251   0.453 -0.4553 -0.4982  0.6999
 5267TIP3    H115807   2.773   1.251   0.369  0.1166 -1.0867  0.9936
 5267TIP3    H215808   2.723   1.158   0.477  0.0445 -0.2840  1.6598
 5268TIP3   OH215809   6.152   2.325   1.809  0.5083  0.6057  0.0010
 5268TIP3    H115810   6.139   2.346   1.901  1.3644 -0.4597  0.3844
 5268TIP3    H215811   6.248   2.323   1.799  0.4466 -1.0504 -0.4777
 5269TIP3   OH215812   4.576   1.593   2.996  0.7176 -0.1686 -0.2324
 5269TIP3    H115813   4.629   1.523   3.035 -0.0109 -0.8036 -0.3502
 5269TIP3    H215814   4.490   1.583   3.038 -0.0454 -0.7810 -1.8735
 5270TIP3   OH215815   5.427   4.662   2.291  0.1269 -0.1388  0.2088
 5270TIP3    H115816   5.499   4.629   2.238  0.6733  2.0132 -0.4790
 5270TIP3    H215817   5.466   4.680   2.377 -0.2466 -1.5034  0.6896
 5271TIP3   OH215818   6.017   0.183   2.098 -0.4371 -0.1594  0.5912
 5271TIP3    H115819   6.060   0.161   2.180  1.1207  1.5607  0.2975
 5271TIP3    H215820   6.059   0.127   2.033 -0.9595 -0.7917  0.7843
 5272TIP3   OH215821   1.621   3.682   0.780  0.2525 -0.3976 -0.1315
 5272TIP3    H115822   1.635   3.762   0.832  0.4931 -0.2663 -0.3989
 5272TIP3    H215823   1.572   3.712   0.703  0.9664 -0.3875 -0.5864
 5273TIP3   OH215824   2.962   5.890   0.154  0.1969  0.5152  0.3976
 5273TIP3    H115825   3.017   5.825   0.198  1.1429  1.1329  0.1617
 5273TIP3    H215826   2.974   5.871   0.060 -2.2060 -1.1257  0.3412
 5274TIP3   OH215827   1.698   2.896   4.398  0.5433  0.2276  0.2449
 5274TIP3    H115828   1.632   2.827   4.394  0.4918  0.2677  0.3802
 5274TIP3    H215829   1.734   2.889   4.487  2.2352 -1.1900 -0.5006
 5275TIP3   OH215830   4.737   1.672   2.455 -0.1505  0.4345  0.3947
 5275TIP3    H115831   4.704   1.640   2.539 -0.1164 -0.2918  0.1422
 5275TIP3    H215832   4.676   1.638   2.390 -0.1006  0.8772  0.1118
 5276TIP3   OH215833   4.340   2.726   3.197 -0.3700  0.1124  0.4491
 5276TIP3    H115834   4.298   2.726   3.110 -2.3838  0.0017  1.3658
 5276TIP3    H215835   4.346   2.634   3.220 -2.3348  0.1868  1.5002
 5277TIP3   OH215836   2.831   2.152   3.232 -0.1788 -0.2982 -0.0972
 5277TIP3    H115837   2.819   2.058   3.245 -0.7525 -0.3144 -0.6725
 5277TIP3    H215838   2.762   2.176   3.170 -1.6126  0.9433  1.8498
 5278TIP3   OH215839   0.327   4.267   1.748  0.8746  0.3227 -0.2351
 5278TIP3    H115840   0.286   4.197   1.798 -1.0492  0.6309 -1.2848
 5278TIP3    H215841   0.407   4.228   1.713  0.3688 -1.0238  0.0558
 5279TIP3   OH215842   3.580   2.495   3.424 -0.2996  0.3592  0.6966
 5279TIP3    H115843   3.600   2.533   3.510  0.0335  0.3595  0.6186
 5279TIP3    H215844   3.665   2.487   3.381 -0.5407  1.0200  0.0847
 5280TIP3   OH215845   5.961   2.262   4.396 -0.0187  0.0174  0.8810
 5280TIP3    H115846   5.916   2.178   4.403 -0.5085  0.3167  1.4056
 5280TIP3    H215847   6.037   2.244   4.340  0.1042 -0.8600  1.3084
 5281TIP3   OH215848   5.413   2.876   3.072 -0.3004  0.4188 -0.8707
 5281TIP3    H115849   5.358   2.895   2.996 -1.2149  0.9172 -0.1025
 5281TIP3    H215850   5.400   2.782   3.087 -1.6615  0.6886 -0.1744
 5282TIP3   OH215851   3.902   3.046   4.989 -0.5090 -0.1952 -0.0774
 5282TIP3    H115852   3.890   3.138   5.013  0.5291  0.1369 -0.7614
 5282TIP3    H215853   3.816   3.006   5.002 -0.5067  0.4001  2.1850
 5283TIP3   OH215854   4.723   0.680   4.252  0.3631  0.4205  0.0385
 5283TIP3    H115855   4.766   0.660   4.335  1.8098 -1.0682 -0.9962
 5283TIP3    H215856   4.630   0.685   4.273  0.3053 -3.1404  1.3013
 5284TIP3   OH215857   0.147   4.240   4.648  0.4263  0.0626 -0.5419
 5284TIP3    H115858   0.091   4.198   4.583  2.1056 -2.4026 -0.5344
 5284TIP3    H215859   0.221   4.180   4.658  1.5389  1.6678  1.6902
 5285TIP3   OH215860   5.036   2.928   1.651  0.5844  0.1064  0.4608
 5285TIP3    H115861   5.005   2.852   1.602  0.4627  0.1956  0.4014
 5285TIP3    H215862   5.051   2.996   1.585 -1.5449  0.9192  0.7297
 5286TIP3   OH215863   1.653   3.598   4.917 -0.2639 -0.4270  0.0740
 5286TIP3    H115864   1.628   3.588   4.826  1.3664 -0.4399 -0.4000
 5286TIP3    H215865   1.582   3.556   4.966 -0.3948 -1.8580 -1.2497
 5287TIP3   OH215866   1.724   2.736   2.529 -0.2331  0.4593  0.1023
 5287TIP3    H115867   1.731   2.735   2.624 -1.9487  1.0799  0.2645
 5287TIP3    H215868   1.633   2.711   2.511 -0.1592  1.1329 -1.3422
 5288TIP3   OH215869   1.223   4.018   3.140 -0.1210 -0.6429  0.0657
 5288TIP3    H115870   1.231   4.107   3.106  0.4007 -1.1593 -1.2081
 5288TIP3    H215871   1.166   4.027   3.217  0.1031  0.8139  0.0937
 5289TIP3   OH215872   2.480   0.569   1.520 -0.2782 -0.1081 -0.7554
 5289TIP3    H115873   2.418   0.499   1.541 -1.0254  0.5977 -0.5292
 5289TIP3    H215874   2.432   0.650   1.540  0.8314  0.4500 -0.2811
 5290TIP3   OH215875   2.575   3.053   2.275  0.3279  0.2631 -0.5987
 5290TIP3    H115876   2.598   3.086   2.362  1.1551 -0.6031 -0.4640
 5290TIP3    H215877   2.631   2.976   2.263  0.6635  0.7142 -2.1514
 5291TIP3   OH215878   2.755   0.491   2.406  0.2303 -0.0651 -0.5138
 5291TIP3    H115879   2.736   0.406   2.364 -0.9457  0.2626 -0.6739
 5291TIP3    H215880   2.824   0.529   2.352  1.4869 -1.3403  0.1340
 5292TIP3   OH215881   4.433   3.621   2.599  0.3497  0.6977  0.4204
 5292TIP3    H115882   4.521   3.655   2.585  0.1596  1.3316  0.6987
 5292TIP3    H215883   4.410   3.651   2.687 -0.5347  1.4294 -0.0415
 5293TIP3   OH215884   3.588   0.602   2.770  0.6684 -0.1579  0.4832
 5293TIP3    H115885   3.649   0.528   2.767 -0.0048 -0.9207  2.8422
 5293TIP3    H215886   3.506   0.567   2.736  0.8331  0.0566 -0.1359
 5294TIP3   OH215887   0.354   2.243   4.498  0.2765  0.3712 -0.2580
 5294TIP3    H115888   0.309   2.193   4.566 -3.0488  1.8128 -1.1921
 5294TIP3    H215889   0.399   2.313   4.545  2.5956 -1.6693  0.7951
 5295TIP3   OH215890   0.508   1.892   3.157  0.3020  0.1768 -0.2055
 5295TIP3    H115891   0.580   1.953   3.172  1.5006 -1.2960  0.3417
 5295TIP3    H215892   0.498   1.889   3.062  1.9944 -0.6812 -0.3919
 5296TIP3   OH215893   4.558   3.770   0.320  0.3955 -0.4979  0.2173
 5296TIP3    H115894   4.577   3.860   0.347 -0.4871 -0.4158  0.6179
 5296TIP3    H215895   4.498   3.780   0.247 -0.0388 -0.7598  0.5325
 5297TIP3   OH215896   3.294   2.425   4.282  0.3584 -0.0037 -0.4339
 5297TIP3    H115897   3.313   2.516   4.307  0.0592 -0.2600  0.7900
 5297TIP3    H215898   3.331   2.373   4.353 -2.3310 -0.6696  0.6113
 5298TIP3   OH215899   1.889   4.081   3.707 -0.1438 -0.4278 -0.0928
 5298TIP3    H115900   1.854   4.050   3.790  1.2399 -0.3303  0.5437
 5298TIP3    H215901   1.949   4.012   3.679 -0.6101 -0.4710 -1.0421
 5299TIP3   OH215902   6.076   0.669   4.211 -0.0685  0.4078 -0.1590
 5299TIP3    H115903   6.076   0.647   4.304 -0.6114 -1.9557 -0.6520
 5299TIP3    H215904   6.113   0.592   4.168  0.3481  1.5234 -1.9005
 5300TIP3   OH215905   2.660   2.894   0.216  0.5798  0.6852  0.0292
 5300TIP3    H115906   2.576   2.936   0.196  0.7835  1.4441  0.6989
 5300TIP3    H215907   2.682   2.847   0.136  0.2994  1.8131 -0.7442
 5301TIP3   OH215908   4.598   1.507   0.680  0.8986 -0.7167 -0.2887
 5301TIP3    H115909   4.576   1.543   0.595  1.2664 -1.1618 -0.5800
 5301TIP3    H215910   4.571   1.574   0.743  2.9724  0.7668 -0.8666
 5302TIP3   OH215911   0.906   3.033   2.414 -0.0732  0.4927 -0.4899
 5302TIP3    H115912   0.942   3.105   2.362 -1.4450  2.2107  0.8131
 5302TIP3    H215913   0.827   3.006   2.367  0.3652 -0.0858 -0.9044
 5303TIP3   OH215914   4.230   5.324   3.540  0.1935  0.4875 -0.7164
 5303TIP3    H115915   4.301   5.319   3.476  0.5390  0.8518 -0.3686
 5303TIP3    H215916   4.272   5.306   3.624 -0.7766 -3.2676 -0.8567
 5304TIP3   OH215917   3.009   2.616   3.937  0.4520  0.5854 -0.2495
 5304TIP3    H115918   2.931   2.653   3.978  0.2019 -0.2272  0.0336
 5304TIP3    H215919   3.039   2.550   3.999  2.5066  2.1802  0.6098
 5305TIP3   OH215920   2.305   4.548   0.570  0.2523 -0.1716  1.1068
 5305TIP3    H115921   2.385   4.568   0.522  0.7836  1.9207  2.7072
 5305TIP3    H215922   2.280   4.631   0.610 -1.8191 -1.1533  1.9799
 5306TIP3   OH215923   6.191   3.123   0.554 -0.3883  0.3444 -0.0159
 5306TIP3    H115924   6.125   3.068   0.595  0.0737 -1.1825 -1.2380
 5306TIP3    H215925   6.147   3.161   0.478 -0.1785  0.2079 -0.2069
 5307TIP3   OH215926   0.614   4.401   0.928  0.2018 -0.2731  0.0675
 5307TIP3    H115927   0.666   4.345   0.985  0.6798 -1.6825 -1.6739
 5307TIP3    H215928   0.546   4.437   0.985  1.7371 -0.1338  1.9008
 5308TIP3   OH215929   0.723   4.667   1.876  0.1696  0.3597  0.0223
 5308TIP3    H115930   0.811   4.640   1.847 -0.7388 -1.7476 -0.9624
 5308TIP3    H215931   0.681   4.697   1.795 -1.0103 -1.6003 -0.1397
 5309TIP3   OH215932   1.980   4.677   1.565  0.2666 -0.2671  0.3775
 5309TIP3    H115933   1.925   4.607   1.530 -0.3158 -0.1254  0.9874
 5309TIP3    H215934   2.025   4.713   1.488  0.9520 -1.6083  0.1146
 5310TIP3   OH215935   3.321   2.232   4.991 -0.1709  0.6459 -0.4776
 5310TIP3    H115936   3.287   2.161   5.045 -0.0246 -1.4142 -2.9150
 5310TIP3    H215937   3.255   2.301   4.998  0.2409  0.8518  2.8672
 5311TIP3   OH215938   2.336   4.490   2.460 -0.0490  0.5813  0.0354
 5311TIP3    H115939   2.284   4.426   2.411  1.2965 -1.3285  0.9420
 5311TIP3    H215940   2.395   4.436   2.513 -0.1110  2.5625  2.2903
 5312TIP3   OH215941   4.643   3.166   2.520 -0.0438 -0.8300 -0.0542
 5312TIP3    H115942   4.625   3.100   2.587 -2.4627 -0.6449 -0.4271
 5312TIP3    H215943   4.606   3.130   2.440 -0.2492  0.4103 -0.5461
 5313TIP3   OH215944   4.619   4.862   0.948 -0.0886 -0.1115  0.0759
 5313TIP3    H115945   4.586   4.884   1.035 -1.1264  3.2873 -0.9999
 5313TIP3    H215946   4.703   4.906   0.942 -0.9962  1.5870 -1.2826
 5314TIP3   OH215947   5.418   2.914   0.917  0.0173  0.2898 -0.1659
 5314TIP3    H115948   5.463   2.909   1.002 -0.0669  0.6093 -0.1020
 5314TIP3    H215949   5.468   2.978   0.867 -1.4456  2.1237  0.5771
 5315TIP3   OH215950   4.740   1.916   4.925  0.4520 -0.0894 -0.0859
 5315TIP3    H115951   4.674   1.881   4.985  1.0153 -0.3701  0.3812
 5315TIP3    H215952   4.796   1.970   4.981  0.2617  0.6546 -0.5898
 5316TIP3   OH215953   6.358   3.251   3.819  0.3905 -0.1912  0.6196
 5316TIP3    H115954   6.393   3.175   3.774  0.4661 -1.7481  3.1261
 5316TIP3    H215955   6.295   3.216   3.882  0.2023  1.8388  1.6599
 5317TIP3   OH215956   5.005   0.347   0.399 -0.1326  0.5484 -0.0014
 5317TIP3    H115957   4.934   0.296   0.440 -0.2674  2.4955  2.4580
 5317TIP3    H215958   5.085   0.312   0.438 -0.1645  1.5466  1.0255
 5318TIP3   OH215959   5.569   3.679   3.224  0.3834 -0.5528 -0.1568
 5318TIP3    H115960   5.655   3.636   3.231 -0.1190 -1.7051 -0.8363
 5318TIP3    H215961   5.510   3.621   3.273 -0.1037 -0.0035 -0.0838
 5319TIP3   OH215962   5.880   5.956   2.533  0.2805  0.1459  0.3352
 5319TIP3    H115963   5.836   6.039   2.513  2.2529  1.4534  1.0517
 5319TIP3    H215964   5.827   5.917   2.602 -0.7202  0.7723 -0.0539
 5320TIP3   OH215965   3.136   5.872   4.134  0.0182 -0.1452  0.0661
 5320TIP3    H115966   3.059   5.925   4.116  1.2271  1.3598 -0.9494
 5320TIP3    H215967   3.125   5.843   4.225 -1.7526 -0.0598 -0.0910
 5321TIP3   OH215968   3.687   0.525   1.334 -0.3438 -0.3640 -0.1356
 5321TIP3    H115969   3.689   0.621   1.331 -1.0368 -0.2982  1.0160
 5321TIP3    H215970   3.730   0.498   1.253  1.4455  0.8991  0.3233
 5322TIP3   OH215971   5.942   5.711   4.611  0.0195  0.3980 -0.8337
 5322TIP3    H115972   5.934   5.677   4.522 -2.3033 -0.2597 -0.4635
 5322TIP3    H215973   5.905   5.799   4.606 -0.0148  0.4003 -0.5450
 5323TIP3   OH215974   4.162   2.741   0.162 -0.1946 -0.3731 -0.3860
 5323TIP3    H115975   4.153   2.648   0.184 -0.1882 -0.5097 -0.9688
 5323TIP3    H215976   4.086   2.761   0.108 -1.6840  0.6260  1.8937
 5324TIP3   OH215977   0.904   5.940   2.694  0.9184  0.6635 -1.1882
 5324TIP3    H115978   0.916   5.957   2.788  0.9665 -0.3156 -1.0092
 5324TIP3    H215979   0.925   5.847   2.684 -2.0337 -0.0691 -1.6357
 5325TIP3   OH215980   1.823   0.577   0.078 -0.2637 -0.1210  0.7536
 5325TIP3    H115981   1.738   0.534   0.093 -1.2493  1.7585  0.9745
 5325TIP3    H215982   1.815   0.660   0.126  0.7899  1.1433 -1.1575
 5326TIP3   OH215983   6.253   0.719   1.736 -0.1260 -0.7310  0.2405
 5326TIP3    H115984   6.317   0.724   1.665 -0.4630  2.5910  0.0415
 5326TIP3    H215985   6.266   0.799   1.787 -2.5744 -1.0794  1.5862
 5327TIP3   OH215986   5.363   2.059   0.755 -0.2606 -0.6677 -0.3464
 5327TIP3    H115987   5.388   1.968   0.739  1.4766 -0.4196  0.6936
 5327TIP3    H215988   5.392   2.106   0.677  0.4004 -0.7578 -0.1607
 5328TIP3   OH215989   1.893   1.715   4.957  0.7477 -0.4156 -0.1751
 5328TIP3    H115990   1.917   1.808   4.967  0.9791 -0.5445  0.5627
 5328TIP3    H215991   1.916   1.694   4.866 -2.3494  1.0951 -1.4318
 5329TIP3   OH215992   2.810   3.898   3.293 -0.0473  0.0936 -0.5511
 5329TIP3    H115993   2.898   3.873   3.264  0.1599 -0.1582  0.2641
 5329TIP3    H215994   2.820   3.913   3.387 -0.1420  3.1832 -0.9112
 5330TIP3   OH215995   2.475   1.600   4.861 -0.0564 -0.4225 -0.0666
 5330TIP3    H115996   2.388   1.615   4.898  0.3274 -0.1318  0.7236
 5330TIP3    H215997   2.471   1.643   4.775 -0.1537  1.0674  0.6581
 5331TIP3   OH215998   1.838   4.977   2.351  0.0008 -0.2849 -0.1043
 5331TIP3    H115999   1.846   5.067   2.319 -1.6241  0.3846  1.2359
 5331TIP3    H216000   1.896   4.973   2.427  2.1765 -1.2429 -1.6882
 5332TIP3   OH216001   4.279   0.517   1.041 -0.2119 -0.3490 -0.1071
 5332TIP3    H116002   4.333   0.596   1.034  0.1731 -0.3625  2.1040
 5332TIP3    H216003   4.342   0.445   1.049 -0.4691 -0.3837  2.2759
 5333TIP3   OH216004   0.345   0.370   4.046 -0.3429  0.4077  0.7730
 5333TIP3    H116005   0.297   0.437   3.998  1.1889  2.8460  2.4003
 5333TIP3    H216006   0.354   0.406   4.134 -2.3381 -3.4924  2.7866
 5334TIP3   OH216007   3.111   0.489   3.764 -0.3614 -0.0762 -0.0270
 5334TIP3    H116008   3.119   0.576   3.725 -1.2589 -0.4469 -1.0963
 5334TIP3    H216009   3.019   0.483   3.791 -0.5372 -1.0120 -0.7827
 5335TIP3   OH216010   3.527   5.560   2.489  0.1556  0.7594 -0.0308
 5335TIP3    H116011   3.509   5.500   2.416  1.5037  0.0686  0.1936
 5335TIP3    H216012   3.477   5.524   2.562  2.3185 -1.1811  0.6003
 5336TIP3   OH216013   4.402   3.479   2.884 -0.0477 -0.0573  0.3969
 5336TIP3    H116014   4.337   3.415   2.914  0.0656 -0.2837  0.1611
 5336TIP3    H216015   4.354   3.562   2.882  0.0369  0.0314  1.5358
 5337TIP3   OH216016   1.345   5.492   0.730 -0.2666 -0.4293  0.0066
 5337TIP3    H116017   1.297   5.575   0.731 -1.0706 -0.8860  0.3832
 5337TIP3    H216018   1.324   5.451   0.814  0.3115 -0.9106 -0.0781
 5338TIP3   OH216019   2.871   4.379   1.326 -0.3049  0.1465 -0.5150
 5338TIP3    H116020   2.789   4.406   1.368 -0.6202  0.5381 -1.3702
 5338TIP3    H216021   2.939   4.425   1.375 -0.2834 -2.3960  2.1200
 5339TIP3   OH216022   3.179   3.217   2.116  0.3292 -0.0870  0.0612
 5339TIP3    H116023   3.227   3.200   2.197 -0.6305 -2.2825  0.2290
 5339TIP3    H216024   3.089   3.234   2.145  0.2273  0.3314 -0.4825
 5340TIP3   OH216025   0.121   3.915   2.100 -0.1302 -0.1476 -0.4229
 5340TIP3    H116026   0.164   3.970   2.165 -0.2877  0.5088 -0.8616
 5340TIP3    H216027   0.187   3.850   2.075  0.1656  0.0435 -0.1336
 5341TIP3   OH216028   5.745   4.367   0.981  0.4121  0.1102 -0.1094
 5341TIP3    H116029   5.652   4.358   0.961  0.5910 -1.4559 -0.3721
 5341TIP3    H216030   5.781   4.416   0.907 -0.0560 -0.0081 -0.4177
 5342TIP3   OH216031   2.415   4.426   3.518 -0.0182 -0.5756  0.9340
 5342TIP3    H116032   2.329   4.434   3.477  0.0089 -1.8171  0.5952
 5342TIP3    H216033   2.429   4.511   3.561  0.1224  0.9513 -1.8885
 5343TIP3   OH216034   3.288   4.366   3.439  0.0011 -0.6280 -0.1880
 5343TIP3    H116035   3.379   4.339   3.433  0.0677 -0.2788 -0.9070
 5343TIP3    H216036   3.288   4.457   3.407 -0.7776 -1.0278 -1.4234
 5344TIP3   OH216037   4.570   3.002   2.722  0.4575 -0.5191 -0.3411
 5344TIP3    H116038   4.598   2.940   2.790 -1.2463 -1.1472 -0.1564
 5344TIP3    H216039   4.506   2.952   2.670 -0.5511  0.9092 -0.5130
 5345TIP3   OH216040   3.241   3.012   0.555  0.0204 -0.1681 -0.0337
 5345TIP3    H116041   3.163   2.971   0.517  1.0578 -0.6998 -1.6597
 5345TIP3    H216042   3.310   2.946   0.547  0.7286  0.3935  1.1382
 5346TIP3   OH216043   0.190   3.103   4.734 -0.0439  0.0119 -0.1683
 5346TIP3    H116044   0.097   3.127   4.728 -0.3876 -1.4973 -1.6828
 5346TIP3    H216045   0.190   3.009   4.747  1.3078  0.3398  3.2129
 5347TIP3   OH216046   5.910   4.746   0.371  0.2730  0.3517 -0.5105
 5347TIP3    H116047   5.864   4.755   0.288 -0.6115  0.8441  0.0247
 5347TIP3    H216048   5.865   4.806   0.430  2.5694  2.0821 -0.3653
 5348TIP3   OH216049   3.086   1.576   3.764  0.2765 -0.1803  0.4586
 5348TIP3    H116050   3.153   1.510   3.750  0.2704 -0.1423  0.2475
 5348TIP3    H216051   3.066   1.571   3.857  0.1536 -0.5929  0.4097
 5349TIP3   OH216052   0.707   4.218   1.132  0.4302 -0.0446 -0.3505
 5349TIP3    H116053   0.769   4.145   1.134 -0.3775 -0.7379 -0.3750
 5349TIP3    H216054   0.626   4.183   1.168 -0.0754  0.7475 -0.6783
 5350TIP3   OH216055   4.610   5.123   4.185  0.3712  0.0804 -0.2813
 5350TIP3    H116056   4.558   5.119   4.105  0.5909 -2.9186 -0.4009
 5350TIP3    H216057   4.698   5.149   4.155  0.1611  0.1774 -0.8166
 5351TIP3   OH216058   0.934   0.660   2.382  0.0270  0.1605  0.1287
 5351TIP3    H116059   0.879   0.590   2.417  1.7996 -0.3274  2.1478
 5351TIP3    H216060   0.942   0.640   2.289 -0.3491 -1.7553  0.4660
 5352TIP3   OH216061   2.235   5.719   2.157 -0.3348 -0.5736 -0.3120
 5352TIP3    H116062   2.310   5.760   2.201  0.4875 -1.3363 -0.9629
 5352TIP3    H216063   2.233   5.630   2.192 -1.0822 -0.4936 -0.1393
 5353TIP3   OH216064   3.804   4.172   4.704 -0.1358 -0.3218 -0.4472
 5353TIP3    H116065   3.708   4.180   4.706 -0.0363  0.8165  0.4004
 5353TIP3    H216066   3.831   4.219   4.626  0.0576  4.1209  1.9434
 5354TIP3   OH216067   2.745   2.830   1.661 -0.1909  0.1685  0.0094
 5354TIP3    H116068   2.756   2.854   1.569  1.9876 -1.2118 -0.1772
 5354TIP3    H216069   2.718   2.739   1.659  0.9176 -0.2011  0.7059
 5355TIP3   OH216070   5.569   4.021   4.027 -0.0093 -0.3949 -0.1314
 5355TIP3    H116071   5.606   4.096   4.073  0.4732 -1.1183  0.6946
 5355TIP3    H216072   5.611   4.022   3.941  0.1450  0.1554 -0.0535
 5356TIP3   OH216073   0.259   2.011   4.837 -0.2788  0.4406 -0.4619
 5356TIP3    H116074   0.184   1.951   4.830  0.2453 -0.2345 -0.3843
 5356TIP3    H216075   0.283   2.009   4.930 -0.1876  0.6829 -0.4805
 5357TIP3   OH216076   2.187   4.578   1.775  0.5310 -0.7507  0.1601
 5357TIP3    H116077   2.174   4.498   1.826  0.3716 -1.0959 -0.4060
 5357TIP3    H216078   2.107   4.587   1.724 -0.0076  0.4981  1.1788
 5358TIP3   OH216079   4.575   4.286   1.773 -0.3305  0.6012  0.3435
 5358TIP3    H116080   4.651   4.336   1.742  0.0480  1.5270  2.5407
 5358TIP3    H216081   4.520   4.276   1.696  0.6898  2.3925 -0.7010
 5359TIP3   OH216082   2.227   1.929   3.453  0.0295  0.1432 -0.0069
 5359TIP3    H116083   2.286   1.987   3.501  1.0961  0.8261 -2.0511
 5359TIP3    H216084   2.221   1.967   3.365 -2.5735 -0.5430 -0.2304
 5360TIP3   OH216085   2.043   2.572   4.089 -0.1401  0.1137  0.4099
 5360TIP3    H116086   1.991   2.588   4.009  1.0763 -0.4795 -0.5347
 5360TIP3    H216087   2.033   2.479   4.106  0.5412  0.0046  0.2534
 5361TIP3   OH216088   5.282   3.764   0.817 -0.3183  0.1239 -0.2010
 5361TIP3    H116089   5.287   3.837   0.878 -2.3764 -0.1550  0.3470
 5361TIP3    H216090   5.260   3.804   0.733 -1.0704  0.1691  0.0179
 5362TIP3   OH216091   4.212   4.724   2.413 -0.4407 -0.7300  0.0203
 5362TIP3    H116092   4.130   4.767   2.388 -0.3109 -0.3386  0.2549
 5362TIP3    H216093   4.277   4.757   2.351  0.4470  2.2267  2.2993
 5363TIP3   OH216094   4.098   2.077   1.767 -0.0724 -0.7589 -0.0030
 5363TIP3    H116095   4.050   2.142   1.716  2.6688 -1.6080 -4.1447
 5363TIP3    H216096   4.036   2.004   1.777 -1.1427 -0.0069 -0.9669
 5364TIP3   OH216097   3.085   5.640   1.744 -0.5002  0.6260 -0.2045
 5364TIP3    H116098   3.001   5.633   1.699 -0.5503  1.3821 -0.2269
 5364TIP3    H216099   3.064   5.667   1.832 -0.4904 -1.8626  0.6549
 5365TIP3   OH216100   3.724   3.273   1.344  0.1130  0.6792 -0.2417
 5365TIP3    H116101   3.685   3.291   1.258  0.0222  0.1132 -0.3244
 5365TIP3    H216102   3.666   3.316   1.406 -1.1154 -0.7959 -0.3016
 5366TIP3   OH216103   1.954   0.517   3.503 -0.5451 -0.3696 -0.1903
 5366TIP3    H116104   1.913   0.447   3.554 -0.3983  0.1684  0.6977
 5366TIP3    H216105   2.005   0.472   3.436  0.9627 -1.2000  1.4331
 5367TIP3   OH216106   5.234   3.873   1.074 -0.1375  0.0328  0.0337
 5367TIP3    H116107   5.145   3.839   1.062  0.0283  0.0648 -1.4129
 5367TIP3    H216108   5.275   3.813   1.135 -0.5885 -1.0407 -0.6968
 5368TIP3   OH216109   2.217   2.392   4.343  0.6477 -0.4175 -0.1174
 5368TIP3    H116110   2.225   2.307   4.300  3.2934  0.1275 -0.8636
 5368TIP3    H216111   2.243   2.455   4.276  0.2593  0.8544  0.8960
 5369TIP3   OH216112   0.457   2.944   0.247 -0.9868  0.2839 -0.1755
 5369TIP3    H116113   0.372   2.968   0.283 -0.4025  2.7138 -0.2396
 5369TIP3    H216114   0.447   2.957   0.152 -0.7032  0.0139 -0.2447
 5370TIP3   OH216115   5.881   0.445   3.487 -0.3282 -0.8119 -0.0561
 5370TIP3    H116116   5.947   0.393   3.533  2.0506  0.7276 -1.5255
 5370TIP3    H216117   5.861   0.517   3.546 -0.1311 -0.8948  0.1119
 5371TIP3   OH216118   1.152   2.591   2.212  0.2147  0.4495  0.0180
 5371TIP3    H116119   1.140   2.664   2.273 -0.4662 -1.0559  1.7706
 5371TIP3    H216120   1.067   2.582   2.169 -0.0776 -0.0724  0.6970
 5372TIP3   OH216121   4.722   5.207   3.551  0.0686 -0.1074 -0.1070
 5372TIP3    H116122   4.741   5.298   3.527  0.8218  0.4572  2.3535
 5372TIP3    H216123   4.809   5.168   3.565 -0.1951 -1.5213 -1.9738
 5373TIP3   OH216124   2.530   2.048   3.867  0.9183  0.4340  0.5114
 5373TIP3    H116125   2.612   2.095   3.854  2.0320 -1.7584 -1.0539
 5373TIP3    H216126   2.554   1.972   3.921  0.1092 -0.6464 -0.5838
 5374TIP3   OH216127   5.002   2.469   0.327  0.3301  0.5707  0.2047
 5374TIP3    H116128   4.937   2.515   0.380  1.1787 -1.6220  3.5058
 5374TIP3    H216129   5.082   2.521   0.337  0.3057  0.5567  0.5002
 5375TIP3   OH216130   5.922   3.443   4.604 -0.4400  0.0828 -0.2336
 5375TIP3    H116131   5.988   3.479   4.545 -0.3970 -1.7590 -1.3889
 5375TIP3    H216132   5.944   3.480   4.689  0.6499  1.3423 -1.0252
 5376TIP3   OH216133   2.698   3.407   1.641 -0.4494 -0.4213  0.5616
 5376TIP3    H116134   2.603   3.395   1.643 -0.2050 -3.5121  2.9544
 5376TIP3    H216135   2.713   3.488   1.690 -1.8419 -1.1969  2.3976
 5377TIP3   OH216136   1.774   0.795   2.636 -0.1498  0.1630  0.6834
 5377TIP3    H116137   1.738   0.773   2.722 -0.4806 -1.3998  0.1795
 5377TIP3    H216138   1.716   0.863   2.602 -0.6165  0.0686  1.2798
 5378TIP3   OH216139   0.376   0.091   3.365 -0.1347  0.1809 -0.5436
 5378TIP3    H116140   0.289   0.105   3.330 -0.1844  0.3743 -0.3454
 5378TIP3    H216141   0.372   0.127   3.454  0.2264  0.4416 -0.6321
 5379TIP3   OH216142   4.037   5.182   0.392  0.1484  0.4532 -0.4118
 5379TIP3    H116143   4.099   5.149   0.457 -0.0984  3.2449  1.4028
 5379TIP3    H216144   4.065   5.140   0.310  1.8289 -1.5241  1.0410
 5380TIP3   OH216145   3.178   1.411   2.780  0.1147 -0.4035  0.3290
 5380TIP3    H116146   3.191   1.472   2.853  0.7110 -0.2483  0.0919
 5380TIP3    H216147   3.091   1.433   2.746 -0.8772 -1.5253  1.9816
 5381TIP3   OH216148   1.941   0.310   3.172 -0.1191  0.2902  0.0866
 5381TIP3    H116149   1.946   0.233   3.116  0.3300  0.4123 -0.0474
 5381TIP3    H216150   1.848   0.332   3.175 -0.2830 -0.4099  0.3366
 5382TIP3   OH216151   1.596   0.435   0.182 -0.8308 -0.1493  0.0488
 5382TIP3    H116152   1.532   0.501   0.211 -0.7682 -0.4496  0.8949
 5382TIP3    H216153   1.543   0.356   0.169 -1.0388  0.2457 -1.7290
 5383TIP3   OH216154   5.109   4.928   4.189 -0.2745  0.2045  0.1453
 5383TIP3    H116155   5.039   4.903   4.250  0.7257 -0.6720  0.9684
 5383TIP3    H216156   5.133   4.846   4.146 -0.5541  0.7110 -1.0044
 5384TIP3   OH216157   0.230   5.478   4.905  0.3115 -0.1285  0.3399
 5384TIP3    H116158   0.198   5.566   4.924  0.7816 -0.2223  1.6356
 5384TIP3    H216159   0.324   5.481   4.925  0.4710 -0.7415 -0.2712
 5385TIP3   OH216160   0.595   2.306   1.747  0.0003  0.4709  0.0508
 5385TIP3    H116161   0.605   2.228   1.693 -1.5698  0.2430  0.0362
 5385TIP3    H216162   0.650   2.372   1.706 -1.9482  0.6464 -2.5486
 5386TIP3   OH216163   4.054   5.656   3.840 -0.0132  0.2031 -0.0365
 5386TIP3    H116164   4.071   5.660   3.935  2.1011 -0.0292 -0.3535
 5386TIP3    H216165   4.026   5.566   3.824 -0.2443  0.2060  0.3291
 5387TIP3   OH216166   5.724   1.180   3.553  0.4796  0.1364  0.1813
 5387TIP3    H116167   5.651   1.188   3.614 -1.0581 -0.2178 -1.5124
 5387TIP3    H216168   5.793   1.234   3.590 -0.7879  0.8055  1.6473
 5388TIP3   OH216169   3.729   5.586   0.572  0.5342  0.1645 -0.4276
 5388TIP3    H116170   3.653   5.602   0.628  1.8190 -1.6670  2.0158
 5388TIP3    H216171   3.692   5.549   0.492 -1.2265  0.2801  0.2841
 5389TIP3   OH216172   4.800   5.177   5.153  0.0768 -0.1948  0.0521
 5389TIP3    H116173   4.788   5.091   5.114 -0.6409 -0.2433  0.3664
 5389TIP3    H216174   4.739   5.179   5.227  0.9611  0.1238  0.7956
 5390TIP3   OH216175   3.784   1.772   3.139 -0.5115 -0.9218 -0.2089
 5390TIP3    H116176   3.766   1.749   3.230 -0.1162  2.1345  0.7299
 5390TIP3    H216177   3.712   1.828   3.112  0.2800 -0.3149 -1.1732
 5391TIP3   OH216178   3.705   3.223   1.661  1.0268 -0.7908  0.1661
 5391TIP3    H116179   3.685   3.129   1.658  1.0292 -0.9121  2.3382
 5391TIP3    H216180   3.699   3.245   1.754  1.3835  1.2987 -0.2712
 5392TIP3   OH216181   2.092   5.764   1.929  0.3528 -0.3076  0.2539
 5392TIP3    H116182   2.143   5.748   2.008  1.5994 -0.2365 -0.5090
 5392TIP3    H216183   2.132   5.842   1.890 -0.5480 -0.0635 -0.2022
 5393TIP3   OH216184   0.971   4.566   1.779 -0.1281  0.3191  0.0920
 5393TIP3    H116185   0.941   4.500   1.717 -1.4238  2.9003 -2.2007
 5393TIP3    H216186   1.061   4.586   1.753 -0.5191  1.0792 -0.6973
 5394TIP3   OH216187   1.842   0.165   2.290 -0.4674 -0.1349 -0.3722
 5394TIP3    H116188   1.821   0.075   2.314 -0.9172  0.4107  1.4273
 5394TIP3    H216189   1.920   0.186   2.341  0.1245  0.2502 -1.4049
 5395TIP3   OH216190   4.647   3.255   0.308  0.0257  0.5123  0.0505
 5395TIP3    H116191   4.628   3.189   0.375 -1.0001  0.0653 -0.6556
 5395TIP3    H216192   4.600   3.333   0.338  0.5739  0.6935  0.4657
 5396TIP3   OH216193   2.006   2.714   2.831  0.4313 -0.0073  0.2154
 5396TIP3    H116194   2.042   2.704   2.920  0.1116 -2.5529  0.1321
 5396TIP3    H216195   1.929   2.771   2.843  0.1085 -0.6965  1.6630
 5397TIP3   OH216196   2.137   3.132   4.202  0.4256  0.0024 -0.0329
 5397TIP3    H116197   2.124   3.218   4.244  0.6995 -0.4535  1.0186
 5397TIP3    H216198   2.065   3.126   4.139  0.2872  0.9223  0.0130
 5398TIP3   OH216199   0.301   5.134   5.129  0.2381 -0.0670  0.2222
 5398TIP3    H116200   0.279   5.225   5.149  1.6895  0.1408  1.0907
 5398TIP3    H216201   0.247   5.111   5.054 -0.5016  1.3619  0.2975
 5399TIP3   OH216202   4.294   4.467   0.111 -1.0067  0.0834  0.3650
 5399TIP3    H116203   4.237   4.441   0.184 -1.4046 -1.3958 -0.4305
 5399TIP3    H216204   4.287   4.562   0.108 -1.8623  0.0879  1.5489
 5400TIP3   OH216205   2.859   1.354   1.702 -0.0327 -0.6186  0.1422
 5400TIP3    H116206   2.936   1.405   1.728 -0.8796 -0.3741  2.4247
 5400TIP3    H216207   2.887   1.262   1.709  0.2724 -0.5251  0.1522
 5401TIP3   OH216208   4.834   2.191   1.833 -0.3451 -0.2921  0.3337
 5401TIP3    H116209   4.851   2.129   1.904 -1.4662 -0.2794  0.6215
 5401TIP3    H216210   4.922   2.217   1.803  0.1358 -1.2343  0.8806
 5402TIP3   OH216211   3.062   3.091   4.551 -0.1219 -0.0173 -0.1108
 5402TIP3    H116212   3.096   3.058   4.468  2.3939  0.3172  0.7293
 5402TIP3    H216213   3.095   3.031   4.617  1.9033  2.2852  1.1127
 5403TIP3   OH216214   1.232   3.057   3.415  0.5518 -0.0296  0.5804
 5403TIP3    H116215   1.311   3.003   3.414  1.6955  1.5416 -0.3250
 5403TIP3    H216216   1.211   3.071   3.323  0.2358  0.9521  0.7851
 5404TIP3   OH216217   1.898   3.642   2.698 -0.3714  0.3141 -0.3320
 5404TIP3    H116218   1.913   3.551   2.672 -2.1652 -0.5268  1.3601
 5404TIP3    H216219   1.977   3.688   2.668  0.6780 -1.8045 -1.0520
 5405TIP3   OH216220   3.447   5.517   2.827 -0.3654 -0.0871  0.1861
 5405TIP3    H116221   3.378   5.581   2.840 -0.3658  0.2134 -1.1566
 5405TIP3    H216222   3.451   5.468   2.909 -1.5548  0.4810  0.5941
 5406TIP3   OH216223   3.751   0.389   2.817  0.4992 -0.1547 -0.2250
 5406TIP3    H116224   3.744   0.324   2.886  1.5369  0.3848  0.4121
 5406TIP3    H216225   3.750   0.339   2.735 -0.8180 -0.7890  0.1644
 5407TIP3   OH216226   3.824   2.498   3.315 -0.0714  0.1052  0.2021
 5407TIP3    H116227   3.873   2.431   3.363  0.6990  0.4487 -0.0972
 5407TIP3    H216228   3.884   2.528   3.247 -1.2481 -0.6049 -1.2142
 5408TIP3   OH216229   3.832   2.406   0.687 -0.1190 -0.3326 -0.0356
 5408TIP3    H116230   3.872   2.374   0.607  0.3375 -0.9551  0.4381
 5408TIP3    H216231   3.836   2.332   0.748 -0.3896  0.1560  0.5880
 5409TIP3   OH216232   3.914   3.066   0.216 -0.5002 -0.2003  0.3560
 5409TIP3    H116233   3.838   3.122   0.198 -0.4022 -0.6379 -1.5512
 5409TIP3    H216234   3.985   3.105   0.166 -0.0845 -1.2276  0.1243
 5410TIP3   OH216235   2.357   3.692   4.873 -0.2277  0.3829 -0.0982
 5410TIP3    H116236   2.391   3.759   4.814 -1.7020  0.8392 -0.4802
 5410TIP3    H216237   2.351   3.613   4.819 -0.0318  0.3706 -0.1018
 5411TIP3   OH216238   2.194   4.376   2.034 -0.3005  0.2314 -0.1168
 5411TIP3    H116239   2.144   4.365   2.115 -1.4795 -0.9244 -0.9613
 5411TIP3    H216240   2.218   4.287   2.008  2.1976  0.7361  0.2105
 5412TIP3   OH216241   5.794   1.517   2.822 -0.2487  0.0522  0.0145
 5412TIP3    H116242   5.841   1.579   2.878 -0.1035 -0.4473  0.4499
 5412TIP3    H216243   5.718   1.491   2.873 -0.3465 -0.0801 -0.1959
 5413TIP3   OH216244   0.205   2.850   2.077  0.3252  0.1671 -0.3358
 5413TIP3    H116245   0.274   2.847   2.011  0.5282  0.3286 -0.1344
 5413TIP3    H216246   0.125   2.864   2.027  0.6287  1.6191 -0.4601
 5414TIP3   OH216247   2.723   1.387   2.123  0.1824  0.0518  0.2973
 5414TIP3    H116248   2.670   1.351   2.052  0.6442  0.3667 -0.2135
 5414TIP3    H216249   2.723   1.319   2.190  0.6145 -0.6797 -0.4399
 5415TIP3   OH216250   6.047   1.761   0.384 -0.4682 -0.8279  0.5125
 5415TIP3    H116251   5.996   1.680   0.377  0.8581 -1.5498 -3.5462
 5415TIP3    H216252   6.134   1.731   0.409 -0.2154 -0.5833 -0.0559
 5416TIP3   OH216253   4.829   2.994   4.586  0.0645 -0.2540  0.5071
 5416TIP3    H116254   4.880   2.967   4.510 -1.3125  1.0767 -0.9785
 5416TIP3    H216255   4.737   2.984   4.558 -0.4977 -0.6803  2.3645
 5417TIP3   OH216256   2.611   1.625   3.033  0.2532  0.2917  0.0827
 5417TIP3    H116257   2.574   1.550   2.987  0.8711 -0.8013  1.3193
 5417TIP3    H216258   2.537   1.684   3.046 -0.7070 -1.0396  0.9182
 5418TIP3   OH216259   2.232   4.210   4.681  0.2169  0.5864 -0.3353
 5418TIP3    H116260   2.189   4.203   4.767  0.6733  0.7417 -0.0899
 5418TIP3    H216261   2.325   4.225   4.702  0.8461 -2.0995 -0.8209
 5419TIP3   OH216262   0.445   2.764   1.848  0.2140  0.2880 -0.4672
 5419TIP3    H116263   0.421   2.678   1.882 -0.9530  1.1450  0.9443
 5419TIP3    H216264   0.375   2.786   1.786  0.8362 -0.0163 -1.3046
 5420TIP3   OH216265   4.672   5.017   0.320 -0.1330  0.7600  0.5755
 5420TIP3    H116266   4.747   5.015   0.379  0.5360  1.4377 -0.2216
 5420TIP3    H216267   4.626   4.934   0.335  0.0773  0.8731  1.9506
 5421TIP3   OH216268   5.002   4.478   2.000  0.9346 -0.6629 -0.1714
 5421TIP3    H116269   5.004   4.514   1.911 -2.1918  0.1978  0.0104
 5421TIP3    H216270   5.006   4.556   2.057 -0.1504 -0.9678  0.3473
 5422TIP3   OH216271   2.496   5.309   3.013  0.1514  0.0449  0.6341
 5422TIP3    H116272   2.492   5.387   2.958  1.2548 -1.1677 -1.2703
 5422TIP3    H216273   2.446   5.243   2.964 -1.2877 -0.3378  2.4997
 5423TIP3   OH216274   2.576   4.736   4.258  0.4208 -0.1540 -0.2261
 5423TIP3    H116275   2.531   4.657   4.288  0.2771 -0.0867 -0.2601
 5423TIP3    H216276   2.628   4.764   4.333 -0.4709  0.4053  0.2051
 5424TIP3   OH216277   0.190   5.827   0.186  0.1603  0.0567 -0.3757
 5424TIP3    H116278   0.258   5.842   0.252 -0.6562  0.8832  0.2880
 5424TIP3    H216279   0.111   5.810   0.236  0.0675 -2.0571 -1.1343
 5425TIP3   OH216280   3.210   1.851   0.761  0.3664  0.4516  0.0532
 5425TIP3    H116281   3.128   1.801   0.755  1.1837 -1.1225  1.2477
 5425TIP3    H216282   3.192   1.918   0.827  0.9634 -2.0359  2.9884
 5426TIP3   OH216283   3.658   0.173   4.702  0.0011  0.0894  0.5048
 5426TIP3    H116284   3.678   0.261   4.671  0.0770  0.2524  1.0077
 5426TIP3    H216285   3.740   0.139   4.736 -0.2539  0.2249  1.2730
 5427TIP3   OH216286   1.018   3.530   1.069  0.2101  0.1489 -0.1349
 5427TIP3    H116287   1.109   3.559   1.069  0.4714 -0.6411  0.2513
 5427TIP3    H216288   1.006   3.489   0.983  0.0977  0.6017 -0.3385
 5428TIP3   OH216289   0.571   0.991   0.912 -0.4694  0.6666  0.4865
 5428TIP3    H116290   0.526   0.907   0.928  0.5557 -0.1239 -0.6228
 5428TIP3    H216291   0.664   0.968   0.908 -0.3012  1.4704 -1.9440
 5429TIP3   OH216292   5.403   0.346   4.686 -0.3707  0.0069  0.0910
 5429TIP3    H116293   5.325   0.387   4.724 -0.7097  0.4389 -1.0189
 5429TIP3    H216294   5.434   0.285   4.753 -3.0825 -2.0269 -0.3510
 5430TIP3   OH216295   3.500   1.859   5.082 -1.0089  0.5079  0.0637
 5430TIP3    H116296   3.472   1.919   5.151 -0.9358 -0.4978  0.9897
 5430TIP3    H216297   3.492   1.772   5.121  0.5519  0.0148 -0.6523
 5431TIP3   OH216298   3.505   0.451   0.795  0.5307 -0.0772  0.0806
 5431TIP3    H116299   3.428   0.499   0.767 -0.8151 -1.2094  1.6687
 5431TIP3    H216300   3.483   0.418   0.882  2.2012 -1.7495 -0.0590
 5432TIP3   OH216301   0.106   0.080   0.228 -0.2516 -0.1141  0.0256
 5432TIP3    H116302   0.050   0.145   0.270 -0.0467 -0.3128  0.6202
 5432TIP3    H216303   0.195   0.115   0.236 -0.0112 -0.9237  1.2849
 5433TIP3   OH216304   4.295   3.614   0.923 -0.2693  0.1538 -0.0920
 5433TIP3    H116305   4.356   3.685   0.903 -0.1612  0.6305  1.7585
 5433TIP3    H216306   4.209   3.650   0.901 -0.0660  0.1707 -0.8971
 5434TIP3   OH216307   5.522   5.647   0.962  0.0079 -0.1172 -0.4386
 5434TIP3    H116308   5.574   5.663   1.040 -0.4980 -1.7895  0.3017
 5434TIP3    H216309   5.535   5.724   0.907  1.3856  0.5249  0.7354
 5435TIP3   OH216310   3.648   1.282   3.137  0.1237  0.0286 -0.2896
 5435TIP3    H116311   3.690   1.199   3.162 -0.3018 -0.6403 -1.6970
 5435TIP3    H216312   3.598   1.308   3.214 -0.6573 -1.6300 -0.2089
 5436TIP3   OH216313   0.715   5.365   0.603  0.2353  0.2230  0.3698
 5436TIP3    H116314   0.722   5.429   0.674 -0.5185  0.4662  0.2400
 5436TIP3    H216315   0.803   5.329   0.594  0.0075 -1.0058  2.5073
 5437TIP3   OH216316   0.957   4.529   0.018 -0.2728 -0.1616  0.2704
 5437TIP3    H116317   0.962   4.551   0.111 -0.4833  1.0622  0.0156
 5437TIP3    H216318   0.884   4.581  -0.015  0.6711  0.5009 -0.8594
 5438TIP3   OH216319   3.216   3.246   0.892 -0.0262  0.2009 -0.1355
 5438TIP3    H116320   3.125   3.261   0.920 -0.8119  0.9253 -2.8247
 5438TIP3    H216321   3.215   3.264   0.798  2.6380 -1.1230 -0.4828
 5439TIP3   OH216322   6.137   1.502   2.352 -0.0822 -0.0503  0.6240
 5439TIP3    H116323   6.230   1.489   2.333  0.0982  0.9260  0.7719
 5439TIP3    H216324   6.101   1.539   2.271 -0.3264 -0.3432  0.5962
 5440TIP3   OH216325   1.120   0.438   0.415  0.9170 -0.2679  0.3570
 5440TIP3    H116326   1.053   0.506   0.411 -0.1556 -1.3096 -0.2315
 5440TIP3    H216327   1.072   0.357   0.398  2.4462 -0.9660 -0.8804
 5441TIP3   OH216328   6.277   2.813   3.402  0.2803 -0.1206  0.0117
 5441TIP3    H116329   6.298   2.818   3.309 -0.3156 -1.7434 -0.2424
 5441TIP3    H216330   6.362   2.818   3.446  0.5001  1.6299 -0.5296
 5442TIP3   OH216331   4.423   5.252   3.349 -0.1347 -0.2918  0.7204
 5442TIP3    H116332   4.513   5.271   3.322 -0.2127 -0.3433  0.4286
 5442TIP3    H216333   4.369   5.305   3.291 -0.2724  0.2602  1.3321
 5443TIP3   OH216334   4.501   2.276   3.330 -0.1156 -0.2477  0.4153
 5443TIP3    H116335   4.576   2.236   3.373  0.4500 -0.2023 -0.5033
 5443TIP3    H216336   4.428   2.218   3.351 -0.1422  0.4854  2.5166
 5444TIP3   OH216337   4.634   4.402   2.649  0.1865 -0.3694 -0.0355
 5444TIP3    H116338   4.655   4.351   2.571  2.2760 -0.3695  0.4612
 5444TIP3    H216339   4.684   4.483   2.639 -2.5449  1.3993 -0.4895
 5445TIP3   OH216340   0.491   0.828   0.384  0.2948  0.2953 -0.0814
 5445TIP3    H116341   0.580   0.864   0.386  0.5460 -0.3292  0.2964
 5445TIP3    H216342   0.465   0.824   0.477 -0.5751  1.5389 -0.2370
 5446TIP3   OH216343   5.392   2.990   1.496 -0.2502  0.1302 -0.6367
 5446TIP3    H116344   5.452   2.953   1.431 -0.7014 -0.4026 -0.7556
 5446TIP3    H216345   5.447   3.005   1.573  0.3643  1.0923 -1.2409
 5447TIP3   OH216346   4.676   3.567   1.055  0.2897 -0.3152 -0.2430
 5447TIP3    H116347   4.738   3.514   1.105 -0.3262 -1.6960 -0.8772
 5447TIP3    H216348   4.649   3.510   0.983  0.8233  1.4562 -1.9256
 5448TIP3   OH216349   4.243   3.459   5.074 -0.0243 -0.5570  0.0467
 5448TIP3    H116350   4.271   3.548   5.096 -0.5558 -0.4080  0.1265
 5448TIP3    H216351   4.279   3.444   4.986 -0.6511  0.0629 -0.3298
 5449TIP3   OH216352   1.447   4.423   1.768  0.1547  0.2836  0.3342
 5449TIP3    H116353   1.401   4.348   1.732 -2.1043  1.1981  1.1629
 5449TIP3    H216354   1.534   4.389   1.791  0.5512 -1.0997 -2.7776
 5450TIP3   OH216355   2.818   1.775   3.770  0.2626  0.1219 -0.0331
 5450TIP3    H116356   2.755   1.707   3.747  0.1079  0.0756  0.5119
 5450TIP3    H216357   2.795   1.799   3.859  0.2142  1.0001 -0.2715
 5451TIP3   OH216358   6.246   4.470   4.320  0.0424 -0.1157  0.3450
 5451TIP3    H116359   6.165   4.447   4.274 -0.1303  1.9500 -0.4894
 5451TIP3    H216360   6.312   4.413   4.280 -0.6062 -0.2483 -0.5925
 5452TIP3   OH216361   0.638   3.442   4.397  0.0768  0.5842 -0.6238
 5452TIP3    H116362   0.570   3.380   4.424  1.7392 -1.8903 -1.7670
 5452TIP3    H216363   0.669   3.408   4.313  2.7693  1.5893 -0.1214
 5453TIP3   OH216364   0.808   1.054   4.489 -0.2506 -0.5011 -1.2290
 5453TIP3    H116365   0.761   1.130   4.524 -1.0279 -1.6530  0.3261
 5453TIP3    H216366   0.825   1.077   4.397 -0.8219  1.3623 -0.9126
 5454TIP3   OH216367   1.267   3.135   2.204 -0.2976  0.0808 -0.1820
 5454TIP3    H116368   1.354   3.135   2.245 -0.4253  0.3611  0.0966
 5454TIP3    H216369   1.218   3.071   2.256 -1.2851  2.4003  1.9336
 5455TIP3   OH216370   0.379   3.811   0.104  0.1401  0.0033 -0.2600
 5455TIP3    H116371   0.293   3.851   0.116  0.1129 -0.1419  0.0259
 5455TIP3    H216372   0.362   3.717   0.110  0.3038 -0.0294 -0.3046
 5456TIP3   OH216373   1.892   0.308   3.695  0.1882  0.4313 -0.4725
 5456TIP3    H116374   1.840   0.283   3.771  0.6676  0.1670 -0.2272
 5456TIP3    H216375   1.969   0.351   3.732  1.2378 -1.1753 -0.7284
 5457TIP3   OH216376   1.857   0.028   3.587 -0.0601 -0.1956 -0.7502
 5457TIP3    H116377   1.892   0.105   3.632 -1.7754  0.3440 -0.2499
 5457TIP3    H216378   1.763   0.046   3.579 -0.5834 -2.4312 -0.2374
 5458TIP3   OH216379   5.184   0.328   1.215  0.2745 -1.1403 -0.3441
 5458TIP3    H116380   5.225   0.375   1.142 -1.9788  2.4893  0.4669
 5458TIP3    H216381   5.108   0.285   1.176 -1.5984  1.7380 -0.1832
 5459TIP3   OH216382   2.099   5.064   2.174  0.4760  0.5010  0.9674
 5459TIP3    H116383   2.175   5.107   2.134 -0.5566  0.2280 -1.4526
 5459TIP3    H216384   2.134   4.983   2.210  1.4458  0.6522  0.4054
 5460TIP3   OH216385   0.108   0.633   0.689  0.1620  0.0217  0.0000
 5460TIP3    H116386   0.188   0.582   0.702  0.2695  0.1823 -0.0309
 5460TIP3    H216387   0.128   0.689   0.614  0.3217  0.6770  0.5312
 5461TIP3   OH216388   5.831   3.021   0.424  0.0270  0.1341  0.5202
 5461TIP3    H116389   5.889   3.073   0.368  0.7730 -0.0688  1.0823
 5461TIP3    H216390   5.765   2.987   0.364  1.8658 -1.6451 -0.6459
 5462TIP3   OH216391   5.952   0.439   2.922  0.3060  0.2776 -0.1881
 5462TIP3    H116392   5.908   0.418   2.840 -1.3991  0.7950  0.5404
 5462TIP3    H216393   5.886   0.422   2.989  2.1037 -1.5242  1.2370
 5463TIP3   OH216394   5.216   2.058   2.464  0.4446  0.3327  0.1567
 5463TIP3    H116395   5.270   1.994   2.511 -0.6765 -0.6710  0.1361
 5463TIP3    H216396   5.168   2.006   2.400  0.4614  1.4021 -0.7430
 5464TIP3   OH216397   0.359   0.143   2.405  0.0127 -0.3572  0.1048
 5464TIP3    H116398   0.428   0.108   2.462 -1.0374 -0.9469  1.0589
 5464TIP3    H216399   0.354   0.236   2.427 -0.7513 -0.6793  1.4172
 5465TIP3   OH216400   1.420   1.962   1.519 -0.2182  0.4623 -0.5006
 5465TIP3    H116401   1.431   1.957   1.424 -1.1270  2.4544 -0.7683
 5465TIP3    H216402   1.326   1.950   1.532 -0.1587  0.6208  0.1048
 5466TIP3   OH216403   3.403   3.790   5.044 -0.1525  0.1941 -0.0806
 5466TIP3    H116404   3.345   3.729   4.999  1.8037  0.2407 -2.8621
 5466TIP3    H216405   3.393   3.873   4.996  0.6158  0.8022  0.7807
 5467TIP3   OH216406   5.504   5.337   2.364  0.4224  0.5460  0.7116
 5467TIP3    H116407   5.532   5.385   2.442 -0.2040  1.4596  0.3842
 5467TIP3    H216408   5.409   5.352   2.359  0.4540  0.4961 -0.2173
 5468TIP3   OH216409   1.523   2.331   4.434 -0.1380 -0.8247 -0.4883
 5468TIP3    H116410   1.560   2.416   4.409 -1.6381  0.1581  0.4879
 5468TIP3    H216411   1.587   2.296   4.496  0.4272 -0.3450 -0.7845
 5469TIP3   OH216412   5.047   3.054   2.375  0.0925  0.0490 -0.0484
 5469TIP3    H116413   5.120   2.994   2.360  0.0380  0.1295 -0.6938
 5469TIP3    H216414   5.081   3.140   2.350 -0.5634 -0.0796 -1.5560
 5470TIP3   OH216415   5.348   5.379   0.101 -0.2076 -0.2280 -0.0697
 5470TIP3    H116416   5.308   5.402   0.017 -0.6029 -0.0349  0.1699
 5470TIP3    H216417   5.287   5.316   0.140  0.7208 -1.5058 -0.5942
 5471TIP3   OH216418   1.745   3.167   0.914  0.6367 -0.1664 -0.3968
 5471TIP3    H116419   1.784   3.254   0.906  1.1054  0.0244  2.7450
 5471TIP3    H216420   1.653   3.184   0.935  0.5094 -0.4622 -0.7090
 5472TIP3   OH216421   5.328  -0.008   2.867  0.8123 -0.0757 -0.4526
 5472TIP3    H116422   5.239   0.026   2.878  0.5592 -1.0712  0.7623
 5472TIP3    H216423   5.372   0.057   2.812 -0.5408  0.6451 -0.7074
 5473TIP3   OH216424   5.470   0.200   4.184  0.4891 -0.5951 -0.1555
 5473TIP3    H116425   5.541   0.229   4.241 -0.8833  1.9064  0.3939
 5473TIP3    H216426   5.413   0.148   4.242 -0.1673  0.7526  0.4384
 5474TIP3   OH216427   6.047   2.535   0.346 -0.1241 -0.3262 -0.1220
 5474TIP3    H116428   5.997   2.475   0.291 -2.0664 -0.0504  1.2122
 5474TIP3    H216429   6.121   2.484   0.377  0.9514 -0.5287 -2.7880
 5475TIP3   OH216430   3.723   1.378   0.272  0.2928 -0.0420 -0.5324
 5475TIP3    H116431   3.793   1.346   0.329  0.9851 -0.4033 -1.5332
 5475TIP3    H216432   3.645   1.379   0.326  1.1132  0.5407  0.6704
 5476TIP3   OH216433   1.423   3.800   3.384 -0.4416  0.2165 -0.3483
 5476TIP3    H116434   1.518   3.813   3.395 -0.1385 -1.1537 -1.0433
 5476TIP3    H216435   1.416   3.716   3.339 -2.0177  0.0873  0.0764
 5477TIP3   OH216436   2.144   3.180  -0.010  0.1809  0.3974 -0.0865
 5477TIP3    H116437   2.168   3.186   0.082  0.0895 -1.4734  0.0977
 5477TIP3    H216438   2.052   3.206  -0.013  0.1377  0.3025  0.3813
 5478TIP3   OH216439   5.822   5.198   0.934 -0.4261  0.2837  0.1036
 5478TIP3    H116440   5.794   5.269   0.993 -3.2639 -0.8556  0.2992
 5478TIP3    H216441   5.803   5.232   0.846 -1.5325 -0.0704  0.1847
 5479TIP3   OH216442   3.234   5.914   0.454 -0.1089 -0.1092 -0.0866
 5479TIP3    H116443   3.291   5.900   0.378  1.1457  0.9769  0.6063
 5479TIP3    H216444   3.233   5.830   0.499 -0.0523 -0.4847 -0.7613
 5480TIP3   OH216445   1.726   1.886   0.285  0.1395  0.5850 -0.2760
 5480TIP3    H116446   1.760   1.905   0.372 -0.0399  0.2437 -0.1317
 5480TIP3    H216447   1.791   1.828   0.246 -1.1915 -1.7198  0.7296
 5481TIP3   OH216448   2.598   0.266   1.779 -0.0976 -0.2514  0.1861
 5481TIP3    H116449   2.614   0.360   1.788  1.5149 -0.3985 -0.9735
 5481TIP3    H216450   2.502   0.260   1.771 -0.1766  1.3743 -0.6556
 5482TIP3   OH216451   3.119   4.899   0.561  0.0695  0.2685  0.3116
 5482TIP3    H116452   3.042   4.844   0.570  0.8125 -1.0049 -0.6882
 5482TIP3    H216453   3.109   4.940   0.475  0.7570 -0.3507 -0.0764
 5483TIP3   OH216454   5.475   1.155   0.092 -0.0756  0.4177  0.3427
 5483TIP3    H116455   5.403   1.190   0.040  1.1333  2.1200 -0.2798
 5483TIP3    H216456   5.474   1.061   0.074 -2.1787  0.3682  0.4515
 5484TIP3   OH216457   3.226   1.149   4.123 -0.4188  0.1411  0.2792
 5484TIP3    H116458   3.273   1.077   4.165  0.4109  0.8838  0.6511
 5484TIP3    H216459   3.250   1.144   4.031 -2.1324 -1.4081 -0.1346
 5485TIP3   OH216460   3.499   0.500   0.259 -0.4253  0.7276  0.2404
 5485TIP3    H116461   3.530   0.410   0.266  1.1728  1.1571 -0.7622
 5485TIP3    H216462   3.545   0.547   0.327  0.0733  1.1006 -0.3438
 5486TIP3   OH216463   5.024   0.122   5.065 -0.2852  0.2187  0.0742
 5486TIP3    H116464   5.015   0.123   5.160 -1.4380 -2.0609  0.0582
 5486TIP3    H216465   4.948   0.072   5.034  0.2643  0.5755 -2.0162
 5487TIP3   OH216466   5.762   3.954   0.645  0.9254  0.0320 -0.1682
 5487TIP3    H116467   5.698   3.895   0.686  0.6478 -0.0334 -0.6787
 5487TIP3    H216468   5.786   4.015   0.715 -0.9841  1.1245 -0.3735
 5488TIP3   OH216469   4.820   5.765   0.354 -0.1002  0.0315 -0.1624
 5488TIP3    H116470   4.868   5.779   0.272  0.2410  0.0693  0.0432
 5488TIP3    H216471   4.751   5.831   0.353 -0.9001 -0.7652 -1.0156
 5489TIP3   OH216472   4.892   5.842   4.985 -0.4870 -0.1052  0.3183
 5489TIP3    H116473   4.920   5.932   5.005  0.2685  0.0894 -1.4805
 5489TIP3    H216474   4.972   5.799   4.954 -0.6178 -1.7169  2.0272
 5490TIP3   OH216475   0.210   3.852   1.705 -0.2296 -0.1272 -0.3041
 5490TIP3    H116476   0.209   3.872   1.612 -1.0983 -0.6826 -0.4237
 5490TIP3    H216477   0.279   3.786   1.715 -0.1191 -0.0485 -0.5414
 5491TIP3   OH216478   1.070   1.331   0.108  0.2153  0.3604  0.8537
 5491TIP3    H116479   1.022   1.256   0.072  1.9367 -0.3940 -0.0264
 5491TIP3    H216480   1.033   1.407   0.063 -0.8323 -0.0692  0.9661
 5492TIP3   OH216481   5.614   3.493   0.260 -0.1393 -0.9404 -0.0828
 5492TIP3    H116482   5.532   3.543   0.267 -0.3787 -1.4732  1.2804
 5492TIP3    H216483   5.625   3.478   0.166 -0.4674  0.9748 -0.4705
 5493TIP3   OH216484   3.838   5.614   1.023  0.6578 -0.2055 -0.3869
 5493TIP3    H116485   3.932   5.633   1.027  0.5395  0.9677 -2.0925
 5493TIP3    H216486   3.796   5.700   1.021 -0.6073 -0.6852  2.0149
 5494TIP3   OH216487   2.398   2.387   3.684 -0.7158  0.1043  0.1442
 5494TIP3    H116488   2.408   2.438   3.764 -0.6502  1.9873 -0.9993
 5494TIP3    H216489   2.442   2.440   3.616  0.9984 -2.3600 -0.8155
 5495TIP3   OH216490   3.123   0.293   3.353 -0.4121  0.1386  0.6993
 5495TIP3    H116491   3.133   0.375   3.304  0.5413  0.2848  1.1093
 5495TIP3    H216492   3.042   0.255   3.321  0.4304 -0.0137 -1.3509
 5496TIP3   OH216493   4.137   0.495   4.332 -0.1672  0.3181 -0.2154
 5496TIP3    H116494   4.208   0.557   4.318 -1.5796  1.8374 -0.9735
 5496TIP3    H216495   4.168   0.438   4.403  1.7876  0.9045 -0.5551
 5497TIP3   OH216496   1.666   4.952   2.796 -0.3062 -0.2722  0.7587
 5497TIP3    H116497   1.620   4.923   2.875 -0.2596 -0.1468  0.8331
 5497TIP3    H216498   1.749   4.987   2.829  0.0524 -0.9407  0.5793
 5498TIP3   OH216499   6.009   1.052   3.508 -0.1745  0.0405 -0.2420
 5498TIP3    H116500   6.016   1.136   3.554 -1.2589 -0.8499  1.6825
 5498TIP3    H216501   5.932   1.061   3.452 -0.2846  0.3369 -0.0431
 5499TIP3   OH216502   3.956   5.270   3.325 -0.1126  0.8638  0.1591
 5499TIP3    H116503   3.864   5.276   3.351 -0.6378 -0.3526 -1.2955
 5499TIP3    H216504   3.995   5.210   3.389 -0.7826 -0.0731 -0.2970
 5500TIP3   OH216505   2.499   0.706   3.304  0.3072  0.3167  0.2880
 5500TIP3    H116506   2.500   0.790   3.258 -1.4819 -0.2791 -0.9781
 5500TIP3    H216507   2.485   0.641   3.235 -1.3949 -0.7225  1.5223
 5501TIP3   OH216508   5.271   1.634   2.314 -0.4433 -0.3764  0.0313
 5501TIP3    H116509   5.180   1.661   2.312 -0.3169  0.0353 -1.3164
 5501TIP3    H216510   5.269   1.546   2.352 -1.2721  0.0339  0.9725
 5502TIP3   OH216511   1.633   4.226   0.586  0.0357 -0.4204  0.3768
 5502TIP3    H116512   1.608   4.167   0.515  2.2931  0.7030 -1.5387
 5502TIP3    H216513   1.696   4.286   0.545  1.1602  0.5494  3.2670
 5503TIP3   OH216514   0.222   3.636   0.622  0.2492 -0.2911 -0.5968
 5503TIP3    H116515   0.278   3.601   0.691 -2.4834  0.1942  2.1040
 5503TIP3    H216516   0.212   3.729   0.644 -0.8865 -0.1904 -1.4636
 5504TIP3   OH216517   2.251   0.410   3.607  0.3467 -0.0462  0.2092
 5504TIP3    H116518   2.186   0.381   3.543  0.9359 -0.3203 -0.2692
 5504TIP3    H216519   2.200   0.458   3.672 -0.3914 -0.6137  0.0581
 5505TIP3   OH216520   2.271   3.915   4.295  0.1133 -0.5726  0.2259
 5505TIP3    H116521   2.291   3.904   4.388 -0.5274 -0.5516  0.3699
 5505TIP3    H216522   2.233   4.003   4.289 -0.6973 -0.9306  0.0894
 5506TIP3   OH216523   0.635   4.820   4.224 -0.7701 -0.0414 -0.3606
 5506TIP3    H116524   0.652   4.764   4.300 -0.2475  1.1776  0.4439
 5506TIP3    H216525   0.692   4.896   4.236  0.3400 -0.4123 -2.6775
 5507TIP3   OH216526   4.792   1.261   1.403  0.0436  0.5573  0.6615
 5507TIP3    H116527   4.778   1.173   1.437  1.0024 -0.7328 -1.9863
 5507TIP3    H216528   4.716   1.311   1.432  0.1510 -0.6996  3.4033
 5508TIP3   OH216529   0.139   1.200   4.569 -0.8320 -0.1656  0.0049
 5508TIP3    H116530   0.194   1.199   4.490 -1.1684 -1.8620 -0.2415
 5508TIP3    H216531   0.200   1.224   4.639 -0.0417 -0.7389 -0.4610
 5509TIP3   OH216532   1.486   3.758   3.863 -0.0604 -0.3665  0.3002
 5509TIP3    H116533   1.503   3.669   3.832 -0.0535  0.1107 -1.1572
 5509TIP3    H216534   1.539   3.814   3.806 -1.5022  0.6922 -0.0532
 5510TIP3   OH216535   0.174   4.728   4.328  0.3996  0.1571 -0.1206
 5510TIP3    H116536   0.148   4.771   4.246  0.5082 -1.3237 -0.9586
 5510TIP3    H216537   0.270   4.723   4.323  0.3341 -1.0305 -0.4990
 5511TIP3   OH216538   1.008   2.481   0.071  0.2031 -1.1583  0.5506
 5511TIP3    H116539   0.952   2.433   0.010 -2.2417  0.5318  1.3099
 5511TIP3    H216540   1.006   2.427   0.151 -3.5574  0.4922  1.8316
 5512TIP3   OH216541   0.078   1.003   1.677 -0.2889  0.0262  0.2151
 5512TIP3    H116542   0.011   1.035   1.737  0.9392  0.8988  1.1684
 5512TIP3    H216543   0.082   1.070   1.609  0.5642  0.6970  0.9037
 5513TIP3   OH216544   0.609   5.423   2.704  0.3765  0.1873  0.6077
 5513TIP3    H116545   0.592   5.330   2.690 -0.3811  0.2883  0.8124
 5513TIP3    H216546   0.543   5.468   2.650  1.2385  0.6234 -0.1250
 5514TIP3   OH216547   5.423   3.709   0.180 -0.8152  0.0200 -0.0955
 5514TIP3    H116548   5.340   3.664   0.195  0.6888 -2.8912  0.0104
 5514TIP3    H216549   5.454   3.676   0.096  1.2600 -0.6643  0.8685
 5515TIP3   OH216550   4.731   1.463   0.099  0.2288  0.1832 -0.0328
 5515TIP3    H116551   4.802   1.490   0.041  0.8829 -2.7764 -0.7305
 5515TIP3    H216552   4.761   1.488   0.187  1.2084  0.7541 -0.5201
 5516TIP3   OH216553   0.504   4.567   2.044  0.2754  0.1910  0.0460
 5516TIP3    H116554   0.485   4.560   1.950 -0.5703 -0.6350  0.2569
 5516TIP3    H216555   0.586   4.616   2.049  1.4324 -1.4688 -1.2490
 5517TIP3   OH216556   2.871   4.677   3.757  0.0762  0.3459  0.3113
 5517TIP3    H116557   2.823   4.694   3.838  0.0658 -0.9396  0.5922
 5517TIP3    H216558   2.804   4.669   3.689 -0.2312 -2.0596  0.8049
 5518TIP3   OH216559   6.149   1.609   4.429  0.4717 -0.4782  0.6693
 5518TIP3    H116560   6.240   1.614   4.459  0.7767  0.6587 -0.3708
 5518TIP3    H216561   6.134   1.516   4.413  1.4518 -0.6723  0.8327
 5519TIP3   OH216562   1.653   2.233   3.365 -0.1316 -0.5639 -0.1492
 5519TIP3    H116563   1.718   2.217   3.434 -0.9002 -1.9011  0.2883
 5519TIP3    H216564   1.695   2.203   3.285  0.0722 -0.7185  0.0151
 5520TIP3   OH216565   5.708   5.733   1.983 -0.4766  0.1158 -0.0009
 5520TIP3    H116566   5.739   5.643   1.982  0.9537  0.5753  0.6443
 5520TIP3    H216567   5.617   5.727   1.955 -0.1413 -1.4168 -0.8834
 5521TIP3   OH216568   1.198   0.274   0.673 -0.1452  0.2533 -0.3935
 5521TIP3    H116569   1.207   0.179   0.667  2.6397  0.4648 -0.9913
 5521TIP3    H216570   1.262   0.308   0.611 -1.2542  2.5590 -0.3901
 5522TIP3   OH216571   4.363   5.337   4.584  0.5805 -0.0224  0.5139
 5522TIP3    H116572   4.389   5.288   4.506  0.7942 -0.6481  0.9704
 5522TIP3    H216573   4.432   5.403   4.595  1.0850 -0.5772  0.7411
 5523TIP3   OH216574   3.864   0.592   1.815 -0.3091 -0.1626 -0.0059
 5523TIP3    H116575   3.932   0.582   1.749 -1.5982 -1.1351 -1.2406
 5523TIP3    H216576   3.850   0.687   1.820 -0.4710 -0.0876 -1.4527
 5524TIP3   OH216577   1.075   4.267   0.662 -0.3380  0.2128  0.3384
 5524TIP3    H116578   1.039   4.343   0.708 -0.4870  1.7673 -2.1283
 5524TIP3    H216579   1.169   4.285   0.655 -0.2498 -0.2127  0.3801
 5525TIP3   OH216580   5.881   1.401   2.223 -0.1971  0.0263  0.3911
 5525TIP3    H116581   5.943   1.346   2.271  0.4683 -0.0705 -0.5504
 5525TIP3    H216582   5.815   1.340   2.191 -0.3612  0.0185  0.7382
 5526TIP3   OH216583   4.942   5.797   4.412 -0.2862 -0.3489  0.0465
 5526TIP3    H116584   4.999   5.751   4.351 -1.6546 -1.3262 -0.5304
 5526TIP3    H216585   4.906   5.728   4.468 -2.2370 -0.0049 -0.7267
 5527TIP3   OH216586   3.648   3.045   4.337 -0.2702  0.2537 -0.2174
 5527TIP3    H116587   3.699   3.060   4.258  0.0149  0.5313  0.0194
 5527TIP3    H216588   3.707   2.996   4.394 -0.3136  0.4612  0.0059
 5528TIP3   OH216589   1.069   1.537   3.269  0.3945 -0.2001  0.8964
 5528TIP3    H116590   1.055   1.598   3.196  1.9316  0.6496  1.2628
 5528TIP3    H216591   1.046   1.588   3.347 -1.3924 -1.1533  1.0412
 5529TIP3   OH216592   4.271   0.766   3.000 -0.2862  0.1754 -0.0868
 5529TIP3    H116593   4.351   0.760   2.949 -0.5794  0.8333 -0.6391
 5529TIP3    H216594   4.201   0.753   2.936 -0.6300 -0.1197  0.3404
 5530TIP3   OH216595   3.068   2.907   0.370  0.4987 -0.1296  0.7505
 5530TIP3    H116596   2.984   2.952   0.361  0.9444  0.6086  0.1988
 5530TIP3    H216597   3.048   2.815   0.353 -0.2420  0.0004  0.8736
 5531TIP3   OH216598   5.151   4.330   0.783 -0.0266 -0.0986 -0.1314
 5531TIP3    H116599   5.184   4.278   0.710 -0.6459 -0.0140 -0.4700
 5531TIP3    H216600   5.104   4.267   0.838 -0.6110  0.0672 -0.4419
 5532TIP3   OH216601   3.795   4.951   1.288 -0.1817 -0.2005 -0.3364
 5532TIP3    H116602   3.833   4.863   1.282 -0.1739 -0.2295  0.1323
 5532TIP3    H216603   3.866   5.010   1.263  0.0338 -0.2843  0.0693
 5533TIP3   OH216604   5.195   2.331   0.771  0.6233  0.6274 -0.7906
 5533TIP3    H116605   5.179   2.238   0.785  1.0421  0.5320 -0.9528
 5533TIP3    H216606   5.109   2.372   0.783  0.6444  0.3595  0.3973
 5534TIP3   OH216607   0.146   1.723   0.026  0.4012 -0.3313  0.4311
 5534TIP3    H116608   0.144   1.643   0.077  1.6781 -0.3611  0.4657
 5534TIP3    H216609   0.217   1.775   0.066  0.8148  0.0207 -0.7250
 5535TIP3   OH216610   1.245   3.621   2.902 -0.5282 -0.1151  0.8052
 5535TIP3    H116611   1.197   3.649   2.980 -2.1308 -1.0981  0.2054
 5535TIP3    H216612   1.273   3.532   2.922  0.0908  0.0512  0.7025
 5536TIP3   OH216613   0.386   0.381   1.349  0.0130 -0.0191  0.3372
 5536TIP3    H116614   0.376   0.297   1.304  0.8355 -0.0145  0.1384
 5536TIP3    H216615   0.297   0.404   1.375 -0.1341 -1.3269  1.1029
 5537TIP3   OH216616   4.006   2.825   1.668 -0.0772  1.1729  0.0594
 5537TIP3    H116617   3.948   2.886   1.713  0.1667  2.9296 -1.8724
 5537TIP3    H216618   3.981   2.831   1.576  1.5678  0.1631 -0.5003
 5538TIP3   OH216619   0.463   5.951   0.872 -0.4180 -0.1029  0.0541
 5538TIP3    H116620   0.512   5.904   0.804  0.9273 -2.4341  2.4385
 5538TIP3    H216621   0.402   5.886   0.907 -1.1969  1.0786  0.9742
 5539TIP3   OH216622   3.116   5.268   0.332  0.1931 -0.0907  0.0051
 5539TIP3    H116623   3.138   5.361   0.331 -1.7261  0.4108 -1.0320
 5539TIP3    H216624   3.163   5.231   0.257  0.1983  0.2358 -0.1519
 5540TIP3   OH216625   5.593   2.175   4.173 -0.0372  0.2184  0.0591
 5540TIP3    H116626   5.540   2.151   4.098  1.0797 -0.7873 -0.4344
 5540TIP3    H216627   5.607   2.094   4.221  2.5832  0.0456 -0.8480
 5541TIP3   OH216628   2.495   4.661   1.991 -0.5473  0.1215 -0.6066
 5541TIP3    H116629   2.581   4.687   2.024 -1.4039  1.0222  1.0410
 5541TIP3    H216630   2.513   4.591   1.928  1.3188 -0.3438  0.3928
 5542TIP3   OH216631   6.278   5.985   1.455 -0.3312 -0.9289  0.6889
 5542TIP3    H116632   6.234   5.958   1.374 -0.5766 -0.2946  0.6059
 5542TIP3    H216633   6.333   5.910   1.479 -1.1789 -1.5895  0.5992
 5543TIP3   OH216634   2.302   3.267   3.053 -0.0318  0.1918  0.3782
 5543TIP3    H116635   2.207   3.259   3.045  0.0267 -1.5404  0.9274
 5543TIP3    H216636   2.318   3.271   3.147  0.5641 -3.1074  0.5671
 5544TIP3   OH216637   3.582   5.372   1.816 -0.3998  0.0447  0.0453
 5544TIP3    H116638   3.496   5.370   1.858 -0.1243 -1.5818  0.5908
 5544TIP3    H216639   3.591   5.285   1.776 -0.1504  1.1040 -2.4131
 5545TIP3   OH216640   1.812   4.070   3.182  0.8679  0.3649  0.0052
 5545TIP3    H116641   1.850   4.156   3.164  1.6780 -0.4217 -2.4995
 5545TIP3    H216642   1.717   4.085   3.176  1.0052  1.0310 -0.8211
 5546TIP3   OH216643   2.581   2.751   4.735 -0.3663  0.1228  0.4683
 5546TIP3    H116644   2.655   2.810   4.748  1.8138 -2.4297  0.5434
 5546TIP3    H216645   2.621   2.667   4.712 -3.3273 -0.9015 -1.6025
 5547TIP3   OH216646   0.212   2.434   1.024 -0.4760 -0.1395  0.0869
 5547TIP3    H116647   0.198   2.384   1.105  3.0843 -1.0847  0.2964
 5547TIP3    H216648   0.268   2.378   0.970 -0.5143  1.5894 -1.8744
 5548TIP3   OH216649   5.790   0.361   1.053 -0.0688  0.1993  0.2152
 5548TIP3    H116650   5.722   0.428   1.043 -0.3152 -0.0304  0.3115
 5548TIP3    H216651   5.752   0.299   1.115  0.4758  0.3763  0.7340
 5549TIP3   OH216652   1.324   5.706   2.580  0.2641  0.3097 -0.2129
 5549TIP3    H116653   1.345   5.613   2.573  0.1046  0.2556  0.0021
 5549TIP3    H216654   1.258   5.722   2.512  1.0276  0.4915 -0.9271
 5550TIP3   OH216655   5.137   4.356   4.148 -0.5495  0.2460 -0.0842
 5550TIP3    H116656   5.053   4.314   4.168  0.4424 -0.8644  2.0054
 5550TIP3    H216657   5.159   4.403   4.228  1.7921 -1.1735  0.1771
 5551TIP3   OH216658   1.368   3.850   0.847 -0.2798 -0.6488 -0.0108
 5551TIP3    H116659   1.415   3.855   0.763  1.2858 -0.4794  0.8434
 5551TIP3    H216660   1.313   3.928   0.848  2.3487  1.3601  0.5908
 5552TIP3   OH216661   0.586   2.894   1.088 -0.0123  0.0411  0.1507
 5552TIP3    H116662   0.538   2.929   1.012 -1.5884 -1.1235  0.5749
 5552TIP3    H216663   0.679   2.902   1.062 -0.3720  2.1902 -0.7570
 5553TIP3   OH216664   0.218   2.781   1.660  0.4304  0.1456 -0.0559
 5553TIP3    H116665   0.196   2.872   1.640  2.2033  0.5269 -0.4966
 5553TIP3    H216666   0.137   2.732   1.645 -0.4337  1.5905 -0.2479
 5554TIP3   OH216667   0.243   1.721   3.043  0.5948 -0.0747  0.1340
 5554TIP3    H116668   0.149   1.738   3.048  0.6248  0.1610 -0.0879
 5554TIP3    H216669   0.283   1.808   3.039  0.9659 -0.0693  2.4242
 5555TIP3   OH216670   2.006   4.670   2.277  0.1654 -0.1949 -0.1782
 5555TIP3    H116671   2.061   4.652   2.201 -1.5343 -1.5497 -1.1565
 5555TIP3    H216672   2.008   4.765   2.287  2.0741 -0.1408 -0.5835
 5556TIP3   OH216673   0.262   4.566   2.957  0.0569 -0.4623  0.6387
 5556TIP3    H116674   0.335   4.506   2.973 -0.1007 -0.8505 -0.0850
 5556TIP3    H216675   0.301   4.641   2.912  0.3310  0.1947  1.9252
 5557TIP3   OH216676   0.255   3.825   3.220  0.2360  0.6153  0.8250
 5557TIP3    H116677   0.309   3.765   3.168 -0.6882 -0.8595  1.5076
 5557TIP3    H216678   0.165   3.808   3.192  0.0523  2.8276 -0.0774
 5558TIP3   OH216679   0.626   0.814   4.220  0.2272 -0.1383 -0.2113
 5558TIP3    H116680   0.682   0.760   4.277 -1.0404 -0.2321  1.0173
 5558TIP3    H216681   0.674   0.821   4.138  1.3403 -1.4719  0.2893
 5559TIP3   OH216682   4.887   1.113   3.554 -0.1467 -0.0822 -0.6781
 5559TIP3    H116683   4.846   1.139   3.472 -0.1591  0.5854 -0.4721
 5559TIP3    H216684   4.853   1.025   3.572 -0.0069 -0.3075 -1.4699
 5560TIP3   OH216685   3.362   3.954   0.721 -0.2555  0.7205 -0.0107
 5560TIP3    H116686   3.389   3.938   0.812 -2.4146  1.2402  0.7675
 5560TIP3    H216687   3.378   3.870   0.677  1.4919  0.6675  0.6123
 5561TIP3   OH216688   1.583   0.046   3.606  0.1338  0.0407  0.2878
 5561TIP3    H116689   1.532  -0.025   3.568 -0.9833  0.6837  0.5207
 5561TIP3    H216690   1.550   0.054   3.696  0.5802  0.5310  0.4142
 5562TIP3   OH216691   4.239   0.428   2.316 -0.1011 -0.0612  0.6343
 5562TIP3    H116692   4.325   0.453   2.283 -0.1140  0.2851  0.8623
 5562TIP3    H216693   4.245   0.333   2.329  0.3139 -0.0052  0.8572
 5563TIP3   OH216694   2.297   4.971   2.565  0.3258  0.8120  0.1612
 5563TIP3    H116695   2.344   4.895   2.531 -0.2613 -0.1671  1.4209
 5563TIP3    H216696   2.316   5.041   2.503  1.1685 -0.2687 -0.8554
 5564TIP3   OH216697   1.700   1.352   0.674  0.0731 -0.0780  0.0092
 5564TIP3    H116698   1.663   1.421   0.728 -2.5889  0.3483 -2.0940
 5564TIP3    H216699   1.717   1.280   0.734 -0.1353  1.3024  1.7766
 5565TIP3   OH216700   0.511   2.379   0.900 -0.1513  0.5526  0.1838
 5565TIP3    H116701   0.585   2.420   0.856 -0.9077  1.3078 -0.4236
 5565TIP3    H216702   0.463   2.334   0.830 -1.8899  2.5639  0.0084
 5566TIP3   OH216703   1.689   4.354   2.934 -0.4253  0.0114  0.6948
 5566TIP3    H116704   1.706   4.260   2.944  1.7256  0.4638  1.7437
 5566TIP3    H216705   1.626   4.374   3.003 -2.0155 -0.8655 -0.4217
 5567TIP3   OH216706   1.625   0.907   4.246 -0.5279 -0.4458 -0.0742
 5567TIP3    H116707   1.645   0.874   4.158 -0.8147  0.5422 -0.5328
 5567TIP3    H216708   1.703   0.886   4.297  0.1576  0.0352 -0.8862
 5568TIP3   OH216709   1.990   2.358   0.536 -0.1236 -0.2829 -0.0403
 5568TIP3    H116710   2.030   2.273   0.556 -2.3978 -0.8472  2.7123
 5568TIP3    H216711   2.026   2.417   0.602 -0.9561  0.1019  0.0757
 5569TIP3   OH216712   4.946   0.947   1.603 -0.0147 -0.1565  0.0616
 5569TIP3    H116713   4.887   0.961   1.530 -2.4223  0.4313  1.9823
 5569TIP3    H216714   4.919   0.864   1.641  1.0390 -0.3497  0.4405
 5570TIP3   OH216715   4.541   2.643   1.764 -0.3004 -0.0745 -0.1299
 5570TIP3    H116716   4.468   2.625   1.824 -0.7958  2.2108  0.0816
 5570TIP3    H216717   4.498   2.663   1.681  0.2286 -0.6415 -0.5454
 5571TIP3   OH216718   1.961   0.214   3.981 -0.3364  0.2237  0.0597
 5571TIP3    H116719   2.041   0.162   3.972 -0.4329  0.2316 -1.0213
 5571TIP3    H216720   1.946   0.220   4.075  0.6176 -0.2656  0.2529
 5572TIP3   OH216721   3.779   0.553   4.798 -0.0651  0.7645  0.0456
 5572TIP3    H116722   3.828   0.511   4.726 -0.0723  0.6534  0.1045
 5572TIP3    H216723   3.691   0.566   4.763 -0.0497  0.7730  0.0103
 5573TIP3   OH216724   2.757   1.864   2.948  0.2975 -0.1042  0.8618
 5573TIP3    H116725   2.778   1.879   2.855 -1.1664  1.2097  0.7239
 5573TIP3    H216726   2.735   1.771   2.952  1.3943 -0.4185  0.1071
 5574TIP3   OH216727   5.668   4.274   4.948 -0.5867  0.8386 -0.2643
 5574TIP3    H116728   5.602   4.331   4.988 -1.8005 -1.2170  0.8263
 5574TIP3    H216729   5.636   4.260   4.859 -0.4901  1.5137 -0.4107
 5575TIP3   OH216730   2.955   3.230   1.009 -0.5138  0.4929 -0.0205
 5575TIP3    H116731   2.932   3.177   1.085 -1.1414  1.0036  0.1509
 5575TIP3    H216732   2.938   3.320   1.035 -0.2751  0.7156 -0.6019
 5576TIP3   OH216733   2.594   5.338   3.896  0.2352 -0.6240 -0.2400
 5576TIP3    H116734   2.627   5.291   3.819  1.7792 -1.3499  0.8082
 5576TIP3    H216735   2.525   5.281   3.930 -0.9546  0.0412 -1.4452
 5577TIP3   OH216736   5.920   3.780   4.221  0.7018 -0.2421 -0.0837
 5577TIP3    H116737   5.890   3.864   4.257 -0.0063 -0.2737 -0.5745
 5577TIP3    H216738   5.869   3.714   4.268  2.5159 -0.5500  1.5886
 5578TIP3   OH216739   0.873   1.315   1.761 -0.5158 -0.2679  0.1579
 5578TIP3    H116740   0.843   1.244   1.704 -0.0645 -0.8160  0.6000
 5578TIP3    H216741   0.964   1.331   1.735 -0.1971 -0.7495  0.9407
 5579TIP3   OH216742   6.300   4.361   3.806 -0.7181  0.4197 -0.2111
 5579TIP3    H116743   6.251   4.438   3.779  1.8805  1.6315 -1.8520
 5579TIP3    H216744   6.330   4.381   3.894  0.8877  1.8933 -1.0277
 5580TIP3   OH216745   3.170   3.564   3.617  0.5372 -0.2011 -0.2225
 5580TIP3    H116746   3.180   3.658   3.604  0.4254 -0.1070  0.3792
 5580TIP3    H216747   3.099   3.555   3.680 -0.4398 -0.7374 -1.3630
 5581TIP3   OH216748   3.446   0.041   0.067  0.2291  0.5146  0.2675
 5581TIP3    H116749   3.445   0.008  -0.023  0.1090 -0.7615  0.7128
 5581TIP3    H216750   3.535   0.071   0.081  1.7633 -3.8240  1.2455
 5582TIP3   OH216751   1.165   2.029   0.529  0.9637  0.5639  0.7147
 5582TIP3    H116752   1.191   2.082   0.453  2.2300 -0.6667  0.2463
 5582TIP3    H216753   1.247   2.009   0.574  0.7045 -1.9240  0.2197
 5583TIP3   OH216754   0.333   2.524   4.932 -0.0705 -0.2116 -0.0135
 5583TIP3    H116755   0.407   2.575   4.964 -1.7539  2.4051 -0.0125
 5583TIP3    H216756   0.282   2.505   5.010  0.1219 -1.2388 -0.1266
 5584TIP3   OH216757   4.434   4.406   4.272  0.3636 -0.0736  0.2399
 5584TIP3    H116758   4.435   4.311   4.275 -0.8747 -0.1592 -0.9903
 5584TIP3    H216759   4.524   4.430   4.248  0.8038 -0.8920  1.0195
 5585TIP3   OH216760   5.125   4.662   2.748 -0.1180  0.1320 -0.2256
 5585TIP3    H116761   5.081   4.704   2.822 -0.5325 -0.0493 -0.3612
 5585TIP3    H216762   5.204   4.624   2.785  0.8936  2.0208 -0.3033
 5586TIP3   OH216763   4.396   1.670   1.709 -0.5379  0.4119 -0.3592
 5586TIP3    H116764   4.484   1.644   1.683  0.6136  1.8779  1.7557
 5586TIP3    H216765   4.391   1.649   1.803 -2.7645 -0.3802 -0.5795
 5587TIP3   OH216766   4.370   5.550   2.924 -0.0883 -0.2161  0.4512
 5587TIP3    H116767   4.388   5.532   3.017  1.4822  2.8826  0.8558
 5587TIP3    H216768   4.277   5.575   2.922 -0.2180 -0.6098  1.1070
 5588TIP3   OH216769   0.020   2.984   1.933  0.0501  0.0199 -0.2290
 5588TIP3    H116770  -0.000   2.983   1.839 -1.4683 -0.5058  0.0671
 5588TIP3    H216771   0.050   3.073   1.950  0.9554 -0.0521 -1.3204
 5589TIP3   OH216772   5.579   2.138   3.478 -0.3476 -0.1428 -0.0899
 5589TIP3    H116773   5.614   2.224   3.455 -0.1947 -0.3871 -0.7698
 5589TIP3    H216774   5.577   2.139   3.574 -1.6046  1.1180 -0.0804
 5590TIP3   OH216775   1.485   5.716   0.254 -0.2961 -0.3697  0.2227
 5590TIP3    H116776   1.485   5.621   0.262 -0.8662 -0.4257 -0.4445
 5590TIP3    H216777   1.401   5.744   0.290 -0.2473 -0.1384  0.1603
 5591TIP3   OH216778   0.202   3.191   2.431  0.6819  0.0218  0.1902
 5591TIP3    H116779   0.277   3.206   2.373  1.9412 -0.3658  1.6517
 5591TIP3    H216780   0.157   3.116   2.393  0.6809  0.6083 -1.0285
 5592TIP3   OH216781   0.591   3.569   3.451 -0.1991  0.1169 -0.0860
 5592TIP3    H116782   0.615   3.635   3.387  0.4268  0.6206  0.6480
 5592TIP3    H216783   0.590   3.487   3.403  0.7411  0.4174 -0.6263
 5593TIP3   OH216784   4.650   2.359   0.707  0.2262 -0.5399 -1.2254
 5593TIP3    H116785   4.597   2.402   0.773 -0.1270  0.5882 -2.1978
 5593TIP3    H216786   4.634   2.266   0.718 -0.0741 -0.3432  0.0435
 5594TIP3   OH216787   1.903   0.947   0.848 -0.0395  0.1244 -0.0761
 5594TIP3    H116788   1.918   1.042   0.842 -0.1687  0.1427 -0.1099
 5594TIP3    H216789   1.982   0.913   0.890 -0.6158  0.4275  1.2804
 5595TIP3   OH216790   1.143   4.418   1.608 -0.5009  0.0520  0.7497
 5595TIP3    H116791   1.123   4.326   1.625  1.1329 -0.7567 -1.2060
 5595TIP3    H216792   1.086   4.442   1.534  1.1659 -0.3835 -0.7525
 5596TIP3   OH216793   3.095   3.377   3.026 -0.0220  0.2397  0.2399
 5596TIP3    H116794   3.110   3.312   3.094 -0.3328 -1.0992 -0.9218
 5596TIP3    H216795   3.004   3.403   3.037 -0.8225 -1.7627 -1.0778
 5597TIP3   OH216796   0.606   3.621   2.944 -0.3376  0.2537  0.3813
 5597TIP3    H116797   0.587   3.713   2.926 -0.6448  0.1020 -0.0713
 5597TIP3    H216798   0.695   3.608   2.910 -1.0408 -0.1245 -1.4279
 5598TIP3   OH216799   5.315   2.546   3.789  0.2146  0.0422  0.7995
 5598TIP3    H116800   5.245   2.596   3.831  1.0770  1.3030  0.8211
 5598TIP3    H216801   5.360   2.501   3.861 -0.8656 -1.1876  0.7279
 5599TIP3   OH216802   6.219   2.023   1.420  0.0696 -0.2407 -0.1214
 5599TIP3    H116803   6.183   1.940   1.451  0.3795  0.2964  1.8737
 5599TIP3    H216804   6.262   2.002   1.337  1.5281 -2.4575  1.0873
 5600TIP3   OH216805   3.442   0.671   3.976  0.0297 -0.1230 -0.2336
 5600TIP3    H116806   3.411   0.634   3.894  0.1726 -2.2593  0.6238
 5600TIP3    H216807   3.496   0.603   4.015 -1.4713  0.0939  2.4713
 5601TIP3   OH216808   2.461   1.721   2.006  0.2571  0.1269 -0.3656
 5601TIP3    H116809   2.487   1.811   1.988  0.4059  0.2230  0.3204
 5601TIP3    H216810   2.523   1.668   1.955 -0.9392  0.4184 -2.2165
 5602TIP3   OH216811   0.581   1.457   2.806  0.1501  0.0455  1.0059
 5602TIP3    H116812   0.551   1.500   2.887  1.5679 -1.2929  2.3253
 5602TIP3    H216813   0.580   1.364   2.827  0.9639 -0.2968 -0.3682
 5603TIP3   OH216814   6.299   0.306   0.570 -0.5921  0.7724  0.0108
 5603TIP3    H116815   6.255   0.292   0.654  0.6541 -1.2473  0.3900
 5603TIP3    H216816   6.389   0.327   0.594  0.0836 -1.0256 -0.7854
 5604TIP3   OH216817   0.526   5.151   2.573  0.9773  0.0668  0.4231
 5604TIP3    H116818   0.521   5.203   2.493  0.7596 -1.0152 -0.2839
 5604TIP3    H216819   0.457   5.186   2.629  0.3661  0.0735 -0.3220
 5605TIP3   OH216820   1.399   3.124   2.663 -0.1011 -0.5139 -0.2734
 5605TIP3    H116821   1.364   3.059   2.725 -0.2723 -0.9338 -0.8027
 5605TIP3    H216822   1.361   3.100   2.579 -2.5375  2.0582 -0.0279
 5606TIP3   OH216823   2.583   4.826   5.049  0.1621 -0.2350  0.5843
 5606TIP3    H116824   2.531   4.809   4.970  1.2095  0.0875 -0.2015
 5606TIP3    H216825   2.672   4.802   5.025  0.7607  1.2249  1.1876
 5607TIP3   OH216826   1.697   2.791   2.223  0.2180 -1.1973 -0.5248
 5607TIP3    H116827   1.712   2.822   2.312  0.4914 -2.2847 -0.1823
 5607TIP3    H216828   1.774   2.739   2.201  1.6364  1.5020 -2.5625
 5608TIP3   OH216829   1.736   1.708   2.704 -0.1892 -0.1921 -0.1322
 5608TIP3    H116830   1.651   1.744   2.734  0.8927  2.4416  0.0960
 5608TIP3    H216831   1.786   1.696   2.785  0.3886  0.3984 -0.3917
 5609TIP3   OH216832   3.247   5.717   0.983  0.0415  0.2759 -0.6095
 5609TIP3    H116833   3.300   5.773   0.927  0.0972 -0.3766 -1.2326
 5609TIP3    H216834   3.265   5.628   0.952 -0.7850 -0.0147 -0.2895
 5610TIP3   OH216835   5.376   2.281   2.536  0.0071 -0.1428 -0.1438
 5610TIP3    H116836   5.347   2.190   2.526 -1.0876  0.2224 -0.4476
 5610TIP3    H216837   5.297   2.329   2.560  0.2770  0.9484 -1.2984
 5611TIP3   OH216838   6.084   0.669   1.466  0.1801 -0.3225  0.4757
 5611TIP3    H116839   6.069   0.731   1.394  2.6241 -0.8083 -0.5469
 5611TIP3    H216840   6.119   0.722   1.537  0.5393 -0.2417  0.2442
 5612TIP3   OH216841   4.518   1.399   3.261 -0.6489 -0.9463  0.2844
 5612TIP3    H116842   4.455   1.327   3.257 -0.8138 -0.7665 -2.1974
 5612TIP3    H216843   4.475   1.470   3.214  0.6187 -0.1802  0.2498
 5613TIP3   OH216844   0.754   1.817   4.629  0.3706  0.0447  0.1410
 5613TIP3    H116845   0.710   1.897   4.601  1.4486  0.7148  0.3438
 5613TIP3    H216846   0.691   1.747   4.608 -0.1661  0.8298 -0.9635
 5614TIP3   OH216847   2.418   4.659   3.638 -0.1595 -0.3143 -0.2529
 5614TIP3    H116848   2.346   4.627   3.694  0.3662 -1.7091 -0.3169
 5614TIP3    H216849   2.478   4.702   3.699  0.1657 -1.3872  0.2152
 5615TIP3   OH216850   2.843   5.723   1.629  0.4884  0.2635  0.2966
 5615TIP3    H116851   2.908   5.777   1.585 -0.0851 -0.1726 -1.1582
 5615TIP3    H216852   2.763   5.776   1.628  0.3816  0.1080  0.4936
 5616TIP3   OH216853   2.707   4.365   4.846 -0.2903 -0.0552 -0.1142
 5616TIP3    H116854   2.743   4.295   4.792  1.0695  1.8951 -1.9347
 5616TIP3    H216855   2.760   4.364   4.926 -0.3831 -1.1635 -0.0576
 5617TIP3   OH216856   3.307   2.226   1.785 -0.7252 -0.1016 -0.5356
 5617TIP3    H116857   3.317   2.231   1.690 -2.4232 -1.7653 -0.8461
 5617TIP3    H216858   3.385   2.271   1.819  1.0126 -1.2852 -2.6788
 5618TIP3   OH216859   4.011   1.462   2.683 -0.1507  0.3103  0.2022
 5618TIP3    H116860   4.023   1.367   2.675  1.0620  0.3805  1.0265
 5618TIP3    H216861   3.944   1.472   2.750 -2.7723  0.0022 -2.1653
 5619TIP3   OH216862   1.309   2.091   0.001 -0.3877 -0.4054 -0.5629
 5619TIP3    H116863   1.308   2.099   0.097  2.2166 -1.0142 -0.3936
 5619TIP3    H216864   1.275   2.175  -0.030  0.0930  0.3899  0.9447
 5620TIP3   OH216865   5.264   5.709   5.199 -0.5081  0.2185 -0.0873
 5620TIP3    H116866   5.323   5.730   5.127 -0.7587 -0.2041 -0.4189
 5620TIP3    H216867   5.220   5.791   5.219  1.2844  0.9416  1.1966
 5621TIP3   OH216868   2.573   4.169   2.086 -0.7193 -0.5595 -0.3551
 5621TIP3    H116869   2.645   4.105   2.082  0.3775  0.5658  0.5268
 5621TIP3    H216870   2.597   4.227   2.159 -2.1878  0.2629 -0.4951
 5622TIP3   OH216871   1.659   2.791   0.173 -0.6711  0.0450  0.3058
 5622TIP3    H116872   1.661   2.699   0.200 -0.8878 -0.7461 -2.1861
 5622TIP3    H216873   1.747   2.808   0.139 -1.0773  0.2939 -0.6418
 5623TIP3   OH216874   4.182   2.747   2.425  0.1448  0.5315 -0.2031
 5623TIP3    H116875   4.122   2.811   2.387  0.0868 -0.6507 -2.3068
 5623TIP3    H216876   4.150   2.663   2.391  2.6347 -0.1865 -0.9197
 5624TIP3   OH216877   5.457   4.307   0.548 -0.5505  0.0596  0.0373
 5624TIP3    H116878   5.388   4.276   0.490 -1.3465 -1.3423  1.6735
 5624TIP3    H216879   5.538   4.276   0.507 -1.1575 -1.7252  0.1382
 5625TIP3   OH216880   5.323   3.722   3.542  0.1928  0.3536 -0.9008
 5625TIP3    H116881   5.305   3.740   3.450  1.4364 -1.6232 -1.5959
 5625TIP3    H216882   5.359   3.633   3.542  0.7844  0.5406  1.4275
 5626TIP3   OH216883   0.998   3.387   4.301 -0.0968  0.3106  0.3832
 5626TIP3    H116884   1.028   3.476   4.320  0.5272  0.8954 -2.7814
 5626TIP3    H216885   1.060   3.355   4.236 -0.8656 -2.1337  0.7633
 5627TIP3   OH216886   0.646   1.055   3.793  0.5085  0.2824  0.3062
 5627TIP3    H116887   0.590   1.097   3.858  0.2084 -0.6406  0.6500
 5627TIP3    H216888   0.679   1.128   3.739 -2.0715  0.7357 -0.7738
 5628TIP3   OH216889   0.088   1.339   1.179  0.3604  0.2322  0.1707
 5628TIP3    H116890   0.184   1.340   1.176  0.5221  0.2174  2.8072
 5628TIP3    H216891   0.062   1.308   1.093  2.7816 -1.4355 -0.0835
 5629TIP3   OH216892   0.054   4.432   4.068 -0.5682 -0.1866  0.5642
 5629TIP3    H116893   0.083   4.519   4.040  0.9735 -0.5401  0.9689
 5629TIP3    H216894   0.102   4.417   4.150 -0.2217 -1.7370  0.0947
 5630TIP3   OH216895   3.877   3.661   2.350 -0.3853 -0.3852 -0.2277
 5630TIP3    H116896   3.954   3.650   2.294 -0.0565  1.1309 -0.1221
 5630TIP3    H216897   3.803   3.665   2.289 -0.3593 -1.4783 -0.3522
 5631TIP3   OH216898   1.402   1.531   4.184 -0.6137 -0.3274  0.1390
 5631TIP3    H116899   1.428   1.442   4.158  0.1142 -0.4915  1.3761
 5631TIP3    H216900   1.313   1.522   4.217 -0.8653 -0.4332 -0.5511
 5632TIP3   OH216901   5.356   1.926   4.542 -0.2425 -0.1036 -0.1601
 5632TIP3    H116902   5.312   1.988   4.485 -1.0890  0.7765  1.3984
 5632TIP3    H216903   5.291   1.857   4.557 -0.3968  0.1821  0.5286
 5633TIP3   OH216904   4.914   4.085   0.342 -0.4953  0.2862 -0.4312
 5633TIP3    H116905   4.905   4.110   0.251 -0.5298  2.2481  0.0658
 5633TIP3    H216906   4.994   4.129   0.371 -0.1665 -0.7812  0.3471
 5634TIP3   OH216907   0.256   4.692   0.296  0.0993  0.0387 -0.3968
 5634TIP3    H116908   0.241   4.621   0.234 -1.9836 -1.4189  1.5731
 5634TIP3    H216909   0.173   4.740   0.298  0.4167  0.5819  0.5869
 5635TIP3   OH216910   5.491   5.910   2.848 -0.7758  0.4065 -0.4825
 5635TIP3    H116911   5.411   5.961   2.858 -0.9030  0.6138 -2.2020
 5635TIP3    H216912   5.551   5.969   2.800  0.3076  0.1586  0.5283
 5636TIP3   OH216913   2.249   3.182   5.152 -0.3391  0.1283  0.2244
 5636TIP3    H116914   2.344   3.190   5.157 -0.1911 -0.9107 -0.5262
 5636TIP3    H216915   2.222   3.159   5.241 -0.0528  1.7451  0.7516
 5637TIP3   OH216916   5.717   1.620   2.222 -0.0012 -0.1133 -0.3984
 5637TIP3    H116917   5.668   1.584   2.148  0.3029  0.5678 -0.9505
 5637TIP3    H216918   5.794   1.563   2.229  0.3298  0.2330 -1.0746
 5638TIP3   OH216919   6.326   5.682   4.837  0.0163 -0.1478 -0.0646
 5638TIP3    H116920   6.236   5.677   4.869 -0.0292 -1.6137 -0.3521
 5638TIP3    H216921   6.377   5.711   4.912 -0.6084  0.0902  0.2732
 5639TIP3   OH216922   4.505   0.909   2.481 -0.0840 -0.3028 -0.1322
 5639TIP3    H116923   4.460   0.832   2.517  0.0153 -0.2886  0.0210
 5639TIP3    H216924   4.569   0.873   2.420  0.3979 -0.3744  0.4128
 5640TIP3   OH216925   2.613   5.259   2.323 -0.0838  0.3831  0.3638
 5640TIP3    H116926   2.549   5.214   2.379 -0.9227  0.7065 -0.3108
 5640TIP3    H216927   2.634   5.194   2.256 -1.8078  1.1745 -1.0039
 5641TIP3   OH216928   4.052   3.171   1.447 -0.4232  0.0551  0.3656
 5641TIP3    H116929   4.003   3.089   1.442  0.3078 -0.4003  0.6829
 5641TIP3    H216930   3.984   3.239   1.448 -1.0549 -0.5810  1.0863
 5642TIP3   OH216931   2.208   3.812   0.978 -0.2343 -0.0631 -0.1139
 5642TIP3    H116932   2.145   3.884   0.972 -0.1930 -0.0725 -0.6862
 5642TIP3    H216933   2.270   3.840   1.046 -0.6871  0.0726  0.2448
 5643TIP3   OH216934   2.805   0.383   1.358  0.3746 -0.4396 -0.3917
 5643TIP3    H116935   2.889   0.388   1.311  0.9965  0.4505  0.7762
 5643TIP3    H216936   2.815   0.443   1.432 -0.8085 -1.3348  0.5346
 5644TIP3   OH216937   4.546   3.132   3.845  0.5883 -0.4425 -0.6718
 5644TIP3    H116938   4.628   3.167   3.811  0.1942  2.4713  1.0113
 5644TIP3    H216939   4.570   3.047   3.881  2.5322 -0.3311 -1.5643
 5645TIP3   OH216940   5.917   1.164   0.608  0.2108 -0.0357  0.1228
 5645TIP3    H116941   5.956   1.157   0.695 -0.2216  0.3491  0.3510
 5645TIP3    H216942   5.854   1.092   0.604  0.4152 -0.2105  0.0299
 5646TIP3   OH216943   5.780   3.538   4.001  0.4544 -0.1675  0.2315
 5646TIP3    H116944   5.871   3.514   4.021 -0.2012 -0.2770  3.6680
 5646TIP3    H216945   5.782   3.633   3.990  1.0304 -0.2256 -0.2304
 5647TIP3   OH216946   0.008   0.905   3.682 -0.4284 -0.1966 -0.0233
 5647TIP3    H116947  -0.007   0.981   3.627  0.8105  0.0356 -0.0570
 5647TIP3    H216948   0.102   0.890   3.678 -0.3785 -0.4843  1.6229
 5648TIP3   OH216949   1.613   5.853   3.134 -0.1382  0.0996  0.0133
 5648TIP3    H116950   1.601   5.772   3.084  0.2384  0.0079  0.0657
 5648TIP3    H216951   1.525   5.887   3.147 -0.1725  1.0456 -2.2253
 5649TIP3   OH216952   0.122   5.690   1.317 -0.3046  0.5407  0.4531
 5649TIP3    H116953   0.100   5.607   1.357 -1.2885  0.2881 -0.5504
 5649TIP3    H216954   0.134   5.750   1.390 -1.0770 -0.1297  1.1504
 5650TIP3   OH216955   1.029   0.553   1.039 -0.3104  0.0358  0.9524
 5650TIP3    H116956   1.042   0.591   0.952 -1.8752 -0.7032  0.3605
 5650TIP3    H216957   1.117   0.530   1.068  0.2877  0.7119 -0.2411
 5651TIP3   OH216958   4.319   5.880   0.870  0.0271  0.3431  0.1377
 5651TIP3    H116959   4.409   5.867   0.901 -0.0385 -1.9074 -0.4076
 5651TIP3    H216960   4.322   5.959   0.817  1.7195  0.2249  0.0141
 5652TIP3   OH216961   4.121   3.159   2.614 -0.2502 -0.0569 -0.0511
 5652TIP3    H116962   4.180   3.117   2.678  0.6045 -0.2835 -0.9630
 5652TIP3    H216963   4.140   3.114   2.532 -2.6941 -1.0936 -0.1366
 5653TIP3   OH216964   4.277   3.806   1.569  0.2095 -0.4989  0.4517
 5653TIP3    H116965   4.342   3.746   1.533  0.2887 -0.4062  0.4412
 5653TIP3    H216966   4.193   3.768   1.544  0.2587  0.2006 -0.8698
 5654TIP3   OH216967   4.651   2.235   5.144 -0.0230 -0.5531 -0.3074
 5654TIP3    H116968   4.713   2.165   5.162 -0.2310 -0.5022  0.6489
 5654TIP3    H216969   4.596   2.202   5.072  1.9544 -0.0598 -2.1592
 5655TIP3   OH216970   2.785   0.521   3.282  0.4977  1.0093 -0.4590
 5655TIP3    H116971   2.714   0.457   3.287  0.3346  1.2228 -0.0781
 5655TIP3    H216972   2.780   0.556   3.193  1.2371 -0.2581 -1.0363
 5656TIP3   OH216973   0.208   4.630   3.639  0.1721  0.4162 -0.1798
 5656TIP3    H116974   0.279   4.571   3.661  0.7238  0.9356 -0.5197
 5656TIP3    H216975   0.249   4.717   3.636 -0.8180  0.9753  1.3096
 5657TIP3   OH216976   1.278  -0.011   1.284  0.3116  0.3992  0.2241
 5657TIP3    H116977   1.195  -0.060   1.285  0.4973  0.0169 -0.9314
 5657TIP3    H216978   1.254   0.075   1.250 -0.1824  1.5125  3.1612
 5658TIP3   OH216979   4.751   3.963   3.708  0.4848  0.1251 -0.0219
 5658TIP3    H116980   4.799   4.043   3.686  0.9730 -0.0139  0.5124
 5658TIP3    H216981   4.810   3.892   3.684  1.1165 -0.0356  1.8097
 5659TIP3   OH216982   0.985   1.666   4.261  0.0342  0.8727 -0.2346
 5659TIP3    H116983   0.973   1.648   4.355  0.2561  1.3057 -0.1220
 5659TIP3    H216984   0.992   1.761   4.256  2.5747  0.7445 -0.3816
 5660TIP3   OH216985   2.864   3.659   0.085 -0.7267 -0.9459 -0.0523
 5660TIP3    H116986   2.947   3.701   0.061 -1.4758  0.5033 -0.2229
 5660TIP3    H216987   2.859   3.670   0.180  1.4032 -5.1304  0.7596
 5661TIP3   OH216988   1.384   3.434   2.334  0.3946 -1.1386 -0.7681
 5661TIP3    H116989   1.327   3.466   2.404 -0.2491 -2.7784 -0.5130
 5661TIP3    H216990   1.467   3.479   2.350 -0.0629 -0.6461  0.3799
 5662TIP3   OH216991   3.206   1.133   0.958  0.6286 -0.6534  0.4889
 5662TIP3    H116992   3.120   1.097   0.939  0.5772  0.0385 -0.7025
 5662TIP3    H216993   3.267   1.073   0.914  0.7090 -0.7242  0.6961
 5663TIP3   OH216994   5.524   0.989   1.556 -0.1098 -0.0999 -0.3754
 5663TIP3    H116995   5.520   1.072   1.508  1.2014 -0.0705 -0.4866
 5663TIP3    H216996   5.435   0.973   1.585 -0.5611  0.8776 -1.1599
 5664TIP3   OH216997   3.132   0.559   2.264 -0.0726  0.4343 -0.4830
 5664TIP3    H116998   3.038   0.572   2.264  0.1088  1.9481  0.2983
 5664TIP3    H216999   3.145   0.474   2.307 -1.0338  0.6496  0.2470
 5665TIP3   OH217000   1.502   2.990   2.935  0.0040 -0.1519 -0.7487
 5665TIP3    H117001   1.587   3.023   2.965  0.5335 -2.3747  0.4026
 5665TIP3    H217002   1.524   2.913   2.882 -1.2849 -1.9507  1.1821
 5666TIP3   OH217003   2.547   4.386   2.580 -0.3584 -0.2219  0.2737
 5666TIP3    H117004   2.621   4.332   2.553 -0.2460 -0.1849  0.5100
 5666TIP3    H217005   2.586   4.468   2.608 -0.5095 -0.1094  0.1556
 5667TIP3   OH217006   0.901   5.181   1.643  0.2198 -0.1818 -0.4949
 5667TIP3    H117007   0.833   5.203   1.706 -1.6678  0.2305 -2.5877
 5667TIP3    H217008   0.893   5.086   1.632 -0.4417 -0.0470 -1.1988
 5668TIP3   OH217009   1.120   1.845   0.298 -0.3209 -0.7040  0.0639
 5668TIP3    H117010   1.139   1.939   0.297 -1.3997 -0.4367  1.3534
 5668TIP3    H217011   1.057   1.834   0.369 -0.6175 -2.3384 -0.4033
 5669TIP3   OH217012   6.182   3.560   4.696  0.4370 -0.3067 -0.6634
 5669TIP3    H117013   6.188   3.478   4.746  0.4831  0.4578  0.6136
 5669TIP3    H217014   6.158   3.626   4.760  1.2118  0.8519 -1.5176
 5670TIP3   OH217015   6.069   3.601   4.437 -0.0205  0.0063 -0.1860
 5670TIP3    H117016   6.073   3.681   4.384 -0.6356  1.1334  1.3814
 5670TIP3    H217017   6.135   3.614   4.505  1.5084 -1.8798 -1.2006
 5671TIP3   OH217018   0.783   1.357   2.629  0.5380 -0.3537 -0.1869
 5671TIP3    H117019   0.846   1.428   2.631 -0.2165  0.3098  0.7718
 5671TIP3    H217020   0.710   1.387   2.683 -0.9277 -0.7967 -1.8206
 5672TIP3   OH217021   2.760   1.453   4.760  0.3886 -0.1704 -0.0653
 5672TIP3    H117022   2.770   1.499   4.844  1.0413 -0.4110 -0.0033
 5672TIP3    H217023   2.682   1.398   4.772 -0.1403  0.5883  0.0092
 5673TIP3   OH217024   1.444   2.750   3.194 -0.4827 -0.2715  0.0587
 5673TIP3    H117025   1.356   2.714   3.199  0.2451 -2.0429  1.3230
 5673TIP3    H217026   1.435   2.841   3.222 -1.5621 -1.1587  2.9282
 5674TIP3   OH217027   4.269   3.077   4.117  0.1046  0.3785  0.3228
 5674TIP3    H117028   4.213   3.000   4.124 -0.0131  0.4369  0.0143
 5674TIP3    H217029   4.225   3.134   4.054  0.6218  0.3293 -0.0933
 5675TIP3   OH217030   2.459   5.024   4.497 -0.1967 -0.2213 -0.1960
 5675TIP3    H117031   2.488   5.113   4.519 -1.3726  0.2891 -0.6326
 5675TIP3    H217032   2.367   5.035   4.472 -0.8433 -1.7927  1.3118
 5676TIP3   OH217033   3.361   5.348   3.501  0.5508  0.0386 -0.6484
 5676TIP3    H117034   3.400   5.382   3.420  0.6045 -0.2154 -0.7311
 5676TIP3    H217035   3.294   5.411   3.524  2.0843  1.3763  0.3879
 5677TIP3   OH217036   5.499   0.595   1.806 -0.0798 -0.1820 -0.6419
 5677TIP3    H117037   5.536   0.681   1.790  1.9772 -0.7949  0.4613
 5677TIP3    H217038   5.436   0.581   1.735 -0.0171  1.9518 -1.1627
 5678TIP3   OH217039   5.398   1.770   0.743  0.3373  0.0881 -0.3892
 5678TIP3    H117040   5.334   1.715   0.698 -0.3271  1.3885 -1.0896
 5678TIP3    H217041   5.480   1.720   0.741 -0.7132 -1.8010  0.9098
 5679TIP3   OH217042   0.755   5.300   1.258  0.6483 -0.0784  0.7213
 5679TIP3    H117043   0.756   5.225   1.319  0.5842 -0.4415  0.2812
 5679TIP3    H217044   0.667   5.337   1.269 -0.8964 -2.5347 -1.9810
 5680TIP3   OH217045   0.682   2.987   2.246 -0.0706 -0.2260  0.4696
 5680TIP3    H117046   0.711   3.076   2.227 -0.4651 -0.0943  0.4688
 5680TIP3    H217047   0.591   2.985   2.214 -0.1986 -0.5018  0.8538
 5681TIP3   OH217048   5.832   3.224   0.648  0.4035 -0.1745 -0.0772
 5681TIP3    H117049   5.798   3.198   0.562 -0.7420  2.7420 -0.6052
 5681TIP3    H217050   5.889   3.151   0.674  1.1332 -0.9830 -3.4745
 5682TIP3   OH217051   3.243   5.172   4.831  0.1570  0.1123  0.2686
 5682TIP3    H117052   3.199   5.094   4.863  1.4824  0.2847  2.7539
 5682TIP3    H217053   3.308   5.193   4.899  0.3887  2.9184 -0.6858
 5683TIP3   OH217054   1.938   4.770   0.221  0.6400  0.3097 -0.0467
 5683TIP3    H117055   1.934   4.731   0.133  1.0179 -1.0288  0.4998
 5683TIP3    H217056   2.026   4.748   0.253  0.5022  0.7704  0.6682
 5684TIP3   OH217057   2.662   1.637   2.265 -0.5216 -0.2112  0.3115
 5684TIP3    H117058   2.710   1.557   2.246  1.0953  0.7548  0.1694
 5684TIP3    H217059   2.627   1.665   2.180  2.1395  1.2150 -0.4138
 5685TIP3   OH217060   1.418   3.485   5.059  0.3699 -0.4388  0.0035
 5685TIP3    H117061   1.375   3.464   5.142  1.4835  0.9948  0.9793
 5685TIP3    H217062   1.373   3.564   5.028  1.2584  0.1605  0.2366
 5686TIP3   OH217063   4.733   4.161   5.056 -0.1838  0.0108 -0.5352
 5686TIP3    H117064   4.682   4.239   5.033 -1.4646 -1.3991 -2.8874
 5686TIP3    H217065   4.722   4.152   5.150 -0.3696  2.3832 -0.2623
 5687TIP3   OH217066   4.580   0.743   3.739  0.5158 -0.0353  0.5637
 5687TIP3    H117067   4.574   0.838   3.741 -0.4892 -0.0747  0.1296
 5687TIP3    H217068   4.671   0.724   3.759  0.3816  0.9619  2.4169
 5688TIP3   OH217069   2.226   3.330   4.914 -0.4413 -0.4891  0.0937
 5688TIP3    H117070   2.231   3.271   4.989 -1.1957  0.0056  0.5523
 5688TIP3    H217071   2.315   3.364   4.905 -0.3296 -0.5832  0.7399
 5689TIP3   OH217072   5.324   2.335   2.261 -0.6363  0.4187 -0.6799
 5689TIP3    H117073   5.414   2.304   2.249 -1.5821 -2.1164 -1.9777
 5689TIP3    H217074   5.311   2.334   2.356  0.5918  0.5451 -0.4869
 5690TIP3   OH217075   4.295   0.043   1.833  0.1738  0.1773  0.1879
 5690TIP3    H117076   4.277   0.137   1.833  0.4599  0.2713 -1.3342
 5690TIP3    H217077   4.370   0.033   1.891  1.2533  1.1750 -0.9486
 5691TIP3   OH217078   1.944   5.228   2.662  0.0897 -0.2957  0.0027
 5691TIP3    H117079   1.887   5.270   2.598 -1.2034 -2.1986 -0.1798
 5691TIP3    H217080   1.912   5.258   2.747 -2.1417 -2.2634 -0.0181
 5692TIP3   OH217081   1.305   5.396   2.655  0.2334 -0.3979 -0.0322
 5692TIP3    H117082   1.388   5.398   2.609  0.3887 -0.3302  0.2471
 5692TIP3    H217083   1.269   5.310   2.638  1.7019 -1.5559  2.1935
 5693TIP3   OH217084   5.335   1.031   4.706 -0.1473  0.1325 -0.0090
 5693TIP3    H117085   5.318   0.940   4.730  2.6886 -0.7518 -0.9461
 5693TIP3    H217086   5.362   1.027   4.614  0.9981  1.7414  0.2092
 5694TIP3   OH217087   0.532   2.700   4.986 -0.2047 -0.8660 -0.4326
 5694TIP3    H117088   0.479   2.713   5.065  0.5801  0.4969 -0.0811
 5694TIP3    H217089   0.621   2.684   5.019  0.4214  1.1233 -0.9956
 5695TIP3   OH217090   1.779   3.183   1.511 -0.5483 -0.5779  0.5013
 5695TIP3    H117091   1.713   3.252   1.520 -0.6295 -0.7258  1.0865
 5695TIP3    H217092   1.745   3.111   1.563 -0.4907 -1.0901 -0.1599
 5696TIP3   OH217093   4.389   5.695   4.173 -0.6299 -0.2472 -0.5681
 5696TIP3    H117094   4.386   5.790   4.165  1.3936 -0.1402 -0.5538
 5696TIP3    H217095   4.416   5.679   4.263 -3.2255 -0.9339  0.1486
 5697TIP3   OH217096   1.773   0.519   2.543 -0.1802 -0.4527 -0.1954
 5697TIP3    H117097   1.807   0.603   2.575 -0.4788  0.1183 -1.3180
 5697TIP3    H217098   1.743   0.538   2.454 -0.0602 -1.8020 -0.5449
 5698TIP3   OH217099   5.131   0.228   4.502 -0.1609  0.1204  0.5437
 5698TIP3    H117100   5.041   0.201   4.523  0.0284 -0.1091  1.0791
 5698TIP3    H217101   5.137   0.318   4.533 -0.2128  0.1418  0.4910
 5699TIP3   OH217102   0.493   5.505   4.991 -0.0692  0.4365  0.5261
 5699TIP3    H117103   0.553   5.439   4.955  0.3421  1.0667  0.0508
 5699TIP3    H217104   0.545   5.584   4.997 -0.2733  0.4899  2.0331
 5700TIP3   OH217105   3.760   3.602   5.008  0.1818 -0.2633  0.0907
 5700TIP3    H117106   3.849   3.581   5.038  0.6865 -0.0090 -1.1735
 5700TIP3    H217107   3.762   3.695   4.987 -0.8230  0.0974  1.4691
 5701TIP3   OH217108   5.276   0.882   2.628  0.3484  0.4140  0.2854
 5701TIP3    H117109   5.312   0.793   2.637 -2.7177 -1.1446 -1.3370
 5701TIP3    H217110   5.346   0.931   2.585  2.0877 -1.2237  1.0837
 5702TIP3   OH217111   4.085   4.263   1.943  0.4059  0.0204 -0.2546
 5702TIP3    H117112   4.140   4.298   1.873  1.7448  1.2222  1.2909
 5702TIP3    H217113   3.999   4.253   1.904  1.3844 -0.5414 -2.3810
 5703TIP3   OH217114   0.873   1.274   1.012  0.1144 -0.9332 -0.0588
 5703TIP3    H117115   0.922   1.206   0.966 -0.7391 -0.7470 -1.2567
 5703TIP3    H217116   0.833   1.326   0.943  0.2172  0.3979  0.8616
 5704TIP3   OH217117   3.744   5.864   1.012 -0.1570  0.7911 -0.1619
 5704TIP3    H117118   3.663   5.817   1.032  0.1377  0.2519 -0.2128
 5704TIP3    H217119   3.715   5.940   0.962 -0.5067 -0.1912 -1.4975
 5705TIP3   OH217120   3.441   4.352   4.263  0.0860  0.0234 -0.4616
 5705TIP3    H117121   3.457   4.446   4.275 -1.7973  0.4672 -1.1068
 5705TIP3    H217122   3.349   4.340   4.286  0.7377 -2.0369  1.4038
 5706TIP3   OH217123   2.105   5.930   4.025 -0.8777 -0.3618  0.4373
 5706TIP3    H117124   2.195   5.961   4.027 -0.6031 -1.1059  0.1556
 5706TIP3    H217125   2.075   5.945   3.935 -1.5207  1.1749  0.8805
 5707TIP3   OH217126   6.087   5.851   1.207 -0.3255  0.1259  0.3047
 5707TIP3    H117127   6.011   5.794   1.195  0.1898 -0.2409 -1.4848
 5707TIP3    H217128   6.152   5.817   1.146  1.7991 -0.3716  2.6527
 5708TIP3   OH217129   4.817   1.473   2.956  0.4188 -0.6067 -0.7080
 5708TIP3    H117130   4.868   1.517   3.023  0.8908 -1.8197 -0.2317
 5708TIP3    H217131   4.840   1.380   2.965 -0.7152 -0.9961 -1.4963
 5709TIP3   OH217132   5.167   1.879   4.001  0.4554 -0.1567  0.6866
 5709TIP3    H117133   5.080   1.892   3.962  0.2361  0.5064  1.3688
 5709TIP3    H217134   5.166   1.932   4.080  0.4186 -2.4322  2.3299
 5710TIP3   OH217135   2.769   0.891   1.331 -0.1770 -0.4713 -0.0308
 5710TIP3    H117136   2.738   0.838   1.257 -0.1141 -0.8473  0.2078
 5710TIP3    H217137   2.809   0.967   1.290 -2.3621  0.5997 -0.3469
 5711TIP3   OH217138   5.337   0.456   4.421  0.2031 -0.2425  0.4139
 5711TIP3    H117139   5.244   0.450   4.402  0.0911  0.5781  0.6318
 5711TIP3    H217140   5.351   0.395   4.493 -0.0320 -0.8662 -0.0701
 5712TIP3   OH217141   2.512   0.501   2.537 -0.2381 -1.1284  0.0416
 5712TIP3    H117142   2.597   0.499   2.494 -0.5445 -3.6792 -0.6029
 5712TIP3    H217143   2.532   0.523   2.628  1.0654 -1.3835 -0.1691
 5713TIP3   OH217144   5.771   5.533   4.056  0.0131 -0.1748 -0.0436
 5713TIP3    H117145   5.713   5.457   4.051 -0.3582 -0.1074  2.1677
 5713TIP3    H217146   5.714   5.606   4.079  0.4676  0.6707 -1.4655
 5714TIP3   OH217147   2.530   4.134   2.410 -0.8044 -0.5326 -0.0493
 5714TIP3    H117148   2.511   4.053   2.456  0.1327 -0.5298  0.3680
 5714TIP3    H217149   2.445   4.179   2.403 -1.2922 -1.4456 -0.1153
 5715TIP3   OH217150   3.079   1.848   2.502  0.0262  0.0380  0.7664
 5715TIP3    H117151   3.171   1.830   2.480 -0.1241 -0.5423  0.6014
 5715TIP3    H217152   3.046   1.898   2.427  0.1742  0.1433  0.7710
 5716TIP3   OH217153   0.995   2.700   1.857  0.4337 -0.2988 -0.3582
 5716TIP3    H117154   1.063   2.764   1.880 -1.4138  1.6899 -0.0840
 5716TIP3    H217155   0.964   2.729   1.772 -2.3479  1.0101  0.9739
 5717TIP3   OH217156   2.566   0.511   2.081 -0.1213 -0.3221 -0.6039
 5717TIP3    H117157   2.545   0.418   2.080 -0.5895 -0.2186 -0.6265
 5717TIP3    H217158   2.585   0.532   1.990 -2.2299  0.0873 -0.9899
 5718TIP3   OH217159   2.360   1.085   1.085  0.0690 -0.3435 -0.1272
 5718TIP3    H117160   2.294   1.151   1.106  0.9164  0.1606  1.1238
 5718TIP3    H217161   2.442   1.122   1.118  0.5455 -2.1074  0.7946
 5719TIP3   OH217162   1.451   4.014   3.639  0.3181 -0.4063 -0.1771
 5719TIP3    H117163   1.378   3.995   3.697 -0.5274 -0.4249 -1.2085
 5719TIP3    H217164   1.414   4.007   3.551  1.1052  1.3640 -0.7039
 5720TIP3   OH217165   5.972   3.786   3.280 -0.4101  0.3542 -0.1502
 5720TIP3    H117166   5.964   3.877   3.252  0.0661  0.9425  1.4971
 5720TIP3    H217167   6.009   3.791   3.368 -0.5684 -1.4364  0.0620
 5721TIP3   OH217168   1.476   4.100   1.328  0.2547  0.2397  0.0452
 5721TIP3    H117169   1.415   4.130   1.261  0.9003  1.1280 -0.1665
 5721TIP3    H217170   1.470   4.005   1.325 -2.2980  0.2746  1.1499
 5722TIP3   OH217171   6.149   4.497   2.237  0.4036  0.3356  0.1241
 5722TIP3    H117172   6.233   4.542   2.234 -0.3007  1.6876 -0.3543
 5722TIP3    H217173   6.143   4.453   2.153  1.7173 -1.9343  1.1268
 5723TIP3   OH217174   4.259   1.399   1.701 -0.2357  0.1601  0.0774
 5723TIP3    H117175   4.250   1.490   1.671  0.4990 -0.4673 -2.2919
 5723TIP3    H217176   4.173   1.375   1.734 -1.2101  0.9136 -1.8013
 5724TIP3   OH217177   1.010   2.486   1.112 -0.7076 -0.1252 -0.3863
 5724TIP3    H117178   1.040   2.575   1.092  0.8004 -0.6692 -0.6659
 5724TIP3    H217179   0.921   2.483   1.079 -0.2584  0.8217 -1.7881
 5725TIP3   OH217180   4.403   2.942   1.195 -0.1327 -0.0013  0.7968
 5725TIP3    H117181   4.327   2.903   1.152 -0.7151  1.7574  0.1371
 5725TIP3    H217182   4.367   2.998   1.264  0.6214  0.0093  1.1979
 5726TIP3   OH217183   5.311   4.764   1.093 -0.0785 -0.3509  0.0275
 5726TIP3    H117184   5.391   4.739   1.048 -0.1344 -0.3935 -0.0480
 5726TIP3    H217185   5.249   4.693   1.075 -0.6057  0.3858 -1.1589
 5727TIP3   OH217186   1.097   1.106   2.571  0.5743 -0.0703 -0.4551
 5727TIP3    H117187   1.020   1.073   2.617  0.0151  0.8550 -0.7156
 5727TIP3    H217188   1.160   1.127   2.641 -0.6953  2.4469  0.0397
 5728TIP3   OH217189   2.512   0.021   4.565  0.4849  0.5331  0.7587
 5728TIP3    H117190   2.560   0.063   4.493  1.3074  0.1536  1.0691
 5728TIP3    H217191   2.544   0.066   4.643  1.4887 -0.7343  1.1107
 5729TIP3   OH217192   5.401   4.221   2.531 -0.1991 -0.1283  0.3779
 5729TIP3    H117193   5.343   4.223   2.455 -0.2179  0.2903  0.4047
 5729TIP3    H217194   5.411   4.127   2.551  0.6014 -0.3110 -0.7609
 5730TIP3   OH217195   4.761   0.978   4.464 -0.1663 -0.2103 -0.0650
 5730TIP3    H117196   4.818   0.908   4.496  2.0939  1.1618 -0.8599
 5730TIP3    H217197   4.786   1.054   4.515 -2.8893  0.0298  1.0895
 5731TIP3   OH217198   0.682   2.522   3.426 -0.4477  0.3805  0.0911
 5731TIP3    H117199   0.778   2.524   3.424 -0.4340  3.0943  0.0285
 5731TIP3    H217200   0.655   2.561   3.343 -1.6825 -1.5017 -0.4595
 5732TIP3   OH217201   5.726   4.720   3.073  0.1468  0.3613 -0.1924
 5732TIP3    H117202   5.820   4.731   3.082  0.2469  0.2392 -0.9537
 5732TIP3    H217203   5.700   4.784   3.007 -0.1276 -0.2899 -0.7333
 5733TIP3   OH217204   4.922   2.282   2.959  0.5692 -0.0021  0.9204
 5733TIP3    H117205   4.845   2.226   2.970  0.6169  0.2664  2.9332
 5733TIP3    H217206   4.906   2.328   2.876  0.0681 -2.2148 -0.2994
 5734TIP3   OH217207   3.361   0.864   3.497  0.1912  0.0085  0.0512
 5734TIP3    H117208   3.338   0.834   3.584 -0.4219 -0.2090 -0.1804
 5734TIP3    H217209   3.407   0.790   3.457  1.8293  0.6390  0.7091
 5735TIP3   OH217210   4.769   2.177   4.378  0.2247  0.5815 -0.3448
 5735TIP3    H117211   4.849   2.173   4.430 -0.2331  0.1064  0.3449
 5735TIP3    H217212   4.698   2.166   4.442 -0.3256 -1.1388 -1.1834
 5736TIP3   OH217213   0.172   1.385   3.780  0.1107 -0.1611 -0.0608
 5736TIP3    H117214   0.214   1.421   3.858 -0.8900  0.4773  0.2142
 5736TIP3    H217215   0.087   1.430   3.776 -0.0933 -0.6082 -1.1943
 5737TIP3   OH217216   5.302   5.539   4.068  0.4965  0.2539 -0.0921
 5737TIP3    H117217   5.320   5.608   4.004  0.8105  0.9710  0.7382
 5737TIP3    H217218   5.258   5.470   4.018 -2.6125  2.2730 -0.4607
 5738TIP3   OH217219   5.657   5.510   1.438  0.2074 -0.2219 -0.2674
 5738TIP3    H117220   5.714   5.532   1.364 -1.0470  0.6211 -1.0254
 5738TIP3    H217221   5.717   5.495   1.511  1.4314 -0.1527 -1.2231
 5739TIP3   OH217222   4.073   4.294   4.246  0.2422  0.4271 -0.7090
 5739TIP3    H117223   4.016   4.296   4.168 -1.4445  2.8617  0.4686
 5739TIP3    H217224   4.121   4.377   4.243 -1.7642  1.8623  2.0443
 5740TIP3   OH217225   1.229   3.720   5.045 -0.6010  0.0565  0.1005
 5740TIP3    H117226   1.244   3.791   5.106 -0.5484  0.8717 -0.8408
 5740TIP3    H217227   1.197   3.648   5.099 -0.0358  0.5800  1.1505
 5741TIP3   OH217228   3.038   5.877   0.949 -0.0049  0.5497 -0.2370
 5741TIP3    H117229   3.111   5.821   0.977 -0.6487 -0.3348 -0.2999
 5741TIP3    H217230   3.037   5.871   0.854 -1.0774 -0.6415 -0.1690
 5742TIP3   OH217231   4.500   0.717   2.867 -0.4613 -0.0943  0.6930
 5742TIP3    H117232   4.563   0.655   2.903  0.4148  0.5383  0.2859
 5742TIP3    H217233   4.495   0.696   2.774 -0.1925  0.4140  0.5608
 5743TIP3   OH217234   0.977   2.905   4.803  0.1435  0.3677  0.0126
 5743TIP3    H117235   0.915   2.835   4.780 -0.7894  1.3868 -0.6580
 5743TIP3    H217236   0.922   2.973   4.842  1.3047 -0.1127  2.6753
 5744TIP3   OH217237   2.272   4.510   2.759 -0.2885 -0.3720 -0.1460
 5744TIP3    H117238   2.313   4.425   2.773  0.1248 -0.4612 -1.7488
 5744TIP3    H217239   2.288   4.531   2.667  0.8172  2.0698  0.5107
 5745TIP3   OH217240   1.093   4.784   4.271 -0.0981 -0.3418 -0.0714
 5745TIP3    H117241   1.121   4.866   4.231  2.4757  0.1811  2.4601
 5745TIP3    H217242   1.100   4.799   4.365 -0.1178 -3.2748  0.5144
 5746TIP3   OH217243   5.631   4.172   1.743  0.7480  0.3836  0.1504
 5746TIP3    H117244   5.686   4.103   1.781 -1.3716 -0.1909  2.4720
 5746TIP3    H217245   5.580   4.127   1.676  0.1375 -0.0942  0.9157
 5747TIP3   OH217246   3.669   1.276   5.121 -0.3351  0.7208  0.2608
 5747TIP3    H117247   3.594   1.327   5.092 -0.6116  0.3284  0.2842
 5747TIP3    H217248   3.654   1.260   5.214 -0.1130  0.8320  0.3171
 5748TIP3   OH217249   4.220   2.112   3.055 -1.2986 -0.5990 -0.1790
 5748TIP3    H117250   4.176   2.176   2.998 -1.4297 -0.3641  0.1845
 5748TIP3    H217251   4.163   2.035   3.052 -1.8507 -0.2255  0.4469
 5749TIP3   OH217252   5.028   1.497   1.881  0.3045  0.0682  0.4940
 5749TIP3    H117253   5.003   1.564   1.817 -0.7497 -0.0882  0.7341
 5749TIP3    H217254   5.075   1.432   1.829  0.7929  0.6715  0.1514
 5750TIP3   OH217255   0.256   2.452   2.738  0.6227  0.1047 -0.3256
 5750TIP3    H117256   0.266   2.357   2.744  1.8888  0.1654 -0.9662
 5750TIP3    H217257   0.341   2.486   2.767  0.1628  1.0409 -0.0626
 5751TIP3   OH217258   4.633   1.514   4.413 -0.1399  0.2019  0.2406
 5751TIP3    H117259   4.644   1.423   4.387  1.2252  0.7944 -1.4383
 5751TIP3    H217260   4.685   1.522   4.494  0.7280 -0.2434 -0.2584
 5752TIP3   OH217261   0.984   3.016   4.353 -0.5726  0.0603  0.0376
 5752TIP3    H117262   1.011   2.938   4.401 -1.4389 -0.3308 -0.0904
 5752TIP3    H217263   0.933   3.067   4.417  1.1387  1.2319  0.5568
 5753TIP3   OH217264   5.555   5.236   4.579 -0.0606  0.3907 -0.3200
 5753TIP3    H117265   5.610   5.218   4.656  0.6086 -1.1481 -1.1168
 5753TIP3    H217266   5.607   5.297   4.527  0.3052 -0.0210 -0.4384
 5754TIP3   OH217267   1.607   0.124   3.106 -0.4093  0.3956 -0.7888
 5754TIP3    H117268   1.645   0.163   3.185  1.0738  0.7949 -1.6738
 5754TIP3    H217269   1.672   0.139   3.038 -1.4242 -0.4356 -1.9787
 5755TIP3   OH217270   3.683   2.894   4.988 -0.4934  0.1465  0.3267
 5755TIP3    H117271   3.589   2.884   5.003 -0.6725 -1.8903 -1.5512
 5755TIP3    H217272   3.716   2.804   4.986  1.1897  0.7454 -0.7173
 5756TIP3   OH217273   1.180   3.868   0.528 -0.4913 -0.2506  0.1289
 5756TIP3    H117274   1.234   3.852   0.450  0.3024 -0.2641  0.6702
 5756TIP3    H217275   1.228   3.933   0.578 -0.5540 -0.8682  1.0306
 5757TIP3   OH217276   3.190   3.924   4.936 -0.2657  0.3090  0.5001
 5757TIP3    H117277   3.207   3.986   4.865 -1.0534 -0.2553 -0.2037
 5757TIP3    H217278   3.095   3.927   4.948 -0.3174 -0.7447  0.4531
 5758TIP3   OH217279   6.060   5.437   2.918 -0.0971 -0.4380  0.3545
 5758TIP3    H117280   6.113   5.399   2.988  0.1378  0.0880  0.4693
 5758TIP3    H217281   6.077   5.531   2.924 -0.4576 -0.3415 -0.0958
 5759TIP3   OH217282   4.181   0.674   4.944 -0.2192 -0.1122 -0.3522
 5759TIP3    H117283   4.158   0.641   4.857  0.1651  0.4835 -0.6829
 5759TIP3    H217284   4.188   0.595   4.998 -2.5086 -0.3719 -0.3306
 5760TIP3   OH217285   2.639   0.782   4.861  0.1951  0.1525 -1.0913
 5760TIP3    H117286   2.658   0.859   4.914  0.2732  0.7073 -1.9060
 5760TIP3    H217287   2.720   0.732   4.860  0.6077  0.8127 -1.7726
 5761TIP3   OH217288   3.410   2.112   4.688 -0.3577  0.0898 -0.9285
 5761TIP3    H117289   3.375   2.178   4.748  1.6119  2.4519 -2.1743
 5761TIP3    H217290   3.357   2.034   4.704  0.1233  0.4481  3.9096
 5762TIP3   OH217291   0.940   4.795   4.838  0.3401  0.1874  0.5220
 5762TIP3    H117292   0.945   4.829   4.749  0.9557 -0.7818  0.1793
 5762TIP3    H217293   0.878   4.854   4.882 -0.6757  0.1415 -0.7830
 5763TIP3   OH217294   0.996   0.761   4.954 -0.6026 -0.1285  0.0689
 5763TIP3    H117295   1.063   0.824   4.926 -1.2370  0.0308 -1.1293
 5763TIP3    H217296   0.986   0.778   5.048 -0.2350  1.0669 -0.0837
 5764TIP3   OH217297   2.418   3.166   0.199  0.3093 -0.2673 -0.2876
 5764TIP3    H117298   2.380   3.093   0.249  1.0705 -1.3090 -1.1698
 5764TIP3    H217299   2.350   3.233   0.199  0.4561  0.0017  2.5456
 5765TIP3   OH217300   2.899   2.397   3.753 -0.0962 -0.0916  0.0047
 5765TIP3    H117301   2.936   2.470   3.802 -1.4781  0.8834 -0.3449
 5765TIP3    H217302   2.968   2.371   3.692  0.2450  1.2963 -0.2377
 5766TIP3   OH217303   0.643   1.762   0.652  0.2079  0.5380  0.0379
 5766TIP3    H117304   0.711   1.791   0.713 -0.8036  0.3288  1.2972
 5766TIP3    H217305   0.692   1.732   0.575  1.5995 -0.4192  1.2428
 5767TIP3   OH217306   5.850   2.122   0.441 -0.3690  0.6190 -0.0491
 5767TIP3    H117307   5.819   2.060   0.375 -0.5713  0.3986  0.2544
 5767TIP3    H217308   5.915   2.073   0.492 -1.6345  0.1535  1.1731
 5768TIP3   OH217309   4.870   4.946   0.896  0.1454 -0.2682 -0.1093
 5768TIP3    H117310   4.954   4.990   0.893 -0.7466  1.5052 -0.3252
 5768TIP3    H217311   4.849   4.927   0.805  0.5666 -1.2505 -0.0105
 5769TIP3   OH217312   2.048   2.568   2.442  0.0283  0.2616  0.1026
 5769TIP3    H117313   2.002   2.515   2.507 -0.9192  0.1934 -0.6084
 5769TIP3    H217314   2.128   2.518   2.423 -2.0528 -2.4041 -2.5370
 5770TIP3   OH217315   4.047   3.781   4.965  0.1025 -0.3034  0.7496
 5770TIP3    H117316   4.103   3.791   5.042  1.0369  2.6424 -0.1627
 5770TIP3    H217317   4.024   3.871   4.940  0.2564 -1.0445 -2.6622
 5771TIP3   OH217318   2.054   5.329   3.897  0.0614  0.3044  0.1179
 5771TIP3    H117319   1.976   5.384   3.892  1.0380  1.6757 -0.5975
 5771TIP3    H217320   2.101   5.346   3.816  0.9992 -0.6529  0.4434
 5772TIP3   OH217321   6.084   5.914   3.901  0.0465  0.0185  0.1071
 5772TIP3    H117322   6.040   5.886   3.982 -1.6599  0.2571 -0.6886
 5772TIP3    H217323   6.132   5.993   3.926 -0.0706 -0.1777  0.9982
 5773TIP3   OH217324   3.462   3.642   3.746 -0.3661 -0.4936  0.1811
 5773TIP3    H117325   3.528   3.586   3.787 -1.1740 -1.1263  0.6288
 5773TIP3    H217326   3.446   3.602   3.660 -3.4600 -3.0956  1.7646
 5774TIP3   OH217327   1.378   1.703   1.247 -0.1416  0.0605 -0.3042
 5774TIP3    H117328   1.405   1.695   1.155  1.9031  0.0862  0.2643
 5774TIP3    H217329   1.456   1.731   1.293 -2.1939  5.0273  0.8104
 5775TIP3   OH217330   5.465   5.471   4.273  0.5792  0.3610 -0.9629
 5775TIP3    H117331   5.414   5.408   4.324  1.9082  0.2740  0.3316
 5775TIP3    H217332   5.420   5.476   4.189 -0.3219 -1.3112 -0.6215
 5776TIP3   OH217333   2.882   3.373   1.992  0.0094  0.1217  0.1150
 5776TIP3    H117334   2.942   3.336   1.927 -1.0901 -0.5355 -0.5465
 5776TIP3    H217335   2.920   3.458   2.014 -0.1298  0.8199 -2.1436
 5777TIP3   OH217336   6.086   3.380   3.120 -0.0198  0.2317  0.1491
 5777TIP3    H117337   6.164   3.332   3.092 -1.5377 -1.7882 -0.8130
 5777TIP3    H217338   6.116   3.431   3.196  1.5362 -2.9134  1.8468
 5778TIP3   OH217339   5.012   4.206   3.126  0.3829  0.4408  0.0207
 5778TIP3    H117340   5.058   4.208   3.042 -1.2209  0.0024 -0.9071
 5778TIP3    H217341   4.990   4.298   3.143  1.6664  0.6637  0.5243
 5779TIP3   OH217342   4.710   0.217   4.517 -0.1040  0.0653  0.2159
 5779TIP3    H117343   4.640   0.185   4.575  0.3718 -2.0071 -0.2958
 5779TIP3    H217344   4.789   0.213   4.571 -0.1634  1.2533  0.4137
 5780TIP3   OH217345   5.743   2.685   5.150  0.7995 -0.1938 -0.0870
 5780TIP3    H117346   5.652   2.689   5.122  1.7923 -0.5097 -3.9112
 5780TIP3    H217347   5.748   2.744   5.225 -2.3954  0.2895 -0.1278
 5781TIP3   OH217348   0.395   5.325   4.181 -0.4011 -0.3065 -0.1457
 5781TIP3    H117349   0.353   5.357   4.101  1.4578  0.5882 -0.8307
 5781TIP3    H217350   0.359   5.238   4.194 -0.2252 -0.7932 -2.4169
 5782TIP3   OH217351   4.186   3.851   1.862 -0.1008  0.2580  0.1192
 5782TIP3    H117352   4.260   3.896   1.819 -1.2603  0.0756 -2.2589
 5782TIP3    H217353   4.213   3.759   1.864  0.3105  0.3873  0.5405
 5783TIP3   OH217354   0.572   0.443   0.960  0.2204 -0.0467  0.0155
 5783TIP3    H117355   0.565   0.400   1.044  0.6056  0.1576  0.1556
 5783TIP3    H217356   0.634   0.390   0.910  0.3520  0.0970  0.0272
 5784TIP3   OH217357   0.526   4.544   3.560 -0.1565 -0.1257 -0.7433
 5784TIP3    H117358   0.603   4.495   3.590 -0.7583  0.2487  1.5968
 5784TIP3    H217359   0.548   4.570   3.471  1.6361 -1.6252 -0.8112
 5785TIP3   OH217360   1.585   4.783   4.280  0.5816  0.4168  0.6818
 5785TIP3    H117361   1.616   4.694   4.293 -1.9596 -0.6955 -0.2772
 5785TIP3    H217362   1.506   4.789   4.333  1.0202  2.3413  1.2091
 5786TIP3   OH217363   2.709   5.489   4.142  0.8311  0.2265  0.3562
 5786TIP3    H117364   2.647   5.544   4.095 -0.8144 -0.2166  1.8960
 5786TIP3    H217365   2.734   5.421   4.079 -0.5278  0.2164 -0.1883
 5787TIP3   OH217366   5.689   1.287   1.514  0.3717  0.2030 -0.3419
 5787TIP3    H117367   5.768   1.264   1.466 -1.1323 -1.3439 -2.2258
 5787TIP3    H217368   5.700   1.244   1.599 -0.4972 -4.5701 -2.3017
 5788TIP3   OH217369   4.707   5.802   3.470 -0.3540  0.1269 -0.1127
 5788TIP3    H117370   4.781   5.836   3.520 -0.5398  0.0661  0.2079
 5788TIP3    H217371   4.674   5.877   3.421  0.4345 -0.0198 -0.9186
 5789TIP3   OH217372   1.423   0.662   2.574  0.0227  0.4408 -0.2345
 5789TIP3    H117373   1.491   0.729   2.581  0.9014 -0.2968 -1.3337
 5789TIP3    H217374   1.351   0.705   2.529  0.4400  0.7645 -0.5980
 5790TIP3   OH217375   1.352   0.530   0.291  0.7286  0.1226 -0.0337
 5790TIP3    H117376   1.278   0.479   0.324 -0.1815  0.1659 -1.9021
 5790TIP3    H217377   1.315   0.585   0.222  2.0900  1.8051  0.5162
 5791TIP3   OH217378   4.725   0.373   1.425  0.3854 -0.0252 -0.1164
 5791TIP3    H117379   4.789   0.374   1.354  1.5757  1.3744  0.9076
 5791TIP3    H217380   4.695   0.282   1.429  1.9155 -0.6090 -0.9891
 5792TIP3   OH217381   5.672   4.706   1.002  0.5844 -0.1364  0.1251
 5792TIP3    H117382   5.742   4.660   0.955  0.5613  0.3213 -0.3619
 5792TIP3    H217383   5.704   4.796   1.011  0.3735 -0.1028  0.5502
 5793TIP3   OH217384   0.135   5.755   0.846  0.5695  0.0974 -0.0260
 5793TIP3    H117385   0.093   5.760   0.760 -1.6251 -1.9160  0.8263
 5793TIP3    H217386   0.103   5.833   0.892 -0.7606 -0.4188 -0.0352
 5794TIP3   OH217387   1.401   1.361   4.455 -0.4428  0.3190 -0.4767
 5794TIP3    H117388   1.436   1.307   4.385  0.2098 -0.8536  0.7052
 5794TIP3    H217389   1.315   1.325   4.473  0.3739 -1.0451  0.9717
 5795TIP3   OH217390   5.870   4.761   5.150 -0.0342 -0.0730  0.0482
 5795TIP3    H117391   5.911   4.757   5.064 -0.7064  0.4492 -0.3066
 5795TIP3    H217392   5.898   4.681   5.194  2.6668  0.9510  0.4221
 5796TIP3   OH217393   4.434   2.411   2.865 -0.0742 -0.4875  0.0360
 5796TIP3    H117394   4.443   2.351   2.939  0.5453 -0.1962  0.1993
 5796TIP3    H217395   4.361   2.376   2.815 -1.4565  0.0923  1.5410
 5797TIP3   OH217396   6.031   1.405   4.147 -0.1266  0.1114  0.9907
 5797TIP3    H117397   6.061   1.386   4.236  0.1665 -0.0701  0.8543
 5797TIP3    H217398   5.977   1.484   4.156 -0.2445 -0.0097  1.3542
 5798TIP3   OH217399   4.420   5.795   1.440  0.4713  0.0505  0.1378
 5798TIP3    H117400   4.460   5.876   1.473 -1.8287  0.8217  1.2418
 5798TIP3    H217401   4.403   5.812   1.348 -0.4548  1.0466  0.4796
 5799TIP3   OH217402   3.582   2.624   4.173 -0.3805  0.7488 -0.0954
 5799TIP3    H117403   3.537   2.539   4.180  1.0529 -0.2005 -1.6661
 5799TIP3    H217404   3.619   2.639   4.260  1.0655 -1.2778 -0.2901
 5800TIP3   OH217405   0.828   5.002   0.586 -0.5622 -0.3566 -0.0216
 5800TIP3    H117406   0.775   4.952   0.648 -2.0262  0.7639 -0.3162
 5800TIP3    H217407   0.887   5.053   0.641 -0.4719 -0.8773  0.3675
 5801TIP3   OH217408   3.286   2.959   4.145  0.9338  0.4259 -0.1984
 5801TIP3    H117409   3.316   2.881   4.099  0.4574  0.2814 -0.2616
 5801TIP3    H217410   3.343   2.964   4.222  0.1563 -0.7099  0.4949
 5802TIP3   OH217411   0.641   3.013   3.200  0.4582 -0.5969 -0.4817
 5802TIP3    H117412   0.650   3.015   3.295 -0.8644 -0.8578 -0.3256
 5802TIP3    H217413   0.716   3.063   3.167  0.3983  0.3321  0.7282
 5803TIP3   OH217414   4.884   0.936   0.093 -0.7770 -0.7799  0.3723
 5803TIP3    H117415   4.936   0.855   0.092 -0.5602 -0.6522 -0.8574
 5803TIP3    H217416   4.799   0.910   0.127 -0.1038 -1.1123  1.8881
 5804TIP3   OH217417   0.617   4.316   2.021  0.4619  0.2648 -0.6163
 5804TIP3    H117418   0.624   4.410   2.039 -1.7813  0.9326 -2.7015
 5804TIP3    H217419   0.677   4.302   1.948  0.4773  0.1648 -0.5840
 5805TIP3   OH217420   2.990   2.744   4.305 -0.0734  0.6495  0.4563
 5805TIP3    H117421   2.948   2.687   4.241  0.4651  0.5939  0.1429
 5805TIP3    H217422   2.951   2.720   4.389 -0.7510  0.6891  0.1585
 5806TIP3   OH217423   2.215   0.877   4.022  0.4277 -0.3759 -0.2742
 5806TIP3    H117424   2.150   0.886   3.953  1.0115  0.3949 -0.7336
 5806TIP3    H217425   2.172   0.912   4.100 -0.1080 -0.9369 -0.3030
 5807TIP3   OH217426   2.079   4.880   4.767 -0.1462  0.9766 -0.3949
 5807TIP3    H117427   2.044   4.968   4.780 -1.5103  0.1237  2.6483
 5807TIP3    H217428   2.027   4.844   4.695 -2.1685  1.4472  0.7567
 5808TIP3   OH217429   0.838   2.286   2.795  0.2450 -0.6278 -1.4535
 5808TIP3    H117430   0.875   2.245   2.717  0.0737  0.2178 -1.9946
 5808TIP3    H217431   0.783   2.357   2.761 -1.9677 -1.8912 -0.6724
 5809TIP3   OH217432   4.308   2.368   2.492 -0.5855  0.6017  0.5689
 5809TIP3    H117433   4.360   2.288   2.494 -3.3764 -1.3868 -0.2254
 5809TIP3    H217434   4.319   2.402   2.404  1.9500  2.1835  1.3913
 5810TIP3   OH217435   4.860   3.521   4.179 -0.5933 -0.3493  0.5412
 5810TIP3    H117436   4.819   3.527   4.093 -2.7449  2.7127  1.5873
 5810TIP3    H217437   4.950   3.550   4.165 -0.9009  0.0687 -0.6788
 5811TIP3   OH217438   5.426   2.807   3.722  0.4900  0.1118  0.0207
 5811TIP3    H117439   5.401   2.715   3.736 -1.4545  0.7826  1.4034
 5811TIP3    H217440   5.519   2.809   3.746  0.1724 -1.2092  1.5998
 5812TIP3   OH217441   2.733   1.112   1.585  0.1503 -0.0156  0.5846
 5812TIP3    H117442   2.677   1.187   1.565  1.3706  1.3340  1.9116
 5812TIP3    H217443   2.684   1.061   1.649 -0.7905 -0.5080 -0.5029
 5813TIP3   OH217444   3.031   2.619   0.383 -0.4356  0.9357 -0.0450
 5813TIP3    H117445   2.941   2.647   0.369 -0.8492 -0.2885  0.0917
 5813TIP3    H217446   3.035   2.531   0.345  0.4472  0.5917  0.8122
 5814TIP3   OH217447   4.176   1.157   2.990  0.2848  0.2080  0.0934
 5814TIP3    H117448   4.235   1.188   2.921 -2.5982 -0.2726 -2.8430
 5814TIP3    H217449   4.160   1.065   2.967 -0.1378 -0.2021  1.9253
 5815TIP3   OH217450   5.816   2.049   3.203  0.3357  0.0533  0.2864
 5815TIP3    H117451   5.783   2.121   3.149  0.9591 -0.6805 -1.1121
 5815TIP3    H217452   5.740   1.994   3.220 -0.0995  0.8921  1.1681
 5816TIP3   OH217453   2.360   1.827   3.012  0.0672  0.2144  0.1413
 5816TIP3    H117454   2.322   1.752   3.057 -0.4659 -2.2126 -3.8153
 5816TIP3    H217455   2.284   1.875   2.978  0.4530  0.6409 -0.1334
 5817TIP3   OH217456   0.199   2.773   0.907  0.0640  0.5861  0.4322
 5817TIP3    H117457   0.176   2.854   0.953 -0.4245  0.4495  0.4239
 5817TIP3    H217458   0.116   2.731   0.888  0.3432 -0.2410  1.0011
 5818TIP3   OH217459   2.560   4.393   1.887 -0.0972  0.1531  0.0804
 5818TIP3    H117460   2.532   4.340   1.962  1.3753  1.5147  1.6790
 5818TIP3    H217461   2.655   4.389   1.889 -0.0265  0.7503 -1.3267
 5819TIP3   OH217462   0.041   2.980   0.984 -0.1472 -0.3619 -0.4879
 5819TIP3    H117463  -0.048   2.962   0.955 -0.1920 -0.4819 -0.2763
 5819TIP3    H217464   0.040   3.073   1.008 -0.2870 -0.4295 -0.2268
 5820TIP3   OH217465   1.740   1.992   2.033  0.7191  0.0706  0.1392
 5820TIP3    H117466   1.835   2.001   2.044  0.7621  3.6281 -1.6310
 5820TIP3    H217467   1.731   1.932   1.959  1.5089 -0.8570  0.7611
 5821TIP3   OH217468   5.087   3.448   4.762 -0.5440 -0.2159 -0.5894
 5821TIP3    H117469   5.060   3.441   4.854 -0.5942 -0.7091 -0.6349
 5821TIP3    H217470   5.085   3.357   4.730  2.3461 -0.4743 -0.2792
 5822TIP3   OH217471   2.357   3.829   3.120 -0.0359 -0.2129 -0.4337
 5822TIP3    H117472   2.422   3.809   3.188  0.4520  1.8593 -0.2272
 5822TIP3    H217473   2.384   3.775   3.045  0.8123 -0.7770  0.2570
 5823TIP3   OH217474   2.753   3.891   4.260  0.4747  0.0769 -0.0269
 5823TIP3    H117475   2.763   3.804   4.222 -1.6961 -0.4510  0.4858
 5823TIP3    H217476   2.716   3.875   4.347 -0.1513  1.5285  0.0021
 5824TIP3   OH217477   5.036   0.112   1.088  0.7390  0.0190 -0.2853
 5824TIP3    H117478   4.991   0.059   1.154 -0.3537  0.7558 -0.4114
 5824TIP3    H217479   5.092   0.050   1.041  0.9417 -0.6526  0.8171
 5825TIP3   OH217480   2.438   0.507   3.114  0.1290 -0.2718  0.2209
 5825TIP3    H117481   2.438   0.549   3.028 -2.2878 -0.0206  0.2556
 5825TIP3    H217482   2.443   0.413   3.095 -1.4257 -0.2775 -0.3139
 5826TIP3   OH217483   1.665   3.038   4.863 -0.4412  0.0956 -0.5521
 5826TIP3    H117484   1.680   2.953   4.820  0.6545  0.0918 -0.1924
 5826TIP3    H217485   1.749   3.084   4.854 -0.8297  0.8811 -0.1725
 5827TIP3   OH217486   2.853   5.708   1.206 -0.0021 -0.5962  0.1062
 5827TIP3    H117487   2.837   5.792   1.247 -0.3753 -0.4167 -0.3883
 5827TIP3    H217488   2.948   5.698   1.207  0.0372 -0.2103  0.2510
 5828TIP3   OH217489   0.638   3.922   3.501  0.0389 -0.0698 -0.0595
 5828TIP3    H117490   0.546   3.926   3.473 -0.0269 -0.3262  0.1151
 5828TIP3    H217491   0.641   3.979   3.578 -0.4684 -1.7322  1.2553
 5829TIP3   OH217492   3.053   5.367   2.242  0.1959  0.7359  0.4187
 5829TIP3    H117493   3.006   5.326   2.314  3.8509 -1.8839  1.6169
 5829TIP3    H217494   3.099   5.295   2.199  2.0189  2.8427 -1.4023
 5830TIP3   OH217495   2.875   5.193   3.886  0.7483 -0.2240 -0.7954
 5830TIP3    H117496   2.919   5.277   3.891  1.3096 -0.5425 -0.3011
 5830TIP3    H217497   2.839   5.190   3.797  1.0023  0.3911 -0.9195
 5831TIP3   OH217498   0.294   1.432   0.794 -0.3563 -0.5017 -0.1282
 5831TIP3    H117499   0.354   1.493   0.838 -1.1354  0.5303 -0.4379
 5831TIP3    H217500   0.299   1.351   0.845 -0.4864  0.3432  1.2849
 5832TIP3   OH217501   1.210   1.660   1.853 -0.1128 -0.6431 -0.2118
 5832TIP3    H117502   1.189   1.681   1.761  1.2740 -0.0751 -0.4230
 5832TIP3    H217503   1.298   1.694   1.865  0.0860 -1.5680  1.0756
 5833TIP3   OH217504   0.409   3.673   4.044 -0.5896  0.5786  0.4282
 5833TIP3    H117505   0.340   3.717   3.995 -1.6224 -0.4476  0.9192
 5833TIP3    H217506   0.375   3.585   4.060  1.0352 -0.1146  0.2723
 5834TIP3   OH217507   4.694   2.312   0.283  0.0656  0.1546 -0.2653
 5834TIP3    H117508   4.732   2.296   0.197  0.2883  0.5921 -0.2533
 5834TIP3    H217509   4.764   2.290   0.345 -0.1617 -0.3521 -0.1870
 5835TIP3   OH217510   4.881   3.430   1.199  0.0298  0.0168  0.0931
 5835TIP3    H117511   4.922   3.415   1.285  0.5364  0.3750 -0.0834
 5835TIP3    H217512   4.859   3.342   1.168  0.2640 -0.1473  0.3851
 5836TIP3   OH217513   3.493   0.313   1.781 -0.4082  0.2382  0.2713
 5836TIP3    H117514   3.517   0.323   1.689  0.3607  0.9944  0.5424
 5836TIP3    H217515   3.574   0.291   1.826 -0.8261 -0.4044  0.7336
 5837TIP3   OH217516   4.759   4.795   2.367  0.2862 -0.3599 -0.2432
 5837TIP3    H117517   4.703   4.867   2.396 -1.3719 -1.7408  0.1367
 5837TIP3    H217518   4.833   4.838   2.324 -0.3396  1.5725  0.5025
 5838TIP3   OH217519   4.809   0.208   3.538  0.1786 -0.4795  0.3426
 5838TIP3    H117520   4.749   0.219   3.464 -0.2627  0.9377  0.8785
 5838TIP3    H217521   4.766   0.253   3.610  1.5979  0.0263  0.9044
 5839TIP3   OH217522   4.359   5.589   1.078 -0.3099  0.7413 -0.3406
 5839TIP3    H117523   4.396   5.532   1.011  0.5198  1.7056 -0.7265
 5839TIP3    H217524   4.353   5.535   1.156  1.1404  0.3275 -0.5013
 5840TIP3   OH217525   1.060   3.338   4.820  0.5095 -0.1002 -0.2546
 5840TIP3    H117526   0.996   3.385   4.768  1.3402  0.4956 -0.7598
 5840TIP3    H217527   1.023   3.338   4.909  0.8167  2.2323 -0.0464
 5841TIP3   OH217528   4.656   3.361   4.719 -0.2036 -0.1616 -0.3676
 5841TIP3    H117529   4.740   3.408   4.720  0.2603 -0.9693 -0.3943
 5841TIP3    H217530   4.620   3.378   4.632  0.0850 -0.0590 -0.4681
 5842TIP3   OH217531   3.733   5.360   2.560  0.7465 -0.5105  0.0024
 5842TIP3    H117532   3.655   5.403   2.596  1.4546  1.0906 -0.3083
 5842TIP3    H217533   3.732   5.383   2.467  1.5945 -0.4579  0.0015
 5843TIP3   OH217534   2.098   5.481   0.815 -0.4598  0.1867  0.2110
 5843TIP3    H117535   2.165   5.509   0.878 -0.1057 -0.7391  0.2658
 5843TIP3    H217536   2.017   5.481   0.866 -0.6845  2.1299 -0.0702
 5844TIP3   OH217537   2.966   4.757   1.566  0.2466  0.1487  0.0559
 5844TIP3    H117538   2.916   4.766   1.647 -1.3130  0.8721 -0.9417
 5844TIP3    H217539   2.906   4.786   1.497  0.4231 -3.2899 -1.7602
 5845TIP3   OH217540   4.692   5.593   1.498 -0.0409 -0.3258 -0.0667
 5845TIP3    H117541   4.688   5.519   1.559  1.7758  1.3159  2.2243
 5845TIP3    H217542   4.638   5.661   1.539 -1.1221 -0.0938 -1.7817
 5846TIP3   OH217543   4.208   4.105   1.493  0.5001  0.2421  0.5024
 5846TIP3    H117544   4.289   4.155   1.479  1.3465 -1.3375 -0.5245
 5846TIP3    H217545   4.222   4.023   1.446 -3.0571  1.1867 -2.6699
 5847TIP3   OH217546   2.147   2.290   1.518 -0.2457 -0.4046 -0.2085
 5847TIP3    H117547   2.123   2.257   1.431  0.4471 -1.1323 -0.1261
 5847TIP3    H217548   2.067   2.333   1.549 -1.0087 -1.5543 -0.5316
 5848TIP3   OH217549   2.877   1.473   0.909 -0.9784 -0.1739  0.1005
 5848TIP3    H117550   2.905   1.406   0.847  0.2171  1.4474 -1.1974
 5848TIP3    H217551   2.788   1.496   0.881 -0.9016 -0.3094 -0.2604
 5849TIP3   OH217552   4.488   3.814   4.057 -0.0280 -0.1422 -0.2432
 5849TIP3    H117553   4.444   3.829   4.140 -0.4196 -0.3567 -0.4117
 5849TIP3    H217554   4.438   3.744   4.015  0.3148 -0.2090 -0.5513
 5850TIP3   OH217555   4.373   0.149   1.245 -0.2062  0.2503 -0.1941
 5850TIP3    H117556   4.407   0.091   1.176  2.7774  0.7306  0.7579
 5850TIP3    H217557   4.372   0.236   1.204 -0.5156  0.2095 -0.2773
 5851TIP3   OH217558   2.547   2.403   2.825  0.1433  0.1689 -0.1699
 5851TIP3    H117559   2.488   2.477   2.840  1.0298  0.7579  0.4659
 5851TIP3    H217560   2.499   2.347   2.764 -0.6418  1.1390 -0.4725
 5852TIP3   OH217561   2.209   0.115   4.806  0.2712  0.4416  0.1653
 5852TIP3    H117562   2.167   0.040   4.765  0.9422  0.1563  0.0016
 5852TIP3    H217563   2.136   0.169   4.837 -0.2556  0.7180 -1.4570
 5853TIP3   OH217564   1.287   0.701   4.920 -0.1973 -0.3807  0.4032
 5853TIP3    H117565   1.318   0.761   4.987 -2.3381 -0.9205  1.9797
 5853TIP3    H217566   1.232   0.755   4.863  2.4878  0.3294 -1.7266
 5854TIP3   OH217567   6.179   5.674   2.969  0.3297 -0.1275  0.3642
 5854TIP3    H117568   6.158   5.730   2.895 -0.5574 -0.2506  0.5201
 5854TIP3    H217569   6.273   5.690   2.985  0.3448  0.4727 -0.2858
 5855TIP3   OH217570   2.256   3.277   1.047 -0.5443  0.1576 -0.6591
 5855TIP3    H117571   2.229   3.205   0.990 -0.5913 -1.7370  1.6176
 5855TIP3    H217572   2.180   3.292   1.104  0.1370  0.6785  0.1301
 5856TIP3   OH217573   4.863   0.631   4.493 -0.0131 -0.0787 -0.2960
 5856TIP3    H117574   4.860   0.645   4.588 -0.5974 -4.8397  0.6433
 5856TIP3    H217575   4.956   0.619   4.474  0.2190  1.9319 -0.6275
 5857TIP3   OH217576   0.841   0.348   0.919 -0.0601  0.2689  0.3860
 5857TIP3    H117577   0.882   0.322   0.836 -0.1193  0.5080  0.2814
 5857TIP3    H217578   0.892   0.423   0.948 -1.3162  1.5088 -0.4847
 5858TIP3   OH217579   6.323   5.135   4.316  0.3919 -0.2221  0.0341
 5858TIP3    H117580   6.292   5.225   4.317  0.3523 -0.1926 -1.4076
 5858TIP3    H217581   6.418   5.142   4.330  0.2795 -0.0259  0.7129
 5859TIP3   OH217582   2.331   3.251   2.311 -0.5871  0.8086 -0.6631
 5859TIP3    H117583   2.355   3.251   2.403 -1.2660  0.1926 -0.4784
 5859TIP3    H217584   2.401   3.202   2.268 -1.3183 -0.7454 -0.1670
 5860TIP3   OH217585   3.482   2.178   2.530  0.4816 -0.2540 -0.1438
 5860TIP3    H117586   3.566   2.133   2.525  0.7827  0.2816  0.0028
 5860TIP3    H217587   3.504   2.271   2.516  0.0187 -0.0083  0.7270
 5861TIP3   OH217588   0.882   4.027   1.117 -0.1366  0.4720 -0.4216
 5861TIP3    H117589   0.897   3.948   1.065 -0.8722  0.7696 -1.1063
 5861TIP3    H217590   0.970   4.061   1.134  0.1160  0.4980 -1.6802
 5862TIP3   OH217591   3.015   4.570   2.222 -0.2397  0.3060 -0.1882
 5862TIP3    H117592   3.091   4.574   2.280 -0.8010  1.2288  0.5131
 5862TIP3    H217593   2.940   4.575   2.280 -0.9767 -3.1584 -0.6171
 5863TIP3   OH217594   5.330   4.456   4.481 -0.1677  0.6524  0.1874
 5863TIP3    H117595   5.374   4.512   4.417  1.9819  0.9256  1.8068
 5863TIP3    H217596   5.309   4.516   4.553 -0.2445 -0.1398  0.8282
 5864TIP3   OH217597   4.470   0.448   0.659 -0.4612  0.1107 -0.0991
 5864TIP3    H117598   4.378   0.469   0.673 -0.3246  0.8098 -0.2418
 5864TIP3    H217599   4.510   0.529   0.628  0.0814 -0.3390 -0.6297
 5865TIP3   OH217600   0.278   0.066   1.486  0.2026  0.0801 -0.7819
 5865TIP3    H117601   0.187   0.076   1.458  0.1921 -0.6576 -1.0351
 5865TIP3    H217602   0.289   0.132   1.554 -0.4107  0.4340 -1.0115
 5866TIP3   OH217603   2.463   1.935   4.223  0.6328  0.1986  0.3436
 5866TIP3    H117604   2.479   1.878   4.298  0.5564  0.4715  0.5661
 5866TIP3    H217605   2.405   2.003   4.256 -2.1543 -1.4529 -0.7063
 5867TIP3   OH217606   2.949   5.199   0.974 -0.2687 -0.2192 -0.3581
 5867TIP3    H117607   2.959   5.122   0.918 -1.0977 -0.0610 -0.7428
 5867TIP3    H217608   2.990   5.270   0.925  0.6106 -0.4246  0.0535
 5868TIP3   OH217609   0.466   3.644   2.190  0.3097 -0.0074 -0.2739
 5868TIP3    H117610   0.447   3.591   2.113 -0.6683 -0.7445  0.4435
 5868TIP3    H217611   0.417   3.725   2.176 -1.9190 -1.1224  0.6634
 5869TIP3   OH217612   0.255   0.009   5.109  0.2036 -0.2372 -0.4274
 5869TIP3    H117613   0.203   0.079   5.149 -0.0681 -0.7958  0.2050
 5869TIP3    H217614   0.317   0.056   5.053  0.0373  0.5181 -0.0034
 5870TIP3   OH217615   2.070   1.467   0.644 -0.3852 -0.0544 -0.2562
 5870TIP3    H117616   2.020   1.385   0.645 -0.5589  0.0501 -0.4598
 5870TIP3    H217617   2.058   1.502   0.732 -0.8858  0.1001 -0.3835
 5871TIP3   OH217618   2.431   2.236   2.620 -0.6309 -0.4042 -0.0749
 5871TIP3    H117619   2.417   2.170   2.688  0.5695 -0.1597  0.4196
 5871TIP3    H217620   2.430   2.185   2.538 -3.1680 -0.5569 -0.0254
 5872TIP3   OH217621   5.142   0.400   4.059  0.1492 -0.4798  0.2604
 5872TIP3    H117622   5.078   0.460   4.096 -0.7216 -0.7889 -0.6952
 5872TIP3    H217623   5.203   0.456   4.012 -0.4751 -0.2993 -0.3573
 5873TIP3   OH217624   2.777   1.522   3.259 -0.3558  0.2273 -0.3242
 5873TIP3    H117625   2.704   1.521   3.196 -0.7742  0.5038  0.1532
 5873TIP3    H217626   2.743   1.477   3.336  0.7934 -1.9201 -0.9736
 5874TIP3   OH217627   3.669   3.033   4.708 -0.1453 -0.0194 -0.8358
 5874TIP3    H117628   3.655   2.965   4.775  0.7995  1.3712  0.8460
 5874TIP3    H217629   3.649   2.989   4.626 -2.3359 -1.5350  0.4035
 5875TIP3   OH217630   4.641   1.328   1.957  0.4708  0.5727 -0.2222
 5875TIP3    H117631   4.549   1.304   1.969  0.9404 -1.7275 -0.6145
 5875TIP3    H217632   4.680   1.251   1.914  2.0615  2.4718 -2.4095
 5876TIP3   OH217633   1.465   0.757   0.408  0.2477 -0.6542  0.1497
 5876TIP3    H117634   1.401   0.826   0.394  0.8939  1.0109  3.9603
 5876TIP3    H217635   1.424   0.678   0.373 -1.6944  1.1374 -1.9291
 5877TIP3   OH217636   2.128   2.116   3.654 -0.0764 -0.0338  0.5158
 5877TIP3    H117637   2.153   2.068   3.733  0.3946 -0.4987  0.0892
 5877TIP3    H217638   2.206   2.165   3.630  0.0691 -0.5748 -0.1501
 5878TIP3   OH217639   5.095   1.729   1.546 -0.1972 -0.7695 -0.4870
 5878TIP3    H117640   5.025   1.664   1.535  0.4320 -1.3980 -0.8862
 5878TIP3    H217641   5.153   1.715   1.471 -0.0747  0.2975 -0.6061
 5879TIP3   OH217642   1.372   4.712   3.975  0.7628  0.0591  0.4863
 5879TIP3    H117643   1.317   4.772   3.925 -1.5188 -1.1663  1.3740
 5879TIP3    H217644   1.460   4.726   3.940 -0.3239  0.9070 -2.1976
 5880TIP3   OH217645   3.778   3.546   1.049  0.1153  0.2857 -0.3355
 5880TIP3    H117646   3.690   3.513   1.030  1.0442 -1.9273 -1.0671
 5880TIP3    H217647   3.799   3.511   1.135  0.6725 -0.0316 -0.6001
 5881TIP3   OH217648   0.608   5.021   3.832  0.0276 -0.0852 -0.5288
 5881TIP3    H117649   0.669   4.959   3.874  1.7192  0.6139 -1.8260
 5881TIP3    H217650   0.523   4.978   3.839  0.4439 -0.7084  2.1794
 5882TIP3   OH217651   0.147   5.084   4.909 -0.3921 -1.0049 -0.2427
 5882TIP3    H117652   0.149   5.118   4.819  0.8086 -0.6043 -0.0745
 5882TIP3    H217653   0.110   4.996   4.900 -0.6745 -0.8173 -1.0694
 5883TIP3   OH217654   2.073   3.115   2.464 -0.0495  0.1657  0.0199
 5883TIP3    H117655   2.143   3.103   2.400 -1.1802 -0.2429 -1.1878
 5883TIP3    H217656   2.052   3.027   2.493  0.4872  0.3517  1.0305
 5884TIP3   OH217657   3.375   1.719   4.618 -0.0688  0.1182 -0.4481
 5884TIP3    H117658   3.361   1.785   4.550  0.2108  0.5194 -0.1201
 5884TIP3    H217659   3.438   1.658   4.580  2.1079  1.7357  0.3648
 5885TIP3   OH217660   2.091   0.077   0.358 -0.3553  0.1768  0.2720
 5885TIP3    H117661   2.074  -0.017   0.370  0.1502  0.1948  1.1978
 5885TIP3    H217662   2.039   0.100   0.281 -0.5198 -0.8529  0.0478
 5886TIP3   OH217663   2.586   2.784   3.401  0.0597  0.2369 -0.4609
 5886TIP3    H117664   2.674   2.815   3.421 -0.8704  2.2988  0.7378
 5886TIP3    H217665   2.532   2.862   3.404 -1.8225 -0.9724 -1.2317
 5887TIP3   OH217666   5.342   0.250   2.285 -0.1703 -0.3967  0.9460
 5887TIP3    H117667   5.349   0.209   2.199 -0.4157  1.2358  0.0970
 5887TIP3    H217668   5.429   0.286   2.301 -0.8115  1.7215  0.0424
 5888TIP3   OH217669   2.048   5.464   3.633 -0.2161  0.0101  0.2250
 5888TIP3    H117670   2.110   5.422   3.574 -0.8893 -0.4513 -0.1675
 5888TIP3    H217671   1.988   5.511   3.575 -1.3311 -1.0548  0.4698
 5889TIP3   OH217672   4.451   0.426   4.807  0.2918 -0.1250 -0.0005
 5889TIP3    H117673   4.481   0.468   4.726 -1.1662  0.5582 -0.2005
 5889TIP3    H217674   4.530   0.420   4.861  1.4316 -1.1237 -1.6720
 5890TIP3   OH217675   1.305   2.129   3.361 -0.1828  0.2806  0.1306
 5890TIP3    H117676   1.396   2.122   3.332  0.1649  0.7691  1.0660
 5890TIP3    H217677   1.293   2.221   3.381 -0.1055 -0.1199  2.3482
 5891TIP3   OH217678   5.650   4.954   3.832 -0.1720 -0.0939 -0.8309
 5891TIP3    H117679   5.625   4.862   3.843 -1.6642  0.4000  0.3036
 5891TIP3    H217680   5.731   4.951   3.782  1.7808 -2.2008  2.1592
 5892TIP3   OH217681   4.187   0.585   1.279  0.7976  0.0329  0.4778
 5892TIP3    H117682   4.223   0.559   1.194  0.8324 -0.7181  0.7146
 5892TIP3    H217683   4.148   0.671   1.263  1.4095  0.2119 -0.1308
 5893TIP3   OH217684   2.736   1.023   3.871  0.1816  0.4807 -0.6150
 5893TIP3    H117685   2.645   1.025   3.900  0.0899 -0.7142 -0.7566
 5893TIP3    H217686   2.787   1.019   3.951  0.0856  0.7879 -0.5407
 5894TIP3   OH217687   3.244   1.371   0.845  0.5331  0.3072  0.7482
 5894TIP3    H117688   3.249   1.343   0.754 -3.6317  0.8983  0.1152
 5894TIP3    H217689   3.234   1.290   0.895  0.7534  0.0852  0.4376
 5895TIP3   OH217690   3.916   2.646   0.397 -0.2149  0.0661 -0.6783
 5895TIP3    H117691   3.896   2.700   0.473 -0.4405  0.8979 -1.3199
 5895TIP3    H217692   3.834   2.600   0.378  0.1466 -1.0069  0.2464
 5896TIP3   OH217693   6.080   4.058   0.598 -0.7504 -0.0969  0.5057
 5896TIP3    H117694   6.039   3.986   0.551 -0.4500 -1.3027  1.9983
 5896TIP3    H217695   6.037   4.136   0.564 -1.4553 -1.0013 -0.7914
 5897TIP3   OH217696   2.239   3.241   4.604 -0.8250 -0.2905 -0.2954
 5897TIP3    H117697   2.231   3.336   4.591  1.1196 -0.2347 -1.6874
 5897TIP3    H217698   2.204   3.225   4.691  1.3539  2.1770  1.1829
 5898TIP3   OH217699   4.947   2.252   3.250  0.1027  0.0197  0.3294
 5898TIP3    H117700   4.946   2.289   3.161 -0.2906 -0.7537  0.0040
 5898TIP3    H217701   5.013   2.304   3.296 -0.8625  1.5444  0.0809
 5899TIP3   OH217702   4.886   2.039   1.053  0.6298  0.2253  0.0319
 5899TIP3    H117703   4.907   1.962   1.106  0.5529  0.4138  0.3385
 5899TIP3    H217704   4.966   2.056   1.002  0.8877  0.3531  0.4711
 5900TIP3   OH217705   5.991   5.507   1.487 -0.0772 -0.5371  0.2156
 5900TIP3    H117706   6.064   5.490   1.428  0.9423 -0.5514  1.4327
 5900TIP3    H217707   6.007   5.594   1.522 -1.3720  0.0130 -0.4819
 5901TIP3   OH217708   4.682   5.074   4.511  0.0202  0.1397  0.4258
 5901TIP3    H117709   4.711   5.135   4.579 -0.5434  1.1013 -0.1749
 5901TIP3    H217710   4.730   5.101   4.433  0.1117 -0.4982  0.2520
 5902TIP3   OH217711   0.358   2.402   0.610 -0.5278  0.4183 -0.2422
 5902TIP3    H117712   0.342   2.496   0.610 -2.6133  0.1632 -2.4094
 5902TIP3    H217713   0.271   2.363   0.620  0.3736 -1.3133  1.3158
 5903TIP3   OH217714   4.515   4.079   3.713  0.3768  0.4826 -0.2791
 5903TIP3    H117715   4.438   4.039   3.753 -0.2815 -0.4066 -2.3162
 5903TIP3    H217716   4.584   4.014   3.724  0.0777  0.0382 -0.9525
 5904TIP3   OH217717   0.666   3.697   3.223 -0.0829 -0.4261 -0.0058
 5904TIP3    H117718   0.579   3.692   3.183 -0.7232  1.2853  1.0330
 5904TIP3    H217719   0.723   3.726   3.152 -0.4666 -1.0574 -0.5759
 5905TIP3   OH217720   3.337   2.509   3.742  0.2289 -0.5630  0.1648
 5905TIP3    H117721   3.306   2.473   3.825  0.0295 -0.5019  0.1186
 5905TIP3    H217722   3.292   2.457   3.675 -1.0441  0.5662  0.0900
 5906TIP3   OH217723   4.326   4.647   3.166 -0.5473  0.2234  0.2471
 5906TIP3    H117724   4.368   4.695   3.237 -2.0029 -0.3590  1.5519
 5906TIP3    H217725   4.234   4.675   3.168 -1.0909 -1.4006  0.0226
 5907TIP3   OH217726   3.753   3.721   4.330  0.4517  0.4476  0.1188
 5907TIP3    H117727   3.665   3.753   4.348  0.0413 -0.4452 -0.2416
 5907TIP3    H217728   3.804   3.745   4.408 -0.5021 -0.4769  1.0492
 5908TIP3   OH217729   3.247   5.713   2.822 -0.3218  0.1401  0.0431
 5908TIP3    H117730   3.233   5.807   2.826  1.5126  0.7574 -3.4625
 5908TIP3    H217731   3.169   5.679   2.777 -0.9642 -0.0777  1.2708
 5909TIP3   OH217732   4.054   3.049   3.650  0.2944  0.3103 -0.2746
 5909TIP3    H117733   4.138   3.089   3.675 -0.5384  2.1924 -0.3124
 5909TIP3    H217734   4.070   2.955   3.653  2.2466  0.6219  0.2708
 5910TIP3   OH217735   2.032   5.979   5.046  0.3883  0.0550 -0.0075
 5910TIP3    H117736   2.085   6.058   5.058  0.7716 -0.1502 -0.3166
 5910TIP3    H217737   2.094   5.913   5.014 -0.3847  0.3029 -2.1437
 5911TIP3   OH217738   3.499   5.152   1.669  0.5789 -0.0936  0.2007
 5911TIP3    H117739   3.483   5.066   1.631 -0.5783 -0.1508  0.7628
 5911TIP3    H217740   3.459   5.213   1.607  2.2244  0.1500 -0.6849
 5912TIP3   OH217741   0.578   2.964   2.593 -0.0512  0.2909 -0.5500
 5912TIP3    H117742   0.615   3.045   2.556 -1.7541  0.9742 -0.8424
 5912TIP3    H217743   0.499   2.993   2.638 -0.5218 -1.1893 -0.3942
 5913TIP3   OH217744   0.970   5.518   1.169 -0.4753 -0.4464 -0.4184
 5913TIP3    H117745   0.942   5.433   1.202 -1.3434  0.3424  1.0101
 5913TIP3    H217746   0.888   5.566   1.155 -0.0229  0.0070 -1.6611
 5914TIP3   OH217747   5.428   3.755   4.032  0.0580 -0.2022  0.3068
 5914TIP3    H117748   5.456   3.841   4.003 -0.9462  0.1127  0.2376
 5914TIP3    H217749   5.454   3.696   3.961 -1.4344  0.4095 -0.8010
 5915TIP3   OH217750   3.758   1.622   0.628 -0.3807 -0.0695 -0.0006
 5915TIP3    H117751   3.743   1.675   0.706  1.7720  2.1688 -0.9992
 5915TIP3    H217752   3.693   1.652   0.565  0.7761  1.4330 -0.5334
 5916TIP3   OH217753   4.706   0.988   1.502 -0.2923  0.0247 -0.0928
 5916TIP3    H117754   4.674   0.942   1.424  1.0365 -0.1132 -0.5968
 5916TIP3    H217755   4.654   0.953   1.574 -0.1761 -1.3492 -0.6443
 5917TIP3   OH217756   1.832   0.257   0.750  0.1998 -0.0942 -0.3661
 5917TIP3    H117757   1.752   0.279   0.797 -0.3864 -0.4724 -1.1597
 5917TIP3    H217758   1.862   0.340   0.713  1.1704  0.3769  1.4002
 5918TIP3   OH217759   6.015   3.484   0.720  0.1777 -0.7972 -0.4504
 5918TIP3    H117760   5.946   3.425   0.688  0.8151 -1.5308 -0.5138
 5918TIP3    H217761   5.970   3.545   0.778 -0.4872 -1.4240 -0.2933
 5919TIP3   OH217762   6.206   2.994   2.820 -0.0861 -0.3958 -0.8093
 5919TIP3    H117763   6.251   2.910   2.813 -2.6220 -1.9506  0.2110
 5919TIP3    H217764   6.181   3.016   2.730 -0.1205 -1.1390 -0.9828
 5920TIP3   OH217765   4.115   1.705   2.023  0.4347 -1.1994  0.3298
 5920TIP3    H117766   4.030   1.704   2.068 -0.3625  2.3337 -0.8233
 5920TIP3    H217767   4.094   1.681   1.933 -0.1708  2.9788 -0.8467
 5921TIP3   OH217768   1.215   0.555   1.684 -0.5063  0.2638 -0.0434
 5921TIP3    H117769   1.211   0.633   1.630  1.2279 -1.0550 -2.2572
 5921TIP3    H217770   1.159   0.491   1.640 -0.4040 -0.3301  0.6620
 5922TIP3   OH217771   0.043   3.908   0.941 -0.2584 -0.0371  0.0798
 5922TIP3    H117772   0.032   3.861   0.858  1.4913  0.0761 -0.2606
 5922TIP3    H217773   0.062   3.839   1.005 -0.7290 -0.0457  0.2137
 5923TIP3   OH217774   4.042   3.468   1.884 -0.4198  0.0425  0.4494
 5923TIP3    H117775   4.128   3.509   1.890 -0.3494  0.1420 -0.9968
 5923TIP3    H217776   4.060   3.374   1.893 -0.2143  0.0928  0.5794
 5924TIP3   OH217777   4.898   4.432   1.422 -0.4306 -0.2346  0.3944
 5924TIP3    H117778   4.896   4.364   1.354  0.1077  0.5867 -0.4842
 5924TIP3    H217779   4.887   4.385   1.504  0.2319 -1.4235 -0.1678
 5925TIP3   OH217780   5.097   1.193   1.277 -0.0918 -0.2545 -0.2873
 5925TIP3    H117781   5.069   1.285   1.282 -1.0887 -0.5271 -0.7323
 5925TIP3    H217782   5.024   1.144   1.314  0.9460 -0.8053  1.1294
 5926TIP3   OH217783   2.659   1.302   4.076 -0.1606 -0.1923 -0.0343
 5926TIP3    H117784   2.592   1.300   4.145  0.3626  1.8992  0.6232
 5926TIP3    H217785   2.716   1.228   4.095 -0.6771 -0.3147  1.1335
 5927TIP3   OH217786   5.281   4.148   3.901 -0.4327 -0.8254  0.8370
 5927TIP3    H117787   5.197   4.192   3.912  0.1203  1.4882 -2.5996
 5927TIP3    H217788   5.263   4.076   3.841  0.1539  0.3368 -0.7763
 5928TIP3   OH217789   6.244   0.543   5.134 -0.1962  0.7217  0.3295
 5928TIP3    H117790   6.244   0.578   5.045 -0.4860  0.9634  0.4226
 5928TIP3    H217791   6.175   0.477   5.133 -0.9239  1.4519  0.6492
 5929TIP3   OH217792   1.737   3.651   1.738  0.0977 -0.2762  0.5242
 5929TIP3    H117793   1.767   3.600   1.813 -1.3406 -0.2895  1.1313
 5929TIP3    H217794   1.765   3.740   1.757 -2.0655  0.1477  2.2087
 5930TIP3   OH217795   5.383   0.686   0.140  0.3239 -0.5082 -0.2567
 5930TIP3    H117796   5.347   0.765   0.182 -0.9445 -0.7373 -0.8740
 5930TIP3    H217797   5.417   0.635   0.213 -1.9073 -0.9281  0.5961
 5931TIP3   OH217798   2.273   2.139   4.278 -0.1900  0.6013  0.7024
 5931TIP3    H117799   2.195   2.084   4.275  0.0248  0.2407  1.3406
 5931TIP3    H217800   2.299   2.151   4.187  0.1039 -0.8619  0.5796
 5932TIP3   OH217801   2.380   1.445   1.875  0.0113  0.0792  0.4106
 5932TIP3    H117802   2.430   1.514   1.919  2.1050 -1.9581  1.4710
 5932TIP3    H217803   2.412   1.447   1.785 -0.5406  0.9594  0.2154
 5933TIP3   OH217804   3.175   3.741   4.666  0.1778 -0.1184  0.2578
 5933TIP3    H117805   3.258   3.783   4.646  0.2248  1.2530  2.9278
 5933TIP3    H217806   3.111   3.812   4.665 -0.8361 -1.0043 -0.8805
 5934TIP3   OH217807   2.911   5.250   1.260  0.5824 -0.2323 -0.1682
 5934TIP3    H117808   2.949   5.247   1.172 -0.0577  1.2279 -0.5178
 5934TIP3    H217809   2.848   5.178   1.261  0.4654 -0.1512 -0.9777
 5935TIP3   OH217810   6.131   4.573   0.335 -0.1161  0.4574 -0.2533
 5935TIP3    H117811   6.100   4.514   0.267 -0.2182  0.7168 -0.4321
 5935TIP3    H217812   6.068   4.645   0.337 -0.5841  0.0454  0.6920
 5936TIP3   OH217813   2.598   4.307   1.123 -0.1742  0.0456  0.1009
 5936TIP3    H117814   2.546   4.364   1.179 -2.7212  0.1891 -2.1981
 5936TIP3    H217815   2.661   4.365   1.081 -0.5917  0.5779  0.2014
 5937TIP3   OH217816   0.256   4.091   0.319  0.3712 -0.2920 -0.3652
 5937TIP3    H117817   0.183   4.032   0.337  1.9067 -2.3189 -0.4206
 5937TIP3    H217818   0.302   4.100   0.402  0.6286  0.1752 -0.5498
 5938TIP3   OH217819   0.240   4.864   1.344  0.3001  0.4053  0.2031
 5938TIP3    H117820   0.151   4.865   1.307  0.6875  0.7647 -0.7463
 5938TIP3    H217821   0.290   4.808   1.286  0.2901 -1.3502  1.7890
 5939TIP3   OH217822   3.386   3.184   3.005  0.1187  0.0416  0.4741
 5939TIP3    H117823   3.478   3.164   3.023 -0.0586 -1.8158 -0.4074
 5939TIP3    H217824   3.382   3.196   2.910 -0.3391  1.4080  0.6537
 5940TIP3   OH217825   5.685   4.221   4.182 -0.0648  0.6286 -0.1970
 5940TIP3    H117826   5.759   4.197   4.238 -0.3153  0.4118  0.0447
 5940TIP3    H217827   5.678   4.316   4.190  0.4011  0.6909 -0.4891
 5941TIP3   OH217828   1.798   0.345   0.354 -0.4137  0.1743 -0.5025
 5941TIP3    H117829   1.722   0.378   0.306 -0.7444 -0.8144 -0.6684
 5941TIP3    H217830   1.849   0.298   0.289 -0.0661  0.1492 -0.2155
 5942TIP3   OH217831   2.276   1.989   0.380  0.1316  0.0182 -0.5343
 5942TIP3    H117832   2.326   1.929   0.436  0.7718  0.1524 -0.9571
 5942TIP3    H217833   2.290   2.075   0.419  1.2971  0.2383 -1.3802
 5943TIP3   OH217834   5.815   0.630   1.514  0.4674  0.1929 -0.1933
 5943TIP3    H117835   5.808   0.655   1.606  0.1251  1.0362 -0.4449
 5943TIP3    H217836   5.908   0.615   1.501  0.3504 -1.6902  0.7327
 5944TIP3   OH217837   0.733   1.910   2.387 -0.4641  0.2550 -0.0443
 5944TIP3    H117838   0.684   1.855   2.448 -0.3911  0.2033 -0.0327
 5944TIP3    H217839   0.787   1.849   2.337 -0.6366  0.2791 -0.2663
 5945TIP3   OH217840   2.321   2.649   2.047 -0.0674 -0.2987 -0.2380
 5945TIP3    H117841   2.252   2.598   2.005 -1.2634 -0.8865  2.2352
 5945TIP3    H217842   2.281   2.733   2.067  0.5254  0.0384 -0.4406
 5946TIP3   OH217843   5.665   1.714   1.828  0.1673  0.1716 -0.0889
 5946TIP3    H117844   5.747   1.734   1.872  0.8228  0.4470 -1.3744
 5946TIP3    H217845   5.683   1.731   1.735 -1.2861  0.0686 -0.4161
 5947TIP3   OH217846   0.563   0.295   3.716  0.0013 -0.0242  0.4151
 5947TIP3    H117847   0.589   0.369   3.770  0.0309 -0.0251  0.4020
 5947TIP3    H217848   0.621   0.224   3.743 -1.7608 -0.8289  2.3373
 5948TIP3   OH217849   3.610   5.580   3.605  0.4386  0.4023  0.3798
 5948TIP3    H117850   3.565   5.508   3.649  0.3068  0.9155  1.1243
 5948TIP3    H217851   3.652   5.629   3.677  1.1921  0.6087 -0.1845
 5949TIP3   OH217852   4.480   2.452   1.483  0.2759  0.0655  0.2554
 5949TIP3    H117853   4.501   2.369   1.438  1.2744 -0.1812  1.1373
 5949TIP3    H217854   4.536   2.452   1.560 -0.6727  0.9684  0.9686
 5950TIP3   OH217855   0.895   4.027   4.366  0.4723  0.5013 -0.6504
 5950TIP3    H117856   0.818   3.983   4.402 -0.1416  0.7877 -1.5598
 5950TIP3    H217857   0.966   4.005   4.426 -0.3675  0.4212  0.3360
 5951TIP3   OH217858   3.066   5.867   2.425 -0.3026  0.6294  0.1867
 5951TIP3    H117859   3.105   5.783   2.401  0.8349  0.5722  2.0420
 5951TIP3    H217860   2.972   5.855   2.410 -0.1541 -0.9507  0.3623
 5952TIP3   OH217861   5.728   2.722   2.217 -0.5201  0.1180  0.0655
 5952TIP3    H117862   5.715   2.628   2.225  0.4634  0.0713  1.5253
 5952TIP3    H217863   5.641   2.757   2.196 -1.5188 -0.8700  2.2038
 5953TIP3   OH217864   2.114   1.632   2.769  0.1495 -0.8586 -0.0886
 5953TIP3    H117865   2.175   1.565   2.800  0.7536 -0.7393 -0.9567
 5953TIP3    H217866   2.041   1.630   2.831  0.7807 -1.3947  0.6478
 5954TIP3   OH217867   5.773   4.302   2.277 -0.0695  0.3828  0.1385
 5954TIP3    H117868   5.855   4.262   2.247 -0.2506  0.3609 -0.3379
 5954TIP3    H217869   5.748   4.251   2.354 -2.4214 -3.2473 -2.6512
 5955TIP3   OH217870   0.158   5.881   3.255 -0.4127  0.1078  0.0046
 5955TIP3    H117871   0.141   5.787   3.256  0.7737 -0.1254  1.0844
 5955TIP3    H217872   0.228   5.892   3.191 -0.6406  0.2741 -0.2160
 5956TIP3   OH217873   1.522   1.820   3.332  0.1263  0.4124  0.3454
 5956TIP3    H117874   1.452   1.767   3.370  0.6826 -0.1067  0.6637
 5956TIP3    H217875   1.603   1.779   3.362  0.5754  1.3044  0.4058
 5957TIP3   OH217876   3.807   1.034   0.712  0.7981 -0.3923  0.4223
 5957TIP3    H117877   3.747   0.960   0.700  0.7403 -0.0223 -2.3630
 5957TIP3    H217878   3.884   1.010   0.660  0.5845  1.6262 -0.9512
 5958TIP3   OH217879   3.343   1.350   1.693  0.0720 -0.0434  0.4277
 5958TIP3    H117880   3.305   1.297   1.623  1.5888 -0.8266  0.1519
 5958TIP3    H217881   3.317   1.439   1.672  1.0564 -0.1612 -1.5907
 5959TIP3   OH217882   4.208   5.367   3.220 -0.0698  0.1126 -0.1756
 5959TIP3    H117883   4.118   5.345   3.243 -0.8593  0.3509 -2.6864
 5959TIP3    H217884   4.205   5.461   3.200  1.0348  0.3983  0.8885
 5960TIP3   OH217885   2.086   0.496   4.168 -0.4286 -0.0233  0.1480
 5960TIP3    H117886   2.142   0.519   4.242  0.9444 -0.0983 -0.8319
 5960TIP3    H217887   2.069   0.402   4.179  1.9060 -0.6535 -0.9462
 5961TIP3   OH217888   3.109   1.474   1.380 -0.0217  0.6069 -0.0547
 5961TIP3    H117889   3.153   1.409   1.435 -0.3087  1.8390  1.7397
 5961TIP3    H217890   3.108   1.435   1.293  2.4440 -0.5029  0.3179
 5962TIP3   OH217891   0.733   3.518   4.653  0.4932  0.0588 -0.0990
 5962TIP3    H117892   0.651   3.492   4.695  0.1501  0.6039 -0.4364
 5962TIP3    H217893   0.731   3.475   4.567  1.6410 -1.8762  0.7638
 5963TIP3   OH217894   3.595   1.238   1.533  0.7174  0.6440 -0.4353
 5963TIP3    H117895   3.572   1.221   1.624  0.7905 -1.9906 -0.8313
 5963TIP3    H217896   3.583   1.333   1.522  0.8570  1.0514  2.3147
 5964TIP3   OH217897   1.261   5.763   0.764  0.6386  0.2742 -0.0566
 5964TIP3    H117898   1.173   5.799   0.756 -0.4786 -2.0894  0.7754
 5964TIP3    H217899   1.306   5.823   0.824 -0.5536  1.2174 -0.0573
 5965TIP3   OH217900   5.313   4.532   4.893 -0.1362 -0.6051 -0.4203
 5965TIP3    H117901   5.277   4.454   4.935 -1.7639  0.1990 -0.2533
 5965TIP3    H217902   5.386   4.499   4.840 -0.1531 -2.0871  0.4269
 5966TIP3   OH217903   6.078   3.167   0.304 -0.0637  0.1543 -0.1054
 5966TIP3    H117904   6.090   3.262   0.297  0.0598 -0.0080 -3.0967
 5966TIP3    H217905   6.061   3.138   0.215 -1.4693 -2.5058  0.9082
 5967TIP3   OH217906   3.185   5.116   1.287  0.4270 -0.5686  0.2036
 5967TIP3    H117907   3.103   5.141   1.328  1.1395  0.5317  1.0201
 5967TIP3    H217908   3.160   5.063   1.212 -1.1464  1.4659 -0.8010
 5968TIP3   OH217909   2.503   5.740   3.057  0.2031 -0.1499  0.5833
 5968TIP3    H117910   2.425   5.710   3.010 -0.3597  0.1924  1.2757
 5968TIP3    H217911   2.538   5.810   3.002  1.8675 -2.3694 -1.3478
 5969TIP3   OH217912   4.594   5.243   0.103 -0.1219  0.1050  0.0144
 5969TIP3    H117913   4.684   5.227   0.131 -0.8207 -1.7597  1.4292
 5969TIP3    H217914   4.594   5.334   0.074  2.1115  0.2847  0.3574
 5970TIP3   OH217915   5.436   1.370   2.100 -0.2248  0.1690  0.5699
 5970TIP3    H117916   5.429   1.331   2.013 -0.9925  0.7210  0.3758
 5970TIP3    H217917   5.348   1.366   2.136  0.0187  0.2544  1.1923
 5971TIP3   OH217918   5.289   3.553   1.693 -0.0852 -0.6542  0.0297
 5971TIP3    H117919   5.214   3.559   1.634  0.5090 -0.1352 -0.6990
 5971TIP3    H217920   5.262   3.491   1.760 -1.6655  0.4895  0.5216
 5972TIP3   OH217921   4.247   4.777   0.009  0.0937 -0.2073 -0.4902
 5972TIP3    H117922   4.202   4.834  -0.053  1.8009  1.5995 -0.1530
 5972TIP3    H217923   4.315   4.832   0.049  1.9041 -2.4687 -0.2023
 5973TIP3   OH217924   3.179   4.323   3.682 -0.0068  0.1749  0.1401
 5973TIP3    H117925   3.157   4.404   3.728 -1.7785  1.0224 -2.0336
 5973TIP3    H217926   3.251   4.347   3.623  0.7267 -0.3370  0.8037
 5974TIP3   OH217927   6.102   1.500   3.899  0.3777 -0.7167 -0.1638
 5974TIP3    H117928   6.061   1.468   3.979  0.6607 -0.8536 -0.0732
 5974TIP3    H217929   6.068   1.589   3.888 -0.0205 -0.8654 -0.1458
 5975TIP3   OH217930   1.823   3.735   0.159  0.1004  0.2098  0.5345
 5975TIP3    H117931   1.868   3.731   0.075  0.4132  2.0074  0.5779
 5975TIP3    H217932   1.893   3.744   0.223 -0.2130  0.5856  0.8281
 5976TIP3   OH217933   4.879   4.013   1.712 -0.4412  0.3394 -0.0795
 5976TIP3    H117934   4.905   3.920   1.712 -1.7511 -0.0480 -0.4353
 5976TIP3    H217935   4.866   4.034   1.804  1.3040  0.6213  0.1402
 5977TIP3   OH217936   2.170   3.723   5.143 -0.4583  0.0611  0.3750
 5977TIP3    H117937   2.142   3.719   5.235 -1.3174  1.2266  0.1906
 5977TIP3    H217938   2.104   3.672   5.096 -1.9983  2.2306  0.0276
 5978TIP3   OH217939   5.980   0.983   2.618  0.0463  0.2656 -0.5262
 5978TIP3    H117940   6.008   0.926   2.689 -0.2922  0.2370 -0.4126
 5978TIP3    H217941   6.061   1.010   2.575  0.4951  2.5898  1.6110
 5979TIP3   OH217942   1.620   5.592   1.126  0.1524  0.3688 -0.1715
 5979TIP3    H117943   1.699   5.598   1.180 -0.3619  1.6118  0.4920
 5979TIP3    H217944   1.550   5.623   1.183 -0.6054  0.5255 -1.1674
 5980TIP3   OH217945   1.609   2.251   0.063 -0.0835  0.0021  0.0721
 5980TIP3    H117946   1.601   2.185  -0.006 -1.9791 -0.4151  0.6144
 5980TIP3    H217947   1.598   2.201   0.144 -0.7762  0.8702  0.5244
 5981TIP3   OH217948   3.999   2.987   1.143 -0.1522 -0.1941 -0.1609
 5981TIP3    H117949   3.935   3.011   1.076 -0.5514 -0.8541 -0.0231
 5981TIP3    H217950   4.035   3.070   1.173 -0.2812  0.1331 -0.8851
 5982TIP3   OH217951   1.135   0.974   2.335  0.2594  0.3015  0.6950
 5982TIP3    H117952   1.131   1.062   2.372 -0.6934  0.6314 -0.1737
 5982TIP3    H217953   1.111   0.917   2.408  0.2400  0.8034  1.0860
 5983TIP3   OH217954   3.642   4.488   2.771  0.2957 -0.7465  0.1228
 5983TIP3    H117955   3.598   4.555   2.718 -0.1448 -0.8004  0.4230
 5983TIP3    H217956   3.656   4.415   2.711 -1.3992 -1.3332  0.4104
 5984TIP3   OH217957   0.432   0.069   4.655 -0.1122  0.4534 -0.1414
 5984TIP3    H117958   0.387  -0.010   4.624  0.3724  0.1062  0.0279
 5984TIP3    H217959   0.401   0.138   4.597 -1.1395  0.2904  0.1929
 5985TIP3   OH217960   3.056   0.390   4.042 -0.1775  0.4065 -0.4213
 5985TIP3    H117961   2.973   0.353   4.013 -0.2762  0.6441 -0.4461
 5985TIP3    H217962   3.088   0.328   4.108 -2.0527  1.9933  2.1822
 5986TIP3   OH217963   0.836   3.237   2.235  1.1335 -0.5844  0.5342
 5986TIP3    H117964   0.911   3.295   2.245  0.3939  0.8332 -1.3435
 5986TIP3    H217965   0.793   3.268   2.155 -0.8549 -2.0123  0.9729
 5987TIP3   OH217966   4.332   3.083   1.427  0.3344 -0.1126  0.5457
 5987TIP3    H117967   4.242   3.116   1.431  0.2894 -0.2028  0.3327
 5987TIP3    H217968   4.386   3.156   1.455  0.2225  0.0826  0.2617
 5988TIP3   OH217969   2.858   5.254   1.966  0.5789 -0.6701  0.0720
 5988TIP3    H117970   2.930   5.310   1.937  0.5499 -1.8855 -2.7209
 5988TIP3    H217971   2.780   5.292   1.925  0.0137 -0.7883  1.0085
 5989TIP3   OH217972   0.908   5.727   3.681  0.5889  0.1492 -0.1691
 5989TIP3    H117973   0.936   5.803   3.733 -0.9354  0.1524  0.6822
 5989TIP3    H217974   0.825   5.700   3.720 -0.6128  0.1192 -2.5618
 5990TIP3   OH217975   1.757   3.234   3.193 -0.2966  0.3841  0.2042
 5990TIP3    H117976   1.757   3.282   3.110  1.0367  0.1617  0.0479
 5990TIP3    H217977   1.836   3.263   3.237  0.2282 -1.1843  0.3740
 5991TIP3   OH217978   4.896   2.696   5.149  0.4831 -0.1930  0.6463
 5991TIP3    H117979   4.985   2.692   5.184  1.3632 -1.7457 -1.5447
 5991TIP3    H217980   4.865   2.784   5.172  1.5924 -0.4860  3.6411
 5992TIP3   OH217981   6.362   3.620   1.615 -0.6097 -0.6599  0.2337
 5992TIP3    H117982   6.379   3.712   1.596  2.1773 -1.1295  0.0724
 5992TIP3    H217983   6.307   3.590   1.543 -1.2359  0.7456  0.0921
 5993TIP3   OH217984   3.587   4.556   4.015 -0.3569 -0.2498  0.6215
 5993TIP3    H117985   3.522   4.626   4.011  0.5909  0.6234 -0.0398
 5993TIP3    H217986   3.540   4.478   3.986 -1.1320  0.3467  0.2468
 5994TIP3   OH217987   5.690   1.922   4.273  0.4574  0.3837  0.1953
 5994TIP3    H117988   5.748   1.928   4.198 -0.1584  0.6921 -0.2673
 5994TIP3    H217989   5.608   1.887   4.238 -0.9471  3.5174  0.0196
 5995TIP3   OH217990   3.695   0.219   1.175  0.4046 -0.6796 -0.4741
 5995TIP3    H117991   3.608   0.242   1.141  0.5398  1.7719  0.5713
 5995TIP3    H217992   3.756   0.252   1.108  0.5489 -0.9626 -0.4805
 5996TIP3   OH217993   2.688   3.431   5.039  0.0122  0.2446  0.6370
 5996TIP3    H117994   2.735   3.485   4.975 -2.7418  0.6638 -1.2353
 5996TIP3    H217995   2.674   3.489   5.114  0.5875  0.7846  0.3359
 5997TIP3   OH217996   6.276   5.911   0.999  0.3281 -0.8257  0.0117
 5997TIP3    H117997   6.316   5.998   0.999  1.5854 -1.1891  4.2630
 5997TIP3    H217998   6.184   5.928   0.979  0.6156  1.4198  0.2652
 5998TIP3   OH217999   5.873   0.709   3.655 -0.3160 -0.2807 -0.0224
 5998TIP3    H118000   5.832   0.795   3.647  1.1649  1.0187  3.8608
 5998TIP3    H218001   5.819   0.663   3.719  2.2200  0.2755  2.7220
 5999TIP3   OH218002   5.113   3.843   0.389  0.3237 -0.0369 -0.1993
 5999TIP3    H118003   5.080   3.761   0.427  0.6065 -0.2160 -0.3341
 5999TIP3    H218004   5.038   3.902   0.391 -0.1310 -0.5677 -0.8989
 6000TIP3   OH218005   1.474   2.631   0.398  0.6701  0.3890 -0.6247
 6000TIP3    H118006   1.566   2.608   0.387  0.3546 -0.7895 -0.9925
 6000TIP3    H218007   1.430   2.547   0.409 -0.1827  1.0035  1.0741
 6001TIP3   OH218008   2.652   0.478   4.154  0.0264  0.1501 -0.0586
 6001TIP3    H118009   2.574   0.440   4.113 -0.8677  1.1447  0.6577
 6001TIP3    H218010   2.671   0.556   4.102  0.3930  0.0463 -0.0818
 6002TIP3   OH218011   4.017   2.371   3.873  0.6569 -0.0708  0.2815
 6002TIP3    H118012   4.017   2.275   3.864  0.7685 -0.0386 -0.0787
 6002TIP3    H218013   3.924   2.394   3.878  0.6203 -0.1783  0.1228
 6003TIP3   OH218014   4.321   4.902   3.951  0.0286  0.3480 -0.5525
 6003TIP3    H118015   4.383   4.839   3.988 -1.7004 -0.3292  1.3692
 6003TIP3    H218016   4.299   4.960   4.024 -0.6074  1.4058 -1.5494
 6004TIP3   OH218017   3.651   3.840   3.812  0.2058 -0.6979  0.0373
 6004TIP3    H118018   3.689   3.810   3.895 -0.3789 -1.5170  0.0250
 6004TIP3    H218019   3.575   3.783   3.799 -0.9100  0.7552 -0.0414
 6005TIP3   OH218020   4.300   3.504   1.591 -0.1943 -0.3968 -0.0501
 6005TIP3    H118021   4.270   3.527   1.679  0.0809 -1.5930  0.3784
 6005TIP3    H218022   4.224   3.464   1.549 -0.1406 -0.4241 -0.1220
 6006TIP3   OH218023   1.956   3.037   4.008 -0.4842  0.3887 -0.0588
 6006TIP3    H118024   1.877   3.085   3.985 -0.7054  0.6122  1.0952
 6006TIP3    H218025   1.931   2.987   4.086  0.9177  1.6419  1.2603
 6007TIP3   OH218026   0.292   3.497   1.188  0.1280 -0.0268  0.1834
 6007TIP3    H118027   0.287   3.403   1.173  0.7774  0.0193 -0.3367
 6007TIP3    H218028   0.253   3.509   1.275 -1.1852 -0.6135 -0.2919
 6008TIP3   OH218029   2.544   1.694   2.651  0.2957 -0.1109  0.1607
 6008TIP3    H118030   2.486   1.702   2.726 -2.4151  0.2489 -1.8117
 6008TIP3    H218031   2.591   1.778   2.648 -1.5694  0.9786 -0.0257
 6009TIP3   OH218032   3.048   0.099   0.976 -0.7026 -0.0321 -0.6779
 6009TIP3    H118033   2.969   0.103   1.030 -0.9441  0.1681 -1.0440
 6009TIP3    H218034   3.017   0.113   0.887 -0.2451  0.0991 -0.8172
 6010TIP3   OH218035   2.033   2.753   4.952 -0.2700  0.2506  0.1324
 6010TIP3    H118036   2.020   2.684   5.017 -1.1275  0.9942  0.7711
 6010TIP3    H218037   1.991   2.719   4.873  0.0862 -0.3241  0.1835
 6011TIP3   OH218038   5.734   2.354   3.794 -0.6049  0.2522  0.1907
 6011TIP3    H118039   5.723   2.389   3.706  0.4584 -0.9523 -0.4535
 6011TIP3    H218040   5.726   2.259   3.784  1.1745 -0.0361  1.0928
 6012TIP3   OH218041   3.500   5.076   0.987 -0.1120  0.3889 -0.5581
 6012TIP3    H118042   3.424   5.055   0.933  0.6558 -0.3436 -1.3755
 6012TIP3    H218043   3.477   5.041   1.074 -0.7752  0.3359 -0.7450
 6013TIP3   OH218044   1.594   1.560   4.983 -0.0738 -0.0263 -0.3308
 6013TIP3    H118045   1.672   1.506   4.997 -0.1230  0.3604  1.8299
 6013TIP3    H218046   1.527   1.499   4.954  0.1332 -0.9997  1.1182
 6014TIP3   OH218047   4.897   2.414   1.265  0.0651 -0.2116  0.3753
 6014TIP3    H118048   4.959   2.462   1.320  0.0452  0.7885 -0.4405
 6014TIP3    H218049   4.811   2.439   1.299  0.0649  0.0132  0.2121
 6015TIP3   OH218050   2.100   3.779   3.934  0.6637  0.0650 -0.1104
 6015TIP3    H118051   2.149   3.760   3.854  0.5610 -0.6975  0.0016
 6015TIP3    H218052   2.014   3.740   3.919  1.0488 -1.2163  0.8699
 6016TIP3   OH218053   4.029   5.899   4.975 -0.2138  0.1975  0.0249
 6016TIP3    H118054   4.098   5.902   4.908 -2.3169 -0.7571 -2.3567
 6016TIP3    H218055   4.033   5.809   5.009 -0.3678  0.0976 -0.2192
 6017TIP3   OH218056   3.099   3.159   2.416  0.2509  0.7919  0.4326
 6017TIP3    H118057   3.094   3.103   2.494  0.0861 -1.3088 -0.9935
 6017TIP3    H218058   3.009   3.167   2.386  0.4445  0.5098 -0.2413
 6018TIP3   OH218059   6.325   1.233   4.780  0.7564 -0.2119  0.1311
 6018TIP3    H118060   6.283   1.151   4.752  0.1268  0.4587 -0.9842
 6018TIP3    H218061   6.397   1.245   4.719 -0.5784  1.2309 -1.2609
 6019TIP3   OH218062   2.304   2.166   4.004  0.0616  0.1202  0.1546
 6019TIP3    H118063   2.240   2.107   3.965 -0.5942  0.0889  1.2251
 6019TIP3    H218064   2.389   2.128   3.982 -0.3372 -0.9815  0.4293
 6020TIP3   OH218065   3.056   1.836   3.284  0.3295  0.1111  0.2977
 6020TIP3    H118066   3.077   1.895   3.212  1.4308  0.7755  1.1377
 6020TIP3    H218067   2.960   1.841   3.291  0.2624  0.5199 -0.6936
 6021TIP3   OH218068   0.316   2.330   1.766 -0.2220  0.2048  0.0191
 6021TIP3    H118069   0.308   2.234   1.767 -1.9928  0.2175 -2.2656
 6021TIP3    H218070   0.408   2.347   1.750 -0.0322 -1.1826 -0.5023
 6022TIP3   OH218071   0.735   4.972   2.873 -0.1006 -0.4728 -0.0952
 6022TIP3    H118072   0.751   4.912   2.801 -1.1667 -1.1851  0.2258
 6022TIP3    H218073   0.769   5.056   2.843  0.5178 -1.0127 -0.9494
 6023TIP3   OH218074   4.855   0.265   2.496 -0.0791  0.1152  0.1614
 6023TIP3    H118075   4.799   0.340   2.520  0.1640  0.5864 -0.7042
 6023TIP3    H218076   4.943   0.303   2.489 -0.0788 -0.0818 -1.0611
 6024TIP3   OH218077   3.756   4.689   4.180 -0.0312  0.5836 -0.3182
 6024TIP3    H118078   3.688   4.649   4.125  1.1587 -1.2702 -0.5312
 6024TIP3    H218079   3.709   4.751   4.235 -2.4112 -2.4239  1.3745
 6025TIP3   OH218080   4.712   2.437   1.717  0.3845 -0.2980  0.2948
 6025TIP3    H118081   4.655   2.511   1.740  0.6711  0.0108  0.0121
 6025TIP3    H218082   4.799   2.475   1.710  0.2311 -0.2167 -2.0001
 6026TIP3   OH218083   5.768   1.619   0.468  0.2972  0.3164 -0.4865
 6026TIP3    H118084   5.709   1.562   0.418 -0.0915  0.6510 -0.4168
 6026TIP3    H218085   5.729   1.622   0.555  1.4444 -0.9636  0.0983
 6027TIP3   OH218086   6.183   2.046   3.682  0.2629 -0.3842 -0.4658
 6027TIP3    H118087   6.182   2.042   3.586  1.1267  0.1259 -0.5139
 6027TIP3    H218088   6.238   1.972   3.708  0.6321 -0.0934 -0.4081
 6028TIP3   OH218089   2.578   0.204   1.390  1.4878 -0.3724 -0.2221
 6028TIP3    H118090   2.648   0.261   1.361  0.0743  1.5802  0.0191
 6028TIP3    H218091   2.606   0.173   1.477  2.3450 -0.2008 -0.4317
 6029TIP3   OH218092   1.146   2.001   1.528  0.5266  0.1874  0.2399
 6029TIP3    H118093   1.163   2.017   1.435  0.2491 -0.8946 -0.0087
 6029TIP3    H218094   1.052   1.988   1.534  0.7822 -2.1548  0.2441
 6030TIP3   OH218095   6.064   4.996   2.944  0.1755  0.2528 -0.7416
 6030TIP3    H118096   5.977   4.956   2.937  0.0457  0.2614  0.6121
 6030TIP3    H218097   6.049   5.080   2.987  0.6725  0.9959 -1.9707
 6031TIP3   OH218098   0.850   1.201   2.901  0.3987  0.2617 -0.0700
 6031TIP3    H118099   0.813   1.273   2.952 -0.5878  1.4802 -2.3757
 6031TIP3    H218100   0.921   1.241   2.851 -0.0463 -0.3770 -1.2469
 6032TIP3   OH218101   4.539   5.447   4.261 -0.0330  0.0321 -0.3847
 6032TIP3    H118102   4.547   5.511   4.332  0.6913  1.7248 -1.8974
 6032TIP3    H218103   4.473   5.385   4.292  0.8728  0.1882  2.1033
 6033TIP3   OH218104   5.960   2.916   4.859  0.1667  0.5075 -0.3388
 6033TIP3    H118105   5.872   2.906   4.895 -0.1540 -1.4378 -1.5537
 6033TIP3    H218106   5.958   3.001   4.816  0.1437  2.2989  2.8428
 6034TIP3   OH218107   4.102   1.092   4.185  0.4132  1.0448  0.1084
 6034TIP3    H118108   4.177   1.099   4.126 -0.2969  2.8603 -0.6716
 6034TIP3    H218109   4.039   1.155   4.150 -1.2475 -0.0046  1.0817
 6035TIP3   OH218110   2.857   2.123   2.530  0.0705 -0.2650  0.1063
 6035TIP3    H118111   2.892   2.083   2.450 -1.8227 -0.8874 -0.4578
 6035TIP3    H218112   2.814   2.203   2.501 -0.6772 -0.5237  0.4715
 6036TIP3   OH218113   1.212   4.512   0.801 -0.5119  0.3804 -0.1805
 6036TIP3    H118114   1.126   4.548   0.777 -0.1897  1.0757 -0.3144
 6036TIP3    H218115   1.272   4.586   0.792 -0.1006  0.2208  1.1225
 6037TIP3   OH218116   3.723   5.466   3.390  0.0845  0.3859  0.1857
 6037TIP3    H118117   3.651   5.427   3.341 -0.4377  2.3840 -0.7348
 6037TIP3    H218118   3.681   5.503   3.468  0.6422 -1.1601  1.2816
 6038TIP3   OH218119   1.399   5.282   1.381 -0.3195 -0.8735  0.4552
 6038TIP3    H118120   1.392   5.377   1.374  0.0854 -0.7755  1.2390
 6038TIP3    H218121   1.492   5.264   1.369 -0.3176 -1.1152  0.7899
 6039TIP3   OH218122   3.302   0.159   1.104  0.3349  0.8607 -0.3645
 6039TIP3    H118123   3.300   0.153   1.200  0.3662  1.1036 -0.3471
 6039TIP3    H218124   3.214   0.133   1.077  0.8707 -1.0525 -0.3892
 6040TIP3   OH218125   6.104   1.669   2.586  0.6703  0.1533  0.0278
 6040TIP3    H118126   6.011   1.651   2.600  0.7079  0.2333  0.3871
 6040TIP3    H218127   6.132   1.603   2.521  0.3066  0.2949 -0.2746
 6041TIP3   OH218128   4.317   5.297   0.146 -0.0665 -0.9580  0.1107
 6041TIP3    H118129   4.315   5.380   0.192  0.6566  0.1652 -1.7396
 6041TIP3    H218130   4.409   5.286   0.121 -0.1951 -2.2013  0.0967
 6042TIP3   OH218131   2.363   4.328   0.071 -0.6530  0.1112 -0.5488
 6042TIP3    H118132   2.303   4.348  -0.001  0.8102 -0.4203 -1.9804
 6042TIP3    H218133   2.392   4.413   0.102 -1.6132  0.3564 -0.2768
 6043TIP3   OH218134   3.536   0.865   5.140  0.3950 -0.2435  0.0586
 6043TIP3    H118135   3.520   0.779   5.181 -0.7083 -0.4699 -0.8189
 6043TIP3    H218136   3.464   0.877   5.079  0.5385  1.3228  0.1508
 6044TIP3   OH218137   0.821   2.198   1.459 -0.0908 -0.5935  0.2890
 6044TIP3    H118138   0.741   2.244   1.434  0.1331 -0.0993  0.4609
 6044TIP3    H218139   0.791   2.122   1.508 -0.4933 -1.0196 -0.6020
 6045TIP3   OH218140   3.427   2.546   4.954  0.2603  0.0559 -0.1759
 6045TIP3    H118141   3.337   2.545   4.921  0.3768 -1.6368 -0.5612
 6045TIP3    H218142   3.453   2.454   4.954  1.9798  0.5054 -0.0179
 6046TIP3   OH218143   5.232   3.849   4.852  0.3523  0.4402  0.2314
 6046TIP3    H118144   5.208   3.928   4.804  2.8494  1.1401  0.0042
 6046TIP3    H218145   5.244   3.782   4.784  0.6414  0.5425  0.1791
 6047TIP3   OH218146   5.321   2.897   2.492  0.4022 -0.1765  0.0936
 6047TIP3    H118147   5.250   2.885   2.556 -0.5511  1.6764 -0.5299
 6047TIP3    H218148   5.375   2.967   2.530 -0.0837  0.8299 -1.0034
 6048TIP3   OH218149   2.478   4.686   1.527  0.4786  0.1978  0.2184
 6048TIP3    H118150   2.418   4.759   1.542 -0.2534 -0.0969 -1.1168
 6048TIP3    H218151   2.439   4.612   1.573  0.3933  0.2747  0.2685
 6049TIP3   OH218152   1.818   3.158   1.228  0.1015 -0.3061 -0.4053
 6049TIP3    H118153   1.747   3.117   1.178  0.3053 -0.4306 -0.5976
 6049TIP3    H218154   1.791   3.149   1.320  0.4371 -1.4720 -0.3924
 6050TIP3   OH218155   4.080   1.370   0.864 -0.0556 -0.1803  0.7623
 6050TIP3    H118156   4.068   1.277   0.881 -2.3060 -0.2747 -0.9062
 6050TIP3    H218157   4.028   1.414   0.931  3.1138  0.1308  3.2841
 6051TIP3   OH218158   3.525   0.154   2.868  0.1697  0.1565 -0.2567
 6051TIP3    H118159   3.448   0.099   2.884  1.0656 -0.5801  1.9184
 6051TIP3    H218160   3.505   0.200   2.786 -2.1608 -0.7025 -0.2552
 6052TIP3   OH218161   5.428   2.764   4.606  0.0548  0.6416  0.0978
 6052TIP3    H118162   5.480   2.835   4.644  0.8970 -1.0595  2.4010
 6052TIP3    H218163   5.391   2.718   4.682 -2.5544  0.0749 -1.3755
 6053TIP3   OH218164   4.857   3.743   3.147 -0.5101  0.2356  0.2446
 6053TIP3    H118165   4.892   3.781   3.229  1.2154 -0.1610 -0.2600
 6053TIP3    H218166   4.844   3.651   3.167 -1.4062  0.4050  0.4639
 6054TIP3   OH218167   4.458   0.386   2.142 -0.1549 -0.0826 -0.1940
 6054TIP3    H118168   4.479   0.305   2.096 -0.9479 -0.3776 -0.0418
 6054TIP3    H218169   4.540   0.408   2.188 -0.1795 -1.2992  0.5022
 6055TIP3   OH218170   6.256   4.470   1.650 -0.5359  0.8425 -0.1315
 6055TIP3    H118171   6.318   4.460   1.722  0.6728  1.3654 -1.0736
 6055TIP3    H218172   6.246   4.382   1.614  3.7133  1.3312 -3.2094
 6056TIP3   OH218173   0.462   4.978   2.958  0.1861  0.0009  0.0812
 6056TIP3    H118174   0.554   4.998   2.942 -0.0957 -0.0770 -1.8229
 6056TIP3    H218175   0.427   5.056   3.001  0.5294  1.1837 -1.6779
 6057TIP3   OH218176   5.837   4.995   2.619  0.5719  0.6229 -0.2534
 6057TIP3    H118177   5.878   5.077   2.592 -0.0069  0.6944 -0.9459
 6057TIP3    H218178   5.820   4.949   2.536  0.1716  0.1554  0.0851
 6058TIP3   OH218179   3.992   1.662   2.940  0.1581 -0.0844  0.1907
 6058TIP3    H118180   3.989   1.567   2.939 -0.3833 -0.0756 -0.7063
 6058TIP3    H218181   3.976   1.687   3.031 -1.4456 -0.8134  0.1307
 6059TIP3   OH218182   5.736   1.230   4.868 -0.3939 -0.5048  0.1428
 6059TIP3    H118183   5.746   1.219   4.774 -1.1294 -0.9935  0.1100
 6059TIP3    H218184   5.820   1.203   4.905 -0.2150 -0.6338 -0.3516
 6060TIP3   OH218185   0.246   5.148   1.669  0.0296 -0.0135 -0.7662
 6060TIP3    H118186   0.178   5.082   1.678  0.2280  0.0050  1.2294
 6060TIP3    H218187   0.271   5.144   1.577 -1.5773 -1.0812 -1.1952
 6061TIP3   OH218188   2.601   3.100   3.663  0.8251  0.0562 -0.3581
 6061TIP3    H118189   2.523   3.098   3.718  0.2345  0.3116 -1.1602
 6061TIP3    H218190   2.651   3.022   3.688  0.4767  0.0646  0.3846
 6062TIP3   OH218191   2.151   0.985   0.928  0.6251 -0.3890  0.3208
 6062TIP3    H118192   2.145   1.069   0.881 -0.7640 -0.2670  0.6828
 6062TIP3    H218193   2.229   0.995   0.983 -1.0362  1.8441  2.5063
 6063TIP3   OH218194   1.408   5.399   3.205 -0.0483  0.5422 -0.1321
 6063TIP3    H118195   1.430   5.321   3.255  3.3272  1.2836 -0.2117
 6063TIP3    H218196   1.365   5.457   3.268 -1.8141 -0.9749  0.1319
 6064TIP3   OH218197   1.959   4.720   0.690 -0.4839  0.3203 -0.0273
 6064TIP3    H118198   2.051   4.738   0.674  0.3113 -0.9314  2.7152
 6064TIP3    H218199   1.937   4.771   0.768 -1.1734 -1.8227  1.2617
 6065TIP3   OH218200   3.649   5.809   4.809  0.2858  0.2811 -0.2179
 6065TIP3    H118201   3.604   5.874   4.862 -1.7388  0.7924 -2.3707
 6065TIP3    H218202   3.742   5.826   4.823 -0.1772  3.1037 -0.0452
 6066TIP3   OH218203   4.391   3.447   1.131  0.3034 -0.5535 -0.0396
 6066TIP3    H118204   4.354   3.492   1.055  1.4780  0.7667  0.1259
 6066TIP3    H218205   4.485   3.447   1.115  0.3656 -3.0955 -0.0529
 6067TIP3   OH218206   1.305   5.149   2.532 -0.1903  0.1407  0.2290
 6067TIP3    H118207   1.238   5.081   2.523 -1.1138  0.8769  1.2708
 6067TIP3    H218208   1.387   5.101   2.533 -0.7805 -0.9067  0.2622
 6068TIP3   OH218209   2.946   4.507   4.748  0.2014 -0.6074  0.6590
 6068TIP3    H118210   2.948   4.415   4.720 -1.4221 -0.2109 -0.9835
 6068TIP3    H218211   2.867   4.514   4.802  0.6746 -0.3052  1.3237
 6069TIP3   OH218212   3.360   1.942   4.417  0.3499  0.5113 -0.7004
 6069TIP3    H118213   3.451   1.967   4.400  1.2854 -2.3502 -0.4591
 6069TIP3    H218214   3.317   1.951   4.332  0.5136  2.9068 -0.5976
 6070TIP3   OH218215   2.450   5.966   5.178  0.0662 -0.4690  0.1113
 6070TIP3    H118216   2.394   5.889   5.169 -2.0857  1.1569 -1.7396
 6070TIP3    H218217   2.391   6.040   5.162  2.2780  1.5172  0.5844
 6071TIP3   OH218218   1.843   5.033   0.173  0.2265  0.1383 -0.3402
 6071TIP3    H118219   1.867   4.941   0.186 -0.8847  0.0708  1.5550
 6071TIP3    H218220   1.783   5.031   0.098 -0.4934 -0.8122  0.2434
 6072TIP3   OH218221   5.633   2.320   1.271 -0.0795 -0.9415  0.1368
 6072TIP3    H118222   5.612   2.355   1.357  0.0963 -0.8515  0.1423
 6072TIP3    H218223   5.670   2.395   1.223 -1.9443 -0.4601 -0.6529
 6073TIP3   OH218224   6.040   2.747   3.983  0.2801 -0.0844 -0.1782
 6073TIP3    H118225   5.971   2.717   4.043  0.2208  1.2683  0.4869
 6073TIP3    H218226   5.999   2.744   3.897  0.1505 -1.4482 -0.0951
 6074TIP3   OH218227   3.393   4.916   3.241 -0.3452  0.7246  0.0803
 6074TIP3    H118228   3.414   4.962   3.160 -0.3133  1.6995  0.6294
 6074TIP3    H218229   3.467   4.934   3.298 -0.7955  0.8243  0.6421
 6075TIP3   OH218230   1.893   4.482   0.889  0.2272 -0.2773  0.5057
 6075TIP3    H118231   1.823   4.545   0.909  1.0151  0.8763 -0.2627
 6075TIP3    H218232   1.972   4.524   0.921  1.1686  0.4137 -2.4433
 6076TIP3   OH218233   3.175   3.019   1.924 -0.1560  0.5544  0.5322
 6076TIP3    H118234   3.187   3.078   1.999  1.4863 -0.1252  0.8440
 6076TIP3    H218235   3.260   2.977   1.913 -1.5036 -2.6412  1.0915
 6077TIP3   OH218236   2.488   3.191   1.812 -0.2869 -0.4707  0.4810
 6077TIP3    H118237   2.414   3.181   1.872 -0.4529  3.5606  1.2175
 6077TIP3    H218238   2.464   3.264   1.756  1.9985 -0.8964 -1.2036
 6078TIP3   OH218239   2.174   1.627   2.016 -0.4634  0.2027  0.0019
 6078TIP3    H118240   2.258   1.669   1.996 -1.1101  0.2351 -3.1956
 6078TIP3    H218241   2.199   1.540   2.049  0.8794  0.1322 -1.0723
 6079TIP3   OH218242   4.236   1.857   0.533 -0.0643  0.7013  1.1951
 6079TIP3    H118243   4.187   1.872   0.613 -0.3426  2.9237  0.6739
 6079TIP3    H218244   4.258   1.945   0.501  1.0922 -0.1467 -0.5107
 6080TIP3   OH218245   5.522   0.693   2.173 -0.1766 -0.7650  0.1353
 6080TIP3    H118246   5.537   0.722   2.263 -0.3616 -1.9010  0.5555
 6080TIP3    H218247   5.431   0.662   2.172 -0.7374  0.8107 -0.9084
 6081TIP3   OH218248   0.925   5.525   0.866  0.2535  0.4492 -0.0146
 6081TIP3    H118249   0.964   5.598   0.912  1.1271  0.0326 -0.0881
 6081TIP3    H218250   0.923   5.453   0.929  1.2029 -0.0409 -0.5169
 6082TIP3   OH218251   2.671   2.879   4.426 -0.2769 -0.3368 -0.1666
 6082TIP3    H118252   2.583   2.850   4.450 -0.7168  1.9699  1.3341
 6082TIP3    H218253   2.728   2.809   4.457 -1.3633 -0.3523  2.0388
 6083TIP3   OH218254   4.579   4.366   5.008 -0.1904  0.5591 -0.2207
 6083TIP3    H118255   4.604   4.396   4.920 -0.4988  0.3225 -0.3924
 6083TIP3    H218256   4.484   4.354   5.002 -0.1941  0.4370  0.1145
 6084TIP3   OH218257   6.216   2.300   1.450 -0.1838  0.6159  0.0197
 6084TIP3    H118258   6.259   2.301   1.536 -2.2164 -2.6079  1.2688
 6084TIP3    H218259   6.194   2.208   1.435 -0.7274  1.1792 -3.6008
 6085TIP3   OH218260   6.186   3.161   3.285  0.0832 -0.2800 -0.5023
 6085TIP3    H118261   6.234   3.080   3.265 -1.6986 -1.6618  0.4831
 6085TIP3    H218262   6.153   3.148   3.374  0.7294  2.0734  0.1308
 6086TIP3   OH218263   3.889   5.428   5.058  0.6781  0.1115  0.2919
 6086TIP3    H118264   3.836   5.421   5.138 -2.2408 -1.6612 -1.5944
 6086TIP3    H218265   3.933   5.343   5.051  0.2931 -0.0375 -0.3648
 6087TIP3   OH218266   4.369   3.884   3.516 -0.0146 -0.1504  0.1490
 6087TIP3    H118267   4.356   3.913   3.606 -1.7242  0.0069 -0.1175
 6087TIP3    H218268   4.402   3.795   3.523 -1.5989 -0.6990  0.9392
 6088TIP3   OH218269   6.245   2.625   1.715  0.0116 -0.3019  0.1781
 6088TIP3    H118270   6.237   2.652   1.806 -0.8145  0.6895 -0.1727
 6088TIP3    H218271   6.156   2.601   1.689  0.3224 -1.0419 -0.2298
 6089TIP3   OH218272   0.049   2.927   1.315 -0.2705  0.0484  0.3812
 6089TIP3    H118273   0.103   2.864   1.267  0.3973  0.8025  0.1364
 6089TIP3    H218274  -0.036   2.922   1.272  0.7999  2.1302 -2.2846
 6090TIP3   OH218275   6.209   1.401   3.513  0.9962 -0.1343 -0.2289
 6090TIP3    H118276   6.255   1.439   3.438 -1.1501  1.1525 -0.9691
 6090TIP3    H218277   6.117   1.425   3.500  0.5630  0.4059  2.9807
 6091TIP3   OH218278   0.971   4.557   0.709 -0.5499 -0.3445  0.3754
 6091TIP3    H118279   0.877   4.538   0.710 -0.5530 -0.3430 -0.0827
 6091TIP3    H218280   0.981   4.628   0.647 -0.3478  0.2186  1.0388
 6092TIP3   OH218281   2.951   1.798   0.656  0.0020  0.6126  0.5472
 6092TIP3    H118282   2.893   1.860   0.611  0.1201  0.1713 -0.2257
 6092TIP3    H218283   2.906   1.714   0.650  1.3416 -0.0322 -1.3278
 6093TIP3   OH218284   0.714   2.461   1.069  0.2154 -0.0588 -0.7382
 6093TIP3    H118285   0.645   2.510   1.113 -0.2100  0.2641 -1.7343
 6093TIP3    H218286   0.669   2.387   1.027  1.0353 -2.3534  2.0713
 6094TIP3   OH218287   1.954   1.207   4.632 -0.1670 -0.2854 -0.0387
 6094TIP3    H118288   1.984   1.280   4.686 -0.6617  0.5250 -0.8340
 6094TIP3    H218289   1.858   1.213   4.634 -0.2577 -1.5983  0.7909
 6095TIP3   OH218290   3.892   0.489   1.164  0.4292 -0.1443  0.7719
 6095TIP3    H118291   3.952   0.449   1.227  1.6615 -0.4913 -0.5862
 6095TIP3    H218292   3.942   0.495   1.083 -1.2774 -0.1534 -0.3296
 6096TIP3   OH218293   3.574   3.324   1.117  0.6897 -0.7089  0.3932
 6096TIP3    H118294   3.552   3.258   1.051  0.9201 -0.3556 -0.0408
 6096TIP3    H218295   3.493   3.336   1.166 -0.4016  1.1291 -1.6739
 6097TIP3   OH218296   1.760   5.805   1.647 -0.1951  0.1940  0.0402
 6097TIP3    H118297   1.783   5.729   1.701 -0.2437 -0.3552 -0.6907
 6097TIP3    H218298   1.815   5.876   1.680 -0.4546 -0.0489  1.0118
 6098TIP3   OH218299   5.087   0.439   3.319  0.2601  0.3515 -0.0054
 6098TIP3    H118300   5.102   0.417   3.411  0.7236  2.4475  0.4945
 6098TIP3    H218301   5.167   0.413   3.274  2.1162  3.4679  1.0954
 6099TIP3   OH218302   4.866   5.092   0.499 -0.2531 -0.4268  0.6255
 6099TIP3    H118303   4.826   5.168   0.457  1.2757  0.2749  0.3794
 6099TIP3    H218304   4.850   5.105   0.593  0.1359  0.3090  0.6005
 6100TIP3   OH218305   2.747   5.678   4.838  0.0582 -0.8305 -0.0540
 6100TIP3    H118306   2.833   5.636   4.842  0.2359 -0.4075  1.1997
 6100TIP3    H218307   2.732   5.710   4.927 -2.1511 -2.3726  0.2113
 6101TIP3   OH218308   0.362   4.449   1.049 -0.2267 -0.3050  0.2213
 6101TIP3    H118309   0.279   4.405   1.030 -0.1581 -0.8875  1.1784
 6101TIP3    H218310   0.371   4.515   0.980 -0.7406 -1.2490 -0.7812
 6102TIP3   OH218311   4.003   5.445   3.688 -0.0982  0.2856  0.3580
 6102TIP3    H118312   4.069   5.399   3.634 -1.4969  1.4331 -2.5593
 6102TIP3    H218313   3.940   5.377   3.710  0.3661 -0.1593  0.3511
 6103TIP3   OH218314   3.879   5.833   2.996  0.3592 -0.3340  0.4715
 6103TIP3    H118315   3.817   5.880   2.940 -0.2568 -1.7552 -0.0962
 6103TIP3    H218316   3.838   5.747   3.009  0.0210  0.2221  3.9135
 6104TIP3   OH218317   5.171   0.533   3.831  0.2023 -0.3577 -0.3096
 6104TIP3    H118318   5.107   0.511   3.764  0.0463 -2.2555  0.3810
 6104TIP3    H218319   5.250   0.555   3.783 -0.1249 -0.9221 -1.1262
 6105TIP3   OH218320   1.243   3.719   1.055 -0.1162  0.3206 -0.0824
 6105TIP3    H118321   1.267   3.746   0.966  0.2474 -1.3654 -0.5238
 6105TIP3    H218322   1.311   3.758   1.110  2.7711 -2.7428 -1.1145
 6106TIP3   OH218323   0.463   4.977   1.487  0.1425  0.6161 -0.0508
 6106TIP3    H118324   0.384   4.951   1.441  0.6226 -2.6816  0.7482
 6106TIP3    H218325   0.531   4.978   1.419  0.1790 -0.7336 -0.0560
 6107TIP3   OH218326   3.934   3.899   2.845  0.4457 -0.0779 -0.2574
 6107TIP3    H118327   4.016   3.855   2.821  1.3049  0.7575  0.9954
 6107TIP3    H218328   3.938   3.906   2.941 -1.6340 -1.0263 -0.0522
 6108TIP3   OH218329   1.675   4.012   1.711 -0.1053  1.1184  0.0323
 6108TIP3    H118330   1.766   4.020   1.683  0.4354  0.5550  1.5235
 6108TIP3    H218331   1.677   3.946   1.780 -1.7945  0.4428 -0.5067
 6109TIP3   OH218332   3.190   4.139   0.983  0.4730 -0.2761  0.3855
 6109TIP3    H118333   3.169   4.209   1.044 -0.8372 -1.3489  1.2208
 6109TIP3    H218334   3.223   4.184   0.905  0.3283  1.2181  1.1516
 6110TIP3   OH218335   4.920   4.761   4.799  1.0014 -0.7991  0.6065
 6110TIP3    H118336   5.012   4.781   4.785  0.4384  0.6646 -1.7084
 6110TIP3    H218337   4.918   4.668   4.817  2.8881 -1.0181 -0.0881
 6111TIP3   OH218338   5.795   2.528   1.919  0.2139  0.0164 -0.4367
 6111TIP3    H118339   5.739   2.458   1.953  0.1775  0.0208 -0.4880
 6111TIP3    H218340   5.735   2.600   1.901 -0.0885 -0.6562 -2.4160
 6112TIP3   OH218341   0.809   4.893   3.973  0.5163 -0.0795  0.3358
 6112TIP3    H118342   0.781   4.894   4.065  0.8198 -3.0444  0.5464
 6112TIP3    H218343   0.903   4.910   3.977  0.4505  0.2680  0.5077
 6113TIP3   OH218344   1.919   0.806   0.599  0.5216 -0.2314 -0.2453
 6113TIP3    H118345   1.929   0.711   0.589 -0.1062 -0.3832  0.4342
 6113TIP3    H218346   1.931   0.821   0.693  2.2720  0.5936 -0.5676
 6114TIP3   OH218347   3.911   1.241   1.165 -0.3518 -0.3822  0.3757
 6114TIP3    H118348   3.916   1.180   1.091 -0.0416 -0.2515  0.2893
 6114TIP3    H218349   3.842   1.303   1.140 -0.3181 -0.3979  0.2414
 6115TIP3   OH218350   4.201   5.580   1.351  0.5333  0.2029  0.5294
 6115TIP3    H118351   4.182   5.605   1.442 -1.7794 -0.4441  0.2820
 6115TIP3    H218352   4.181   5.658   1.300  0.1760  0.0510  0.4317
 6116TIP3   OH218353   4.248   1.825   1.535  0.6210  0.3442  0.0084
 6116TIP3    H118354   4.162   1.783   1.533  0.5990  0.4178 -1.3241
 6116TIP3    H218355   4.290   1.790   1.614  0.7096 -2.4343 -1.1524
 6117TIP3   OH218356   3.731   3.007   1.366  0.4917 -0.2722  1.1677
 6117TIP3    H118357   3.740   3.099   1.391 -1.5240  0.5508 -0.8224
 6117TIP3    H218358   3.641   2.999   1.333  1.1244 -2.5793 -0.2575
 6118TIP3   OH218359   4.347   0.897   3.221 -0.3735  0.0427  0.0372
 6118TIP3    H118360   4.308   0.858   3.299  2.3660 -2.0404  0.5332
 6118TIP3    H218361   4.324   0.836   3.150 -0.7721  0.5825 -0.3003
 6119TIP3   OH218362   4.517   5.320   2.377  0.0071 -0.7992  0.1338
 6119TIP3    H118363   4.471   5.277   2.305 -1.2350  0.6316  0.0233
 6119TIP3    H218364   4.450   5.334   2.444  0.2048  1.3554 -0.0443
 6120TIP3   OH218365   1.244   5.287   3.007 -0.0980 -0.9738 -0.4479
 6120TIP3    H118366   1.197   5.355   2.957  0.5511 -0.7642 -0.7928
 6120TIP3    H218367   1.283   5.334   3.080  0.2959 -0.9787 -0.6490
 6121TIP3   OH218368   1.666   2.298   0.484  0.0970  0.1722 -0.3988
 6121TIP3    H118369   1.709   2.357   0.546 -1.0962 -0.0079  0.6332
 6121TIP3    H218370   1.733   2.278   0.419  1.4648  0.1620  0.9692
 6122TIP3   OH218371   4.153   2.072   3.535 -0.2891 -0.3430 -0.4271
 6122TIP3    H118372   4.221   2.059   3.468 -1.4782 -2.0114 -1.3858
 6122TIP3    H218373   4.078   2.023   3.502 -2.4773  2.4929 -0.0849
 6123TIP3   OH218374   2.783   1.902   0.279 -0.4005 -0.4414  0.7911
 6123TIP3    H118375   2.733   1.838   0.229 -1.0978 -0.3525  1.3444
 6123TIP3    H218376   2.856   1.926   0.222 -0.6305 -1.0569  0.2210
 6124TIP3   OH218377   1.784   5.394   0.222  0.3060  0.3294 -0.1361
 6124TIP3    H118378   1.763   5.434   0.137 -0.9463 -2.0627 -1.0345
 6124TIP3    H218379   1.819   5.308   0.201  0.1017 -0.2803  1.7706
 6125TIP3   OH218380   4.093   4.317   4.727  0.2075 -0.0986 -0.0281
 6125TIP3    H118381   4.066   4.263   4.801  2.5640  0.6397  1.4739
 6125TIP3    H218382   4.068   4.266   4.650  0.6254 -2.4524  1.2971
 6126TIP3   OH218383   2.412   5.954   4.375 -0.1934  0.1910 -0.1183
 6126TIP3    H118384   2.474   6.014   4.334 -1.4359  1.0526 -0.7981
 6126TIP3    H218385   2.440   5.950   4.467  0.4520  1.1129 -0.2639
 6127TIP3   OH218386   2.927   2.207   2.928  0.4013  0.1518  0.2571
 6127TIP3    H118387   3.019   2.232   2.934  0.3810  0.7567 -1.4380
 6127TIP3    H218388   2.928   2.121   2.886  0.1955  0.3242 -0.1099
 6128TIP3   OH218389   1.601   1.494   2.887 -0.1274 -0.2339 -0.4590
 6128TIP3    H118390   1.606   1.575   2.939  0.5244  1.5143 -3.0682
 6128TIP3    H218391   1.686   1.452   2.903 -0.7449 -0.8603  1.4870
 6129TIP3   OH218392   6.223   5.698   2.490  0.5735  0.0528  0.4795
 6129TIP3    H118393   6.265   5.631   2.544  2.7434  0.9728  0.0684
 6129TIP3    H218394   6.234   5.667   2.400 -1.3877 -0.5830  0.4119
 6130TIP3   OH218395   1.553   1.315   3.754 -0.1621 -0.0660 -0.5396
 6130TIP3    H118396   1.641   1.288   3.729  0.0392 -1.1989  1.2308
 6130TIP3    H218397   1.515   1.237   3.794 -1.2761  0.9726  0.4952
 6131TIP3   OH218398   4.901   3.722   1.695  0.2055  0.3339  0.3501
 6131TIP3    H118399   4.913   3.691   1.785 -0.6421 -0.1468  0.3117
 6131TIP3    H218400   4.946   3.657   1.641  0.8567  0.7120  0.4295
 6132TIP3   OH218401   0.891   2.768   1.603 -0.5289  0.0483 -0.2199
 6132TIP3    H118402   0.840   2.746   1.525 -2.7178  0.1045  1.1371
 6132TIP3    H218403   0.867   2.858   1.624  1.9788  0.9545 -0.8681
 6133TIP3   OH218404   0.210   0.406   0.254  0.0678  0.6536  0.4159
 6133TIP3    H118405   0.288   0.351   0.250  0.6992  1.5006  0.6898
 6133TIP3    H218406   0.242   0.494   0.233 -0.0593  1.7723  4.2193
 6134TIP3   OH218407   2.428   3.294   2.631  0.1874  0.1671 -0.1033
 6134TIP3    H118408   2.503   3.350   2.650  1.7453 -1.2884 -1.7153
 6134TIP3    H218409   2.354   3.356   2.624  1.5704  1.8486 -0.4785
 6135TIP3   OH218410   2.648   2.111   1.089  0.3297 -0.2042  0.3738
 6135TIP3    H118411   2.686   2.123   1.002  0.1822  2.4681  0.5807
 6135TIP3    H218412   2.593   2.033   1.080  2.1096 -1.3842 -1.2287
 6136TIP3   OH218413   1.436   2.904   1.046 -0.3865 -0.2809 -0.3513
 6136TIP3    H118414   1.420   2.933   1.136  1.9973 -1.2213  0.4439
 6136TIP3    H218415   1.444   2.809   1.052  0.5135 -0.2971 -1.4106
 6137TIP3   OH218416   5.987   2.354   3.948  0.3672 -0.6654 -0.0750
 6137TIP3    H118417   5.969   2.378   4.039  1.6385  0.6130 -0.1116
 6137TIP3    H218418   5.902   2.357   3.905 -0.3117 -1.6598  1.1311
 6138TIP3   OH218419   2.200   3.482   3.999 -0.2225  0.4952 -0.1700
 6138TIP3    H118420   2.186   3.443   4.085 -0.4318  0.5932 -0.1595
 6138TIP3    H218421   2.204   3.576   4.015  1.1689  0.4333 -0.0750
 6139TIP3   OH218422   1.357   3.237   4.517  0.0050 -0.2559 -0.0337
 6139TIP3    H118423   1.432   3.242   4.458  0.1575 -1.1568  0.0683
 6139TIP3    H218424   1.351   3.324   4.556  1.1212 -0.2228  0.0927
 6140TIP3   OH218425   2.629   3.318   2.134 -0.0427  0.6536 -0.1247
 6140TIP3    H118426   2.702   3.336   2.075 -0.5799  0.3365 -0.9047
 6140TIP3    H218427   2.619   3.223   2.132  1.9955  0.2115  3.0156
 6141TIP3   OH218428   6.264   2.209   5.015 -0.0230 -0.2538  0.2169
 6141TIP3    H118429   6.191   2.153   5.042 -0.2528 -0.5326 -0.9374
 6141TIP3    H218430   6.229   2.261   4.942  0.1877  1.4021  1.2440
 6142TIP3   OH218431   3.301   4.426   2.886  0.0086  0.0599  0.1087
 6142TIP3    H118432   3.290   4.463   2.799  0.8026 -1.7038 -0.8051
 6142TIP3    H218433   3.321   4.333   2.870  1.6458 -0.0014  2.0915
 6143TIP3   OH218434   6.329   5.777   3.510  0.0615  0.2891  0.3598
 6143TIP3    H118435   6.381   5.796   3.432 -0.5162 -0.7569 -0.3009
 6143TIP3    H218436   6.265   5.848   3.515 -0.6831 -0.2666 -0.8316
 6144TIP3   OH218437   4.836   4.097   0.050  0.4458 -0.2840  0.6145
 6144TIP3    H118438   4.754   4.145   0.045  1.6922  1.9162 -0.2694
 6144TIP3    H218439   4.828   4.028  -0.016 -0.5136  0.2146  0.1955
 6145TIP3   OH218440   2.308   1.913   3.789  0.6956 -0.4655 -0.2737
 6145TIP3    H118441   2.397   1.941   3.808  0.5409 -0.5046  0.5710
 6145TIP3    H218442   2.315   1.857   3.712  1.5990 -1.5449  0.5511
 6146TIP3   OH218443   3.175   1.251   4.977 -0.5523  0.3850  0.0950
 6146TIP3    H118444   3.086   1.251   5.012 -0.2973 -2.1067  0.9351
 6146TIP3    H218445   3.193   1.343   4.957 -3.4288  0.9190 -0.4736
 6147TIP3   OH218446   5.264   3.996   2.708  0.4697 -0.3673 -0.5431
 6147TIP3    H118447   5.179   4.010   2.665 -0.1812 -2.4770 -0.0802
 6147TIP3    H218448   5.292   3.910   2.678  0.9953 -0.9985  1.5565
 6148TIP3   OH218449   2.383   4.848   0.340  0.5681  0.6355 -0.8620
 6148TIP3    H118450   2.371   4.924   0.397  0.0527  0.0240 -0.1454
 6148TIP3    H218451   2.461   4.805   0.374  1.2322  1.1686 -1.6570
 6149TIP3   OH218452   2.345   3.808   1.483  0.2181 -0.3879  0.3195
 6149TIP3    H118453   2.272   3.870   1.478  0.5147 -0.1086 -1.6401
 6149TIP3    H218454   2.382   3.820   1.570 -1.3987  0.2473  0.9450
 6150TIP3   OH218455   2.547   5.872   3.977 -0.4726  0.7890  0.0359
 6150TIP3    H118456   2.529   5.782   3.950 -1.0476  0.9356 -0.0811
 6150TIP3    H218457   2.638   5.887   3.950 -0.6487  0.5325 -0.7259
 6151TIP3   OH218458   4.565   3.442   4.476 -0.1962 -0.4138 -0.3240
 6151TIP3    H118459   4.485   3.422   4.428  0.3436 -0.7194 -1.1153
 6151TIP3    H218460   4.572   3.538   4.472 -1.7713 -0.1244  1.8355
 6152TIP3   OH218461   0.784   1.514   4.459  0.3617  0.2711  0.5519
 6152TIP3    H118462   0.769   1.507   4.364 -0.1754 -0.7608  0.6938
 6152TIP3    H218463   0.707   1.560   4.492 -0.0660 -0.4866  0.6347
 6153TIP3   OH218464   5.290   1.126   4.986 -0.2877  0.4583  0.4078
 6153TIP3    H118465   5.303   1.124   4.891 -0.0236 -0.1599  0.4539
 6153TIP3    H218466   5.378   1.138   5.022 -0.5541  2.2618  0.5361
 6154TIP3   OH218467   2.597   3.896   0.713 -0.1689 -0.4277  0.0766
 6154TIP3    H118468   2.601   3.991   0.714  0.9568 -0.4559 -0.3849
 6154TIP3    H218469   2.687   3.868   0.730 -0.5145 -1.4104  0.3641
 6155TIP3   OH218470   4.030   0.834   4.215 -0.1047  0.4186 -0.1448
 6155TIP3    H118471   4.073   0.919   4.220 -0.6098  0.8696 -2.4153
 6155TIP3    H218472   4.097   0.775   4.181 -0.4924  0.5156 -1.0944
 6156TIP3   OH218473   4.872   0.360   1.208 -0.1479  0.7607  0.1513
 6156TIP3    H118474   4.914   0.382   1.124  2.4719 -1.5033  0.7471
 6156TIP3    H218475   4.828   0.277   1.191  1.6856 -0.5011  1.3425
 6157TIP3   OH218476   1.932   2.615   3.827 -0.3245 -0.8043  0.4618
 6157TIP3    H118477   2.003   2.564   3.789  0.6896 -0.1805  1.4421
 6157TIP3    H218478   1.963   2.706   3.821 -2.1556 -0.2225 -1.4108
 6158TIP3   OH218479   0.806   2.711   4.732 -0.2072  0.1798  0.1871
 6158TIP3    H118480   0.843   2.657   4.662 -0.6661 -2.2805  1.7110
 6158TIP3    H218481   0.712   2.711   4.715 -0.1037  1.9406 -0.6771
 6159TIP3   OH218482   4.040   5.620   2.742  0.1080 -0.2771  0.4905
 6159TIP3    H118483   4.014   5.677   2.814  0.0367  1.3580 -0.7628
 6159TIP3    H218484   3.989   5.540   2.755 -0.9676  0.5293  1.4565
 6160TIP3   OH218485   2.935   3.492   3.839  0.1163  0.8594  0.6100
 6160TIP3    H118486   2.972   3.532   3.918 -0.6733 -0.7998  1.8661
 6160TIP3    H218487   2.840   3.504   3.847  0.0208  0.6679 -0.0948
 6161TIP3   OH218488   4.410   5.792   0.169  0.4740 -0.0674 -0.0398
 6161TIP3    H118489   4.496   5.829   0.146  0.6142 -1.0578 -1.1648
 6161TIP3    H218490   4.374   5.854   0.233  0.4556  2.3339 -2.2408
 6162TIP3   OH218491   5.623   3.373   5.078  0.4119  0.0883 -0.5495
 6162TIP3    H118492   5.674   3.417   5.145  1.0636 -3.1506  1.3291
 6162TIP3    H218493   5.686   3.319   5.031 -0.4434  0.3956 -2.1456
 6163TIP3   OH218494   2.711   0.026   5.002 -0.0211 -0.5914  0.3993
 6163TIP3    H118495   2.803   0.049   5.017 -0.1652  0.2746  0.0141
 6163TIP3    H218496   2.695  -0.048   5.060  0.4285  0.3723  1.8184
 6164TIP3   OH218497   2.993   1.606   2.604  0.0419  0.0532  0.0273
 6164TIP3    H118498   2.974   1.559   2.523 -1.4473 -0.2937  0.5486
 6164TIP3    H218499   3.015   1.695   2.576 -0.5762 -0.0300 -0.7495
 6165TIP3   OH218500   4.776   5.425   2.416  0.1340 -0.5425  0.8085
 6165TIP3    H118501   4.779   5.465   2.502  0.5246 -1.3852  1.1956
 6165TIP3    H218502   4.684   5.431   2.390  0.1976  0.6676  0.8119
 6166TIP3   OH218503   6.090   2.275   3.201 -0.0548  0.2125  0.1761
 6166TIP3    H118504   6.156   2.337   3.169  1.2867 -1.5413 -0.7127
 6166TIP3    H218505   6.043   2.248   3.122  0.6795 -1.2792  0.2082
 6167TIP3   OH218506   0.356   1.512   3.972  0.3471 -0.2669  0.1323
 6167TIP3    H118507   0.430   1.471   3.927  0.4968  0.6232 -0.4671
 6167TIP3    H218508   0.393   1.590   4.013 -0.6006  1.3225 -1.8864
 6168TIP3   OH218509   1.421   0.922   0.927 -0.0090  0.6805 -0.0245
 6168TIP3    H118510   1.432   0.963   0.841 -1.0758  0.0624 -0.4847
 6168TIP3    H218511   1.509   0.899   0.955  0.4116  1.4710 -0.6629
 6169TIP3   OH218512   3.197   2.202   2.947 -0.0729  0.1201 -0.0813
 6169TIP3    H118513   3.255   2.143   2.898 -2.6186 -1.8406 -0.9674
 6169TIP3    H218514   3.213   2.180   3.039  2.0237  1.1380 -0.1423
 6170TIP3   OH218515   1.713   5.685   2.284  0.2125  0.1190  0.1976
 6170TIP3    H118516   1.777   5.617   2.262  0.2819 -0.1747  1.2695
 6170TIP3    H218517   1.683   5.718   2.199  1.5517  0.0515 -0.3187
 6171TIP3   OH218518   3.295   1.058   4.558 -0.8893  0.3676  0.8994
 6171TIP3    H118519   3.370   1.117   4.547  0.2420 -0.7177  2.3676
 6171TIP3    H218520   3.233   1.109   4.610 -0.5347  0.7726  0.9375
 6172TIP3   OH218521   3.598   1.110   1.780  0.0524 -0.0073  0.6940
 6172TIP3    H118522   3.620   1.036   1.837  1.1983  0.1393  0.4651
 6172TIP3    H218523   3.638   1.186   1.822  1.5280 -0.0052 -0.6405
 6173TIP3   OH218524   4.368   0.097   1.508 -0.3541 -0.3892 -0.2431
 6173TIP3    H118525   4.363   0.109   1.413  0.0504 -1.3146 -0.3847
 6173TIP3    H218526   4.358   0.003   1.522 -0.1959 -0.2919  0.6236
 6174TIP3   OH218527   1.663   2.419   1.703 -0.2239 -0.0516  0.0141
 6174TIP3    H118528   1.631   2.484   1.766  2.0255  0.5694  0.6007
 6174TIP3    H218529   1.713   2.357   1.756  0.7809 -0.1419 -1.0060
 6175TIP3   OH218530   3.426   1.170   1.124 -0.2358 -0.4108  0.3846
 6175TIP3    H118531   3.425   1.089   1.176  2.1388 -1.0289 -0.4084
 6175TIP3    H218532   3.354   1.159   1.062 -0.1664 -1.7629  0.5145
 6176TIP3   OH218533   3.039   0.874   3.066  1.1338 -0.5188  0.6001
 6176TIP3    H118534   3.065   0.966   3.065 -0.3455 -0.0731 -0.7458
 6176TIP3    H218535   3.072   0.839   2.984 -1.5489 -0.1575 -0.7416
 6177TIP3   OH218536   1.675   2.104   3.070 -0.2754 -0.2112  0.7742
 6177TIP3    H118537   1.627   2.186   3.066  0.1840  0.0682  0.8843
 6177TIP3    H218538   1.676   2.072   2.980  1.3990  1.0072  0.2939
 6178TIP3   OH218539   6.240   1.506   0.595  0.3618 -0.1049  0.2925
 6178TIP3    H118540   6.182   1.514   0.519  2.8159  1.3249 -1.5555
 6178TIP3    H218541   6.203   1.566   0.660  0.2343  1.4579 -1.1749
 6179TIP3   OH218542   0.810   0.443   3.876  0.3500  0.1056  0.4450
 6179TIP3    H118543   0.852   0.487   3.950  0.6193  0.6122  0.0051
 6179TIP3    H218544   0.731   0.494   3.859  0.8053  0.6021 -0.2415
 6180TIP3   OH218545   3.383   2.024   0.231 -0.2043  0.1918 -0.4670
 6180TIP3    H118546   3.463   2.009   0.180 -1.3397 -0.8009 -2.0018
 6180TIP3    H218547   3.327   2.077   0.175 -1.8260 -1.6296 -0.6671
 6181TIP3   OH218548   3.466   3.853   4.431  0.2634  0.1821  0.0827
 6181TIP3    H118549   3.475   3.875   4.524 -0.1213 -0.5745  0.2974
 6181TIP3    H218550   3.465   3.938   4.387  0.0276  0.5593  0.8036
 6182TIP3   OH218551   4.422   1.399   4.114  0.2456  0.0493 -0.3130
 6182TIP3    H118552   4.459   1.345   4.184  0.9713 -0.7409 -1.2769
 6182TIP3    H218553   4.429   1.489   4.146  3.1787 -0.0312 -0.4747
 6183TIP3   OH218554   4.203   2.573   2.970 -0.6491  0.2971  0.6253
 6183TIP3    H118555   4.242   2.488   2.950  1.5373  0.8520  2.0917
 6183TIP3    H218556   4.208   2.622   2.888 -1.1771 -0.6933 -0.0185
 6184TIP3   OH218557   3.594   2.430   0.065 -0.1430 -0.3775 -0.0209
 6184TIP3    H118558   3.518   2.485   0.052  1.2521  1.3125 -1.6595
 6184TIP3    H218559   3.565   2.342   0.042 -1.2903  0.4415 -1.9121
 6185TIP3   OH218560   3.860   2.225   0.928 -0.5569  0.2072  0.2029
 6185TIP3    H118561   3.798   2.162   0.890 -0.3574  0.2959 -0.2835
 6185TIP3    H218562   3.945   2.183   0.919 -0.3701  0.7010 -0.4970
 6186TIP3   OH218563   4.934   5.405   0.942 -0.1487  0.0093  0.0375
 6186TIP3    H118564   5.010   5.395   0.885  0.0159  0.9105  0.0831
 6186TIP3    H218565   4.951   5.347   1.016 -0.3844 -1.2052 -0.8225
 6187TIP3   OH218566   5.381   1.595   0.142  0.3484  0.2897 -0.4023
 6187TIP3    H118567   5.373   1.627   0.052  0.8301  0.0210 -0.5427
 6187TIP3    H218568   5.290   1.585   0.171  0.1390  2.5479 -0.0690
 6188TIP3   OH218569   2.342   2.596   4.131  0.1668 -0.5554 -0.1173
 6188TIP3    H118570   2.426   2.600   4.176 -0.5430  0.8036  1.1471
 6188TIP3    H218571   2.362   2.551   4.049  2.5955  1.5494 -0.8293
 6189TIP3   OH218572   1.778   4.106   4.228  0.0821  0.5069  0.0357
 6189TIP3    H118573   1.773   4.089   4.134 -1.4055 -0.9337  0.3349
 6189TIP3    H218574   1.870   4.126   4.244  0.7927 -1.2860 -1.4261
 6190TIP3   OH218575   6.274   5.499   3.556 -0.1225  0.5378  0.6081
 6190TIP3    H118576   6.322   5.462   3.629  1.1533 -0.2159 -0.5669
 6190TIP3    H218577   6.291   5.593   3.561 -1.1504  0.6777  2.0255
 6191TIP3   OH218578   2.231   2.733   0.071 -0.1224  0.5777  0.2507
 6191TIP3    H118579   2.143   2.739   0.034  0.2388  1.1078 -0.5330
 6191TIP3    H218580   2.284   2.790   0.016  0.6024  0.7017  1.0658
 6192TIP3   OH218581   5.655   1.979   2.428 -0.1742  0.6153 -0.0072
 6192TIP3    H118582   5.695   1.941   2.507  0.5525  0.5847 -0.3837
 6192TIP3    H218583   5.576   1.927   2.414 -0.4457  0.7811  0.8446
 6193TIP3   OH218584   3.368   2.525   0.721  0.1672  0.3527 -0.0875
 6193TIP3    H118585   3.307   2.529   0.794  2.0963 -0.1176  1.6452
 6193TIP3    H218586   3.451   2.557   0.757  1.3630 -0.5954 -1.8520
 6194TIP3   OH218587   5.686   0.542   1.996 -0.4083 -0.1905  0.0836
 6194TIP3    H118588   5.645   0.597   2.063  1.8821 -0.3474  1.7169
 6194TIP3    H218589   5.631   0.554   1.918 -2.6283  0.7347  1.6968
 6195TIP3   OH218590   6.195   0.087   0.398 -0.1237  0.1874 -0.1249
 6195TIP3    H118591   6.223   0.166   0.444  1.8207 -0.1543 -0.6416
 6195TIP3    H218592   6.207   0.017   0.462 -2.8743  0.3465  0.7128
 6196TIP3   OH218593   1.434   5.676   1.624 -0.0813  0.1028  0.6269
 6196TIP3    H118594   1.456   5.617   1.695  0.0659  0.6234  1.0220
 6196TIP3    H218595   1.416   5.760   1.667  0.9522  0.6771 -0.0201
 6197TIP3   OH218596   4.959   0.692   3.326  0.0277  0.0874  0.0542
 6197TIP3    H118597   4.990   0.604   3.302 -1.0486  0.3915 -2.8446
 6197TIP3    H218598   5.039   0.742   3.342  1.2777  0.2948 -5.1019
 6198TIP3   OH218599   1.431   0.586   0.968  0.0270 -0.6725  0.5454
 6198TIP3    H118600   1.399   0.497   0.960  1.8605 -1.2589 -1.2984
 6198TIP3    H218601   1.428   0.621   0.878  2.3532 -0.0541  0.6425
 6199TIP3   OH218602   0.982   1.813   1.987  0.2205  0.4199  0.0882
 6199TIP3    H118603   1.068   1.795   1.950  0.6057 -0.0115  1.1536
 6199TIP3    H218604   0.961   1.902   1.958  0.4853  0.0890 -1.1656
 6200TIP3   OH218605   3.599   3.178   2.456 -0.2395 -0.2009  0.1122
 6200TIP3    H118606   3.508   3.172   2.429  0.0426  0.3113 -1.0231
 6200TIP3    H218607   3.604   3.259   2.506 -0.3883 -0.1646  0.0682
 6201TIP3   OH218608   6.085   1.737   4.804  0.2343  0.1614  0.0461
 6201TIP3    H118609   6.018   1.769   4.864  0.6553 -1.0066  1.1880
 6201TIP3    H218610   6.105   1.649   4.835 -0.9728 -1.3427 -3.0328
 6202TIP3   OH218611   6.155   0.629   0.672  0.0020 -0.1545 -0.1640
 6202TIP3    H118612   6.163   0.603   0.764 -0.5795 -0.8339 -0.2953
 6202TIP3    H218613   6.245   0.628   0.639  0.0620 -1.4564 -0.0082
 6203TIP3   OH218614   5.882   0.682   1.782 -0.1853 -0.5003  0.1126
 6203TIP3    H118615   5.967   0.680   1.826 -0.4643  1.0858  0.8028
 6203TIP3    H218616   5.819   0.668   1.853 -0.6362  1.9899  0.2948
 6204TIP3   OH218617   2.182   2.821   4.298 -0.1864 -0.0917 -0.0746
 6204TIP3    H118618   2.136   2.901   4.320  0.6344  0.6490 -0.9772
 6204TIP3    H218619   2.234   2.801   4.377 -1.4844 -0.5682  0.6943
 6205TIP3   OH218620   5.708   0.839   1.389  0.4645  0.2890  0.1874
 6205TIP3    H118621   5.744   0.764   1.436 -0.6556 -0.9333 -0.8208
 6205TIP3    H218622   5.714   0.912   1.451 -2.1709 -1.5049  2.8367
 6206TIP3   OH218623   4.516   3.866   2.337 -0.3617  0.2343  0.3102
 6206TIP3    H118624   4.562   3.807   2.278 -0.7627  0.7869 -0.5737
 6206TIP3    H218625   4.484   3.810   2.407 -1.1355 -0.6895 -0.7563
 6207TIP3   OH218626   3.291   3.841   3.808  0.1025 -0.3056  0.1098
 6207TIP3    H118627   3.365   3.895   3.779  1.1321  0.2444  3.3917
 6207TIP3    H218628   3.318   3.751   3.789  1.5898 -0.0984  1.1484
 6208TIP3   OH218629   5.493   2.580   0.697 -0.1619 -0.3596 -0.3076
 6208TIP3    H118630   5.548   2.534   0.760  0.0545  0.6125  0.2365
 6208TIP3    H218631   5.424   2.620   0.750  0.6581  1.4161 -0.5047
 6209TIP3   OH218632   5.820   3.972   1.785 -0.2803 -0.3346 -0.1781
 6209TIP3    H118633   5.845   3.956   1.877 -0.2900  2.6950  0.4452
 6209TIP3    H218634   5.901   4.000   1.743 -0.6874  0.2757 -0.5685
 6210TIP3   OH218635   2.641   0.879   1.082  0.3873 -0.1021 -0.0957
 6210TIP3    H118636   2.684   0.869   0.997 -1.1200  1.6725 -1.1375
 6210TIP3    H218637   2.552   0.848   1.068  0.3817 -0.6925  1.1279
 6211TIP3   OH218638   0.941   3.979   3.830  1.2411 -0.1025 -0.2457
 6211TIP3    H118639   0.942   3.888   3.801 -2.1494 -0.0639 -0.9529
 6211TIP3    H218640   0.887   3.978   3.910 -0.2919  1.4187 -1.1834
 6212TIP3   OH218641   4.203   0.246   3.252  0.5136  0.4148  0.2350
 6212TIP3    H118642   4.239   0.325   3.211  1.2227 -0.4898 -0.9402
 6212TIP3    H218643   4.112   0.244   3.224  0.4719  0.8396  0.3242
 6213TIP3   OH218644   2.827   0.400   4.347  0.6684 -0.4356 -0.4386
 6213TIP3    H118645   2.782   0.413   4.263  0.0189  1.8843  0.2156
 6213TIP3    H218646   2.757   0.392   4.411  1.1717 -0.8564  0.0741
 6214TIP3   OH218647   2.541   5.306   4.504  0.8489 -0.1372  0.4785
 6214TIP3    H118648   2.577   5.352   4.580  0.8360  1.1795 -0.2906
 6214TIP3    H218649   2.596   5.333   4.431  0.4336 -0.8476 -0.1168
 6215TIP3   OH218650   5.411   3.106   0.054 -0.3968  0.2383  0.2378
 6215TIP3    H118651   5.475   3.111  -0.017 -1.7519  0.8381 -0.9919
 6215TIP3    H218652   5.403   3.012   0.073 -0.3437  0.0294 -0.7205
 6216TIP3   OH218653   1.777   1.467   0.253 -0.2272  0.6910 -0.8041
 6216TIP3    H118654   1.685   1.479   0.279 -0.3412 -1.3055 -0.0908
 6216TIP3    H218655   1.777   1.484   0.158 -1.4434  0.2594 -0.9061
 6217TIP3   OH218656   0.564   3.289   1.272  0.1269 -0.2386 -0.7717
 6217TIP3    H118657   0.533   3.337   1.196 -0.5819  1.5178  0.5562
 6217TIP3    H218658   0.602   3.356   1.329  2.7139 -1.7820 -0.5142
 6218TIP3   OH218659   4.312   2.125   4.183  0.1630  0.5930  0.3402
 6218TIP3    H118660   4.391   2.156   4.140 -0.2234  1.6323  0.3452
 6218TIP3    H218661   4.273   2.204   4.222 -0.4245 -0.0350  1.0664
 6219TIP3   OH218662   5.455   2.681   4.307  0.2813  0.5302  0.6537
 6219TIP3    H118663   5.394   2.608   4.312 -0.4776  1.0456 -0.6635
 6219TIP3    H218664   5.442   2.729   4.389  0.0225 -0.2121  1.0541
 6220TIP3   OH218665   3.051   4.571   3.446 -0.1035 -0.5964  0.0095
 6220TIP3    H118666   2.965   4.534   3.425 -0.5006  0.2384  0.1287
 6220TIP3    H218667   3.082   4.520   3.521 -2.1929  1.4823  2.4870
 6221TIP3   OH218668   1.147   4.047   0.255  0.5836 -0.1979 -0.1851
 6221TIP3    H118669   1.214   3.979   0.266  0.4268 -0.1592  1.0655
 6221TIP3    H218670   1.195   4.129   0.261  0.4549 -0.1727  0.5070
 6222TIP3   OH218671   1.987   3.711   1.429  0.0472 -0.1150  0.0206
 6222TIP3    H118672   2.060   3.653   1.406 -0.1533 -0.8745  1.2450
 6222TIP3    H218673   1.979   3.769   1.353  1.5897 -0.3463 -0.3584
 6223TIP3   OH218674   3.950   5.338   1.329 -0.2838  0.7389 -0.0180
 6223TIP3    H118675   3.867   5.385   1.328 -0.3447  0.6266 -0.6960
 6223TIP3    H218676   3.934   5.263   1.386 -1.4793 -0.7293 -2.1515
 6224TIP3   OH218677   0.614   5.047  -0.006  0.6336  0.3215 -0.6492
 6224TIP3    H118678   0.694   5.087  -0.040  0.8571 -0.4073 -0.9991
 6224TIP3    H218679   0.640   5.008   0.077  0.5701  0.3329 -0.6239
 6225TIP3   OH218680   0.683   4.781   2.306  0.2203 -0.6260  0.1933
 6225TIP3    H118681   0.605   4.759   2.356  0.6017  0.5922  1.3923
 6225TIP3    H218682   0.715   4.697   2.273 -0.6324 -1.3471  1.1483
 6226TIP3   OH218683   4.434   2.391   0.927 -0.2747  0.1571 -0.1979
 6226TIP3    H118684   4.420   2.486   0.919 -1.7952 -0.0517 -0.3845
 6226TIP3    H218685   4.377   2.353   0.860  0.1768 -0.8979 -0.0015
 6227TIP3   OH218686   5.473   0.468   4.168 -0.3199 -0.0103 -0.5077
 6227TIP3    H118687   5.461   0.470   4.263 -0.2384  1.2301 -0.4982
 6227TIP3    H218688   5.460   0.377   4.143  0.8886 -0.5844  0.8592
 6228TIP3   OH218689   3.748   4.496   3.235  0.4468 -0.3581 -0.4371
 6228TIP3    H118690   3.713   4.410   3.256 -0.4612 -0.3690 -1.8782
 6228TIP3    H218691   3.684   4.535   3.176  1.3767  0.8641 -0.6887
 6229TIP3   OH218692   0.974   1.720   3.035 -0.2230 -0.5484 -0.0845
 6229TIP3    H118693   1.029   1.658   2.987 -1.0753 -0.9169 -0.6111
 6229TIP3    H218694   1.016   1.805   3.024 -0.9522 -0.4344 -2.3884
 6230TIP3   OH218695   5.591   5.426   1.819  0.2336  0.0710  0.2825
 6230TIP3    H118696   5.679   5.405   1.789  1.0250  1.1186  1.7562
 6230TIP3    H218697   5.589   5.401   1.911 -1.2108 -0.4654  0.1341
 6231TIP3   OH218698   1.872   2.020   4.613 -0.4634 -0.0619  0.0404
 6231TIP3    H118699   1.801   1.960   4.590 -1.9002  1.3599  0.4992
 6231TIP3    H218700   1.864   2.032   4.707 -0.7170  1.3825 -0.1347
 6232TIP3   OH218701   2.237   0.347   5.067  0.3601 -0.3822  0.5017
 6232TIP3    H118702   2.191   0.305   4.994  2.5444  3.1766 -3.3966
 6232TIP3    H218703   2.304   0.284   5.092 -0.7104 -1.8815 -0.2575
 6233TIP3   OH218704   1.186   5.707   3.572 -0.4140 -0.3171  0.6989
 6233TIP3    H118705   1.202   5.800   3.584 -1.5373  0.0236 -0.3125
 6233TIP3    H218706   1.113   5.687   3.632 -1.8789  0.0411 -0.8961
 6234TIP3   OH218707   1.548   4.450   1.145 -0.0335  0.1519  0.0055
 6234TIP3    H118708   1.548   4.355   1.143 -0.5904  0.1178  0.8695
 6234TIP3    H218709   1.595   4.476   1.066  0.3965 -0.8367 -0.0775
 6235TIP3   OH218710   3.826   0.403   4.580  0.5320 -0.0604  0.5129
 6235TIP3    H118711   3.855   0.319   4.545  0.5366  0.4566 -0.7883
 6235TIP3    H218712   3.832   0.463   4.506 -0.4342  0.8604  1.1471
 6236TIP3   OH218713   1.537   4.365   0.079 -0.0012 -0.7640  0.4821
 6236TIP3    H118714   1.497   4.281   0.058 -0.7068 -0.3280  0.0440
 6236TIP3    H218715   1.464   4.423   0.100  0.2966  0.2852 -1.1812
 6237TIP3   OH218716   2.292   5.029   5.158  0.8524  0.1186 -0.3253
 6237TIP3    H118717   2.329   4.972   5.090 -0.0631  1.7431 -2.3037
 6237TIP3    H218718   2.209   5.058   5.122  0.4792  1.3294  1.3892
 6238TIP3   OH218719   1.179   5.326   2.363 -0.3171  0.3075  0.7412
 6238TIP3    H118720   1.193   5.232   2.351  3.0172  0.6072  1.3774
 6238TIP3    H218721   1.205   5.343   2.454  0.8165  2.0782  0.1327
 6239TIP3   OH218722   0.695   0.414   4.573  0.4510 -0.3863  0.1828
 6239TIP3    H118723   0.621   0.474   4.565  0.7530 -0.2137 -1.7636
 6239TIP3    H218724   0.718   0.391   4.483  2.1877 -1.1518  0.7672
 6240TIP3   OH218725   0.546   1.533   3.603 -0.5060  0.0250 -0.6063
 6240TIP3    H118726   0.599   1.611   3.584 -0.7478  0.0570 -1.2027
 6240TIP3    H218727   0.459   1.556   3.570 -0.4004 -0.7745 -1.4689
 6241TIP3   OH218728   0.846   4.354   4.543 -0.3271 -0.0334 -0.2375
 6241TIP3    H118729   0.836   4.283   4.607  0.7971 -0.4074 -0.4545
 6241TIP3    H218730   0.892   4.423   4.591  0.3361 -0.2343 -0.5678
 6242TIP3   OH218731   4.824   2.105   1.563  0.7798 -0.4501  0.1010
 6242TIP3    H118732   4.828   2.017   1.600 -1.2411  0.2783  2.3263
 6242TIP3    H218733   4.864   2.161   1.631  0.0234  0.5711 -0.2628
 6243TIP3   OH218734   5.924   5.769   3.632  1.0869 -0.5236 -0.1705
 6243TIP3    H118735   5.992   5.828   3.664  0.0769  0.4149  0.3274
 6243TIP3    H218736   5.922   5.697   3.694  1.7419 -0.6503 -0.2924
 6244TIP3   OH218737   4.898   5.340   0.080  0.7239  0.0791 -0.2549
 6244TIP3    H118738   4.956   5.416   0.075  0.0267  0.8029  1.6951
 6244TIP3    H218739   4.872   5.323  -0.010  2.3380  1.0004 -0.9356
 6245TIP3   OH218740   3.595   4.410   1.748  0.3857 -0.0282 -0.6650
 6245TIP3    H118741   3.540   4.331   1.750 -0.3784  0.4921  0.9104
 6245TIP3    H218742   3.607   4.432   1.840  1.7548  0.9144 -1.0519
 6246TIP3   OH218743   4.123   5.417   0.893 -0.4406 -0.1689 -0.3187
 6246TIP3    H118744   4.149   5.504   0.924  0.0955 -0.1536 -0.7852
 6246TIP3    H218745   4.095   5.432   0.802 -0.3532 -0.4806 -0.3972
 6247TIP3   OH218746   1.147   3.557   1.993  0.3197 -0.1564 -0.3740
 6247TIP3    H118747   1.073   3.573   2.050  1.3546 -0.8445  1.2325
 6247TIP3    H218748   1.137   3.621   1.922 -2.5776 -1.2343 -1.0282
 6248TIP3   OH218749   2.086   1.450   0.287  0.8359 -1.0069  0.0185
 6248TIP3    H118750   2.129   1.533   0.265  3.3818 -2.7015 -2.0009
 6248TIP3    H218751   1.993   1.465   0.266  1.4201  0.9688 -1.4575
 6249TIP3   OH218752   2.875   3.597   4.916  0.3561 -0.2093 -0.1057
 6249TIP3    H118753   2.864   3.614   4.822  1.5362  2.4903  0.1422
 6249TIP3    H218754   2.965   3.564   4.924  0.2387 -0.4868  0.0687
 6250TIP3   OH218755   0.400   2.146   4.254  1.2837  0.0392 -0.1260
 6250TIP3    H118756   0.411   2.232   4.214 -1.6531  0.8060  0.4436
 6250TIP3    H218757   0.388   2.164   4.347 -1.0889 -0.7094 -0.2084
 6251TIP3   OH218758   0.418   0.808   0.637  0.2396 -0.6483  0.4261
 6251TIP3    H118759   0.481   0.811   0.709 -0.8384  2.1260  1.3831
 6251TIP3    H218760   0.340   0.852   0.671 -1.3150 -1.7024 -1.5696
 6252TIP3   OH218761   3.756   4.478   2.474 -0.0978  0.0756 -0.2222
 6252TIP3    H118762   3.744   4.397   2.523  0.7134 -0.5203 -0.9844
 6252TIP3    H218763   3.850   4.484   2.460 -0.2389  0.6832 -0.9639
 6253TIP3   OH218764   5.087   1.921   2.269  0.0449  0.2806 -0.3393
 6253TIP3    H118765   5.047   1.835   2.252  0.4930  0.2006 -1.0553
 6253TIP3    H218766   5.112   1.952   2.182  0.2057  0.9822 -0.0411
 6254TIP3   OH218767   1.428   3.555   0.426  0.0614 -0.4731 -0.0918
 6254TIP3    H118768   1.380   3.552   0.509  1.4072 -1.5902  0.6812
 6254TIP3    H218769   1.406   3.641   0.389  0.3791  0.5622  1.9973
 6255TIP3   OH218770   3.969   4.392   0.994 -0.1894 -0.8192 -0.4508
 6255TIP3    H118771   4.027   4.422   0.924  0.8190  0.6819  0.9699
 6255TIP3    H218772   4.024   4.335   1.048 -0.7701 -1.4320 -0.4987
 6256TIP3   OH218773   5.612   1.822   4.531  0.0889 -0.0882 -0.1177
 6256TIP3    H118774   5.663   1.848   4.455 -1.5105  1.2175 -0.7923
 6256TIP3    H218775   5.535   1.878   4.529 -0.7121 -1.0428  1.6438
 6257TIP3   OH218776   6.249   0.994   1.443  0.4174 -0.3552  0.2190
 6257TIP3    H118777   6.273   1.087   1.448 -1.1549  0.1911 -1.5326
 6257TIP3    H218778   6.264   0.970   1.352  0.0546 -1.6290  0.4759
 6258TIP3   OH218779   0.590   3.393   0.175 -0.1728 -0.2697  0.2223
 6258TIP3    H118780   0.614   3.301   0.176 -2.1426 -0.8306  0.0580
 6258TIP3    H218781   0.559   3.411   0.264 -2.3580 -0.5573 -0.4130
 6259TIP3   OH218782   6.296   0.188   4.707  0.1810  0.3672 -0.5450
 6259TIP3    H118783   6.346   0.190   4.626 -0.1907 -1.3266 -0.8482
 6259TIP3    H218784   6.359   0.208   4.775  1.1873 -1.1491 -0.9770
 6260TIP3   OH218785   2.594   2.947   2.836 -0.7552 -0.1741 -0.0539
 6260TIP3    H118786   2.563   2.890   2.766 -0.1814  1.5439 -1.8395
 6260TIP3    H218787   2.533   3.021   2.836 -0.1586  0.3355  0.5618
 6261TIP3   OH218788   1.747   2.260   1.923  0.2805 -0.4125 -0.1540
 6261TIP3    H118789   1.782   2.298   2.003  1.8105 -1.6896 -0.1769
 6261TIP3    H218790   1.720   2.171   1.947 -0.7889 -0.2553 -0.6951
 6262TIP3   OH218791   0.392   3.194   1.868 -0.1731  0.3847 -0.2495
 6262TIP3    H118792   0.372   3.164   1.780 -0.2830  0.1976 -0.1614
 6262TIP3    H218793   0.311   3.177   1.918  0.8496 -2.4561  0.6637
 6263TIP3   OH218794   1.522   0.913   4.923 -0.4417  0.1413 -0.0927
 6263TIP3    H118795   1.524   0.849   4.853  0.3999 -0.5498  0.5430
 6263TIP3    H218796   1.552   0.865   5.001  0.2549  1.2978  0.3880
 6264TIP3   OH218797   0.200   5.035   2.617  0.4851  0.4051  0.4787
 6264TIP3    H118798   0.225   5.057   2.707  2.2110  3.2005 -0.5252
 6264TIP3    H218799   0.145   5.109   2.589  0.7460  0.0603 -1.0403
 6265TIP3   OH218800   0.993   4.499   1.400  0.0483  0.0535  0.9948
 6265TIP3    H118801   1.038   4.578   1.372 -2.3818  1.6545  1.3210
 6265TIP3    H218802   0.960   4.460   1.319  1.8366 -1.0970  0.7601
 6266TIP3   OH218803   4.371   1.175   2.781 -0.1742  0.2286  0.1566
 6266TIP3    H118804   4.443   1.227   2.745  0.1380 -0.0455  0.3806
 6266TIP3    H218805   4.414   1.103   2.826 -0.5973 -0.0559  0.1094
 6267TIP3   OH218806   5.476   1.016   2.474 -0.1986  0.0605  0.0600
 6267TIP3    H118807   5.447   1.105   2.493 -0.0112 -0.3120  2.3180
 6267TIP3    H218808   5.563   1.010   2.513  0.4749 -0.6483 -1.4705
 6268TIP3   OH218809   5.718   4.020   3.467  0.5797  0.7199  0.6119
 6268TIP3    H118810   5.786   4.071   3.511  1.1631  2.2116 -1.8704
 6268TIP3    H218811   5.756   3.932   3.460  1.2512  0.9379  1.3104
 6269TIP3   OH218812   0.003   1.746   0.472 -0.4234  0.7128  0.0303
 6269TIP3    H118813   0.010   1.768   0.565  1.4363  0.9576 -0.1393
 6269TIP3    H218814   0.053   1.815   0.428 -1.2745  0.5918 -1.1676
 6270TIP3   OH218815   5.720   1.282   4.171  0.1250 -0.5785 -0.4793
 6270TIP3    H118816   5.756   1.326   4.094 -0.0221 -1.6027 -1.1637
 6270TIP3    H218817   5.756   1.330   4.246  2.6679 -1.3067 -1.1199
 6271TIP3   OH218818   2.209   2.117   0.969 -0.4999 -0.1024  0.1559
 6271TIP3    H118819   2.239   2.108   1.059 -2.1693  1.0878  0.8831
 6271TIP3    H218820   2.282   2.085   0.916  1.0186  0.3492  1.8675
 6272TIP3   OH218821   5.983   2.708   0.564  0.0830 -0.3420  0.0837
 6272TIP3    H118822   5.980   2.658   0.482 -0.5084 -0.4070  0.1470
 6272TIP3    H218823   6.006   2.643   0.631  1.5446 -0.1156 -0.1641
 6273TIP3   OH218824   0.538   3.571   1.100 -0.0579  0.6791 -0.2854
 6273TIP3    H118825   0.443   3.568   1.114  0.0207 -0.7663  0.0878
 6273TIP3    H218826   0.557   3.664   1.088 -1.7245  0.8810 -1.8453
 6274TIP3   OH218827   5.968   3.641   1.929 -0.0073 -0.5380 -0.2812
 6274TIP3    H118828   5.920   3.683   2.000 -0.1011  0.7451 -1.0567
 6274TIP3    H218829   5.916   3.564   1.906 -1.0576  0.1485 -0.2869
 6275TIP3   OH218830   6.180   2.509   2.521  0.2851 -0.0480  0.3678
 6275TIP3    H118831   6.101   2.518   2.467 -0.0086  0.9825  0.9625
 6275TIP3    H218832   6.245   2.470   2.461 -0.1590  0.6691 -0.6044
 6276TIP3   OH218833   2.935   4.141   0.617  0.5962  0.5520 -0.1880
 6276TIP3    H118834   2.986   4.219   0.597  0.2646  0.7785 -0.1560
 6276TIP3    H218835   2.931   4.138   0.712 -0.2247  1.0482 -0.1960
 6277TIP3   OH218836   4.494   2.255   4.601 -0.2227 -0.0999 -0.0268
 6277TIP3    H118837   4.550   2.270   4.678 -2.7066  1.1727  1.6500
 6277TIP3    H218838   4.447   2.174   4.621 -2.5088  1.3739  0.9408
 6278TIP3   OH218839   2.278   4.231   0.836  0.1895  0.1896  0.1177
 6278TIP3    H118840   2.348   4.244   0.773  0.1523  1.3699  0.3005
 6278TIP3    H218841   2.215   4.300   0.817 -1.1651 -1.1107 -0.3385
 6279TIP3   OH218842   6.128   5.803   0.124  0.0414  0.3443 -0.4046
 6279TIP3    H118843   6.059   5.843   0.176 -0.4644 -0.0716 -0.7488
 6279TIP3    H218844   6.090   5.722   0.092  0.1547  0.8353 -1.8505
 6280TIP3   OH218845   4.675   2.841   2.943 -0.6284 -0.2093 -0.0808
 6280TIP3    H118846   4.708   2.842   3.033 -0.1909  1.3852 -0.2204
 6280TIP3    H218847   4.664   2.749   2.922 -1.0321 -0.6073  1.7158
 6281TIP3   OH218848   4.826   5.244   4.711  0.3361  0.0205  0.0041
 6281TIP3    H118849   4.759   5.271   4.773 -0.6938 -1.7635 -0.2625
 6281TIP3    H218850   4.897   5.209   4.766 -0.4252 -1.2366  0.2197
 6282TIP3   OH218851   2.447   4.476   1.284 -0.3611  0.3387 -0.2821
 6282TIP3    H118852   2.498   4.552   1.312 -3.1124  2.3439 -0.2741
 6282TIP3    H218853   2.396   4.451   1.361 -0.7637 -0.4227 -0.7819
 6283TIP3   OH218854   1.680   3.857   2.401  0.1066  0.3782  0.9272
 6283TIP3    H118855   1.654   3.937   2.446 -0.0859  1.0185 -0.2853
 6283TIP3    H218856   1.775   3.863   2.394 -0.0146  1.1684 -0.3338
 6284TIP3   OH218857   3.862   1.358   4.119 -0.2376  0.3642 -0.1438
 6284TIP3    H118858   3.955   1.375   4.134  0.3489 -1.1426 -1.7595
 6284TIP3    H218859   3.847   1.385   4.028 -2.2857  3.9048  1.0434
 6285TIP3   OH218860   5.210   4.372   2.978  0.8484 -0.4537 -0.0968
 6285TIP3    H118861   5.233   4.444   2.918  0.8929 -0.0674  0.3776
 6285TIP3    H218862   5.294   4.336   3.006  0.8767  0.4303  1.0027
 6286TIP3   OH218863   6.057   5.699   5.002  0.1923  0.5386  0.1589
 6286TIP3    H118864   6.040   5.697   5.096  0.4399 -0.3213  0.1926
 6286TIP3    H218865   5.974   5.727   4.964 -0.8630 -1.9237  0.4440
 6287TIP3   OH218866   1.643   0.817   5.147 -0.2995 -0.1005 -0.0381
 6287TIP3    H118867   1.579   0.785   5.210  1.2160 -0.0846  1.5955
 6287TIP3    H218868   1.728   0.809   5.192  0.7489  0.8136 -1.7195
 6288TIP3   OH218869   0.103   1.339   2.492  0.1069  0.1002  0.0426
 6288TIP3    H118870   0.185   1.304   2.527  0.7039  1.4853  0.0564
 6288TIP3    H218871   0.085   1.416   2.546 -0.7132  0.3429 -0.5723
 6289TIP3   OH218872   1.962   2.294   2.831 -0.0571  0.2554  0.3627
 6289TIP3    H118873   1.909   2.215   2.819 -0.8248  0.5047  1.9040
 6289TIP3    H218874   2.042   2.262   2.873  0.9410 -0.0728 -1.6620
 6290TIP3   OH218875   4.815   3.716   2.886  0.3468  0.1069  0.0154
 6290TIP3    H118876   4.824   3.724   2.980  2.6565 -1.5297 -0.0039
 6290TIP3    H218877   4.854   3.796   2.851  1.1411 -0.1078  0.4049
 6291TIP3   OH218878   1.732   2.681   3.566  0.2846 -0.2391  0.2654
 6291TIP3    H118879   1.763   2.632   3.642  0.5963  0.6318  0.7130
 6291TIP3    H218880   1.796   2.662   3.498  0.6025 -0.1686  0.5431
 6292TIP3   OH218881   1.719   2.713   3.272  0.0962  0.5492  0.1580
 6292TIP3    H118882   1.737   2.801   3.305  0.6030  1.3515 -2.0574
 6292TIP3    H218883   1.635   2.720   3.228 -0.0230 -0.1648  0.2596
 6293TIP3   OH218884   4.285   0.651   0.133 -0.2433  0.6344  0.6051
 6293TIP3    H118885   4.336   0.628   0.056 -1.0068  0.3596  0.1705
 6293TIP3    H218886   4.274   0.569   0.181  0.5562  0.8706  1.2227
 6294TIP3   OH218887   5.780   0.081   0.866 -0.4638 -0.5750 -0.0257
 6294TIP3    H118888   5.741   0.126   0.941 -0.4561 -1.8014  0.7328
 6294TIP3    H218889   5.742   0.126   0.790 -3.4000 -1.6703  0.6509
 6295TIP3   OH218890   3.329   3.503   2.617 -0.3377  0.5838  0.0586
 6295TIP3    H118891   3.417   3.474   2.592 -0.8976  0.9441 -2.7011
 6295TIP3    H218892   3.327   3.496   2.712  1.8639 -1.7033  0.0360
 6296TIP3   OH218893   0.805   3.427   2.012 -0.0927 -0.0996 -0.3564
 6296TIP3    H118894   0.755   3.391   1.938 -0.8673  1.1071 -0.4579
 6296TIP3    H218895   0.833   3.514   1.982 -0.7563  0.5781  0.8818
 6297TIP3   OH218896   2.771   5.749   3.701 -0.5588  0.3744 -0.2286
 6297TIP3    H118897   2.790   5.655   3.701  0.2882  0.5329  0.8275
 6297TIP3    H218898   2.758   5.770   3.608  1.5064 -0.3621 -0.7490
 6298TIP3   OH218899   0.920   5.076   3.313  0.3906 -0.2316  0.6468
 6298TIP3    H118900   0.868   5.048   3.238  0.8926 -0.3101  0.3225
 6298TIP3    H218901   0.896   5.015   3.383 -0.5560  0.2386  0.7438
 6299TIP3   OH218902   3.485   0.903   3.170  0.6287  0.1974  0.2157
 6299TIP3    H118903   3.560   0.844   3.171  0.6486  0.1414  2.9714
 6299TIP3    H218904   3.409   0.846   3.177  0.5109  0.3879  0.5291
 6300TIP3   OH218905   0.092   3.005   1.579  0.1253 -0.2170 -0.4283
 6300TIP3    H118906   0.014   3.053   1.607  1.7310  1.4030  1.6064
 6300TIP3    H218907   0.077   2.988   1.486 -1.7374  1.9527 -0.6224
 6301TIP3   OH218908   2.324   3.533   2.434  0.0687 -0.2786 -0.4766
 6301TIP3    H118909   2.295   3.487   2.355  2.2239 -2.0906 -0.3191
 6301TIP3    H218910   2.418   3.515   2.439  0.3263  1.2687  1.5670
 6302TIP3   OH218911   4.533   5.122   3.712 -0.3214 -0.1534  0.0659
 6302TIP3    H118912   4.582   5.074   3.779  0.4938  0.1796 -0.2772
 6302TIP3    H218913   4.600   5.152   3.650 -1.1666 -1.5529 -1.6142
 6303TIP3   OH218914   3.664   0.843   2.653  0.0921 -0.2483  0.5453
 6303TIP3    H118915   3.599   0.888   2.599  0.7554  0.7247  0.5366
 6303TIP3    H218916   3.619   0.764   2.684 -0.1814 -1.0420 -1.7150
 6304TIP3   OH218917   1.028   0.322   5.055 -0.4219 -0.3114  0.1284
 6304TIP3    H118918   1.003   0.325   5.148  0.2350 -0.3423  0.3182
 6304TIP3    H218919   0.993   0.240   5.023 -0.6319 -0.3134  0.3603
 6305TIP3   OH218920   5.971   4.343   4.369  0.3877  0.0273  0.2411
 6305TIP3    H118921   5.962   4.421   4.316 -0.6188  0.2786  0.7391
 6305TIP3    H218922   5.910   4.357   4.442  0.7450 -0.8871  0.7317
 6306TIP3   OH218923   2.013   5.064   3.899 -0.3082 -0.2124 -0.1834
 6306TIP3    H118924   2.024   5.159   3.897 -1.5139 -0.0802 -1.0466
 6306TIP3    H218925   1.927   5.050   3.939 -0.0179 -0.9609  0.2029
 6307TIP3   OH218926   0.299   1.447   0.151 -0.7266  0.3721  0.3501
 6307TIP3    H118927   0.236   1.435   0.222  0.2168  0.3549  1.2087
 6307TIP3    H218928   0.377   1.484   0.194  0.3871 -0.9618 -0.4138
 6308TIP3   OH218929   3.214   1.496   4.014 -0.3666  0.4831 -0.0220
 6308TIP3    H118930   3.291   1.552   4.009 -1.2828  1.7677 -0.1937
 6308TIP3    H218931   3.247   1.408   3.996  0.8762  1.1611 -1.2273
 6309TIP3   OH218932   2.534   4.761   3.389  0.0659  0.4946 -0.4021
 6309TIP3    H118933   2.445   4.744   3.418  0.7522 -0.4017  1.3119
 6309TIP3    H218934   2.560   4.841   3.436  0.2292  0.6575 -0.7641
 6310TIP3   OH218935   1.864   5.739   1.180 -0.1298 -0.1701 -0.9174
 6310TIP3    H118936   1.881   5.691   1.262 -2.4399 -0.8066 -0.7489
 6310TIP3    H218937   1.939   5.797   1.171  0.3162 -0.2492  1.5314
 6311TIP3   OH218938   3.508   3.215   0.714  0.8128 -0.1082 -0.4935
 6311TIP3    H118939   3.499   3.168   0.797  1.5085  0.7072  0.0688
 6311TIP3    H218940   3.481   3.152   0.647  1.0378 -1.0565  0.2868
 6312TIP3   OH218941   5.445   4.229   3.045 -0.3361 -0.1365 -0.4759
 6312TIP3    H118942   5.476   4.271   3.125 -2.1020 -0.0259  0.1916
 6312TIP3    H218943   5.487   4.143   3.045  0.9223  0.4602 -0.2781
 6313TIP3   OH218944   5.221   2.839   3.512 -0.7282 -0.0857  0.2567
 6313TIP3    H118945   5.257   2.861   3.426 -1.6336 -0.7874 -0.3199
 6313TIP3    H218946   5.298   2.825   3.567 -0.1334  0.4301 -0.4231
 6314TIP3   OH218947   0.317   1.673   2.771 -0.0243 -0.0035  0.7274
 6314TIP3    H118948   0.376   1.744   2.798  1.1700 -0.9961  0.7901
 6314TIP3    H218949   0.281   1.640   2.854 -0.0195  0.0604  0.7551
 6315TIP3   OH218950   3.864   1.132   1.539  0.4467  0.0806 -0.3370
 6315TIP3    H118951   3.780   1.177   1.538  0.1758 -0.4242 -0.5902
 6315TIP3    H218952   3.865   1.085   1.623  0.8024  0.6885  0.0034
 6316TIP3   OH218953   1.210   5.073   3.180  0.0783  0.7518  0.6306
 6316TIP3    H118954   1.187   5.123   3.101 -1.3787 -1.2982 -0.3316
 6316TIP3    H218955   1.127   5.062   3.226  0.4583 -0.3341  1.0726
 6317TIP3   OH218956   1.106   4.173   1.125  0.1651  0.3636  0.3164
 6317TIP3    H118957   1.163   4.152   1.051 -0.0483  2.2362 -0.4280
 6317TIP3    H218958   1.162   4.222   1.186 -0.1539  0.5190  0.4894
 6318TIP3   OH218959   2.950   4.357   0.170 -0.7291  0.6245 -0.1663
 6318TIP3    H118960   2.888   4.418   0.129 -2.1220 -0.8146 -0.3151
 6318TIP3    H218961   3.004   4.326   0.097  0.3290  2.0153 -0.0106
 6319TIP3   OH218962   0.146   1.848   2.592 -0.1532  0.5952  0.2819
 6319TIP3    H118963   0.175   1.857   2.502  0.2213 -1.4367  0.1529
 6319TIP3    H218964   0.225   1.823   2.641 -0.8346 -0.8499  0.6860
 6320TIP3   OH218965   1.683   1.221   4.530  0.2922 -0.0770  0.4424
 6320TIP3    H118966   1.690   1.128   4.510  2.0598  0.4419 -1.8710
 6320TIP3    H218967   1.593   1.244   4.508 -0.1231 -1.1839  0.9082
 6321TIP3   OH218968   4.535   1.874   2.918 -0.0366 -0.4491  0.0086
 6321TIP3    H118969   4.443   1.877   2.942  0.6743  0.7890  3.0443
 6321TIP3    H218970   4.555   1.780   2.915 -1.2024 -0.7229  0.1691
 6322TIP3   OH218971   4.307   1.343   4.452  0.4330 -0.1266  0.0973
 6322TIP3    H118972   4.301   1.419   4.393  0.4705  1.3819  1.9206
 6322TIP3    H218973   4.376   1.289   4.415  0.0784  0.4880 -1.5277
 6323TIP3   OH218974   0.093   3.914   2.519 -0.4244 -0.1512  0.1033
 6323TIP3    H118975   0.157   3.860   2.566  0.8222  0.7065 -0.5545
 6323TIP3    H218976   0.035   3.851   2.476  0.6458 -0.9735 -0.1837
 6324TIP3   OH218977   1.911   5.039   1.575 -0.1251 -0.5572 -0.0586
 6324TIP3    H118978   1.876   4.966   1.626  0.3312 -1.5127 -1.0589
 6324TIP3    H218979   1.996   5.058   1.614 -0.4469 -0.2324  0.4989
 6325TIP3   OH218980   4.479   1.115   3.519  0.0748  0.6416 -0.0787
 6325TIP3    H118981   4.422   1.059   3.571 -0.6399 -0.4938 -1.9937
 6325TIP3    H218982   4.427   1.194   3.503 -0.3690  0.2750 -0.4845
 6326TIP3   OH218983   4.283   0.005   4.783  0.6796 -0.3268  0.0417
 6326TIP3    H118984   4.230   0.073   4.824  0.7325 -1.0113  1.3006
 6326TIP3    H218985   4.234  -0.021   4.705  0.0445  0.2646  0.2393
 6327TIP3   OH218986   2.385   0.516   0.870 -0.2193  0.2941  0.0978
 6327TIP3    H118987   2.430   0.444   0.914 -2.2287 -1.2881 -0.3095
 6327TIP3    H218988   2.434   0.529   0.789  0.0721 -0.7475  0.0958
 6328TIP3   OH218989   0.687   5.297   3.432 -0.2300 -0.1286  0.0414
 6328TIP3    H118990   0.733   5.253   3.503 -0.8648 -0.6870  0.1110
 6328TIP3    H218991   0.620   5.350   3.475 -1.1130 -1.0547 -0.1680
 6329TIP3   OH218992   3.444   4.315   3.886 -0.4888 -0.2134 -0.1742
 6329TIP3    H118993   3.507   4.243   3.887 -0.3105 -0.1610 -2.4318
 6329TIP3    H218994   3.363   4.277   3.920 -0.7176 -1.8756 -2.3316
 6330TIP3   OH218995   3.701   5.458   0.067 -0.3178 -0.4783 -0.0550
 6330TIP3    H118996   3.612   5.470   0.100 -0.3375  0.9601 -0.5623
 6330TIP3    H218997   3.752   5.434   0.144 -1.4038 -3.0226 -0.0199
 6331TIP3   OH218998   1.317   4.393   5.045  0.3000 -0.3873 -0.7081
 6331TIP3    H118999   1.371   4.446   5.103  0.5946 -0.3216 -1.0392
 6331TIP3    H219000   1.237   4.377   5.095  1.1780 -1.6724  0.3695
 6332TIP3   OH219001   5.997   0.129   4.115 -0.0173  0.4738 -0.3356
 6332TIP3    H119002   5.958   0.107   4.200 -1.3103  1.2538 -0.7036
 6332TIP3    H219003   5.927   0.113   4.052  0.9531 -0.1599 -1.2836
 6333TIP3   OH219004   3.253   3.068   0.234  0.1442  0.0110  0.0828
 6333TIP3    H119005   3.276   3.005   0.165 -1.6943  0.5081 -1.0354
 6333TIP3    H219006   3.208   3.015   0.301 -0.4900 -0.0391 -0.3779
 6334TIP3   OH219007   5.946   3.862   0.465 -0.8726  0.3078  0.1629
 6334TIP3    H119008   5.863   3.864   0.514 -1.3676  1.1468 -0.6972
 6334TIP3    H219009   5.945   3.777   0.420 -2.4552  1.3203 -1.8294
 6335TIP3   OH219010   6.140   4.760   0.560 -0.1004  0.4111 -0.1221
 6335TIP3    H119011   6.146   4.665   0.558 -1.2420  0.2895  0.9846
 6335TIP3    H219012   6.070   4.782   0.498  1.7525  0.7601 -2.2298
 6336TIP3   OH219013   6.091   1.914   1.053 -0.1654  0.7720 -0.5340
 6336TIP3    H119014   6.183   1.940   1.064 -0.3426  1.8768 -1.4862
 6336TIP3    H219015   6.060   1.968   0.981 -1.8192  1.0424  0.3503
 6337TIP3   OH219016   2.984   3.904   2.472 -0.1824  0.2070 -0.6300
 6337TIP3    H119017   2.904   3.865   2.508 -0.0106  0.1388 -0.3151
 6337TIP3    H219018   3.053   3.877   2.533 -0.2416  1.9523  0.2592
 6338TIP3   OH219019   5.242   3.799   2.145 -0.3005  0.0232  0.1442
 6338TIP3    H119020   5.285   3.746   2.078  1.4614  0.0811  1.1821
 6338TIP3    H219021   5.313   3.839   2.194 -1.5573  0.5800  1.5970
 6339TIP3   OH219022   3.877   1.660   4.023 -0.5974 -0.1019  0.4783
 6339TIP3    H119023   3.825   1.611   4.087 -2.2888 -0.0314 -0.7841
 6339TIP3    H219024   3.889   1.746   4.064  1.6651 -1.2116  2.3305
 6340TIP3   OH219025   2.130   3.832   2.653  0.0606 -0.5606  0.5033
 6340TIP3    H119026   2.192   3.848   2.724  0.1624 -1.0756  0.5339
 6340TIP3    H219027   2.184   3.809   2.578 -0.0060  0.7304  0.0373
 6341TIP3   OH219028   1.722   1.699   2.129 -0.3610  0.4220 -0.0983
 6341TIP3    H119029   1.794   1.746   2.088 -0.2533  0.5072  0.1914
 6341TIP3    H219030   1.671   1.664   2.055  0.6067 -0.6138 -0.3033
 6342TIP3   OH219031   5.870   2.741   0.950  0.4318 -0.3854  0.0216
 6342TIP3    H119032   5.830   2.741   0.862  2.0741  1.5741 -0.7818
 6342TIP3    H219033   5.855   2.652   0.982 -0.9384 -0.9178 -1.9030
 6343TIP3   OH219034   5.685   3.712   2.372 -0.0366  0.3442 -0.2464
 6343TIP3    H119035   5.688   3.788   2.314  0.7107  1.6952  1.4947
 6343TIP3    H219036   5.595   3.680   2.365 -0.4764  1.6329 -0.7137
 6344TIP3   OH219037   0.724   5.625   2.845  0.0514  0.0212 -0.2027
 6344TIP3    H119038   0.667   5.566   2.796 -0.2783 -0.8270  1.1497
 6344TIP3    H219039   0.797   5.643   2.785 -0.2389 -1.1266 -0.9361
 6345TIP3   OH219040   0.726   1.631   3.195 -0.1420 -0.6251  0.5814
 6345TIP3    H119041   0.690   1.705   3.244  0.5151  1.6775 -2.1744
 6345TIP3    H219042   0.814   1.659   3.172  0.1946 -2.3854 -0.4099
 6346TIP3   OH219043   1.264   1.712   0.627 -0.1619 -0.0831  0.7298
 6346TIP3    H119044   1.174   1.743   0.632 -0.4968 -1.1380  1.8086
 6346TIP3    H219045   1.312   1.782   0.582 -1.5304  0.4292  0.0132
 6347TIP3   OH219046   5.664   0.268   0.674 -0.1916  0.1849 -0.8911
 6347TIP3    H119047   5.621   0.258   0.759 -0.5714  0.1427 -1.0821
 6347TIP3    H219048   5.596   0.305   0.617 -0.4251 -1.2052 -1.5659
 6348TIP3   OH219049   5.390   3.515   5.068  0.0841  0.2792  0.5474
 6348TIP3    H119050   5.456   3.449   5.091 -2.4485 -2.6557  0.0323
 6348TIP3    H219051   5.415   3.545   4.981  0.3037 -1.4308 -0.0076
 6349TIP3   OH219052   2.796   4.258   2.576  0.6137  0.4928  0.3803
 6349TIP3    H119053   2.834   4.230   2.659 -0.4955 -1.3711  0.3209
 6349TIP3    H219054   2.871   4.268   2.518  1.1686 -3.3010  0.1937
 6350TIP3   OH219055   6.034   5.819   1.591 -0.4650  0.3102 -0.6492
 6350TIP3    H119056   5.964   5.876   1.624  0.1373  0.9444 -0.4335
 6350TIP3    H219057   6.114   5.859   1.625 -0.0077 -0.4778 -0.7901
 6351TIP3   OH219058   2.370   5.926   0.059 -0.2153  0.0744 -0.0934
 6351TIP3    H119059   2.443   5.868   0.040 -0.4737 -0.7467  1.2488
 6351TIP3    H219060   2.295   5.867   0.071 -0.4702  0.6401  1.3783
 6352TIP3   OH219061   0.678   5.732   4.133  0.0519 -0.4336 -0.1350
 6352TIP3    H119062   0.697   5.820   4.165 -0.5135  0.0192 -1.0195
 6352TIP3    H219063   0.693   5.675   4.209 -1.6726  0.6454  1.0848
 6353TIP3   OH219064   5.922   0.784   0.640  0.3371  0.5867  0.7884
 6353TIP3    H119065   5.964   0.870   0.636 -0.4266  0.9520  0.4493
 6353TIP3    H219066   5.991   0.726   0.672  1.3268  1.0190 -0.4714
 6354TIP3   OH219067   6.133   4.365   4.058  0.1165  0.0109  0.0871
 6354TIP3    H119068   6.225   4.392   4.056 -0.0718  0.6513 -0.3951
 6354TIP3    H219069   6.086   4.439   4.021 -0.5788 -0.3893  0.1544
 6355TIP3   OH219070   3.884   0.781   0.947  0.2865 -0.0767 -0.1584
 6355TIP3    H119071   3.897   0.739   0.862 -0.7938  1.7810 -1.3042
 6355TIP3    H219072   3.798   0.750   0.975  0.7602 -0.9036  0.4102
 6356TIP3   OH219073   2.946   3.059   0.789  0.2924  0.3286 -0.2355
 6356TIP3    H119074   2.987   3.122   0.730 -0.1299  1.2032  0.3732
 6356TIP3    H219075   2.939   3.105   0.873 -1.0582 -0.1114 -0.0699
 6357TIP3   OH219076   0.085   4.310   0.374 -0.1912 -0.0517 -0.1352
 6357TIP3    H119077   0.114   4.242   0.314 -1.8250  0.6531 -1.8138
 6357TIP3    H219078   0.148   4.381   0.364 -0.0903 -0.1996 -0.5320
 6358TIP3   OH219079   3.329   4.709   1.828  0.3011  0.2508  0.3358
 6358TIP3    H119080   3.354   4.703   1.735 -1.0202  0.9687 -0.0877
 6358TIP3    H219081   3.318   4.618   1.855  1.9662 -0.0308  0.1718
 6359TIP3   OH219082   0.379   0.619   4.235  0.4453  0.7291  0.0771
 6359TIP3    H119083   0.441   0.650   4.169  0.1809  2.0641  0.4255
 6359TIP3    H219084   0.381   0.687   4.303 -0.4191  0.1333  0.7129
 6360TIP3   OH219085   4.988   5.756   1.697  0.0860 -0.0429 -0.4005
 6360TIP3    H119086   5.042   5.833   1.715 -1.6708  1.1506  0.0421
 6360TIP3    H219087   4.900   5.782   1.723 -0.7619 -1.8325 -1.2947
 6361TIP3   OH219088   5.981   5.540   3.447 -0.2713  0.0945 -0.1504
 6361TIP3    H119089   6.020   5.595   3.379  1.6747 -0.3982  0.5010
 6361TIP3    H219090   5.961   5.600   3.518  1.8134  0.0414  0.5439
 6362TIP3   OH219091   4.408   2.770   2.105  0.0923 -0.0960 -0.5916
 6362TIP3    H119092   4.392   2.729   2.190  0.0884 -0.5519 -0.8125
 6362TIP3    H219093   4.387   2.703   2.040  1.2617 -0.1673 -0.9281
 6363TIP3   OH219094   5.694   2.604   0.480  0.1000  0.3284 -0.0185
 6363TIP3    H119095   5.743   2.522   0.468 -1.3906 -0.3148 -2.7409
 6363TIP3    H219096   5.630   2.584   0.549  1.5051  0.1372  1.2761
 6364TIP3   OH219097   1.779   3.778   1.137  0.8014 -0.7117  0.0589
 6364TIP3    H119098   1.863   3.824   1.145  0.4738 -0.4209  2.6637
 6364TIP3    H219099   1.802   3.686   1.151  0.6406 -0.5512  1.5463
 6365TIP3   OH219100   3.915   3.180   3.457 -0.2690  0.0253  0.1698
 6365TIP3    H119101   3.976   3.141   3.394 -0.0750  0.3915  0.1267
 6365TIP3    H219102   3.958   3.171   3.542  2.0707  4.3055 -0.2761
 6366TIP3   OH219103   6.194   3.424   4.244  0.0772 -0.5975 -0.0853
 6366TIP3    H119104   6.131   3.464   4.304  0.7054 -1.3359  1.1006
 6366TIP3    H219105   6.165   3.333   4.235  0.4124 -0.6823 -0.3349
 6367TIP3   OH219106   5.197   3.352   1.029 -0.2425  0.0832  0.2721
 6367TIP3    H119107   5.230   3.262   1.039 -1.1719 -0.0846  2.0571
 6367TIP3    H219108   5.212   3.393   1.114 -0.7002  1.3327 -0.2299
 6368TIP3   OH219109   5.611   3.026   0.758  0.1109 -0.3281  0.4025
 6368TIP3    H119110   5.650   2.945   0.726  0.7850  0.0228  0.3132
 6368TIP3    H219111   5.683   3.089   0.757 -0.7617  0.7067 -1.0774
 6369TIP3   OH219112   2.329   0.170   3.341  0.2443  0.0820  0.5982
 6369TIP3    H119113   2.298   0.080   3.332 -1.0642  0.1941  2.9800
 6369TIP3    H219114   2.404   0.164   3.400  0.2204  0.5007  0.6785
 6370TIP3   OH219115   0.069   4.061   3.972 -0.1153 -0.2019 -0.2203
 6370TIP3    H119116   0.103   4.148   3.955 -2.2997  1.0737  1.3068
 6370TIP3    H219117  -0.002   4.075   4.036 -1.9731 -2.8193 -1.4908
 6371TIP3   OH219118   3.439   3.122   0.961  0.0341 -0.3405 -0.2420
 6371TIP3    H119119   3.367   3.180   0.939  0.7706  1.3772  1.5460
 6371TIP3    H219120   3.408   3.073   1.037  0.6503  0.2732  0.4190
 6372TIP3   OH219121   5.539   3.890   4.784 -0.4731  0.4921 -0.3527
 6372TIP3    H119122   5.484   3.967   4.796  0.4606  1.3130 -1.1582
 6372TIP3    H219123   5.526   3.865   4.692  0.5353  0.7460 -0.5783
 6373TIP3   OH219124   3.478   0.775   2.243 -0.3747  0.7636 -0.7895
 6373TIP3    H119125   3.402   0.816   2.200  1.0577  2.9465 -1.4034
 6373TIP3    H219126   3.515   0.718   2.175 -1.0306  0.2492 -0.7255
 6374TIP3   OH219127   5.888   5.131   0.277  0.0755  0.1802  0.7181
 6374TIP3    H119128   5.923   5.105   0.192  1.2559  1.5086  0.7454
 6374TIP3    H219129   5.965   5.131   0.335 -0.4695  0.5601  1.4529
 6375TIP3   OH219130   0.128   1.219   1.993  0.5657  0.0131 -0.4227
 6375TIP3    H119131   0.181   1.140   2.002 -0.3708 -0.6320 -0.5333
 6375TIP3    H219132   0.050   1.192   1.945 -1.2567  0.2716  2.1656
 6376TIP3   OH219133   1.977   5.564   3.004  0.1943  0.6696  0.2167
 6376TIP3    H119134   1.996   5.618   3.081  0.2014  1.2815 -0.2048
 6376TIP3    H219135   2.010   5.616   2.930 -0.8784  0.6431 -0.2986
 6377TIP3   OH219136   2.028   0.467   3.869 -0.3012  0.0467 -0.3466
 6377TIP3    H119137   2.093   0.525   3.909  1.5498 -0.4620 -2.3643
 6377TIP3    H219138   1.985   0.424   3.942  1.4213  0.6769  1.1112
 6378TIP3   OH219139   4.361   5.088   5.170  0.5363  0.3448 -0.4110
 6378TIP3    H119140   4.407   5.170   5.151  0.5588  0.4101 -0.0821
 6378TIP3    H219141   4.425   5.036   5.218 -0.2610  1.1006  1.5798
 6379TIP3   OH219142   3.555   5.569   4.705 -0.1560  0.2260 -0.2696
 6379TIP3    H119143   3.591   5.648   4.746 -0.2533 -0.3526  0.9687
 6379TIP3    H219144   3.619   5.546   4.637  0.3734  0.8098  0.0209
 6380TIP3   OH219145   4.326   2.709   0.674 -0.2864 -0.5594  0.4197
 6380TIP3    H119146   4.373   2.657   0.739  0.4254 -0.2873  0.1265
 6380TIP3    H219147   4.234   2.681   0.684  0.0418 -1.6950  0.4318
 6381TIP3   OH219148   4.368   1.331   2.413 -0.3233 -0.3423  0.1765
 6381TIP3    H119149   4.348   1.240   2.395 -0.5195 -0.2457 -0.1042
 6381TIP3    H219150   4.283   1.374   2.419 -0.2442  0.2307 -1.8987
 6382TIP3   OH219151   5.305   1.022   0.792  0.0563  0.5894  0.7250
 6382TIP3    H119152   5.251   1.074   0.850 -0.0277  0.7103  0.5394
 6382TIP3    H219153   5.278   0.932   0.808  0.1719  0.6042  1.0148
 6383TIP3   OH219154   0.829   4.410   1.610 -0.5377 -0.1197 -0.1086
 6383TIP3    H119155   0.737   4.388   1.594 -0.3459 -0.9090 -0.1524
 6383TIP3    H219156   0.868   4.414   1.523 -0.2760 -0.9401 -0.0363
 6384TIP3   OH219157   5.201   3.930   3.693  0.3531 -0.0598  0.2193
 6384TIP3    H119158   5.292   3.923   3.663 -0.4317 -0.1300 -2.3432
 6384TIP3    H219159   5.162   3.845   3.674 -0.7792  0.6305 -0.6765
 6385TIP3   OH219160   0.546   0.603   2.274  0.2345  0.6576  0.0701
 6385TIP3    H119161   0.578   0.517   2.301 -2.6249 -1.1349 -1.6785
 6385TIP3    H219162   0.612   0.635   2.212  0.1680 -1.4895 -1.1909
 6386TIP3   OH219163   1.764   3.135   2.308 -0.0555  0.7709 -0.0512
 6386TIP3    H119164   1.844   3.088   2.333 -0.1880 -0.1971 -1.3803
 6386TIP3    H219165   1.769   3.217   2.358  0.2099 -0.5789  2.2955
 6387TIP3   OH219166   3.006   1.998   2.283  0.3981  0.0273 -0.0302
 6387TIP3    H119167   2.958   1.985   2.200  0.5962 -2.4097  0.1505
 6387TIP3    H219168   3.098   2.000   2.257  0.4357 -0.2755  0.0751
 6388TIP3   OH219169   5.207   4.570   0.888  0.4628  0.3301 -0.0889
 6388TIP3    H119170   5.196   4.480   0.858  0.9690  0.3894 -0.4592
 6388TIP3    H219171   5.275   4.606   0.831 -0.8313  1.4403 -1.0025
 6389TIP3   OH219172   6.308   3.235   3.015 -0.5199  0.1373  0.0918
 6389TIP3    H119173   6.286   3.164   3.076  0.5190 -1.4889 -1.3398
 6389TIP3    H219174   6.264   3.210   2.934  0.5963  0.6531 -0.6893
 6390TIP3   OH219175   4.357   3.148   2.828  0.0011  0.3579 -0.1188
 6390TIP3    H119176   4.386   3.136   2.918 -0.5459 -1.5439 -0.1437
 6390TIP3    H219177   4.418   3.097   2.775  0.1924  1.2831 -0.8112
 6391TIP3   OH219178   1.660   4.164   0.869 -0.2584  0.5455  0.0876
 6391TIP3    H119179   1.651   4.225   0.796  0.4032 -0.7236 -1.0990
 6391TIP3    H219180   1.675   4.079   0.827  0.7353 -0.1155  1.7101
 6392TIP3   OH219181   1.362   4.732   1.513 -0.2332 -0.2677  0.3199
 6392TIP3    H119182   1.439   4.675   1.521 -0.7348 -1.3144 -1.7841
 6392TIP3    H219183   1.398   4.817   1.490  0.3790 -0.3301  1.0077
 6393TIP3   OH219184   6.198   5.395   4.332  0.4362  0.0261 -0.1963
 6393TIP3    H119185   6.204   5.465   4.397  2.2788 -0.1371 -0.1364
 6393TIP3    H219186   6.161   5.437   4.255 -1.3547  0.3296  0.7649
 6394TIP3   OH219187   0.686   3.748   3.976 -0.1972 -0.1140  0.9710
 6394TIP3    H119188   0.626   3.708   4.040  1.2887 -0.8003  2.0229
 6394TIP3    H219189   0.726   3.821   4.023 -1.3335  1.3480 -0.2498
 6395TIP3   OH219190   2.550   1.292   4.848 -0.5719  0.3583 -0.0278
 6395TIP3    H119191   2.499   1.370   4.871  0.5101  1.3775 -0.9114
 6395TIP3    H219192   2.506   1.220   4.892 -1.5808  1.4813  0.8630
 6396TIP3   OH219193   0.980   2.328   0.277 -0.0438 -0.0824 -0.7091
 6396TIP3    H119194   0.893   2.287   0.275  0.5267 -1.4151  0.3966
 6396TIP3    H219195   0.979   2.381   0.357 -0.0738  0.4726 -1.0720
 6397TIP3   OH219196   2.366   4.817   1.002  0.1745 -0.4032 -0.4705
 6397TIP3    H119197   2.288   4.841   1.053  0.1647 -2.1950  0.4265
 6397TIP3    H219198   2.416   4.899   0.996 -0.3418  0.1342  1.5372
 6398TIP3   OH219199   3.851   2.063   4.456  0.4126 -0.4584 -0.7752
 6398TIP3    H119200   3.821   2.096   4.540 -0.8320  0.2028 -1.4605
 6398TIP3    H219201   3.928   2.116   4.435  1.0289 -0.9595  0.1566
 6399TIP3   OH219202   5.161   1.157   2.774 -0.2258 -0.3582 -0.3485
 6399TIP3    H119203   5.237   1.141   2.719 -0.2452 -2.2373  0.1091
 6399TIP3    H219204   5.170   1.095   2.847 -1.0785  0.8807  0.8706
 6400TIP3   OH219205   1.221   4.995   0.792 -0.3552  0.6711 -0.0062
 6400TIP3    H119206   1.144   5.045   0.815 -1.0749 -0.0436 -0.7916
 6400TIP3    H219207   1.248   5.029   0.706  0.3151  1.0418  0.3429
 6401TIP3   OH219208   5.292   5.475   4.915  0.0600  0.1182 -0.2820
 6401TIP3    H119209   5.367   5.421   4.890 -0.4409 -0.1431 -1.2518
 6401TIP3    H219210   5.330   5.551   4.959  0.7423 -1.3812  1.8346
 6402TIP3   OH219211   0.627   1.828   3.501 -0.2764  0.5263  0.0099
 6402TIP3    H119212   0.583   1.911   3.517 -0.4852  0.3579  0.3363
 6402TIP3    H219213   0.573   1.784   3.435  0.2334  0.9528 -0.6990
 6403TIP3   OH219214   2.264   2.622   4.510 -0.1938  0.1990 -0.3497
 6403TIP3    H119215   2.247   2.528   4.508  1.2878 -0.0902 -1.0518
 6403TIP3    H219216   2.183   2.661   4.543 -0.6952 -1.3467  0.3150
 6404TIP3   OH219217   0.732   3.962   2.341 -0.3769 -0.0485 -0.1305
 6404TIP3    H119218   0.806   3.936   2.287  0.8988  0.0207  1.5153
 6404TIP3    H219219   0.692   4.035   2.294  0.0049 -0.7065 -1.5095
 6405TIP3   OH219220   6.286   2.817   4.034  0.2976 -0.1051  0.1566
 6405TIP3    H119221   6.303   2.779   4.121 -0.0392 -0.3711  0.1094
 6405TIP3    H219222   6.196   2.790   4.014 -0.3379  1.5876  0.5767
 6406TIP3   OH219223   5.815   2.566   4.875 -0.4830 -0.3854  0.3421
 6406TIP3    H119224   5.801   2.485   4.924 -1.6881 -0.6658 -0.4182
 6406TIP3    H219225   5.769   2.633   4.926 -1.0325 -0.5238  0.0347
 6407TIP3   OH219226   5.665   3.694   0.761 -0.2288  0.1946 -0.4048
 6407TIP3    H119227   5.674   3.628   0.830 -1.8390 -0.5013 -0.8064
 6407TIP3    H219228   5.683   3.646   0.680 -0.2203  0.5467 -0.6109
 6408TIP3   OH219229   0.920   2.064   1.904  0.1741 -0.4380  0.0110
 6408TIP3    H119230   0.833   2.093   1.933  0.0702  0.9232 -1.5125
 6408TIP3    H219231   0.975   2.141   1.914  0.9067 -0.9277 -0.2009
 6409TIP3   OH219232   3.354   5.864   2.350  0.2267 -0.0270  0.6107
 6409TIP3    H119233   3.418   5.932   2.368  1.1304  0.1193 -2.5329
 6409TIP3    H219234   3.270   5.903   2.372  0.8346  1.6651  0.0718
 6410TIP3   OH219235   1.182   3.194   4.252  0.0522 -0.0511 -0.5069
 6410TIP3    H119236   1.250   3.209   4.318  1.3653  0.1821 -1.8577
 6410TIP3    H219237   1.119   3.136   4.295 -0.3344  1.8547  1.7039
 6411TIP3   OH219238   4.694   1.982   2.706  0.1706  0.5724 -0.6246
 6411TIP3    H119239   4.648   1.939   2.778 -0.3207  1.0717 -0.6343
 6411TIP3    H219240   4.773   1.929   2.693  0.6491  0.8896  0.7820
 6412TIP3   OH219241   4.267   1.787   0.838  0.2411 -0.3035 -0.3068
 6412TIP3    H119242   4.204   1.762   0.906  0.4876  1.0763  0.4585
 6412TIP3    H219243   4.251   1.725   0.767  0.1649 -1.9850  1.0951
 6413TIP3   OH219244   1.868   5.637   3.486  0.2714 -0.1974 -0.3269
 6413TIP3    H119245   1.774   5.651   3.488  0.3018 -0.0489  0.1456
 6413TIP3    H219246   1.892   5.650   3.394  0.0064  0.9411 -0.2592
 6414TIP3   OH219247   5.978   3.905   3.985 -0.4148  0.2661 -0.0475
 6414TIP3    H119248   5.969   3.908   4.080  0.1164  0.8962 -0.0063
 6414TIP3    H219249   6.063   3.864   3.971 -1.0286 -0.9618 -0.2897
 6415TIP3   OH219250   0.792   5.059   4.214  0.4383 -0.1103 -0.1854
 6415TIP3    H119251   0.840   5.060   4.297 -0.7175 -0.5782  0.5161
 6415TIP3    H219252   0.764   5.150   4.201 -0.9542 -0.3416  0.9208
 6416TIP3   OH219253   5.249   3.019   2.108  0.5087 -0.3479 -0.6454
 6416TIP3    H119254   5.332   3.054   2.075  1.4328 -0.2804  1.5568
 6416TIP3    H219255   5.274   2.945   2.162 -1.1979 -2.5845 -2.7066
 6417TIP3   OH219256   1.520   2.059   0.256 -0.0337 -0.4851  0.3431
 6417TIP3    H119257   1.462   2.022   0.322 -1.3920  0.2483 -0.4126
 6417TIP3    H219258   1.596   2.000   0.255 -0.7815 -1.4956  1.2995
 6418TIP3   OH219259   5.536   3.630   4.857  0.3803 -0.5583  0.2287
 6418TIP3    H119260   5.502   3.720   4.852 -1.2086 -1.0060  2.0136
 6418TIP3    H219261   5.615   3.632   4.804 -0.5840  1.4367 -1.2685
 6419TIP3   OH219262   4.823   1.263   4.348 -0.3142  0.6511 -0.1300
 6419TIP3    H119263   4.850   1.193   4.288 -0.5998  0.4560 -0.0361
 6419TIP3    H219264   4.873   1.247   4.428 -1.2069 -0.1356  0.2979
 6420TIP3   OH219265   2.657   0.701   2.714 -0.0595 -0.0361  0.1312
 6420TIP3    H119266   2.623   0.780   2.672  0.6777 -0.3992 -1.2369
 6420TIP3    H219267   2.750   0.700   2.690 -0.4788 -2.4299 -1.7831
 6421TIP3   OH219268   2.717   2.449   4.769 -0.0507  0.0021  0.8769
 6421TIP3    H119269   2.773   2.412   4.837 -0.9072 -0.2460  1.4595
 6421TIP3    H219270   2.656   2.379   4.748 -0.6100  0.5173  0.7774
 6422TIP3   OH219271   1.529   3.481   3.841  0.3658  0.3594  0.0036
 6422TIP3    H119272   1.575   3.443   3.766 -0.0911  2.4527 -1.4390
 6422TIP3    H219273   1.438   3.453   3.830  0.5477 -0.5288  0.6357
 6423TIP3   OH219274   3.286   0.704   3.117  0.3161  0.0532 -0.3698
 6423TIP3    H119275   3.311   0.639   3.052 -0.9307  0.2973 -1.1306
 6423TIP3    H219276   3.204   0.741   3.084  0.1364  0.8422  0.8778
 6424TIP3   OH219277   2.714   2.828   3.056  0.5183 -0.3250 -0.2738
 6424TIP3    H119278   2.721   2.908   3.108 -1.5090 -0.8647  0.9532
 6424TIP3    H219279   2.672   2.856   2.975 -1.3278 -0.2676  0.6490
 6425TIP3   OH219280   3.792   0.899   3.510 -0.0521  0.9215 -0.2014
 6425TIP3    H119281   3.875   0.939   3.537 -0.2295  0.2227  1.5462
 6425TIP3    H219282   3.818   0.820   3.462  0.4652 -1.1366  3.1172
 6426TIP3   OH219283   6.345   0.101   1.773  0.0526 -0.0780  0.1651
 6426TIP3    H119284   6.325   0.125   1.863 -1.1023 -2.0276  0.4917
 6426TIP3    H219285   6.260   0.081   1.734  0.7959 -2.9020 -0.2077
 6427TIP3   OH219286   2.275   4.776   0.718  0.0054  0.1306 -0.1723
 6427TIP3    H119287   2.248   4.865   0.743 -0.4197 -0.2619  0.8213
 6427TIP3    H219288   2.308   4.737   0.799  0.8132 -0.4072 -0.7411
 6428TIP3   OH219289   0.880   3.266   1.642 -0.4774  0.3659 -0.2426
 6428TIP3    H119290   0.820   3.201   1.679  1.2513 -2.0221 -1.3618
 6428TIP3    H219291   0.956   3.264   1.699  0.2051  0.2899 -1.1408
 6429TIP3   OH219292   4.226   2.755   3.908 -0.5250  0.5175 -0.5705
 6429TIP3    H119293   4.237   2.750   4.003  1.1590  0.5910 -0.7372
 6429TIP3    H219294   4.139   2.794   3.896 -1.6631 -1.3969  0.9088
 6430TIP3   OH219295   5.781   0.381   2.724  0.4842 -0.5144  0.1836
 6430TIP3    H119296   5.749   0.291   2.731 -0.9798 -0.0003  0.6148
 6430TIP3    H219297   5.798   0.393   2.630 -0.0135 -1.0317  0.0209
 6431TIP3   OH219298   0.956   2.664   4.363 -0.3783 -0.2261  0.9713
 6431TIP3    H119299   0.923   2.602   4.428  2.8074 -1.4810  1.5593
 6431TIP3    H219300   0.988   2.738   4.414  1.1143 -0.7248  0.8055
 6432TIP3   OH219301   3.318   0.067   4.829  0.0498  0.3157  0.2467
 6432TIP3    H119302   3.245   0.129   4.829 -0.3264 -0.1220  0.1868
 6432TIP3    H219303   3.362   0.082   4.746 -0.1130  0.4231  0.1790
 6433TIP3   OH219304   1.523   5.044   0.084 -0.1866 -0.5252 -0.1377
 6433TIP3    H119305   1.490   4.986   0.015  0.3202  0.6421 -1.3797
 6433TIP3    H219306   1.528   5.130   0.044  3.1994 -0.3830  0.3556
 6434TIP3   OH219307   5.228   4.051   3.235 -0.5820  0.2084 -0.2523
 6434TIP3    H119308   5.155   4.108   3.211  1.3026  2.2397 -1.6215
 6434TIP3    H219309   5.259   4.085   3.318 -0.5185  0.0616 -0.2154
 6435TIP3   OH219310   3.273   4.716   1.281  0.0146  0.2559  0.1715
 6435TIP3    H119311   3.224   4.719   1.199 -1.7300  3.6447  1.1343
 6435TIP3    H219312   3.221   4.658   1.337  1.1148 -1.9217 -0.9452
 6436TIP3   OH219313   5.380   3.251   1.823 -0.3343 -0.4706  0.7387
 6436TIP3    H119314   5.314   3.246   1.753  0.4962  0.5387 -0.1633
 6436TIP3    H219315   5.334   3.294   1.895 -0.1471  2.3711 -0.6620
 6437TIP3   OH219316   1.469   3.718   1.734  0.4177 -0.2068  0.1587
 6437TIP3    H119317   1.559   3.688   1.749 -0.1871 -1.0300  2.6490
 6437TIP3    H219318   1.432   3.727   1.822 -1.3463  2.0858 -0.7140
 6438TIP3   OH219319   4.876   4.328   4.279  0.6976 -0.3521  0.3180
 6438TIP3    H119320   4.865   4.242   4.238  0.7598 -1.2967  2.2039
 6438TIP3    H219321   4.815   4.384   4.231 -1.5209 -2.1143  0.8824
 6439TIP3   OH219322   3.184   0.430   0.982  0.3588  0.1666  0.0878
 6439TIP3    H119323   3.276   0.456   0.991  0.4335 -0.3620  0.9291
 6439TIP3    H219324   3.185   0.355   0.924  0.7621 -1.4300  2.0485
 6440TIP3   OH219325   3.895   5.920   0.554  0.1045  0.3409  0.2557
 6440TIP3    H119326   3.867   5.836   0.516  3.3786 -0.5378 -0.5188
 6440TIP3    H219327   3.884   5.983   0.483  0.9963 -0.1831 -0.3649
 6441TIP3   OH219328   4.576   3.092   0.549 -0.4026 -0.5024 -0.5188
 6441TIP3    H119329   4.607   3.013   0.592  0.2426  0.8666  1.6742
 6441TIP3    H219330   4.494   3.114   0.594 -0.6151  0.0509 -1.1544
 6442TIP3   OH219331   5.600   2.926   4.979  0.0322  0.4471 -0.2845
 6442TIP3    H119332   5.552   2.851   5.015 -0.7068  1.0632  0.0372
 6442TIP3    H219333   5.556   2.946   4.897 -0.3075  1.0603  0.0456
 6443TIP3   OH219334   4.393   3.752   2.826  0.7780  0.0693  0.2128
 6443TIP3    H119335   4.480   3.749   2.865  0.8733  1.3533  0.1488
 6443TIP3    H219336   4.350   3.826   2.870  0.3807  0.6314 -1.0883
 6444TIP3   OH219337   3.665   1.612   3.852 -0.1105  0.2112 -0.1141
 6444TIP3    H119338   3.753   1.633   3.885  0.6114 -1.6639 -0.7072
 6444TIP3    H219339   3.606   1.646   3.919  1.0592  1.4216  0.3549
 6445TIP3   OH219340   3.812   2.507   1.542 -0.0785 -0.1651 -0.1178
 6445TIP3    H119341   3.871   2.520   1.468  0.2301  0.1090  0.1770
 6445TIP3    H219342   3.746   2.576   1.533  1.0992  1.1502  0.9907
 6446TIP3   OH219343   1.486   0.448   1.801  0.0552 -0.0638 -0.2463
 6446TIP3    H119344   1.411   0.463   1.745 -1.5661 -2.8668  0.9471
 6446TIP3    H219345   1.466   0.497   1.881 -0.1456 -0.1710 -0.2290
 6447TIP3   OH219346   5.270   3.967   1.787 -0.1819 -0.1046  0.3775
 6447TIP3    H119347   5.197   4.002   1.838 -1.7774 -0.8667 -1.2970
 6447TIP3    H219348   5.297   3.888   1.835 -1.6799 -0.8304  0.0833
 6448TIP3   OH219349   1.204   2.184   0.317 -0.0433  0.0480 -0.4481
 6448TIP3    H119350   1.277   2.240   0.344  0.0164 -0.1197 -0.2598
 6448TIP3    H219351   1.138   2.245   0.284 -0.4271  0.3254  0.7770
 6449TIP3   OH219352   0.103   0.399   1.354  0.5171  0.2620 -0.0855
 6449TIP3    H119353   0.044   0.345   1.301  0.5660  0.0823  0.0430
 6449TIP3    H219354   0.079   0.378   1.444 -0.0421  1.0810 -0.0306
 6450TIP3   OH219355   4.381   1.608   4.343 -0.4639 -0.1844  0.1501
 6450TIP3    H119356   4.372   1.702   4.326 -1.8619 -0.0286  1.4636
 6450TIP3    H219357   4.447   1.602   4.411 -2.3315  0.1715  2.1173
 6451TIP3   OH219358   1.886   1.224   5.197 -0.5652 -0.0422  0.1275
 6451TIP3    H119359   1.899   1.313   5.164  0.4699 -1.0640 -2.5257
 6451TIP3    H219360   1.829   1.182   5.132  0.8984 -1.9772 -0.0106
 6452TIP3   OH219361   4.238   5.516   2.268 -0.3056  0.1718 -0.2253
 6452TIP3    H119362   4.326   5.526   2.232 -0.1914 -0.3335 -0.0956
 6452TIP3    H219363   4.206   5.605   2.278  0.5825  0.4059  0.6750
 6453TIP3   OH219364   0.376   3.631   1.648 -0.0449  0.5526  0.3123
 6453TIP3    H119365   0.413   3.560   1.700 -0.0098  1.3650  1.4480
 6453TIP3    H219366   0.451   3.685   1.622 -0.2846  1.8773  2.1264
 6454TIP3   OH219367   2.725   3.622   0.597 -0.4567  0.1747  0.0468
 6454TIP3    H119368   2.700   3.694   0.539  1.6396  0.7403 -0.2437
 6454TIP3    H219369   2.760   3.665   0.675 -1.1302 -0.5732  0.7817
 6455TIP3   OH219370   4.896   1.844   0.304 -0.9373  0.3074 -0.0383
 6455TIP3    H119371   4.967   1.907   0.316 -0.3384 -0.4135  0.2724
 6455TIP3    H219372   4.833   1.865   0.373 -0.5992  0.3735  0.2511
 6456TIP3   OH219373   1.767   4.367   0.399 -0.5473 -0.4685 -0.1210
 6456TIP3    H119374   1.855   4.357   0.364 -0.9153 -3.3663 -0.4269
 6456TIP3    H219375   1.773   4.442   0.458  2.1743 -0.7568  0.0930
 6457TIP3   OH219376   4.513   5.695   0.646 -0.0320 -0.1500 -0.1295
 6457TIP3    H119377   4.429   5.727   0.612 -0.8016 -2.4016 -0.5222
 6457TIP3    H219378   4.489   5.648   0.726  1.2196  1.3256  1.1804
 6458TIP3   OH219379   3.987   2.179   2.632 -0.5996 -0.1208 -0.0977
 6458TIP3    H119380   4.015   2.188   2.541 -1.6835 -2.6442 -0.7690
 6458TIP3    H219381   3.904   2.226   2.636  0.6300  2.1639  0.3243
 6459TIP3   OH219382   3.529   4.205   4.707  0.4257  0.0904 -0.1341
 6459TIP3    H119383   3.520   4.223   4.613  2.2046  0.9726 -0.1667
 6459TIP3    H219384   3.503   4.287   4.750  0.7718  0.0879  0.0833
 6460TIP3   OH219385   5.036   2.954   4.386 -0.4827  0.3523 -0.8878
 6460TIP3    H119386   5.077   2.879   4.342  1.4251  1.2866 -0.7863
 6460TIP3    H219387   4.998   3.005   4.315  1.6342  1.2839 -1.4264
 6461TIP3   OH219388   0.393   4.020   2.704  0.4613 -0.4463 -0.0168
 6461TIP3    H119389   0.327   3.954   2.683 -0.5367  0.0667  1.3541
 6461TIP3    H219390   0.447   3.979   2.772  0.1282 -0.0337  0.5020
 6462TIP3   OH219391   2.696   2.583   0.935 -0.1026 -0.2117  0.4781
 6462TIP3    H119392   2.668   2.539   0.855 -1.2945 -0.6056  1.0870
 6462TIP3    H219393   2.666   2.673   0.924  0.2668 -0.1172  0.2306
 6463TIP3   OH219394   3.192   1.372   0.130 -0.1672  0.5434 -0.4453
 6463TIP3    H119395   3.224   1.316   0.201 -0.2711  1.0296 -0.0053
 6463TIP3    H219396   3.223   1.329   0.050 -1.5047 -0.9556 -0.2130
 6464TIP3   OH219397   3.417   4.603   0.867 -0.4903  0.2704 -0.1296
 6464TIP3    H119398   3.455   4.515   0.867 -0.2484  0.3759 -0.0211
 6464TIP3    H219399   3.482   4.658   0.823 -1.0817  0.2070 -1.1339
 6465TIP3   OH219400   4.980   5.159   2.563 -0.9697  0.4604  0.1079
 6465TIP3    H119401   4.935   5.191   2.641 -1.0059  1.2858 -0.2424
 6465TIP3    H219402   4.915   5.165   2.493 -0.4931  1.1424 -0.2883
 6466TIP3   OH219403   3.177   0.804   0.233 -0.3912 -0.4340  0.4354
 6466TIP3    H119404   3.138   0.762   0.157 -1.0068 -1.6626  1.3916
 6466TIP3    H219405   3.263   0.834   0.204 -0.3693 -1.4281 -0.5720
 6467TIP3   OH219406   5.035   5.123   4.569 -0.1999 -0.3101  0.0765
 6467TIP3    H119407   5.058   5.030   4.579 -1.2480 -0.5745  0.1027
 6467TIP3    H219408   4.949   5.131   4.610  0.3928  0.9314  1.1330
 6468TIP3   OH219409   5.985   3.475   3.529  0.0298  0.9734  0.7110
 6468TIP3    H119410   5.904   3.462   3.579 -0.4404  0.8102 -0.0888
 6468TIP3    H219411   6.023   3.388   3.520  1.1234  1.2284  2.4311
 6469TIP3   OH219412   4.123   0.948   5.022  0.3435  0.1957 -0.6981
 6469TIP3    H119413   4.120   0.907   4.936  0.7820  1.8351 -1.5272
 6469TIP3    H219414   4.081   0.884   5.080  1.5341 -1.6669 -1.7851
 6470TIP3   OH219415   3.897   1.429   3.290  0.5659  0.1878 -0.0537
 6470TIP3    H119416   3.862   1.362   3.348 -0.4364 -0.3371 -1.2183
 6470TIP3    H219417   3.853   1.510   3.318 -1.2886 -0.3727 -1.1682
 6471TIP3   OH219418   3.075   1.379   1.119 -0.0274 -0.4552 -0.3585
 6471TIP3    H119419   3.014   1.432   1.068  0.5827 -1.7238 -2.5026
 6471TIP3    H219420   3.112   1.316   1.057  3.5372  0.2543  0.7900
 6472TIP3   OH219421   4.131   4.236   1.159 -0.0066  0.2673  0.1581
 6472TIP3    H119422   4.148   4.150   1.197  1.9528  0.6250  0.2162
 6472TIP3    H219423   4.163   4.298   1.224 -1.7711  1.0781  0.2944
 6473TIP3   OH219424   4.169   0.224   3.889  0.5085  0.3713 -0.3543
 6473TIP3    H119425   4.176   0.252   3.980  1.6851  0.5246 -0.4757
 6473TIP3    H219426   4.087   0.263   3.858  0.3615  0.7537  0.4857
 6474TIP3   OH219427   2.512   0.236   0.908  0.0064  0.1559  0.0588
 6474TIP3    H119428   2.493   0.228   0.815  2.5440  0.7756 -0.6106
 6474TIP3    H219429   2.529   0.147   0.937 -1.6267 -0.1392  0.1642
 6475TIP3   OH219430   1.655   5.844   4.465 -0.3112 -0.4714  0.3939
 6475TIP3    H119431   1.619   5.811   4.548 -2.7417  1.0080  0.0258
 6475TIP3    H219432   1.711   5.773   4.434 -0.1770 -1.5095  2.7717
 6476TIP3   OH219433   5.848   1.865   2.178  0.4971  0.0949 -0.1663
 6476TIP3    H119434   5.795   1.788   2.195 -0.7373  0.9084 -0.1890
 6476TIP3    H219435   5.883   1.889   2.264  1.6472 -0.9982 -0.3040
 6477TIP3   OH219436   1.859   5.941   3.228  0.7336 -0.3302  1.0506
 6477TIP3    H119437   1.778   5.907   3.189  1.3492 -0.9071  0.2479
 6477TIP3    H219438   1.873   6.025   3.185  1.1372 -0.7299  0.3937
 6478TIP3   OH219439   0.346   1.470   0.484  0.3419  0.0606  0.7170
 6478TIP3    H119440   0.388   1.384   0.478  2.8277  1.2395  0.1661
 6478TIP3    H219441   0.342   1.488   0.578  2.1219  0.3472  0.7775
 6479TIP3   OH219442   3.717   3.009   2.236  0.0643  0.0874 -0.1069
 6479TIP3    H119443   3.768   2.970   2.166  0.2488 -0.2068  0.1868
 6479TIP3    H219444   3.653   2.941   2.261  0.0049  0.1851  0.0128
 6480TIP3   OH219445   2.566   2.696   1.905 -0.2076  0.7216  0.3566
 6480TIP3    H119446   2.528   2.766   1.852 -0.9302  0.1215  0.0787
 6480TIP3    H219447   2.504   2.682   1.976  0.1004  0.5868  0.6058
 6481TIP3   OH219448   4.583   2.190   1.450 -0.1780  0.2127  0.2732
 6481TIP3    H119449   4.671   2.157   1.470 -0.1511  1.0533  1.6893
 6481TIP3    H219450   4.525   2.137   1.504 -0.3663  0.8263  0.6777
 6482TIP3   OH219451   5.621   4.510   2.147 -0.7294 -0.2803  0.1121
 6482TIP3    H119452   5.670   4.453   2.207 -0.1230  0.6324  0.4916
 6482TIP3    H219453   5.588   4.450   2.080  2.2314 -0.7233 -1.0814
 6483TIP3   OH219454   0.060   2.229   3.540  0.2601  0.1349 -0.0260
 6483TIP3    H119455   0.001   2.188   3.603 -0.5784  1.4074  0.0412
 6483TIP3    H219456   0.086   2.312   3.581 -0.9488  1.3798 -1.6441
 6484TIP3   OH219457   1.245   0.532   4.636  0.3122 -0.2411 -0.4146
 6484TIP3    H119458   1.166   0.499   4.678 -0.6350  0.0079 -1.9142
 6484TIP3    H219459   1.285   0.589   4.702 -2.3167  1.9619 -0.5414
 6485TIP3   OH219460   1.203   0.185   4.384  0.3605 -0.6046  0.1862
 6485TIP3    H119461   1.115   0.212   4.359  0.0683 -0.5799  1.1844
 6485TIP3    H219462   1.248   0.266   4.406  0.4747 -0.6624  0.1658
 6486TIP3   OH219463   1.154   5.683   3.022  0.6446  0.1835 -0.0744
 6486TIP3    H119464   1.158   5.602   2.971 -0.5386  0.4450 -0.6120
 6486TIP3    H219465   1.130   5.654   3.110 -0.1479 -0.0238 -0.3539
 6487TIP3   OH219466   6.069   4.638   4.638 -0.5462  0.1930 -0.0731
 6487TIP3    H119467   6.140   4.680   4.588 -3.6996  1.5988 -3.9226
 6487TIP3    H219468   6.058   4.693   4.715  1.1694  1.1652 -0.4705
 6488TIP3   OH219469   2.398   3.600   0.216 -0.4347 -0.0163 -0.2873
 6488TIP3    H119470   2.308   3.625   0.199 -0.0598  2.0150  0.4513
 6488TIP3    H219471   2.392   3.520   0.269 -1.6965 -1.8461 -2.9540
 6489TIP3   OH219472   6.068   3.777   0.028 -0.3050  0.4920  0.5831
 6489TIP3    H119473   6.040   3.708  -0.032  0.2155  0.8380 -0.0722
 6489TIP3    H219474   5.987   3.814   0.061 -0.7727  2.5114 -2.4585
 6490TIP3   OH219475   4.822   4.657   5.170 -0.0332 -0.0555  0.3639
 6490TIP3    H119476   4.910   4.621   5.176 -0.3588 -2.0985 -3.4795
 6490TIP3    H219477   4.764   4.581   5.184 -0.9613  0.2282 -1.5660
 6491TIP3   OH219478   5.641   0.916   4.924  0.6260 -0.3132 -0.6111
 6491TIP3    H119479   5.580   0.963   4.868  0.7409  0.2383 -0.2802
 6491TIP3    H219480   5.725   0.960   4.911  0.6320 -0.1185  0.0599
 6492TIP3   OH219481   1.054   1.749   3.504 -0.7630  0.2149 -0.2501
 6492TIP3    H119482   1.051   1.781   3.414  0.7642 -1.6258 -1.0340
 6492TIP3    H219483   1.069   1.827   3.557 -1.8386  1.3481 -1.5497
 6493TIP3   OH219484   0.607   1.351   0.108 -0.3664 -0.1514 -0.3257
 6493TIP3    H119485   0.639   1.356   0.018 -1.1991  1.0262 -0.5634
 6493TIP3    H219486   0.635   1.433   0.149  0.3679 -0.8453  0.6337
 6494TIP3   OH219487   3.348   2.083   0.520 -0.3232 -0.0417  0.6653
 6494TIP3    H119488   3.407   2.112   0.451  1.4462 -1.6463  1.4051
 6494TIP3    H219489   3.304   2.007   0.484 -1.6176  0.8407  0.3079
 6495TIP3   OH219490   1.030   3.438   3.107  0.4604 -0.3533 -0.4392
 6495TIP3    H119491   1.083   3.443   3.187 -0.8839 -0.4400  0.5003
 6495TIP3    H219492   1.008   3.346   3.099  0.7147 -0.3668 -1.0072
 6496TIP3   OH219493   6.020   0.174   4.672  0.3433 -0.6534 -0.3221
 6496TIP3    H119494   6.112   0.159   4.694  0.3344 -0.2087  0.0559
 6496TIP3    H219495   5.990   0.091   4.635  1.0422 -0.6277 -0.9610
 6497TIP3   OH219496   4.350   1.501   2.772  0.6508 -0.5488 -0.3511
 6497TIP3    H119497   4.339   1.406   2.781  1.8100 -0.8343 -1.5656
 6497TIP3    H219498   4.271   1.530   2.727  0.4816 -0.9964 -0.3517
 6498TIP3   OH219499   5.148   0.095   2.637 -0.0831  0.1556  0.4119
 6498TIP3    H119500   5.140   0.007   2.599 -0.2251 -0.9745  2.8587
 6498TIP3    H219501   5.241   0.106   2.653 -0.0203  0.6449 -0.2317
 6499TIP3   OH219502   4.412   5.938   2.265 -0.1265  0.0262 -0.6466
 6499TIP3    H119503   4.343   5.898   2.212 -0.4971 -2.1756  1.3614
 6499TIP3    H219504   4.463   5.865   2.297  0.2433  1.2687  1.8078
 6500TIP3   OH219505   1.275   4.460   3.905 -0.0253  0.1505  0.0311
 6500TIP3    H119506   1.188   4.489   3.877  0.4934  1.8591  0.0619
 6500TIP3    H219507   1.320   4.541   3.931  1.1789 -0.8270  1.1365
 6501TIP3   OH219508   1.977   4.443   2.426  0.6314  0.3301 -0.4032
 6501TIP3    H119509   1.947   4.479   2.510 -3.0113 -1.9230 -0.5324
 6501TIP3    H219510   1.978   4.518   2.367 -1.7127  1.1913  0.5163
 6502TIP3   OH219511   4.342   1.881   4.322  0.3388 -0.3652 -0.1458
 6502TIP3    H119512   4.287   1.948   4.280  0.3654 -0.2043  0.0680
 6502TIP3    H219513   4.372   1.924   4.403  0.2062 -0.7009  0.0841
 6503TIP3   OH219514   2.698   0.228   2.314  0.4230  0.2322  0.0387
 6503TIP3    H119515   2.626   0.167   2.327  1.2590 -0.9364 -0.6600
 6503TIP3    H219516   2.769   0.194   2.369  1.6415 -0.7655 -2.0212
 6504TIP3   OH219517   0.863   1.878   0.434  0.3392  0.4662  0.2817
 6504TIP3    H119518   0.831   1.893   0.345  1.5628  0.4149 -0.1902
 6504TIP3    H219519   0.831   1.954   0.483 -0.2218  0.5735 -0.2323
 6505TIP3   OH219520   3.033   1.901   3.011 -0.0410  0.2202  0.3766
 6505TIP3    H119521   3.060   1.944   2.930  1.3278  1.5951  1.5183
 6505TIP3    H219522   2.937   1.908   3.011  0.0213  1.2918 -0.5153
 6506TIP3   OH219523   5.852   0.930   0.372  0.4685 -0.3611  0.0047
 6506TIP3    H119524   5.859   0.919   0.277  0.6347  1.9687 -0.3152
 6506TIP3    H219525   5.937   0.900   0.406  1.2360  0.8107 -0.8305
 6507TIP3   OH219526   4.410   0.167   0.768  0.6206  0.2496 -0.6103
 6507TIP3    H119527   4.487   0.215   0.735  1.2469  0.5528  1.1415
 6507TIP3    H219528   4.345   0.236   0.785  1.5014  0.5835  1.8566
 6508TIP3   OH219529   2.648   3.047   4.230  0.2642 -0.0034 -0.4328
 6508TIP3    H119530   2.657   3.016   4.140  0.7901  1.4886 -0.9171
 6508TIP3    H219531   2.647   2.967   4.282  0.3836 -0.8826 -1.7167
 6509TIP3   OH219532   1.983   1.021   0.416  0.3331  0.8353  0.1730
 6509TIP3    H119533   1.922   1.095   0.420 -0.1050  0.4695  0.4017
 6509TIP3    H219534   1.939   0.951   0.466 -0.3179 -0.3224 -1.8901
 6510TIP3   OH219535   3.254   5.538   0.064  0.1386 -0.7268  0.1273
 6510TIP3    H119536   3.313   5.464   0.053 -0.1152 -1.1728  1.5755
 6510TIP3    H219537   3.172   5.508   0.024  1.0264  0.1944 -2.6202
 6511TIP3   OH219538   2.031   0.145   1.674  0.2124  0.3407  0.2958
 6511TIP3    H119539   2.071   0.092   1.605  1.1020  0.5232  0.6564
 6511TIP3    H219540   1.992   0.219   1.628 -0.4668 -0.2833 -0.1465
 6512TIP3   OH219541   0.786   1.911   2.882 -0.2562 -0.2420 -0.1573
 6512TIP3    H119542   0.842   1.844   2.922 -0.9900 -0.5343  0.3972
 6512TIP3    H219543   0.834   1.937   2.803  0.2988 -1.0330 -0.0990
 6513TIP3   OH219544   4.328   4.230   2.428 -0.6447 -0.6715 -0.4683
 6513TIP3    H119545   4.290   4.309   2.391  1.6103  1.2298  0.9262
 6513TIP3    H219546   4.398   4.206   2.368 -1.6562 -2.0045 -1.1690
 6514TIP3   OH219547   5.731   2.443   2.259 -0.4377  0.4951 -0.6000
 6514TIP3    H119548   5.711   2.391   2.181  1.2286  1.2948 -1.6262
 6514TIP3    H219549   5.674   2.408   2.327 -1.3362 -0.7958 -1.9613
 6515TIP3   OH219550   2.731   2.715   5.062 -0.7664  0.0652 -0.2334
 6515TIP3    H119551   2.746   2.737   4.970  0.1659  0.8383  0.0942
 6515TIP3    H219552   2.645   2.672   5.062  0.7046 -3.2588 -1.9812
 6516TIP3   OH219553   3.932   1.787   2.444  0.6329 -0.0657  0.3001
 6516TIP3    H119554   3.923   1.786   2.540  2.1145  1.0419  0.4890
 6516TIP3    H219555   4.025   1.806   2.429  0.7247 -1.5691 -1.3719
 6517TIP3   OH219556   4.412   0.303   1.696  0.1211  0.1380  0.0494
 6517TIP3    H119557   4.384   0.226   1.646 -0.1141  0.5495 -0.4524
 6517TIP3    H219558   4.350   0.307   1.769 -0.9773  0.8712 -0.8964
 6518TIP3   OH219559   5.884   4.437   3.104  0.3700  0.2132 -0.1734
 6518TIP3    H119560   5.841   4.440   3.018 -1.3830  1.0972  0.7002
 6518TIP3    H219561   5.858   4.352   3.140 -1.0709  0.9283  0.5351
 6519TIP3   OH219562   3.286   5.011   4.593 -0.0374 -0.2572 -0.4308
 6519TIP3    H119563   3.295   5.106   4.584 -3.4767  0.3793  1.3220
 6519TIP3    H219564   3.356   4.987   4.654  0.0020  1.3930  0.2345
 6520TIP3   OH219565   4.223   0.575   0.760  0.3703 -0.0234 -0.4060
 6520TIP3    H119566   4.146   0.631   0.768 -0.6076 -1.3009 -0.6865
 6520TIP3    H219567   4.282   0.606   0.828 -1.2448 -0.3787  1.2206
 6521TIP3   OH219568   1.927   4.757   4.578 -0.1330 -0.1136 -0.1472
 6521TIP3    H119569   1.915   4.665   4.553  1.2655 -0.3107 -0.1652
 6521TIP3    H219570   1.839   4.787   4.600 -1.0032 -0.7336 -2.5287
 6522TIP3   OH219571   4.718   2.878   3.199  0.1864  0.3360 -0.2857
 6522TIP3    H119572   4.801   2.903   3.239 -0.7440 -0.2809  2.1723
 6522TIP3    H219573   4.664   2.846   3.271 -1.2908 -1.7829 -2.1728
 6523TIP3   OH219574   1.244   2.731   3.431 -0.1113 -0.3930 -0.5872
 6523TIP3    H119575   1.329   2.743   3.474 -0.1753 -0.6417 -0.3828
 6523TIP3    H219576   1.197   2.813   3.446 -0.1226 -0.4689 -0.1990
 6524TIP3   OH219577   1.876   2.086   2.395 -0.5610  0.0425 -0.5774
 6524TIP3    H119578   1.798   2.072   2.343 -0.5049 -0.5744 -0.5042
 6524TIP3    H219579   1.879   2.011   2.455  0.1095  0.0297 -0.6165
 6525TIP3   OH219580   2.738   3.046   1.835 -0.1119 -0.3689 -0.5983
 6525TIP3    H119581   2.734   2.971   1.775 -0.8199 -1.4252  0.6938
 6525TIP3    H219582   2.665   3.102   1.810 -0.6686 -1.0235 -0.4708
 6526TIP3   OH219583   5.943   5.872   4.121  0.0384 -0.1369 -0.1868
 6526TIP3    H119584   5.935   5.889   4.215 -1.5183  0.3779 -0.3840
 6526TIP3    H219585   5.862   5.907   4.084 -0.1592 -1.8661 -1.5057
 6527TIP3   OH219586   0.663   3.775   4.553  0.0985  0.5068  1.0347
 6527TIP3    H119587   0.571   3.766   4.577 -0.0191  3.4716  2.1231
 6527TIP3    H219588   0.704   3.693   4.580 -2.2788 -1.1215 -0.0160
 6528TIP3   OH219589   0.770   4.713   3.751  0.3695 -0.1794  0.2759
 6528TIP3    H119590   0.689   4.669   3.774  0.0186  0.7651  0.9070
 6528TIP3    H219591   0.797   4.758   3.832  0.9359  0.4067 -0.2248
 6529TIP3   OH219592   2.022   3.899   0.308  0.3041 -0.3004  0.1579
 6529TIP3    H119593   2.038   3.986   0.272 -0.3599 -0.2357  0.0164
 6529TIP3    H219594   2.097   3.847   0.278 -0.4613 -0.3755 -1.7243
 6530TIP3   OH219595   4.589   4.175   0.922  0.1516  0.6640 -0.2133
 6530TIP3    H119596   4.624   4.130   0.999 -0.9304  0.1761  0.0194
 6530TIP3    H219597   4.553   4.257   0.956 -1.3156 -0.0409  0.0139
 6531TIP3   OH219598   4.490   5.112   3.034  0.5910  0.0343 -0.4074
 6531TIP3    H119599   4.494   5.075   3.122  0.2028  1.9459  0.4654
 6531TIP3    H219600   4.561   5.069   2.987  1.3454 -0.4140  1.0778
 6532TIP3   OH219601   2.687   5.067   1.265  0.1705 -0.2240  0.4172
 6532TIP3    H119602   2.630   5.081   1.190  0.3625 -0.1667  0.2820
 6532TIP3    H219603   2.643   5.113   1.337 -0.2765 -0.7115  0.4621
 6533TIP3   OH219604   0.086   4.162   3.632  0.0593  0.1971  0.1155
 6533TIP3    H119605   0.134   4.231   3.587  1.4522 -0.0755  1.1106
 6533TIP3    H219606   0.027   4.209   3.691  0.3681  0.5349  0.1606
 6534TIP3   OH219607   6.347   0.843   2.140  0.1516  0.5490 -0.1923
 6534TIP3    H119608   6.342   0.933   2.172  0.7513  0.2166  0.8873
 6534TIP3    H219609   6.351   0.789   2.219 -0.8005 -0.4770 -0.8165
 6535TIP3   OH219610   4.244   0.778   2.172  0.4876 -0.0371  0.2940
 6535TIP3    H119611   4.193   0.838   2.227  0.7691  0.6452 -0.1665
 6535TIP3    H219612   4.203   0.693   2.185  0.8611  0.0156  1.9242
 6536TIP3   OH219613   6.156   2.058   2.091  0.0337 -0.1125 -0.0349
 6536TIP3    H119614   6.073   2.016   2.113  0.0751 -0.6227 -0.7920
 6536TIP3    H219615   6.144   2.150   2.113 -0.4041 -0.3480  0.7299
 6537TIP3   OH219616   3.055   5.050   4.325 -0.2079  0.4621  0.3511
 6537TIP3    H119617   3.115   5.124   4.312  1.2792 -0.4603  1.6930
 6537TIP3    H219618   3.006   5.046   4.243  1.2015  1.5779 -0.6132
 6538TIP3   OH219619   3.861   2.335   2.984  0.9478 -0.3980 -0.5925
 6538TIP3    H119620   3.790   2.314   2.924 -0.6616  0.9630  0.7687
 6538TIP3    H219621   3.852   2.271   3.055  0.2924  0.5190  0.1741
 6539TIP3   OH219622   0.177   3.668   1.963 -0.3204 -0.4176 -0.3640
 6539TIP3    H119623   0.186   3.591   2.018 -1.4756 -0.9836 -0.9274
 6539TIP3    H219624   0.154   3.633   1.877 -1.0850  0.5477 -0.5715
 6540TIP3   OH219625   3.278   1.792   0.013  0.2768 -0.6112 -0.0894
 6540TIP3    H119626   3.321   1.769   0.095  0.9721 -0.5861 -0.4355
 6540TIP3    H219627   3.210   1.726   0.002 -1.7653  1.0268  1.9265
 6541TIP3   OH219628   0.206   1.396   3.074 -0.2099  0.3178 -0.3428
 6541TIP3    H119629   0.220   1.302   3.077 -0.7510  0.2374 -0.0791
 6541TIP3    H219630   0.294   1.434   3.077 -0.0267 -0.1461  1.2543
 6542TIP3   OH219631   4.343   2.964   0.104  0.3272  0.0129 -0.3898
 6542TIP3    H119632   4.392   2.990   0.182  0.5441  1.4698 -0.9784
 6542TIP3    H219633   4.316   2.874   0.121  0.7173  0.1693  1.1883
 6543TIP3   OH219634  -0.005   2.308   4.615  0.3073 -0.0009  0.2577
 6543TIP3    H119635   0.078   2.275   4.650  0.5933 -0.9774 -1.2131
 6543TIP3    H219636  -0.064   2.232   4.618 -0.9259  0.9745  2.3351
 6544TIP3   OH219637   3.984   4.865   1.944  0.2405  0.3375 -0.4494
 6544TIP3    H119638   3.906   4.823   1.908  1.2361 -1.1619 -0.9776
 6544TIP3    H219639   3.955   4.953   1.969 -1.3161  0.2357 -1.7272
 6545TIP3   OH219640   3.515   3.173   2.111  0.2289  0.1586 -0.3465
 6545TIP3    H119641   3.471   3.214   2.185  0.1874 -2.0691  0.9722
 6545TIP3    H219642   3.594   3.133   2.149  0.2307 -1.0076 -1.4917
 6546TIP3   OH219643   3.502   3.802   1.015 -0.1212  0.0381  0.0852
 6546TIP3    H119644   3.533   3.746   1.086  1.2032  1.8987  1.0422
 6546TIP3    H219645   3.563   3.786   0.943  1.0374  1.1296  0.7903
 6547TIP3   OH219646   4.645   3.994   4.560 -0.2243  0.1192  0.0282
 6547TIP3    H119647   4.687   4.008   4.645  0.4290 -0.2867 -0.2171
 6547TIP3    H219648   4.574   4.058   4.558  0.3504  0.7911  0.4802
 6548TIP3   OH219649   2.659   0.134   4.343 -0.0050  0.0417 -0.3363
 6548TIP3    H119650   2.660   0.217   4.391  0.2528  0.3347 -0.8391
 6548TIP3    H219651   2.651   0.160   4.251 -0.4631 -0.5103 -0.4562
 6549TIP3   OH219652   3.336   4.784   0.328 -0.0491 -0.3509 -0.2003
 6549TIP3    H119653   3.243   4.765   0.313  0.0091  0.2196 -1.3769
 6549TIP3    H219654   3.342   4.803   0.421 -1.6527  2.5096 -0.5756
 6550TIP3   OH219655   0.153   4.365   5.124  0.4905 -0.5612  0.1705
 6550TIP3    H119656   0.084   4.300   5.110  0.4183 -0.4871  0.1868
 6550TIP3    H219657   0.197   4.337   5.205  1.6347 -1.6484 -0.7666
 6551TIP3   OH219658   6.263   2.410   0.510 -0.4493 -0.3757 -0.2610
 6551TIP3    H119659   6.270   2.384   0.418 -3.3877  1.3700 -1.1162
 6551TIP3    H219660   6.254   2.328   0.557 -0.5864 -1.2707 -1.7651
 6552TIP3   OH219661   4.292   1.077   2.367 -1.0558 -1.0456  0.1866
 6552TIP3    H119662   4.215   1.021   2.378 -0.6342 -1.6403  0.1744
 6552TIP3    H219663   4.361   1.033   2.416 -0.4161 -1.1523 -0.7696
 6553TIP3   OH219664   0.203   3.498   1.449  0.3704  0.7482 -0.1603
 6553TIP3    H119665   0.256   3.564   1.494 -0.7047  1.0618  0.6924
 6553TIP3    H219666   0.116   3.504   1.490  0.2019 -1.1220 -0.1381
 6554TIP3   OH219667   2.896   1.293   0.717  0.0666  0.2829 -0.1428
 6554TIP3    H119668   2.825   1.252   0.667  1.2531 -0.4682 -1.2795
 6554TIP3    H219669   2.963   1.312   0.652  1.1410  0.4729  0.9826
 6555TIP3   OH219670   4.456   1.020   4.410 -0.4992  0.4122 -0.4268
 6555TIP3    H119671   4.391   0.996   4.476 -0.1954 -0.0111 -0.2731
 6555TIP3    H219672   4.539   0.985   4.444 -0.2250  0.7734 -0.7130
 6556TIP3   OH219673   1.013   5.647   0.588  0.3488 -0.2219 -0.0224
 6556TIP3    H119674   0.998   5.737   0.559  0.0821 -0.0880  0.5127
 6556TIP3    H219675   0.947   5.633   0.656  0.2310 -0.9020 -0.2658
 6557TIP3   OH219676   4.923   3.675   4.669 -0.8740  0.3080 -0.7462
 6557TIP3    H119677   4.970   3.728   4.604 -2.2622 -0.0439 -2.1027
 6557TIP3    H219678   4.955   3.586   4.654 -1.7794  0.0980 -1.5430
 6558TIP3   OH219679   3.267   4.145   2.721 -0.5250 -0.4425  0.3085
 6558TIP3    H119680   3.306   4.057   2.720 -0.4503 -0.4139 -1.2865
 6558TIP3    H219681   3.179   4.132   2.756 -0.7003 -1.2512 -0.4042
 6559TIP3   OH219682   4.347   3.248   0.686 -0.4721  0.0661 -0.3878
 6559TIP3    H119683   4.340   3.278   0.776  0.7727  0.8254 -0.5167
 6559TIP3    H219684   4.320   3.324   0.633 -0.8418 -0.2528 -0.6688
 6560TIP3   OH219685   2.532   4.473   4.313  0.4040 -1.0495  0.0731
 6560TIP3    H119686   2.467   4.409   4.283 -1.0110  0.8157 -1.0126
 6560TIP3    H219687   2.530   4.465   4.408 -0.1540 -2.2202 -0.0136
 6561TIP3   OH219688   5.944   5.251   4.417 -0.0165 -0.1804  0.1758
 6561TIP3    H119689   5.918   5.281   4.505 -3.9683  1.9868 -1.4704
 6561TIP3    H219690   6.013   5.312   4.391  0.6493 -0.3532  1.4810
 6562TIP3   OH219691   6.329   0.474   2.063  0.0587 -0.1129  0.6086
 6562TIP3    H119692   6.279   0.412   2.010  2.1834 -1.9358  0.5972
 6562TIP3    H219693   6.263   0.533   2.100 -1.8868 -1.3820 -0.6779
 6563TIP3   OH219694   5.348   2.204   5.105  0.7089  0.8119  0.2783
 6563TIP3    H119695   5.428   2.203   5.053  1.1046  1.6337  0.8509
 6563TIP3    H219696   5.378   2.188   5.195 -0.0735 -1.7174  0.1565
 6564TIP3   OH219697   3.390   2.815   1.500 -0.6504  0.4482 -0.4357
 6564TIP3    H119698   3.424   2.728   1.477  1.4372  0.6298  1.5336
 6564TIP3    H219699   3.312   2.797   1.552 -0.9361 -0.2070 -1.0751
 6565TIP3   OH219700   2.261   3.938   4.556 -0.8977 -0.3499 -0.3665
 6565TIP3    H119701   2.179   3.892   4.574 -1.2813  0.1027 -0.9088
 6565TIP3    H219702   2.248   4.026   4.591 -0.2157 -0.6010  0.5483
 6566TIP3   OH219703   5.117   3.551   2.266  0.7151 -0.9280 -0.5261
 6566TIP3    H119704   5.137   3.637   2.231  0.9736  0.1065  1.9818
 6566TIP3    H219705   5.022   3.553   2.282  0.7435 -1.0349 -0.3326
 6567TIP3   OH219706   3.999   2.256   0.515  0.0517  0.3985  0.2966
 6567TIP3    H119707   3.964   2.260   0.426 -0.3221  0.9942  0.4690
 6567TIP3    H219708   4.070   2.320   0.516  1.5373 -1.1446 -0.1993
 6568TIP3   OH219709   3.919   5.678   3.506 -0.4254  0.2408 -0.2126
 6568TIP3    H119710   3.930   5.610   3.440 -0.3726  0.3701 -0.3347
 6568TIP3    H219711   3.950   5.637   3.587 -1.2931 -0.2137 -0.1000
 6569TIP3   OH219712   2.513   0.999   3.215  0.7314  0.0098 -0.0780
 6569TIP3    H119713   2.419   0.997   3.232  0.1329 -1.3447 -2.8353
 6569TIP3    H219714   2.545   1.075   3.263 -2.4217  2.7091 -1.7697
 6570TIP3   OH219715   5.778   5.039   4.946  0.0287  0.2321  0.5327
 6570TIP3    H119716   5.726   4.960   4.928  1.3532 -0.8680  1.2936
 6570TIP3    H219717   5.868   5.006   4.957  0.6383  1.8780  0.7439
 6571TIP3   OH219718   5.415   5.079   1.378  0.2144 -0.4065 -0.3715
 6571TIP3    H119719   5.415   4.983   1.377  0.3146 -0.4034 -0.7924
 6571TIP3    H219720   5.429   5.102   1.470  1.7080 -0.8048 -0.4638
 6572TIP3   OH219721   0.726   5.100   2.242 -0.1969  0.0806  0.9222
 6572TIP3    H119722   0.712   5.080   2.150  0.9888 -1.1488  0.9635
 6572TIP3    H219723   0.729   5.014   2.285 -4.0689  0.6176  2.7232
 6573TIP3   OH219724   2.612   5.938   3.466 -0.3467 -0.2285  0.0949
 6573TIP3    H119725   2.634   6.021   3.507  0.0287 -0.6548  0.7924
 6573TIP3    H219726   2.529   5.954   3.422  0.9816  1.2440 -2.0353
 6574TIP3   OH219727   2.790   3.477   0.907 -0.2056 -0.6123  0.1730
 6574TIP3    H119728   2.819   3.495   0.997 -0.0501  1.6228 -0.2613
 6574TIP3    H219729   2.695   3.474   0.912 -0.3377  1.7488  0.1253
 6575TIP3   OH219730   5.084   3.284   1.633 -0.1138 -0.1060 -0.8825
 6575TIP3    H119731   5.014   3.245   1.685 -1.0264 -0.1730 -2.1348
 6575TIP3    H219732   5.051   3.369   1.606  2.0385  1.9384  2.2215
 6576TIP3   OH219733   4.981   3.909   4.933 -0.3655 -0.7369 -0.0585
 6576TIP3    H119734   4.943   3.917   4.846 -0.7743  0.1908  0.1905
 6576TIP3    H219735   5.056   3.850   4.922 -2.1685 -3.0742 -0.4514
 6577TIP3   OH219736   0.400   5.759   1.450  0.2100  0.0862  0.0725
 6577TIP3    H119737   0.407   5.667   1.478  0.2483  0.0072 -0.1945
 6577TIP3    H219738   0.484   5.798   1.476  0.7572 -0.2931 -1.0485
 6578TIP3   OH219739   1.335   4.598   4.212 -0.0918 -0.5356  0.1661
 6578TIP3    H119740   1.274   4.667   4.239 -0.0798  0.0156 -1.1478
 6578TIP3    H219741   1.352   4.616   4.119  1.5012 -1.1137  0.3111
 6579TIP3   OH219742   0.164   2.472   4.449 -0.0082 -0.0965  0.2398
 6579TIP3    H119743   0.081   2.464   4.497  0.5093 -1.3603  0.9776
 6579TIP3    H219744   0.168   2.393   4.396  0.5150  0.1890 -0.1467
 6580TIP3   OH219745   4.540   0.315   4.180  0.3187  0.3137  0.0344
 6580TIP3    H119746   4.540   0.364   4.098 -0.1607 -0.2655 -0.3123
 6580TIP3    H219747   4.630   0.323   4.212  0.0278  2.2674  0.5090
 6581TIP3   OH219748   2.871   2.063   1.340 -0.1207  0.0806 -0.2114
 6581TIP3    H119749   2.849   2.153   1.316  0.1661 -0.2112 -1.7192
 6581TIP3    H219750   2.807   2.010   1.294  1.3406 -0.5874 -1.5733
 6582TIP3   OH219751   3.087   4.344   2.033 -0.2485  0.3874  0.1026
 6582TIP3    H119752   3.171   4.351   1.987  0.3680 -0.3975  1.0702
 6582TIP3    H219753   3.075   4.430   2.074 -1.3517  1.5137 -2.3193
 6583TIP3   OH219754   0.198   4.826   0.696  0.1516  0.4115  0.0839
 6583TIP3    H119755   0.267   4.888   0.672  1.0995  0.0059  1.5874
 6583TIP3    H219756   0.227   4.743   0.658 -0.2943  0.5470 -0.5633
 6584TIP3   OH219757   0.334   1.190   0.557  0.2179 -0.8044 -0.0052
 6584TIP3    H119758   0.292   1.262   0.604  1.2363 -0.6153  0.6448
 6584TIP3    H219759   0.297   1.111   0.596 -0.6894 -0.6448 -0.5233
 6585TIP3   OH219760   0.309   0.747   2.252 -0.3410  0.0219  0.5717
 6585TIP3    H119761   0.385   0.688   2.242  0.7734  1.7605 -2.1423
 6585TIP3    H219762   0.253   0.727   2.177 -0.4859  1.6257  0.2341
 6586TIP3   OH219763   5.122   3.822   0.115 -0.3379  0.1096 -0.1780
 6586TIP3    H119764   5.094   3.914   0.118 -0.0622  0.2007 -0.3254
 6586TIP3    H219765   5.114   3.791   0.205  0.5552  0.5785  0.0678
 6587TIP3   OH219766   5.394   0.679   0.703 -0.1515  0.4988  0.3318
 6587TIP3    H119767   5.370   0.633   0.783  1.5149 -1.1483 -0.0336
 6587TIP3    H219768   5.439   0.758   0.734 -2.4469  1.6279  0.9702
 6588TIP3   OH219769   0.947   3.684   2.172  0.0365 -0.1191 -0.0263
 6588TIP3    H119770   0.943   3.618   2.242 -0.3833 -0.6224 -0.5100
 6588TIP3    H219771   1.004   3.752   2.206 -0.8510  0.0602  1.1658
 6589TIP3   OH219772   1.850   5.177   4.517 -0.1085 -0.1939  0.4492
 6589TIP3    H119773   1.867   5.159   4.610 -0.8829 -0.2230  0.5894
 6589TIP3    H219774   1.777   5.120   4.495  1.4259 -1.8249 -0.7705
 6590TIP3   OH219775   5.583   3.665   1.088  0.3910  0.7467  0.3635
 6590TIP3    H119776   5.641   3.633   1.157 -0.5426  0.4041  1.0074
 6590TIP3    H219777   5.503   3.692   1.134 -0.1495  0.7435 -0.5557
 6591TIP3   OH219778   6.116   0.430   4.089 -0.2953  0.4062  0.3994
 6591TIP3    H119779   6.048   0.371   4.119  0.4472 -0.7802 -0.2011
 6591TIP3    H219780   6.080   0.471   4.010  0.8318 -2.6577 -1.8778
 6592TIP3   OH219781   4.956   2.966   1.354 -0.0519 -0.3018 -0.1140
 6592TIP3    H119782   4.909   3.032   1.304 -0.5095 -0.3055  0.3019
 6592TIP3    H219783   5.034   3.011   1.385 -0.9508  0.4308  1.1907
 6593TIP3   OH219784   2.096   5.599   4.510 -0.2180  0.4202 -0.1964
 6593TIP3    H119785   2.072   5.515   4.548  1.6039  1.2224  3.1553
 6593TIP3    H219786   2.181   5.583   4.468  1.2614  0.9200  2.4146
 6594TIP3   OH219787   5.326   1.085   3.523 -0.3735  0.1068 -0.0124
 6594TIP3    H119788   5.373   1.167   3.539  1.4316 -0.4202 -2.0140
 6594TIP3    H219789   5.250   1.111   3.471 -0.5835  0.6419  0.5482
 6595TIP3   OH219790   4.987   0.596   0.738  0.5674  0.1327 -0.5575
 6595TIP3    H119791   4.927   0.624   0.668 -1.3560  1.0460  1.3304
 6595TIP3    H219792   5.018   0.510   0.710 -0.8792  0.0488 -2.0918
 6596TIP3   OH219793   0.689   5.748   4.586  0.0602 -0.4378  0.0430
 6596TIP3    H119794   0.757   5.706   4.638  1.2435  2.3255  0.9232
 6596TIP3    H219795   0.616   5.762   4.647  0.9020  1.5230  0.6787
 6597TIP3   OH219796   2.147   1.181   0.268  0.1732 -0.1982 -0.2220
 6597TIP3    H119797   2.086   1.143   0.332 -0.2084  1.0026  0.1711
 6597TIP3    H219798   2.123   1.274   0.266 -0.6298 -0.3887 -3.0223
 6598TIP3   OH219799   5.887   2.004   1.305  1.0221  0.1586  0.1149
 6598TIP3    H119800   5.966   2.018   1.252  1.9424 -1.0390  1.1058
 6598TIP3    H219801   5.815   2.023   1.246  2.0501  0.8480 -0.9567
 6599TIP3   OH219802   0.318   4.188   4.021  0.5031 -0.4297  0.4746
 6599TIP3    H119803   0.376   4.123   3.981  0.2354 -1.3183  1.5086
 6599TIP3    H219804   0.329   4.175   4.115  0.3015  0.9039  0.6981
 6600TIP3   OH219805   6.175   0.643   3.222  0.4641 -0.1461  0.3307
 6600TIP3    H119806   6.140   0.682   3.302 -0.7520  0.2074 -0.3481
 6600TIP3    H219807   6.137   0.695   3.151  2.5357  0.3656 -0.4611
 6601TIP3   OH219808   1.997   1.700   0.513  0.5684  0.6072  0.0341
 6601TIP3    H119809   2.009   1.613   0.552  0.3641  0.8577  0.6626
 6601TIP3    H219810   2.051   1.698   0.434  0.5405 -0.1040  0.0244
 6602TIP3   OH219811   5.344   1.460   3.321 -0.2257 -0.3438  0.3967
 6602TIP3    H119812   5.294   1.496   3.395 -0.4686 -1.4776  0.8023
 6602TIP3    H219813   5.279   1.452   3.251  0.2275  1.7504 -0.3426
 6603TIP3   OH219814   3.934   5.519   4.341  0.3691 -0.5164  0.2971
 6603TIP3    H119815   3.892   5.436   4.317  0.0496 -0.2629 -0.0243
 6603TIP3    H219816   3.926   5.574   4.263  0.8458 -0.2824  0.4077
 6604TIP3   OH219817   4.441   1.759   0.228  0.2715 -0.2696 -0.1535
 6604TIP3    H119818   4.423   1.851   0.211 -1.1109 -0.7450 -1.5046
 6604TIP3    H219819   4.484   1.728   0.149  0.5495 -0.8311  0.2114
 6605TIP3   OH219820   4.782   2.826   1.872  0.1969  0.2502  0.2368
 6605TIP3    H119821   4.829   2.828   1.789  0.2170  0.3282  0.2491
 6605TIP3    H219822   4.735   2.743   1.872  1.4632 -0.5109  0.8525
 6606TIP3   OH219823   5.546   4.885   2.924 -0.3445 -0.0141 -0.0666
 6606TIP3    H119824   5.461   4.925   2.903 -1.4555 -1.3416  1.6238
 6606TIP3    H219825   5.524   4.795   2.950  1.2981  0.2029  2.3889
 6607TIP3   OH219826   2.850   2.460   2.061 -0.1088 -0.3900 -0.7342
 6607TIP3    H119827   2.899   2.405   2.000 -0.2805 -0.4240 -0.8442
 6607TIP3    H219828   2.829   2.539   2.011 -0.1190 -0.3528 -0.6714
 6608TIP3   OH219829   4.777   0.922   2.900  0.3805 -0.0593 -0.2065
 6608TIP3    H119830   4.769   0.840   2.949 -0.4604 -0.7605 -1.4533
 6608TIP3    H219831   4.700   0.972   2.926  0.2392 -0.1863 -0.3825
 6609TIP3   OH219832   3.140   2.078   3.484 -0.2807 -0.0622 -0.2172
 6609TIP3    H119833   3.048   2.083   3.510  0.4992 -0.0515  2.9266
 6609TIP3    H219834   3.151   1.987   3.455 -1.2068 -0.1304 -0.4013
 6610TIP3   OH219835   0.301   3.333   3.335 -0.3883  0.3136 -0.6315
 6610TIP3    H119836   0.293   3.303   3.245 -1.2564 -0.7826 -0.2144
 6610TIP3    H219837   0.213   3.324   3.371  0.5296 -2.3168  1.2325
 6611TIP3   OH219838   0.901   1.021   4.139 -0.1581  0.0115 -0.2838
 6611TIP3    H119839   0.955   1.094   4.167 -0.7406  0.4138 -0.1887
 6611TIP3    H219840   0.811   1.054   4.142 -0.3492 -0.3629 -1.2909
 6612TIP3   OH219841   5.451   3.806   1.630  0.4373 -0.4383 -0.1088
 6612TIP3    H119842   5.372   3.788   1.680  1.4366 -1.6749  1.1130
 6612TIP3    H219843   5.484   3.889   1.666  1.2622 -1.4195  1.5206
 6613TIP3   OH219844   3.067   3.589   2.189  0.3657 -0.0001 -0.0227
 6613TIP3    H119845   3.062   3.547   2.275 -2.5053 -2.0320 -1.0066
 6613TIP3    H219846   3.034   3.677   2.203 -1.1943 -0.6820  0.8053
 6614TIP3   OH219847   6.131   5.100   0.479  0.3170  0.8389 -0.3569
 6614TIP3    H119848   6.128   5.046   0.558  0.8437 -0.0491 -0.9230
 6614TIP3    H219849   6.129   5.190   0.511 -2.1891  0.5470  0.5597
 6615TIP3   OH219850   3.365   5.875   0.805  0.1986 -0.3127  0.1824
 6615TIP3    H119851   3.440   5.897   0.749  0.3319  0.3135  0.6009
 6615TIP3    H219852   3.291   5.918   0.763 -0.3780 -2.6536 -1.4461
 6616TIP3   OH219853   0.566   0.662   5.056  0.0378 -0.4705  0.2385
 6616TIP3    H119854   0.607   0.736   5.012  1.9530 -1.1589  0.7662
 6616TIP3    H219855   0.617   0.649   5.136 -1.1988 -1.4258  0.9296
 6617TIP3   OH219856   0.345   0.746   3.279 -0.0163 -0.2072 -0.9756
 6617TIP3    H119857   0.353   0.804   3.355 -0.4088  0.5139 -1.4745
 6617TIP3    H219858   0.298   0.798   3.214 -2.2244 -1.7636 -0.7460
 6618TIP3   OH219859   4.539   0.023   4.657 -0.0113 -0.1300  0.4505
 6618TIP3    H119860   4.466   0.057   4.707  1.5394  0.9131  2.1075
 6618TIP3    H219861   4.564  -0.058   4.702 -1.0495 -1.3238 -1.0130
 6619TIP3   OH219862   6.276   2.451   3.420 -0.5170  0.3808  0.1661
 6619TIP3    H119863   6.299   2.379   3.478 -1.5374 -0.0557  0.0501
 6619TIP3    H219864   6.291   2.417   3.332 -0.2415  0.5839  0.1337
 6620TIP3   OH219865   2.681   1.868   4.020  0.0408 -0.0342 -0.5635
 6620TIP3    H119866   2.637   1.896   4.101  3.0022  0.5661  0.9922
 6620TIP3    H219867   2.723   1.785   4.043 -1.9121 -1.7272 -2.6676
 6621TIP3   OH219868   0.014   5.989   3.879  0.5556 -0.0013 -0.3237
 6621TIP3    H119869  -0.005   5.960   3.968 -3.2336  0.7575 -0.6796
 6621TIP3    H219870   0.042   5.909   3.833  0.4192 -0.8778  1.0585
 6622TIP3   OH219871   4.018   4.635   4.067 -0.2436  0.2002  0.1551
 6622TIP3    H119872   3.936   4.634   4.116 -0.2005 -0.1877  0.2178
 6622TIP3    H219873   4.054   4.547   4.078  0.0251  0.2729 -0.1341
 6623TIP3   OH219874   4.118   5.302   2.718  0.2308  0.5131 -0.6856
 6623TIP3    H119875   4.168   5.272   2.794  0.4086 -1.0224 -1.3763
 6623TIP3    H219876   4.046   5.239   2.711 -0.2071  1.0856 -1.3433
 6624TIP3   OH219877   3.831   1.126   2.082 -0.0895 -0.1801 -0.1739
 6624TIP3    H119878   3.784   1.047   2.111 -0.3807  0.7300  2.0223
 6624TIP3    H219879   3.921   1.112   2.112 -0.2480  0.5007  0.6496
 6625TIP3   OH219880   3.277   2.703   4.330 -0.2044  0.1423  0.2290
 6625TIP3    H119881   3.305   2.792   4.349  1.5043 -0.3460  0.1844
 6625TIP3    H219882   3.182   2.710   4.316 -0.0631  1.9809 -0.0889
 6626TIP3   OH219883   3.539   0.819   1.080 -0.3367 -0.0020  0.0604
 6626TIP3    H119884   3.582   0.737   1.056 -2.3729 -1.5343  1.3275
 6626TIP3    H219885   3.530   0.816   1.175 -1.8178  0.9593 -0.0094
 6627TIP3   OH219886   2.066   0.474   0.173  0.0695 -0.1296  0.1516
 6627TIP3    H119887   2.127   0.442   0.106 -0.8577  0.7016 -1.1400
 6627TIP3    H219888   1.981   0.475   0.129 -0.4197  1.2753  1.0654
 6628TIP3   OH219889   1.445   1.332   4.853  0.3327  0.3339  0.1594
 6628TIP3    H119890   1.425   1.253   4.802  0.0618 -0.1564  0.9967
 6628TIP3    H219891   1.429   1.404   4.793 -1.1629 -0.1750 -0.1095
 6629TIP3   OH219892   1.815   1.488   3.495  0.0073 -0.2115 -0.1719
 6629TIP3    H119893   1.788   1.457   3.409  0.3785  1.4992 -0.9416
 6629TIP3    H219894   1.732   1.502   3.542 -0.2843  0.6619 -0.9232
 6630TIP3   OH219895   0.063   1.839   3.727 -0.6924 -0.0733  0.0754
 6630TIP3    H119896   0.008   1.774   3.771 -0.8805  0.6928  1.0210
 6630TIP3    H219897   0.113   1.879   3.798  1.0974 -0.7227 -0.7582
 6631TIP3   OH219898   4.784   4.913   0.089  0.0453 -0.2088  0.0670
 6631TIP3    H119899   4.737   4.972   0.148  1.6610  0.2012  1.0199
 6631TIP3    H219900   4.779   4.827   0.132  1.6517  0.1870  1.1277
 6632TIP3   OH219901   0.540   5.295   2.340 -0.2525  1.0715 -0.0351
 6632TIP3    H119902   0.613   5.243   2.308 -1.0183 -0.1987  0.2132
 6632TIP3    H219903   0.568   5.386   2.328  0.8068  0.6167 -1.1895
 6633TIP3   OH219904   1.757   2.733   0.739  0.1254  0.5934  0.6121
 6633TIP3    H119905   1.784   2.733   0.647 -0.0509 -1.0589  0.5402
 6633TIP3    H219906   1.787   2.818   0.772 -1.4552  2.0351 -1.4240
 6634TIP3   OH219907   2.269   5.741   4.230 -0.6298  0.8544 -0.3057
 6634TIP3    H119908   2.252   5.805   4.160 -0.5078  1.0893 -0.1210
 6634TIP3    H219909   2.328   5.786   4.290 -0.4993  0.5479 -0.2004
 6635TIP3   OH219910   2.693   4.875   4.473  0.0253  0.7039 -0.3888
 6635TIP3    H119911   2.618   4.926   4.504 -0.3958 -1.0718  1.7222
 6635TIP3    H219912   2.766   4.903   4.528  0.2324  0.3617 -0.4847
 6636TIP3   OH219913   1.349   5.021   3.566 -0.2984  0.6076  0.4592
 6636TIP3    H119914   1.386   5.043   3.480 -0.1760  1.7781  0.7924
 6636TIP3    H219915   1.255   5.016   3.551 -0.1316 -1.2875 -0.1639
 6637TIP3   OH219916   1.028   4.016   2.266 -0.0532 -0.0604 -0.2852
 6637TIP3    H119917   0.952   4.046   2.216 -2.8544 -3.1303  1.7324
 6637TIP3    H219918   1.011   4.043   2.356  1.6157 -0.1983  0.1076
 6638TIP3   OH219919   0.608   2.103   2.779  0.2788 -0.1430 -0.2159
 6638TIP3    H119920   0.636   2.193   2.793  0.4330 -0.1752 -0.3151
 6638TIP3    H219921   0.677   2.050   2.820  2.2073 -0.3355 -3.3333
 6639TIP3   OH219922   6.008   0.747   2.806  0.1111  0.0367  0.4806
 6639TIP3    H119923   6.006   0.777   2.897  1.8121  0.4765  0.4253
 6639TIP3    H219924   6.023   0.653   2.811 -1.1660 -0.1698  0.6437
 6640TIP3   OH219925   3.267   0.043   0.287 -0.1363 -0.1406  0.5223
 6640TIP3    H119926   3.282   0.131   0.322 -1.3127  0.3526 -0.1649
 6640TIP3    H219927   3.323   0.038   0.210 -0.0385 -0.0173  0.5846
 6641TIP3   OH219928   0.224   1.063   0.329  0.0087 -0.3842 -0.2202
 6641TIP3    H119929   0.313   1.027   0.327 -0.2539 -1.0537 -0.2297
 6641TIP3    H219930   0.232   1.142   0.382  0.7575 -0.0104 -0.8621
 6642TIP3   OH219931   2.403   3.816   1.207 -0.1518 -0.2638 -0.4151
 6642TIP3    H119932   2.365   3.794   1.292 -1.7012  1.7977 -0.5030
 6642TIP3    H219933   2.416   3.911   1.210 -0.3077 -0.1279 -2.4847
 6643TIP3   OH219934   1.375   1.604   2.128 -0.9192 -0.3729 -0.2574
 6643TIP3    H119935   1.399   1.674   2.067 -1.6699  2.2792  2.2692
 6643TIP3    H219936   1.437   1.534   2.109  1.2979  1.7676 -1.5513
 6644TIP3   OH219937   4.383   3.482   2.323 -0.6752 -0.5440 -0.5616
 6644TIP3    H119938   4.424   3.461   2.239 -1.1089 -0.9380 -0.6744
 6644TIP3    H219939   4.314   3.545   2.301 -0.3940 -0.1761 -0.4177
 6645TIP3   OH219940   1.011   1.933   4.242  0.4445 -0.0162 -0.4649
 6645TIP3    H119941   0.929   1.954   4.199  0.0301 -2.2130 -0.8373
 6645TIP3    H219942   1.068   2.008   4.223 -1.7222  2.0564  0.6787
   6.34977   5.98662   5.18457   0.00000   0.00000  -2.11659   0.00000  -2.11659  -2.99331
