Title
29212
    1ASP      N    1   3.334   2.029   2.703  0.1717 -0.6950  0.0065
    1ASP    HT1    2   3.325   2.112   2.765  2.7059 -2.1413  2.5450
    1ASP    HT2    3   3.279   2.040   2.616  0.0187  1.1956  0.2938
    1ASP    HT3    4   3.435   2.035   2.680  0.2234  0.8751  0.5078
    1ASP     CA    5   3.306   1.897   2.763  0.1686  0.3466 -0.1129
    1ASP     HA    6   3.324   1.818   2.692  0.5220  1.9784 -1.9232
    1ASP     CB    7   3.398   1.871   2.887  0.8771 -0.0659  0.6000
    1ASP    HB1    8   3.378   1.779   2.946  1.8268 -1.3983 -1.0778
    1ASP    HB2    9   3.396   1.956   2.959  2.9968  0.6722 -0.1154
    1ASP     CG   10   3.535   1.858   2.839 -0.6734 -0.2890  0.3487
    1ASP    OD1   11   3.562   1.886   2.718  0.1293  0.8225  0.1840
    1ASP    OD2   12   3.633   1.831   2.915  0.1446 -0.1074  0.0910
    1ASP      C   13   3.162   1.901   2.811  0.3640 -0.6657 -0.6136
    1ASP      O   14   3.089   2.006   2.818 -0.2019 -0.5798  0.0472
    2GLY      N   15   3.115   1.790   2.859  0.6074  1.0234  0.6256
    2GLY     HN   16   3.177   1.715   2.879 -0.2844  0.9982  3.8040
    2GLY     CA   17   2.977   1.753   2.885  0.4877  1.1821  0.1605
    2GLY    HA1   18   2.935   1.817   2.961 -2.2879 -0.9970  0.6065
    2GLY    HA2   19   2.976   1.647   2.906 -1.5678  0.9884 -0.7090
    2GLY      C   20   2.880   1.769   2.772 -0.7992  0.4408  0.8715
    2GLY      O   21   2.918   1.789   2.656 -0.4764 -0.1601  0.0345
    3ASP      N   22   2.750   1.753   2.801 -0.0757 -1.0851  0.1047
    3ASP     HN   23   2.722   1.744   2.896 -0.3719  1.1442  0.2798
    3ASP     CA   24   2.644   1.774   2.710  0.1885  0.0347 -0.4588
    3ASP     HA   25   2.672   1.722   2.620 -1.9063  1.3419 -1.9643
    3ASP     CB   26   2.504   1.726   2.774 -0.6852 -0.3141 -0.4230
    3ASP    HB1   27   2.420   1.737   2.702 -0.9036  3.7507  0.2631
    3ASP    HB2   28   2.478   1.791   2.859  1.6194 -0.5088  0.5036
    3ASP     CG   29   2.508   1.581   2.803 -0.5521  0.3850 -0.5161
    3ASP    OD1   30   2.468   1.543   2.915 -0.3869 -0.0723  0.1759
    3ASP    OD2   31   2.552   1.501   2.719 -0.1757  0.1098  0.2756
    3ASP      C   32   2.621   1.920   2.667  0.2276 -0.4678 -0.2412
    3ASP      O   33   2.636   2.020   2.740 -0.0690  0.2188 -0.3541
    4GLY      N   34   2.578   1.941   2.541  0.0213 -0.2848 -0.2408
    4GLY     HN   35   2.581   1.873   2.467  1.6612  1.1303 -1.5631
    4GLY     CA   36   2.517   2.062   2.477  0.2488  0.9038 -0.8378
    4GLY    HA1   37   2.489   2.027   2.379 -2.6795  1.1706 -0.1948
    4GLY    HA2   38   2.596   2.136   2.477  0.3435  0.8568  0.7887
    4GLY      C   39   2.388   2.116   2.538  0.2888 -0.3438 -0.6484
    4GLY      O   40   2.323   2.053   2.631  0.1461 -0.2158  0.3488
    5PRO      N   41   2.347   2.230   2.482  0.1031 -0.8963 -0.1925
    5PRO     CD   42   2.391   2.281   2.352  0.4341  0.0147 -0.2065
    5PRO    HD1   43   2.354   2.205   2.279 -1.3890 -1.2107  1.8979
    5PRO    HD2   44   2.502   2.287   2.353  0.4218  0.2649 -0.1707
    5PRO     CA   45   2.222   2.298   2.520  0.6045 -0.1607  0.6608
    5PRO     HA   46   2.250   2.338   2.616  1.1012  1.4123 -0.0989
    5PRO     CB   47   2.195   2.411   2.416 -0.4304 -0.1459  0.0599
    5PRO    HB1   48   2.154   2.504   2.461 -0.8379  0.0738 -0.7420
    5PRO    HB2   49   2.114   2.382   2.346 -1.1022  1.5377  0.1012
    5PRO     CG   50   2.329   2.416   2.333  0.2308 -0.3692 -0.9117
    5PRO    HG1   51   2.310   2.425   2.224 -1.7888  0.0456 -0.5761
    5PRO    HG2   52   2.402   2.474   2.394 -1.3650 -0.8235  1.5557
    5PRO      C   53   2.097   2.213   2.546 -0.1686  0.0662  0.4764
    5PRO      O   54   2.053   2.140   2.460  0.0049 -0.1451 -0.9315
    6GLY      N   55   2.034   2.226   2.667  0.3175 -1.3249  1.0148
    6GLY     HN   56   2.058   2.305   2.722 -1.7436  0.6077 -0.6880
    6GLY     CA   57   1.930   2.130   2.723 -0.4184  0.1823  0.7710
    6GLY    HA1   58   1.964   2.139   2.825  2.6700 -1.3626  0.0254
    6GLY    HA2   59   1.941   2.033   2.677 -0.1158  0.2540  0.6851
    6GLY      C   60   1.790   2.176   2.692  0.9670 -0.0477  0.1466
    6GLY      O   61   1.768   2.288   2.643 -0.0210 -0.2129 -0.0328
    7ASP      N   62   1.688   2.094   2.738 -0.2237 -0.4236  0.2184
    7ASP     HN   63   1.709   2.014   2.792 -0.2398  0.0759  0.9711
    7ASP     CA   64   1.549   2.123   2.718  0.1495  0.3626  0.1553
    7ASP     HA   65   1.539   2.193   2.637 -3.0861 -0.1714 -0.0362
    7ASP     CB   66   1.476   1.997   2.659 -1.1805  0.1265 -0.0104
    7ASP    HB1   67   1.366   2.017   2.654 -1.1346  0.1668 -1.3766
    7ASP    HB2   68   1.499   1.917   2.732 -1.0212  1.5237  1.5388
    7ASP     CG   69   1.510   1.959   2.513 -0.5894  0.4552 -0.2974
    7ASP    OD1   70   1.506   1.835   2.488 -0.0215 -0.4449 -0.4999
    7ASP    OD2   71   1.557   2.047   2.436 -0.1261 -0.0099  0.0523
    7ASP      C   72   1.481   2.192   2.840 -0.4565  0.0713 -0.6309
    7ASP      O   73   1.535   2.176   2.947 -0.1510  0.2368 -0.5542
    8PRO      N   74   1.368   2.258   2.823 -0.3446 -0.1140  0.2072
    8PRO     CD   75   1.304   2.303   2.695 -0.8498 -0.2136 -0.7559
    8PRO    HD1   76   1.305   2.225   2.616  1.0765 -0.8355 -0.1810
    8PRO    HD2   77   1.369   2.379   2.647 -1.9304  0.4491 -1.1797
    8PRO     CA   78   1.315   2.330   2.933 -0.1640  0.6784 -0.0398
    8PRO     HA   79   1.392   2.365   3.000  0.2363 -0.0075 -0.1351
    8PRO     CB   80   1.225   2.432   2.870  0.4770 -0.7768 -0.1425
    8PRO    HB1   81   1.295   2.510   2.834  2.3342 -2.8390 -1.2597
    8PRO    HB2   82   1.149   2.482   2.933 -1.6152 -1.8156 -1.7031
    8PRO     CG   83   1.175   2.353   2.754  0.9226  0.7889  0.1705
    8PRO    HG1   84   1.100   2.275   2.777  0.9398  0.1647 -1.7128
    8PRO    HG2   85   1.124   2.417   2.679  0.0018  0.8808  0.8653
    8PRO      C   86   1.226   2.241   3.024  0.3644 -0.0379  0.7066
    8PRO      O   87   1.154   2.289   3.110  0.5521 -0.3785 -0.0915
    9GLY      N   88   1.229   2.112   3.013 -0.8297  0.8199 -0.4277
    9GLY     HN   89   1.293   2.068   2.951 -0.2946 -0.9304  1.2691
    9GLY     CA   90   1.146   2.024   3.094 -0.2837  1.2083 -0.5028
    9GLY    HA1   91   1.159   1.927   3.047  0.5079  0.4620  1.1855
    9GLY    HA2   92   1.043   2.050   3.112 -0.2955 -0.9026  3.5756
    9GLY      C   93   1.208   2.003   3.233 -0.6283  0.0940 -0.5205
    9GLY      O   94   1.312   2.050   3.281  0.1184  0.3695  0.5543
   10ASP      N   95   1.135   1.929   3.321  0.0462 -0.0930  0.3586
   10ASP     HN   96   1.051   1.887   3.290 -0.0641  0.2286  0.2140
   10ASP     CA   97   1.175   1.905   3.456 -0.2396  0.3478  0.2394
   10ASP     HA   98   1.216   2.000   3.485 -1.2945  0.4781  1.4389
   10ASP     CB   99   1.050   1.860   3.546  0.5566  0.3944  0.8660
   10ASP    HB1  100   1.083   1.817   3.643  0.2647 -0.3246  0.6533
   10ASP    HB2  101   0.987   1.782   3.497  1.5778  0.1034 -0.0087
   10ASP     CG  102   0.955   1.972   3.576  0.1246 -0.5899  0.3633
   10ASP    OD1  103   0.991   2.090   3.553 -0.2518 -0.7527 -0.4071
   10ASP    OD2  104   0.841   1.946   3.623 -0.6363 -0.0210 -0.3987
   10ASP      C  105   1.288   1.795   3.479 -0.4942  0.2466  0.2897
   10ASP      O  106   1.300   1.689   3.414 -0.0105  0.2215  0.3299
   11GLY      N  107   1.375   1.821   3.574 -0.6018  0.1994  0.1705
   11GLY     HN  108   1.374   1.908   3.623 -0.3919  0.0842  0.3813
   11GLY     CA  109   1.491   1.738   3.611  0.3336  0.2696 -0.4252
   11GLY    HA1  110   1.553   1.730   3.523  0.5644  0.5176 -0.2863
   11GLY    HA2  111   1.453   1.648   3.657  0.4516  1.4580  2.1937
   11GLY      C  112   1.582   1.816   3.708  0.2924 -0.4998 -0.5326
   11GLY    OT1  113   1.698   1.770   3.728  0.8127  0.1844  0.0497
   11GLY    OT2  114   1.545   1.926   3.761  0.4547 -0.2400 -0.0866
   12LIT    LIT  115   0.210   1.430   1.137  0.2516 -0.6116  0.0409
   13LIT    LIT  116   5.957   1.014   1.030  0.1971  1.3310  0.5749
   14LIT    LIT  117   0.642   5.369   0.452  0.7798 -0.4563 -0.2369
   15LIT    LIT  118   6.505   4.155   3.063  0.7941 -0.6609 -0.0832
   16LIT    LIT  119   1.711   1.974   3.827  0.0210  0.9160  0.1933
   17LIT    LIT  120   3.546   5.270   3.842 -0.8515  0.4436  0.1629
   18LIT    LIT  121   2.806   3.564   2.692  0.5222  0.2721  0.3758
   19LIT    LIT  122   6.352   0.154   4.872  0.3582  0.3180  0.1359
   20LIT    LIT  123   0.317   0.094   4.675  0.7667  0.2785 -0.4014
   21LIT    LIT  124   0.977   4.846   4.513 -0.7953  0.5393 -0.3953
   22LIT    LIT  125   5.723   1.910   4.406 -0.3462 -1.1302 -0.6248
   23LIT    LIT  126   4.704   1.920   1.688 -0.2342 -0.2020 -0.5480
   24LIT    LIT  127   2.403   6.218   0.695 -0.0460  0.4702  0.3379
   25LIT    LIT  128   0.180   3.503   1.860  0.3024 -0.5469 -0.2541
   26LIT    LIT  129   0.836   2.147   3.668  0.4684  0.3985  0.6209
   27LIT    LIT  130   5.555   5.966   4.425  0.1087  0.8137 -0.2974
   28LIT    LIT  131   4.876   0.302   5.201  0.5695  0.2072  0.1240
   29LIT    LIT  132   6.603   2.355   2.394 -0.1672  1.1813  1.0906
   30LIT    LIT  133   1.109   0.185   1.262 -0.2805 -1.2278 -1.9738
   31LIT    LIT  134   5.773   3.065   0.544 -0.0959  0.1030 -0.5436
   32LIT    LIT  135   6.519   4.522   5.635  0.2068 -0.1770 -0.8712
   33LIT    LIT  136   2.600   4.773   2.591 -0.9915 -0.7333  0.6011
   34LIT    LIT  137   6.861   3.137   5.373  0.3853  0.0963 -0.0117
   35LIT    LIT  138   0.551   2.295   2.049 -0.4255 -0.0511 -0.7804
   36LIT    LIT  139   6.642   6.339   1.916 -0.3342 -0.5180  0.0676
   37LIT    LIT  140   2.866   3.789   4.582 -0.0062  0.6091 -0.8472
   38LIT    LIT  141   0.760   0.619   0.322 -0.9299  0.3495 -1.0032
   39LIT    LIT  142   3.751   1.906   2.767  0.9467 -0.3969 -0.0017
   40LIT    LIT  143   3.439   6.319   1.942 -0.8278  0.9765 -0.1644
   41LIT    LIT  144   3.891   2.044   3.612  0.2713 -0.3921  0.0279
   42LIT    LIT  145   2.562   1.374   2.869 -0.9605 -0.0452  0.0677
   43CLA    CLA  146   3.277   6.157   1.977  0.0382 -0.3938  0.4871
   44CLA    CLA  147   0.016   4.788   4.600  0.0750 -0.1903 -0.1800
   45CLA    CLA  148   2.724   2.851   2.743  0.1486  0.2995  0.0944
   46CLA    CLA  149   3.953   1.193   5.169 -0.2577  0.2355  0.0937
   47CLA    CLA  150   7.071   1.102   3.143  0.1912  0.3150 -0.1268
   48CLA    CLA  151   0.445   0.214   2.520 -0.3731 -0.0050 -0.1865
   49CLA    CLA  152   1.067   2.936   4.228  0.0179 -0.1202  0.0464
   50CLA    CLA  153   6.616   3.320   2.290 -0.2793  0.2105 -0.2065
   51CLA    CLA  154   3.548   6.045   1.615  0.0337 -0.2283  0.0026
   52CLA    CLA  155   1.126   4.820   4.905  0.1449 -0.4617 -0.3531
   53CLA    CLA  156   3.301   0.808   3.205 -0.1613  0.0036 -0.2269
   54CLA    CLA  157   2.100   0.887   0.871 -0.5572 -0.1425 -0.3138
   55CLA    CLA  158   0.302   2.715   5.506 -0.5429  0.1474 -0.1289
   56CLA    CLA  159   1.560   0.365   2.814  0.1305 -0.3037  0.1238
   57CLA    CLA  160   5.747   6.768   4.883 -0.0109 -0.0568  0.3532
   58CLA    CLA  161   2.440   4.603   2.617  0.1955  0.4460 -0.3928
   59CLA    CLA  162   5.329   1.895   1.367  0.0232 -0.2959 -0.0464
   60CLA    CLA  163   1.990   6.390   1.184  0.2149 -0.0983  0.1144
   61CLA    CLA  164   0.514   2.076   2.002  0.1464  0.4681  0.2446
   62CLA    CLA  165   1.700   1.297   2.204 -0.4960 -0.2725 -0.1771
   63CLA    CLA  166   1.953   5.591   4.600  0.2123  0.6485  0.0491
   64CLA    CLA  167   6.759   1.216   4.752 -0.1162  0.0264  0.5359
   65CLA    CLA  168   2.070   6.772   0.880 -0.0749  0.1752 -0.0486
   66CLA    CLA  169   6.802   4.340   1.611 -0.0595 -0.1656 -0.0444
   67CLA    CLA  170   0.893   4.399   4.880 -0.4770 -0.2966  0.0497
   68CLA    CLA  171   4.322   2.539   3.203  0.2234 -0.0330 -0.3172
   69CLA    CLA  172   2.817   5.937   4.683 -0.0231  0.0144  0.0163
   70TIP3   OH2  173   1.591   3.355   1.962  0.2036  0.6435 -0.4924
   70TIP3    H1  174   1.533   3.294   1.915 -1.0532  1.6251 -0.2584
   70TIP3    H2  175   1.619   3.418   1.895  1.5837 -0.2075 -0.7574
   71TIP3   OH2  176   1.883   1.635   0.855 -0.3387 -0.7322 -0.3976
   71TIP3    H1  177   1.790   1.615   0.843 -0.2094 -0.6837 -1.6265
   71TIP3    H2  178   1.888   1.730   0.853 -0.1564 -0.7503 -1.3666
   72TIP3   OH2  179   6.762   5.495   5.609  0.1277 -0.0985 -0.0882
   72TIP3    H1  180   6.689   5.494   5.546  0.1224  0.6775 -0.0974
   72TIP3    H2  181   6.759   5.582   5.647  0.8417 -0.1874  0.1674
   73TIP3   OH2  182   5.065   0.705   4.125 -0.0175 -0.6448 -0.4004
   73TIP3    H1  183   5.026   0.783   4.166 -3.3260 -0.6904 -2.9611
   73TIP3    H2  184   5.148   0.735   4.089 -0.0112  0.9974  0.8887
   74TIP3   OH2  185   2.383   2.554   4.682 -0.2241  0.5433 -0.1322
   74TIP3    H1  186   2.412   2.626   4.738 -1.0085  0.5418  0.2913
   74TIP3    H2  187   2.333   2.597   4.613 -0.9871  0.3931  0.3115
   75TIP3   OH2  188   5.864   3.015   1.258  0.0356 -0.5447 -0.5846
   75TIP3    H1  189   5.903   3.054   1.180 -1.9098  0.0206 -1.3327
   75TIP3    H2  190   5.891   3.073   1.329  1.8811 -1.1047 -0.7795
   76TIP3   OH2  191   4.796   3.809   5.043 -0.2646  0.0687 -0.1742
   76TIP3    H1  192   4.871   3.868   5.032  0.2442 -0.0585  2.0757
   76TIP3    H2  193   4.720   3.867   5.049  0.3370  0.7365  3.0318
   77TIP3   OH2  194   5.894   5.050   2.505  0.1964 -0.1869 -0.0603
   77TIP3    H1  195   5.954   5.034   2.577  0.0925  1.2971  0.3876
   77TIP3    H2  196   5.907   5.143   2.483 -0.2653 -0.4349 -1.4858
   78TIP3   OH2  197   4.601   2.506   3.820 -0.3685  0.1833  0.8451
   78TIP3    H1  198   4.561   2.495   3.906 -0.8290 -0.3272  0.5705
   78TIP3    H2  199   4.691   2.475   3.831 -0.5231 -0.1979  1.0545
   79TIP3   OH2  200   1.519   5.928   2.421 -0.8029 -0.5988  0.4240
   79TIP3    H1  201   1.603   5.911   2.464 -0.8937 -0.9546  0.4630
   79TIP3    H2  202   1.534   6.008   2.370  0.0050 -1.4784 -0.7689
   80TIP3   OH2  203   1.693   0.228   3.060  0.0130  0.5348  0.1518
   80TIP3    H1  204   1.622   0.246   3.123 -1.0735 -1.5359 -0.3929
   80TIP3    H2  205   1.656   0.252   2.975 -0.5438 -1.6541 -0.2788
   81TIP3   OH2  206   6.033   2.105   2.119  0.0611 -0.1723 -0.1738
   81TIP3    H1  207   6.099   2.174   2.108  0.2922 -0.3496  0.0667
   81TIP3    H2  208   6.077   2.026   2.088  0.2298 -0.4250  0.6896
   82TIP3   OH2  209   3.473   3.048   4.720 -0.3400  0.2937 -0.5330
   82TIP3    H1  210   3.501   3.107   4.790  0.3172  1.7582 -1.9700
   82TIP3    H2  211   3.511   2.963   4.743 -1.0070  0.4765  1.3979
   83TIP3   OH2  212   2.037   6.165   5.336 -0.4028  0.0993 -0.1959
   83TIP3    H1  213   2.087   6.090   5.304  1.1800  0.3437  1.5118
   83TIP3    H2  214   1.949   6.131   5.352  0.3465 -1.4823  0.8003
   84TIP3   OH2  215   7.081   5.583   5.490 -0.0683  0.0060 -0.2972
   84TIP3    H1  216   7.025   5.649   5.531 -0.1628  1.3696 -2.4564
   84TIP3    H2  217   7.037   5.500   5.508 -2.3596  0.9444 -1.1406
   85TIP3   OH2  218   0.786   1.405   3.007  0.0309 -0.0684 -0.2695
   85TIP3    H1  219   0.744   1.394   2.922 -0.1736  1.1147 -0.3411
   85TIP3    H2  220   0.714   1.395   3.071  0.1276 -0.6331 -0.2389
   86TIP3   OH2  221   2.543   0.448   0.593 -0.2121 -0.0482  0.2084
   86TIP3    H1  222   2.488   0.377   0.561  1.1961 -0.8492 -0.5547
   86TIP3    H2  223   2.483   0.509   0.636 -1.6217 -1.0224 -0.3364
   87TIP3   OH2  224   5.837   4.110   2.157  0.1341 -0.9371  0.2432
   87TIP3    H1  225   5.826   4.041   2.092  0.0521  1.2288 -2.2461
   87TIP3    H2  226   5.857   4.188   2.105 -0.9984  1.1872  2.7607
   88TIP3   OH2  227   1.142   4.167   5.199 -0.4086 -0.2842  0.4449
   88TIP3    H1  228   1.090   4.237   5.160  1.1562  0.9326  0.4533
   88TIP3    H2  229   1.229   4.205   5.212 -0.0237 -1.6335  2.2589
   89TIP3   OH2  230   1.375   5.568   0.840 -0.1160  0.2051 -0.4550
   89TIP3    H1  231   1.377   5.642   0.901  2.0132  0.1123 -0.3294
   89TIP3    H2  232   1.339   5.496   0.891 -2.0596  1.0615 -0.5293
   90TIP3   OH2  233   2.770   2.635   1.482  0.3350 -0.1286 -0.6271
   90TIP3    H1  234   2.704   2.687   1.528  0.0657 -0.9416 -0.0611
   90TIP3    H2  235   2.850   2.687   1.487  0.0967  0.1897  0.0255
   91TIP3   OH2  236   6.465   2.149   5.070  0.1172  0.1505  0.2060
   91TIP3    H1  237   6.553   2.116   5.088  0.0048 -1.6198 -2.0141
   91TIP3    H2  238   6.406   2.076   5.093 -0.3863 -0.2428 -2.1062
   92TIP3   OH2  239   0.329   6.551   0.100  0.0300 -0.0090 -0.3903
   92TIP3    H1  240   0.277   6.502   0.164  2.3783 -3.6036 -0.9914
   92TIP3    H2  241   0.271   6.559   0.024 -0.9097 -0.5330  0.2432
   93TIP3   OH2  242   1.711   1.191   5.610  0.2874 -0.1532  0.3003
   93TIP3    H1  243   1.623   1.224   5.592 -0.1721 -1.4550  0.0318
   93TIP3    H2  244   1.755   1.192   5.525  0.7475  1.0665  0.5408
   94TIP3   OH2  245   0.490   0.927   5.885  0.0658  0.2399  0.5783
   94TIP3    H1  246   0.497   0.839   5.921 -0.8848 -0.5944 -1.1382
   94TIP3    H2  247   0.429   0.918   5.811  3.1169  1.4319 -2.3555
   95TIP3   OH2  248   1.022   0.450   1.654 -0.9409 -0.2020 -0.0665
   95TIP3    H1  249   1.098   0.458   1.596 -2.1948  1.1182 -1.6375
   95TIP3    H2  250   0.947   0.444   1.594 -2.0614 -2.5354  1.3942
   96TIP3   OH2  251   3.582   4.369   3.689 -0.3184 -0.8740 -0.0899
   96TIP3    H1  252   3.615   4.387   3.601 -0.1788 -1.8282 -0.2421
   96TIP3    H2  253   3.587   4.274   3.697 -1.3821 -0.8914  0.5381
   97TIP3   OH2  254   6.597   4.431   2.703 -0.1711 -0.2835 -0.2948
   97TIP3    H1  255   6.584   4.349   2.752 -0.2562  0.2866  0.6667
   97TIP3    H2  256   6.662   4.409   2.636 -1.0668 -1.4410 -0.8257
   98TIP3   OH2  257   2.130   5.064   1.640  0.1063  0.3759 -0.1006
   98TIP3    H1  258   2.130   4.977   1.680 -0.7063  1.6705  3.0239
   98TIP3    H2  259   2.143   5.048   1.547  0.5582 -3.0271  0.4347
   99TIP3   OH2  260   1.195   2.965   3.581 -0.0238  0.0678 -0.3470
   99TIP3    H1  261   1.192   2.954   3.676 -0.1746 -1.8418 -0.5251
   99TIP3    H2  262   1.146   3.045   3.565  0.8280  0.9663  1.2371
  100TIP3   OH2  263   0.856   3.421   3.619  0.0620  0.2587 -0.4915
  100TIP3    H1  264   0.814   3.419   3.706 -0.8947  2.7455 -0.7985
  100TIP3    H2  265   0.786   3.451   3.560  1.1368  0.2275 -1.8163
  101TIP3   OH2  266   6.504   4.808   4.924  0.1939 -0.0924 -0.4818
  101TIP3    H1  267   6.471   4.884   4.877  0.1400 -0.1228 -0.4947
  101TIP3    H2  268   6.594   4.829   4.945  0.9094 -0.9146 -2.4482
  102TIP3   OH2  269   2.909   0.896   3.895  0.1098 -0.3216 -0.1426
  102TIP3    H1  270   2.876   0.889   3.805 -2.1784 -0.9675  0.6637
  102TIP3    H2  271   2.865   0.825   3.942  0.5082  0.5829  1.6906
  103TIP3   OH2  272   0.169   1.093   2.303 -0.0843  0.6286 -0.2938
  103TIP3    H1  273   0.091   1.048   2.270 -0.6440  1.4489 -0.1236
  103TIP3    H2  274   0.194   1.152   2.232 -0.7939  1.7860  0.3829
  104TIP3   OH2  275   1.244   2.365   1.020 -0.0286  0.3227 -0.1499
  104TIP3    H1  276   1.325   2.328   0.984 -0.9654 -0.1730 -1.8567
  104TIP3    H2  277   1.262   2.376   1.114  1.0012 -2.5459  0.0716
  105TIP3   OH2  278   1.932   0.279   3.497 -0.7664 -0.7514  0.1135
  105TIP3    H1  279   1.957   0.239   3.580  1.1475 -1.7744 -0.8611
  105TIP3    H2  280   1.903   0.205   3.443  1.2692 -0.6854 -1.1887
  106TIP3   OH2  281   2.303   3.785   1.302  0.3243  0.2615 -0.2232
  106TIP3    H1  282   2.208   3.798   1.305  0.1386 -1.1016  0.8981
  106TIP3    H2  283   2.340   3.873   1.305 -0.8394  0.7762  3.2757
  107TIP3   OH2  284   5.772   2.939   4.654  0.0079 -0.2905 -0.3290
  107TIP3    H1  285   5.677   2.928   4.652 -0.2494  1.5520 -2.5397
  107TIP3    H2  286   5.789   3.015   4.598  2.6511  0.7205  1.6101
  108TIP3   OH2  287   1.418   4.569   1.222 -0.6489  0.0500  0.4626
  108TIP3    H1  288   1.405   4.664   1.219  0.1071  0.1540  0.3949
  108TIP3    H2  289   1.466   4.549   1.141 -1.0404 -0.4283  0.3465
  109TIP3   OH2  290   2.294   4.161   0.516 -0.0524 -0.5752  0.0419
  109TIP3    H1  291   2.277   4.097   0.585  2.1114 -0.2842  0.9346
  109TIP3    H2  292   2.228   4.229   0.530 -0.0476 -0.8258  1.4817
  110TIP3   OH2  293   4.309   3.882   3.693 -0.3437 -0.0013  0.0662
  110TIP3    H1  294   4.230   3.937   3.697 -0.4929  0.0908 -2.6319
  110TIP3    H2  295   4.381   3.945   3.689 -0.3078 -0.0437  0.0507
  111TIP3   OH2  296   3.161   6.127   3.885 -0.0845  0.4853  0.1718
  111TIP3    H1  297   3.123   6.083   3.809 -1.4902 -0.0144  1.1352
  111TIP3    H2  298   3.214   6.197   3.847 -0.5874  0.1198 -1.2835
  112TIP3   OH2  299   4.884   3.503   4.573  0.0059 -0.7263  0.1585
  112TIP3    H1  300   4.908   3.512   4.481 -0.9906  0.2063 -0.0334
  112TIP3    H2  301   4.840   3.419   4.579  0.4499 -0.9821 -0.1334
  113TIP3   OH2  302   3.779   1.732   1.554  0.3511 -0.3498 -0.1784
  113TIP3    H1  303   3.764   1.638   1.566  0.7457 -0.4575 -0.5195
  113TIP3    H2  304   3.874   1.740   1.551  0.5111  0.4441  3.0746
  114TIP3   OH2  305   2.743   4.460   0.527  0.0987  0.0724 -0.2773
  114TIP3    H1  306   2.770   4.412   0.450 -0.2949  0.6202 -0.7686
  114TIP3    H2  307   2.660   4.421   0.552  1.4618 -1.9162  1.5021
  115TIP3   OH2  308   4.342   5.692   3.243  0.1374  0.0010 -0.3893
  115TIP3    H1  309   4.293   5.612   3.223 -1.0475  0.2019  1.3797
  115TIP3    H2  310   4.283   5.763   3.217 -0.6931  0.2480  1.8997
  116TIP3   OH2  311   0.408   4.562   5.278 -0.5532 -0.3024 -0.1854
  116TIP3    H1  312   0.475   4.539   5.342  0.9197  0.1983 -1.5020
  116TIP3    H2  313   0.415   4.494   5.210  1.7170  2.0635 -2.5365
  117TIP3   OH2  314   6.337   3.494   4.085  0.4458  0.0657 -0.3944
  117TIP3    H1  315   6.271   3.508   4.153  2.0488  1.6313  0.9228
  117TIP3    H2  316   6.397   3.568   4.094  0.3027  0.8260 -4.1079
  118TIP3   OH2  317   4.793   5.461   0.753 -0.5726 -0.0004  0.1508
  118TIP3    H1  318   4.767   5.527   0.689 -1.8444 -1.2148 -0.6553
  118TIP3    H2  319   4.726   5.392   0.744  1.1397 -1.7717  0.3444
  119TIP3   OH2  320   2.889   3.662   3.855  0.0737  1.0092 -0.3104
  119TIP3    H1  321   2.919   3.721   3.924 -0.0367 -1.1070  1.7026
  119TIP3    H2  322   2.968   3.617   3.825  0.0341  1.4773 -1.1197
  120TIP3   OH2  323   6.370   0.602   2.106 -0.0188 -0.6360 -0.3087
  120TIP3    H1  324   6.286   0.647   2.117  1.6180  2.2975  1.3859
  120TIP3    H2  325   6.400   0.629   2.019  1.1795  2.1932  0.8894
  121TIP3   OH2  326   7.212   2.396   2.986  0.7006 -0.0342 -0.5277
  121TIP3    H1  327   7.229   2.328   3.051  2.0911  0.9836  0.2293
  121TIP3    H2  328   7.117   2.393   2.972  0.6286 -1.5208  0.1477
  122TIP3   OH2  329   4.383   5.205   3.620  0.3991 -0.8970  0.3223
  122TIP3    H1  330   4.335   5.247   3.548 -1.1517 -0.3108  1.6208
  122TIP3    H2  331   4.461   5.260   3.632 -1.0042  1.0059  1.2075
  123TIP3   OH2  332   0.086   6.361   1.232 -0.5913 -0.3913 -0.2233
  123TIP3    H1  333   0.100   6.387   1.323 -1.5315  0.4896 -0.3132
  123TIP3    H2  334   0.056   6.270   1.238 -2.0862  0.1090  0.4863
  124TIP3   OH2  335   6.068   1.421   3.595 -0.5122 -0.6945  0.4890
  124TIP3    H1  336   6.038   1.420   3.504  0.4178 -0.2201  0.1689
  124TIP3    H2  337   6.123   1.499   3.602 -0.9970 -0.4231  1.6073
  125TIP3   OH2  338   4.929   4.127   0.157  0.3009 -0.6091 -0.1682
  125TIP3    H1  339   4.844   4.083   0.148  0.5142 -0.9111 -0.7677
  125TIP3    H2  340   4.921   4.179   0.237 -0.1219 -1.3869  0.3125
  126TIP3   OH2  341   3.104   4.756   3.636 -0.1514  0.2078  0.0914
  126TIP3    H1  342   3.103   4.747   3.540  1.4006  0.5756  0.0113
  126TIP3    H2  343   3.017   4.789   3.658 -0.5196  0.1545 -1.1953
  127TIP3   OH2  344   6.062   2.145   3.382  0.7555 -0.0511 -0.8113
  127TIP3    H1  345   6.023   2.191   3.307 -0.8648 -0.7549 -0.4428
  127TIP3    H2  346   6.020   2.059   3.382  0.3454  0.0990  1.1688
  128TIP3   OH2  347   0.565   1.685   5.136 -0.2492 -0.1904 -0.6820
  128TIP3    H1  348   0.639   1.713   5.082 -0.2315  2.1100  0.3958
  128TIP3    H2  349   0.489   1.727   5.096 -0.3873  0.6218  0.3615
  129TIP3   OH2  350   4.229   0.447   1.810 -0.3496 -0.0968 -0.1619
  129TIP3    H1  351   4.317   0.483   1.803  0.9457 -2.2469  2.7761
  129TIP3    H2  352   4.224   0.381   1.741  0.5697 -0.3346 -0.0103
  130TIP3   OH2  353   2.974   4.877   5.844  0.0150  0.6141  0.3381
  130TIP3    H1  354   2.949   4.954   5.794  1.0283 -0.9937 -2.9620
  130TIP3    H2  355   3.069   4.883   5.852  0.2029 -0.5790 -0.6252
  131TIP3   OH2  356   4.834   0.736   4.412 -0.2542  0.5698  0.3003
  131TIP3    H1  357   4.873   0.782   4.338 -0.8438  0.6948  0.0577
  131TIP3    H2  358   4.863   0.646   4.403 -0.1306  0.6338  0.0511
  132TIP3   OH2  359   5.462   2.379   3.489 -0.0705  0.7018 -0.3143
  132TIP3    H1  360   5.555   2.364   3.471 -0.2763  0.0964 -0.9385
  132TIP3    H2  361   5.417   2.333   3.418 -0.8217  1.9567 -0.6775
  133TIP3   OH2  362   2.407   2.989   1.736 -0.0191 -0.2459 -0.0229
  133TIP3    H1  363   2.409   2.932   1.659 -3.8086 -1.4371  0.5384
  133TIP3    H2  364   2.399   3.077   1.701 -2.9050 -0.8488 -1.1930
  134TIP3   OH2  365   3.776   2.523   3.663  0.5748  0.5382 -0.1275
  134TIP3    H1  366   3.768   2.456   3.730 -0.0854  0.5834 -0.1526
  134TIP3    H2  367   3.685   2.543   3.638  0.6855  2.2617  0.7040
  135TIP3   OH2  368   2.766   5.878   3.613  0.3767 -0.1514 -0.1000
  135TIP3    H1  369   2.745   5.892   3.521  3.2188  0.6926 -0.7269
  135TIP3    H2  370   2.698   5.927   3.661  1.7394  4.0334 -1.9374
  136TIP3   OH2  371   1.997   4.853   2.558 -0.1995 -0.0196  0.0632
  136TIP3    H1  372   2.002   4.758   2.552 -2.0279 -0.2024  0.7173
  136TIP3    H2  373   2.015   4.872   2.650  0.8754  0.3475 -0.2101
  137TIP3   OH2  374   4.852   5.020   3.930  0.0785 -0.1076 -0.2199
  137TIP3    H1  375   4.764   5.021   3.892 -0.1582  0.2121  0.3269
  137TIP3    H2  376   4.871   4.927   3.943  0.0129 -0.2028 -0.7697
  138TIP3   OH2  377   6.983   5.320   5.496  0.0999  0.2041  0.1235
  138TIP3    H1  378   7.051   5.266   5.456 -1.6724 -2.1301  0.0370
  138TIP3    H2  379   6.932   5.354   5.422 -1.4726 -1.7923  0.2049
  139TIP3   OH2  380   2.655   4.797   1.605 -0.2038 -0.2985  0.0431
  139TIP3    H1  381   2.628   4.886   1.630 -1.2218 -0.0214 -1.8308
  139TIP3    H2  382   2.581   4.742   1.626  0.4733 -0.7499  1.3105
  140TIP3   OH2  383   1.959   4.252   1.844 -0.0231 -0.3010  0.3256
  140TIP3    H1  384   1.877   4.276   1.801 -1.0064 -1.5220  1.4244
  140TIP3    H2  385   1.940   4.167   1.885  2.1773 -1.2226 -0.4405
  141TIP3   OH2  386   6.698   4.412   4.836 -0.1122  0.3951 -0.6139
  141TIP3    H1  387   6.719   4.408   4.743  0.2764  1.5403 -0.5974
  141TIP3    H2  388   6.722   4.501   4.862  0.2867 -0.0740  0.7123
  142TIP3   OH2  389   7.174   6.080   1.303 -0.3281  0.0093 -0.0907
  142TIP3    H1  390   7.248   6.087   1.363  0.4154  2.1145 -1.1477
  142TIP3    H2  391   7.214   6.068   1.217 -1.1594  1.2724 -0.6932
  143TIP3   OH2  392   0.232   6.273   1.721 -0.3034 -0.6967  0.7398
  143TIP3    H1  393   0.178   6.194   1.717  1.3867 -1.8534 -0.7374
  143TIP3    H2  394   0.311   6.245   1.766 -0.0760  0.4242  1.0509
  144TIP3   OH2  395   6.734   5.390   5.868  0.0023  0.2947 -0.1109
  144TIP3    H1  396   6.747   5.442   5.789  0.4154  1.0042  0.4088
  144TIP3    H2  397   6.641   5.368   5.868 -0.5500  2.3728  0.4381
  145TIP3   OH2  398   0.620   6.022   3.646 -0.4609 -0.0086  0.5155
  145TIP3    H1  399   0.613   6.042   3.739 -1.1233 -1.8256  0.8877
  145TIP3    H2  400   0.662   5.936   3.643  0.3639  0.4176 -0.9130
  146TIP3   OH2  401   7.184   5.412   0.474 -0.2112 -0.2315  0.2770
  146TIP3    H1  402   7.224   5.442   0.556  1.1597 -0.1829 -0.3764
  146TIP3    H2  403   7.210   5.321   0.465  0.2178 -0.0524 -0.4241
  147TIP3   OH2  404   4.954   6.374   5.194 -0.1529 -0.0289 -0.6162
  147TIP3    H1  405   4.889   6.437   5.226  0.0826  0.0173 -0.2169
  147TIP3    H2  406   4.933   6.294   5.242  0.7097  0.2615  0.2804
  148TIP3   OH2  407   5.561   5.036   0.377  0.7334  0.1563 -0.3742
  148TIP3    H1  408   5.635   5.011   0.321 -0.1395 -1.3680 -0.9361
  148TIP3    H2  409   5.586   5.120   0.415  2.0426  0.4749 -1.8250
  149TIP3   OH2  410   0.889   6.556   4.156  0.1223  0.1235 -0.4473
  149TIP3    H1  411   0.950   6.607   4.209 -0.4371 -0.3374  0.6754
  149TIP3    H2  412   0.833   6.622   4.113  0.6736  0.5069 -0.5817
  150TIP3   OH2  413   4.675   0.142   2.636  0.3291  0.2973  0.5371
  150TIP3    H1  414   4.595   0.141   2.584 -0.0353 -2.1417  1.0186
  150TIP3    H2  415   4.691   0.234   2.654 -1.0328  1.0186 -1.5719
  151TIP3   OH2  416   2.612   1.195   3.918  0.1906  0.0684  0.5100
  151TIP3    H1  417   2.610   1.132   3.990 -1.7567  0.1527  0.5847
  151TIP3    H2  418   2.575   1.146   3.843 -0.6090  0.8562  0.3700
  152TIP3   OH2  419   4.013   5.568   1.078 -0.0831 -0.9883  0.2733
  152TIP3    H1  420   4.015   5.631   1.150 -0.9762  0.1441 -0.6593
  152TIP3    H2  421   4.022   5.621   0.999 -1.4843 -1.9532 -0.5868
  153TIP3   OH2  422   6.726   3.292   2.599 -0.6239  0.1076  0.3485
  153TIP3    H1  423   6.806   3.327   2.560 -0.5245  1.2315  1.5066
  153TIP3    H2  424   6.659   3.305   2.532 -0.0052 -0.0984 -0.3207
  154TIP3   OH2  425   5.771   1.583   3.433  0.2807  0.0673 -0.1641
  154TIP3    H1  426   5.852   1.532   3.436  1.6353  2.1208  0.0500
  154TIP3    H2  427   5.754   1.595   3.340 -0.5953 -1.5107 -0.2467
  155TIP3   OH2  428   4.807   0.213   5.359  0.0795 -0.3983 -0.1767
  155TIP3    H1  429   4.794   0.252   5.446 -0.7369 -1.2668  0.1065
  155TIP3    H2  430   4.772   0.124   5.367  0.7202 -0.7578 -1.1784
  156TIP3   OH2  431   0.131   4.019   4.634  0.7143 -0.1783 -0.6696
  156TIP3    H1  432   0.160   4.071   4.709  0.0185 -1.7780  0.7727
  156TIP3    H2  433   0.056   4.066   4.599  0.8796  0.4452 -0.2080
  157TIP3   OH2  434   2.511   3.612   1.422 -0.1302 -0.0034 -0.4166
  157TIP3    H1  435   2.428   3.564   1.420 -0.4740  0.4893  0.6293
  157TIP3    H2  436   2.488   3.700   1.392  0.4432 -0.3843 -2.0815
  158TIP3   OH2  437   3.205   0.028   4.841  0.4917 -0.1447  0.0449
  158TIP3    H1  438   3.138   0.071   4.787 -0.0104 -1.6990 -0.6144
  158TIP3    H2  439   3.166  -0.055   4.866  2.2040 -1.1340 -0.4269
  159TIP3   OH2  440   6.472   0.887   3.896  0.3794 -0.4581  0.0654
  159TIP3    H1  441   6.518   0.961   3.936  0.8406  0.5358 -2.1334
  159TIP3    H2  442   6.394   0.875   3.951  1.6817 -0.1770  2.0745
  160TIP3   OH2  443   3.383   3.280   0.130 -0.1706 -0.2675 -0.1104
  160TIP3    H1  444   3.335   3.284   0.047  0.6322  0.2679 -0.5565
  160TIP3    H2  445   3.379   3.369   0.164 -0.5766 -0.5071  0.4822
  161TIP3   OH2  446   6.867   3.858   0.361  0.0645 -0.1738 -0.1717
  161TIP3    H1  447   6.785   3.809   0.353 -1.1728  1.9724 -1.4837
  161TIP3    H2  448   6.851   3.924   0.427  0.9517 -0.0685 -0.0390
  162TIP3   OH2  449   4.004   6.100   5.635 -0.3119 -0.3854 -0.0633
  162TIP3    H1  450   4.090   6.080   5.673  0.1669 -0.6098 -1.2217
  162TIP3    H2  451   3.946   6.111   5.710  0.8805  0.4312  0.7688
  163TIP3   OH2  452   2.716   0.332   3.444  0.1342 -0.3820 -0.1510
  163TIP3    H1  453   2.703   0.405   3.385 -1.2371 -2.3506 -2.4449
  163TIP3    H2  454   2.807   0.306   3.430  1.4935  2.2731  2.5603
  164TIP3   OH2  455   3.234   6.678   1.456  1.1120 -0.1632 -0.4264
  164TIP3    H1  456   3.240   6.585   1.478  0.4768  0.0578  0.8008
  164TIP3    H2  457   3.252   6.723   1.539  1.4286  0.8026 -1.0132
  165TIP3   OH2  458   4.031   1.099   0.289  0.0032 -0.1007 -0.0318
  165TIP3    H1  459   4.078   1.038   0.233 -0.5718 -0.3886 -0.2145
  165TIP3    H2  460   4.098   1.138   0.345  0.5932  0.2642 -0.9829
  166TIP3   OH2  461   0.134   0.421   5.626 -0.1024  0.3054 -0.0591
  166TIP3    H1  462   0.053   0.396   5.670 -0.4228  0.9788 -0.2469
  166TIP3    H2  463   0.124   0.389   5.536  1.0945 -2.2179  0.6290
  167TIP3   OH2  464   4.368   3.812   0.714  0.0822 -0.8560 -0.7502
  167TIP3    H1  465   4.450   3.789   0.671 -0.1078 -1.4736 -0.8081
  167TIP3    H2  466   4.304   3.813   0.643  0.0718 -0.1884 -0.7348
  168TIP3   OH2  467   4.041   6.479   3.210  0.3493 -0.2467 -0.1072
  168TIP3    H1  468   4.104   6.551   3.204  0.1972  0.1904  2.4281
  168TIP3    H2  469   4.091   6.401   3.186  1.0247  0.4477 -1.0280
  169TIP3   OH2  470   6.733   5.814   2.307 -0.6957 -0.2255  0.5919
  169TIP3    H1  471   6.681   5.735   2.320 -1.1004 -0.1091 -0.2302
  169TIP3    H2  472   6.820   5.792   2.340 -0.9513 -0.8186  0.8824
  170TIP3   OH2  473   1.534   6.216   2.464  0.0445 -0.2523  0.3180
  170TIP3    H1  474   1.458   6.253   2.419 -0.1621 -1.0905 -0.0522
  170TIP3    H2  475   1.606   6.275   2.442 -0.0904 -0.5352 -0.9745
  171TIP3   OH2  476   4.293   5.442   1.104 -0.4232 -0.8774 -0.3955
  171TIP3    H1  477   4.334   5.507   1.160 -0.2282  0.9369 -2.4925
  171TIP3    H2  478   4.199   5.452   1.120 -0.4244  0.2792 -0.9945
  172TIP3   OH2  479   6.484   5.008   2.524  0.1435 -0.3042  0.0145
  172TIP3    H1  480   6.531   5.090   2.507  0.3309 -0.1637  1.1399
  172TIP3    H2  481   6.491   4.959   2.442 -1.2465  1.4049 -1.2131
  173TIP3   OH2  482   2.041   1.400   0.864  0.0668 -0.6526  0.0317
  173TIP3    H1  483   1.983   1.476   0.875  0.6693 -0.3499  1.3148
  173TIP3    H2  484   2.037   1.381   0.770 -0.7500  0.4412 -0.1873
  174TIP3   OH2  485   4.605   4.856   2.360 -0.6212 -0.2975 -0.1719
  174TIP3    H1  486   4.533   4.833   2.419 -0.0086 -0.3614  0.5625
  174TIP3    H2  487   4.642   4.772   2.335  0.1131 -0.2214  0.6177
  175TIP3   OH2  488   6.642   1.619   1.648  0.7226  0.1350  0.3686
  175TIP3    H1  489   6.612   1.584   1.564  0.4602 -0.5205  0.7264
  175TIP3    H2  490   6.633   1.714   1.639 -0.8259  0.0126  0.2066
  176TIP3   OH2  491   5.846   6.217   2.831 -0.0920 -0.1195  0.6817
  176TIP3    H1  492   5.832   6.257   2.745  2.5182 -0.5550 -0.0268
  176TIP3    H2  493   5.782   6.146   2.835  0.6776 -1.0153 -1.5526
  177TIP3   OH2  494   3.185   5.761   3.571  0.6408  0.2323 -0.4335
  177TIP3    H1  495   3.105   5.732   3.528 -0.1026  2.5639 -0.8003
  177TIP3    H2  496   3.250   5.763   3.500  0.1041  1.5244 -0.9292
  178TIP3   OH2  497   3.595   5.076   2.747  0.3681  0.2891  0.1076
  178TIP3    H1  498   3.519   5.041   2.794 -0.9689  1.7251 -0.8963
  178TIP3    H2  499   3.646   4.998   2.724 -1.2308 -0.8042  0.0586
  179TIP3   OH2  500   0.304   4.498   3.769 -0.7387  0.7362  0.2761
  179TIP3    H1  501   0.334   4.538   3.688 -0.6833  0.6546  0.2566
  179TIP3    H2  502   0.329   4.407   3.762  5.1478  1.7111  3.0298
  180TIP3   OH2  503   4.119   2.826   1.719 -0.4157 -0.2507 -0.6760
  180TIP3    H1  504   4.110   2.733   1.699 -0.2366 -0.3672 -0.2267
  180TIP3    H2  505   4.199   2.853   1.674 -0.2567 -0.4053 -0.4860
  181TIP3   OH2  506   1.427   2.122   0.531 -0.2518 -0.0204  0.0368
  181TIP3    H1  507   1.516   2.113   0.563 -0.0635 -0.3160 -0.5495
  181TIP3    H2  508   1.382   2.043   0.561 -0.1107 -0.2351 -0.3150
  182TIP3   OH2  509   4.782   5.144   2.291 -0.3062 -0.3688 -0.3322
  182TIP3    H1  510   4.821   5.162   2.205 -0.0551  1.4835  0.1230
  182TIP3    H2  511   4.704   5.092   2.271 -0.2075 -0.0460 -1.6717
  183TIP3   OH2  512   6.197   5.842   2.268 -0.0525 -0.4541 -0.2468
  183TIP3    H1  513   6.161   5.814   2.184 -1.2008 -0.2091  0.1460
  183TIP3    H2  514   6.120   5.860   2.322  0.6404 -1.7226  1.2500
  184TIP3   OH2  515   4.187   6.242   3.170  0.4884  0.1640  0.1878
  184TIP3    H1  516   4.212   6.285   3.088  2.1696 -0.4562  0.3380
  184TIP3    H2  517   4.267   6.241   3.222  0.2900 -2.2663  0.5620
  185TIP3   OH2  518   6.932   5.466   4.884 -0.1593  0.3681 -0.2321
  185TIP3    H1  519   6.911   5.477   4.791 -0.6771  0.3930 -0.1138
  185TIP3    H2  520   6.993   5.537   4.903  0.9974 -0.4230 -0.8745
  186TIP3   OH2  521   5.420   2.522   0.335  0.1135  0.6257  0.0619
  186TIP3    H1  522   5.373   2.456   0.285  0.9814  2.0128 -2.8026
  186TIP3    H2  523   5.439   2.591   0.271  2.1738  2.0987  2.1132
  187TIP3   OH2  524   5.375   3.096   4.995 -0.1315 -0.2429 -0.4716
  187TIP3    H1  525   5.290   3.137   4.985  0.8665  1.6905 -1.5416
  187TIP3    H2  526   5.402   3.074   4.906  0.1336 -1.6720 -0.0697
  188TIP3   OH2  527   4.949   4.156   3.779  0.5581  0.0398 -0.3093
  188TIP3    H1  528   4.866   4.133   3.737 -0.4066  0.0156  1.5099
  188TIP3    H2  529   4.991   4.071   3.797 -0.0331 -0.0483  0.6893
  189TIP3   OH2  530   0.205   1.924   3.302 -0.0615 -0.7451 -0.0704
  189TIP3    H1  531   0.149   1.867   3.249 -1.1702  1.0757 -0.9485
  189TIP3    H2  532   0.292   1.916   3.262 -0.9285  0.8272 -2.4970
  190TIP3   OH2  533   1.520   2.000   1.288  0.4038  0.8682 -0.0684
  190TIP3    H1  534   1.461   1.958   1.351 -0.5024 -0.2338 -1.6068
  190TIP3    H2  535   1.608   1.974   1.317 -0.1161 -2.6689 -1.2498
  191TIP3   OH2  536   1.456   5.530   5.298 -0.4915 -0.4005  0.5596
  191TIP3    H1  537   1.372   5.519   5.254 -0.9339 -1.3471  1.5974
  191TIP3    H2  538   1.516   5.474   5.249 -0.4060  0.3929 -0.2759
  192TIP3   OH2  539   1.663   6.751   4.625 -0.0842 -0.2228  0.2672
  192TIP3    H1  540   1.586   6.741   4.681  1.2132 -1.0647  2.0027
  192TIP3    H2  541   1.636   6.814   4.558 -1.2210  2.2460  2.8316
  193TIP3   OH2  542   3.360   6.480   0.003  0.1601 -0.1196  0.0031
  193TIP3    H1  543   3.296   6.470   0.073 -1.9673 -1.5793 -2.0197
  193TIP3    H2  544   3.409   6.398   0.003  1.6149  0.6887  1.0301
  194TIP3   OH2  545   4.875   3.069   3.163  0.1070 -0.2555  0.0703
  194TIP3    H1  546   4.944   3.118   3.208 -1.0988  0.9873  0.6667
  194TIP3    H2  547   4.829   3.022   3.233  0.0377 -0.6630 -0.2483
  195TIP3   OH2  548   4.509   1.698   1.287 -0.4393 -0.2616  0.6437
  195TIP3    H1  549   4.415   1.708   1.303 -0.8615 -1.1174 -1.0151
  195TIP3    H2  550   4.524   1.603   1.295  0.2042 -0.1741  0.5038
  196TIP3   OH2  551   3.920   2.078   1.611  0.6958  0.1125 -0.8442
  196TIP3    H1  552   3.854   2.137   1.575 -0.1421  0.0470  0.5177
  196TIP3    H2  553   3.876   2.034   1.683  2.1241 -0.2196 -0.1353
  197TIP3   OH2  554   2.442   5.490   0.621  0.3191 -0.1958  0.0755
  197TIP3    H1  555   2.365   5.493   0.677  0.1641  0.0190 -0.1481
  197TIP3    H2  556   2.460   5.396   0.611  0.0057 -0.2512  0.0186
  198TIP3   OH2  557   1.635   6.194   2.006  0.3060 -0.8514  0.2044
  198TIP3    H1  558   1.709   6.180   2.065  1.4394  1.0205 -0.6581
  198TIP3    H2  559   1.673   6.187   1.918 -0.6551 -0.3690 -0.2687
  199TIP3   OH2  560   2.227   3.055   4.050  0.0427  0.1066  0.2646
  199TIP3    H1  561   2.152   3.097   4.007  0.3336  0.9001  0.5202
  199TIP3    H2  562   2.187   2.991   4.109 -0.3467 -1.5137 -1.6835
  200TIP3   OH2  563   6.088   4.819   0.158 -0.2329  0.1916 -0.6932
  200TIP3    H1  564   6.003   4.793   0.124  0.4019 -1.2868 -1.2298
  200TIP3    H2  565   6.142   4.835   0.081  0.2823  0.0671 -0.3655
  201TIP3   OH2  566   3.682   1.931   4.034 -0.7205 -0.1004  0.1476
  201TIP3    H1  567   3.651   1.932   4.124 -1.0260  0.2837  0.0453
  201TIP3    H2  568   3.767   1.975   4.038 -0.9029  0.2577  0.1965
  202TIP3   OH2  569   1.850   0.119   1.849 -0.1562 -0.2567 -0.2453
  202TIP3    H1  570   1.848   0.195   1.792 -0.8823 -1.3143 -1.6978
  202TIP3    H2  571   1.904   0.055   1.801  0.3496 -0.7062  0.8878
  203TIP3   OH2  572   6.684   5.915   0.101  0.3543 -0.1377  0.0900
  203TIP3    H1  573   6.719   5.829   0.124 -1.0697 -0.8853 -0.4762
  203TIP3    H2  574   6.753   5.956   0.048  0.0854 -1.9175 -1.7448
  204TIP3   OH2  575   0.082   1.477   0.573  0.2523  0.2572 -0.0102
  204TIP3    H1  576   0.020   1.427   0.625  1.1811 -1.3056 -0.3284
  204TIP3    H2  577   0.040   1.562   0.560 -2.3303 -1.0723 -1.1485
  205TIP3   OH2  578   4.809   1.755   0.640  0.1628 -0.3775  0.3445
  205TIP3    H1  579   4.856   1.687   0.592 -2.0864 -2.2850  0.6318
  205TIP3    H2  580   4.742   1.785   0.579  0.0742  0.3876  0.8102
  206TIP3   OH2  581   5.990   3.891   1.293  0.1048 -0.0054  0.5986
  206TIP3    H1  582   6.059   3.879   1.228  0.3162 -1.2099  1.0179
  206TIP3    H2  583   5.910   3.862   1.249 -0.2562  1.9048 -0.0716
  207TIP3   OH2  584   4.902   4.775   0.060  0.0319  0.2381 -0.4498
  207TIP3    H1  585   4.994   4.769   0.033 -0.5173  0.5375 -2.6068
  207TIP3    H2  586   4.883   4.690   0.100  0.9614 -0.2255 -0.9569
  208TIP3   OH2  587   0.653   4.400   5.105  0.4498  0.3993 -0.0653
  208TIP3    H1  588   0.575   4.411   5.052  1.1744  1.5360 -0.9481
  208TIP3    H2  589   0.725   4.400   5.042  1.2032 -0.1476  0.7661
  209TIP3   OH2  590   0.692   6.748   2.761  0.4493 -0.2612 -0.0215
  209TIP3    H1  591   0.779   6.787   2.766  0.5270 -0.6014  2.5311
  209TIP3    H2  592   0.703   6.659   2.795 -0.6799 -0.7612 -0.8828
  210TIP3   OH2  593   0.133   6.075   1.082  0.0096 -0.3033 -0.3759
  210TIP3    H1  594   0.212   6.122   1.105 -1.3626  2.0241 -0.1322
  210TIP3    H2  595   0.164   5.997   1.036  2.5955 -1.5867  3.0863
  211TIP3   OH2  596   4.415   5.213   3.051  0.0778 -0.0454 -0.4032
  211TIP3    H1  597   4.508   5.226   3.072  0.2295 -0.6235 -0.7151
  211TIP3    H2  598   4.386   5.299   3.020  0.8552 -0.1888 -1.6081
  212TIP3   OH2  599   4.842   1.999   2.071  0.0761 -0.5107  0.7187
  212TIP3    H1  600   4.850   2.062   1.999  0.2309 -0.7049  0.5653
  212TIP3    H2  601   4.931   1.964   2.082 -0.3686 -2.1948 -0.5517
  213TIP3   OH2  602   0.938   0.012   2.980 -0.2419 -0.2255  0.0672
  213TIP3    H1  603   0.975   0.021   2.892  1.3907 -0.4817  0.7049
  213TIP3    H2  604   0.977   0.083   3.030 -1.0307 -0.1871  0.6503
  214TIP3   OH2  605   7.039   1.629   1.739  0.2950 -0.0280 -0.1383
  214TIP3    H1  606   7.028   1.555   1.680 -0.0283  0.5496 -0.8236
  214TIP3    H2  607   7.113   1.605   1.795  0.9198 -0.3929 -1.0983
  215TIP3   OH2  608   4.334   2.168   4.209  0.3246  0.2022  0.1676
  215TIP3    H1  609   4.300   2.251   4.244  0.6309 -0.0370  1.0487
  215TIP3    H2  610   4.424   2.188   4.183  0.1918  0.3038 -0.2248
  216TIP3   OH2  611   6.651   0.461   3.931 -0.0090 -0.6410  0.1010
  216TIP3    H1  612   6.624   0.394   3.868  1.5524 -0.8188 -0.4174
  216TIP3    H2  613   6.661   0.540   3.878  3.2235 -1.2189 -0.3778
  217TIP3   OH2  614   4.770   5.284   2.907 -0.4191  0.2603  0.1486
  217TIP3    H1  615   4.706   5.339   2.861  0.2620  1.0293  0.1043
  217TIP3    H2  616   4.839   5.268   2.843 -0.1822  0.0948  0.4429
  218TIP3   OH2  617   1.772   3.103   1.959  0.4704  0.4795  0.0176
  218TIP3    H1  618   1.768   3.198   1.959 -0.3273  0.4594 -0.6344
  218TIP3    H2  619   1.863   3.082   1.982  0.5818  1.3825  0.4371
  219TIP3   OH2  620   0.901   4.830   1.910 -0.3390 -0.4358 -0.0338
  219TIP3    H1  621   0.857   4.772   1.971 -1.5587  0.5304  0.0401
  219TIP3    H2  622   0.965   4.877   1.963 -1.2646  0.2655  0.4917
  220TIP3   OH2  623   0.314   5.885   5.569  0.6364 -0.6843  0.0651
  220TIP3    H1  624   0.235   5.895   5.516  0.1564 -0.5056  0.8017
  220TIP3    H2  625   0.384   5.918   5.513  0.2215 -1.0017 -0.6631
  221TIP3   OH2  626   3.997   0.759   0.838 -0.6161 -0.1065  0.4069
  221TIP3    H1  627   3.912   0.755   0.794 -0.4956  0.1355  0.1519
  221TIP3    H2  628   4.022   0.668   0.850  0.8170 -0.2758 -2.8577
  222TIP3   OH2  629   0.985   2.645   1.262  0.2531  0.1542  0.4835
  222TIP3    H1  630   1.015   2.564   1.220 -0.4321  0.2285 -0.1568
  222TIP3    H2  631   0.984   2.624   1.355  1.0522 -0.2539  0.4142
  223TIP3   OH2  632   3.483   4.880   0.711  0.3228 -0.6218 -0.3229
  223TIP3    H1  633   3.436   4.804   0.679  1.6432 -0.1346 -3.8666
  223TIP3    H2  634   3.460   4.950   0.651  1.6767  0.9386  0.8747
  224TIP3   OH2  635   2.840   5.704   0.215  0.1997 -0.5655 -0.1968
  224TIP3    H1  636   2.766   5.713   0.275  0.3681 -0.0677 -0.0666
  224TIP3    H2  637   2.800   5.709   0.128  0.2321  1.0644 -0.1360
  225TIP3   OH2  638   4.725   2.233   1.410 -0.8453 -0.1538 -0.0355
  225TIP3    H1  639   4.801   2.283   1.382 -1.1855 -0.4352 -1.5660
  225TIP3    H2  640   4.652   2.296   1.406 -0.8493 -0.1135  0.5669
  226TIP3   OH2  641   2.176   2.692   0.454  0.0869  0.0165  0.6578
  226TIP3    H1  642   2.232   2.655   0.522 -0.6940 -0.6922  0.9415
  226TIP3    H2  643   2.109   2.625   0.440 -1.6540  1.4967  1.5117
  227TIP3   OH2  644   5.282   0.441   0.135  0.1141 -0.4763 -0.2050
  227TIP3    H1  645   5.204   0.480   0.097 -0.0489 -0.7469 -0.1534
  227TIP3    H2  646   5.352   0.503   0.117  1.1866 -2.6617 -5.4187
  228TIP3   OH2  647   6.631   5.781   3.845 -0.5230 -0.2398 -0.1272
  228TIP3    H1  648   6.661   5.850   3.786 -0.0095 -0.1766  0.2032
  228TIP3    H2  649   6.683   5.704   3.820 -1.8696 -0.8302 -1.2408
  229TIP3   OH2  650   2.045   2.956   1.619 -0.4872  0.0904 -0.0110
  229TIP3    H1  651   2.085   2.966   1.705 -1.1010  0.5567  0.2280
  229TIP3    H2  652   1.994   3.036   1.607  0.1346  0.3336 -1.1029
  230TIP3   OH2  653   4.857   3.475   2.237 -0.5666  0.3468 -0.0891
  230TIP3    H1  654   4.913   3.547   2.208  1.0808 -0.8456 -0.0618
  230TIP3    H2  655   4.897   3.446   2.319 -2.0422  0.2966  0.6413
  231TIP3   OH2  656   0.769   5.707   0.974  0.9125 -0.4655 -0.4644
  231TIP3    H1  657   0.831   5.636   0.958  0.1122 -1.1745 -0.4328
  231TIP3    H2  658   0.699   5.693   0.910  2.1133  1.9915 -2.5376
  232TIP3   OH2  659   6.432   2.554   2.214 -0.0772  0.0469  0.1429
  232TIP3    H1  660   6.390   2.610   2.279 -0.4841 -0.3776  0.2440
  232TIP3    H2  661   6.509   2.604   2.186 -0.7584  0.9285 -0.2168
  233TIP3   OH2  662   4.706   2.349   3.588  0.0365 -0.0342 -0.2041
  233TIP3    H1  663   4.617   2.373   3.564  0.5668  0.5112 -1.8239
  233TIP3    H2  664   4.734   2.289   3.519  0.4260 -1.4423  1.1233
  234TIP3   OH2  665   1.580   3.076   2.161 -0.1689  0.2314  0.0935
  234TIP3    H1  666   1.607   3.163   2.190 -0.9350  1.4538 -2.5442
  234TIP3    H2  667   1.630   3.061   2.081 -1.2857 -0.9997 -0.4138
  235TIP3   OH2  668   2.166   3.485   4.548  0.3316  0.1592  0.1961
  235TIP3    H1  669   2.178   3.547   4.475 -1.1668 -0.3707 -0.5552
  235TIP3    H2  670   2.168   3.399   4.506  1.3240 -0.2699  1.0826
  236TIP3   OH2  671   0.718   2.786   1.611  0.0401 -0.2802  0.1582
  236TIP3    H1  672   0.812   2.774   1.602 -0.1238 -0.7369 -1.1319
  236TIP3    H2  673   0.697   2.857   1.550 -0.4474 -0.1191  0.5035
  237TIP3   OH2  674   4.163   2.378   3.436  0.1394  0.1494 -0.4173
  237TIP3    H1  675   4.156   2.458   3.488  2.2471  0.1197  0.0303
  237TIP3    H2  676   4.208   2.405   3.356  2.7415 -0.8233  0.5956
  238TIP3   OH2  677   3.100   5.093   1.056 -0.1050 -0.2357  0.3353
  238TIP3    H1  678   3.020   5.078   1.106 -0.7688  0.6300 -0.4516
  238TIP3    H2  679   3.086   5.176   1.011  1.2570 -0.0356  0.2195
  239TIP3   OH2  680   3.568   4.998   4.391 -0.1874 -0.0315  0.4675
  239TIP3    H1  681   3.642   4.945   4.420  0.8710  1.0516 -0.1870
  239TIP3    H2  682   3.528   5.029   4.472 -1.2036 -2.2331  0.9056
  240TIP3   OH2  683   3.282   2.172   5.016 -0.2243  0.1947 -0.3217
  240TIP3    H1  684   3.330   2.089   5.016 -1.0782 -0.3211 -1.2265
  240TIP3    H2  685   3.330   2.227   5.078 -0.2960 -1.3577  1.1954
  241TIP3   OH2  686   0.043   0.790   3.518  0.0585 -0.1299 -0.0805
  241TIP3    H1  687   0.084   0.718   3.567  0.7814  0.8453  0.7759
  241TIP3    H2  688  -0.051   0.780   3.535  0.1523 -0.8472  0.0493
  242TIP3   OH2  689   6.062   1.987   0.515 -0.3648 -0.0313 -0.3699
  242TIP3    H1  690   6.109   1.944   0.443  0.1576  0.4224 -0.3017
  242TIP3    H2  691   6.022   1.914   0.564 -1.0768 -0.3265 -1.3478
  243TIP3   OH2  692   4.777   1.386   1.658 -0.6211 -0.0763 -0.7868
  243TIP3    H1  693   4.770   1.399   1.564 -0.4786  1.0432 -0.6564
  243TIP3    H2  694   4.841   1.452   1.687  0.6563 -1.5460 -0.1465
  244TIP3   OH2  695   1.719   1.050   2.011 -0.1020  0.0357 -0.6136
  244TIP3    H1  696   1.642   1.003   2.043  1.2742 -2.1107 -0.3106
  244TIP3    H2  697   1.737   1.114   2.080 -0.5044 -0.7211  0.2168
  245TIP3   OH2  698   0.370   2.522   2.966  0.6734 -0.1219 -0.0695
  245TIP3    H1  699   0.440   2.477   2.919  2.3280  1.5365  0.6867
  245TIP3    H2  700   0.325   2.452   3.013  2.7072 -1.1303  0.5240
  246TIP3   OH2  701   0.060   6.404   1.518  0.1869  0.7716  0.0543
  246TIP3    H1  702  -0.035   6.394   1.518  0.2010  0.4642 -1.0747
  246TIP3    H2  703   0.090   6.347   1.590 -0.3796 -0.4773 -0.6586
  247TIP3   OH2  704   4.391   4.057   3.346 -1.1085  0.1074  0.1019
  247TIP3    H1  705   4.441   4.019   3.417 -1.4885 -0.5869  0.0124
  247TIP3    H2  706   4.345   4.132   3.385  0.9098  1.5134 -0.1000
  248TIP3   OH2  707   6.669   5.274   1.259  0.3923 -0.0895  0.2656
  248TIP3    H1  708   6.752   5.319   1.242  0.3339 -0.6970 -1.8343
  248TIP3    H2  709   6.689   5.211   1.328  1.0464  1.4576  1.5500
  249TIP3   OH2  710   1.971   4.424   1.049 -0.2267  0.7008  0.7388
  249TIP3    H1  711   1.982   4.356   1.116  1.6940 -0.3882 -0.5900
  249TIP3    H2  712   2.060   4.440   1.016 -1.0621  1.3807 -1.3604
  250TIP3   OH2  713   4.498   1.904   4.710 -0.7464  0.2095  0.2880
  250TIP3    H1  714   4.525   1.976   4.768 -1.9643  0.3657  0.7053
  250TIP3    H2  715   4.420   1.938   4.666 -0.5709 -0.3906 -0.4919
  251TIP3   OH2  716   6.876   2.561   1.816 -0.2116  0.1369 -0.0650
  251TIP3    H1  717   6.791   2.526   1.788 -0.8609 -0.0842  2.0219
  251TIP3    H2  718   6.940   2.503   1.776 -1.1001 -0.5580 -0.5240
  252TIP3   OH2  719   0.439   0.315   0.777 -0.0505  0.2424  0.7360
  252TIP3    H1  720   0.344   0.326   0.784  0.1550  1.9384  1.3752
  252TIP3    H2  721   0.456   0.227   0.813 -1.5538 -1.0087 -1.4110
  253TIP3   OH2  722   2.027   5.017   2.319  0.1334  0.6903  0.2234
  253TIP3    H1  723   2.016   4.965   2.398 -0.6796  1.5074  0.6582
  253TIP3    H2  724   2.109   5.065   2.334  0.3302  0.3451  0.2728
  254TIP3   OH2  725   3.012   3.922   4.599  0.0079 -0.1306  0.3067
  254TIP3    H1  726   3.016   3.960   4.686  0.2271  0.6231 -0.0247
  254TIP3    H2  727   3.080   3.967   4.549 -2.0250  1.6111 -1.0709
  255TIP3   OH2  728   0.282   4.954   0.246  0.1906 -0.4150 -0.2818
  255TIP3    H1  729   0.220   4.920   0.182  1.1354 -1.8962 -0.4821
  255TIP3    H2  730   0.343   4.881   0.260  1.9112  0.9882 -0.1535
  256TIP3   OH2  731   0.272   1.902   1.966  0.1457 -0.0669  0.5087
  256TIP3    H1  732   0.231   1.879   2.049  0.6394  0.0377  0.7901
  256TIP3    H2  733   0.366   1.908   1.987  0.3938 -1.0173 -0.2718
  257TIP3   OH2  734   2.944   4.907   0.254 -0.1383 -0.3399 -0.1283
  257TIP3    H1  735   3.022   4.883   0.204 -0.3002 -1.0084 -0.0750
  257TIP3    H2  736   2.874   4.853   0.216 -0.3269 -0.6233  0.5985
  258TIP3   OH2  737   2.156   0.407   3.371  0.2804 -0.7491  0.1231
  258TIP3    H1  738   2.173   0.363   3.288  0.9195 -2.1406  0.9570
  258TIP3    H2  739   2.083   0.357   3.409 -0.8547  0.6529 -0.1380
  259TIP3   OH2  740   2.386   0.353   4.527 -0.2446 -0.2244 -0.2718
  259TIP3    H1  741   2.335   0.404   4.589 -0.6037 -0.4773 -0.3610
  259TIP3    H2  742   2.322   0.307   4.474  0.0723 -0.5148 -0.4086
  260TIP3   OH2  743   4.358   1.730   5.582 -0.6841  0.2945  0.7691
  260TIP3    H1  744   4.403   1.815   5.575  0.1002 -0.1819 -0.2139
  260TIP3    H2  745   4.402   1.675   5.517 -2.5155 -0.2812 -0.0338
  261TIP3   OH2  746   4.546   3.198   4.370 -0.5332 -0.4381 -0.0221
  261TIP3    H1  747   4.509   3.112   4.388  0.7082 -0.7010  1.5700
  261TIP3    H2  748   4.490   3.258   4.420  0.0053 -0.6246  0.8387
  262TIP3   OH2  749   5.900   6.107   5.663 -0.5433  0.2641  0.4199
  262TIP3    H1  750   5.856   6.113   5.749 -0.7592 -1.7389  0.4851
  262TIP3    H2  751   5.981   6.061   5.681 -0.3674  0.2460 -0.3968
  263TIP3   OH2  752   5.134   6.658   5.523  0.3204 -0.0164  0.3391
  263TIP3    H1  753   5.212   6.639   5.470  1.6628 -0.3814  2.3408
  263TIP3    H2  754   5.117   6.577   5.571  0.7796  1.0649  2.4339
  264TIP3   OH2  755   5.116   1.495   3.108 -0.3833  0.1207  0.0053
  264TIP3    H1  756   5.125   1.452   3.023  0.7070  0.4091 -0.0417
  264TIP3    H2  757   5.106   1.423   3.170 -2.3041 -0.0619 -0.4654
  265TIP3   OH2  758   2.974   1.297   0.883  0.6245 -0.0386 -0.0891
  265TIP3    H1  759   3.005   1.223   0.831  1.8620 -1.6230  2.6538
  265TIP3    H2  760   3.038   1.366   0.867  0.8700 -0.4264 -0.8068
  266TIP3   OH2  761   2.708   1.896   1.775  0.1301  0.6465  0.2266
  266TIP3    H1  762   2.733   1.962   1.840  0.0869  2.2261 -1.2896
  266TIP3    H2  763   2.612   1.899   1.773  0.0102 -0.9500  1.5813
  267TIP3   OH2  764   6.310   6.343   0.585 -0.1621 -0.2960  0.0276
  267TIP3    H1  765   6.304   6.249   0.570 -0.0699 -0.2091 -0.5756
  267TIP3    H2  766   6.367   6.375   0.515 -1.4839  0.4378 -0.7506
  268TIP3   OH2  767   2.963   2.016   2.494  0.5578 -0.4806 -0.5900
  268TIP3    H1  768   2.932   1.945   2.550 -1.3268 -0.0389 -0.9914
  268TIP3    H2  769   2.895   2.083   2.500  0.9349  0.1262 -2.3794
  269TIP3   OH2  770   0.750   5.229   1.648  0.0011  0.3534 -0.5233
  269TIP3    H1  771   0.665   5.261   1.679  0.1182  1.4609 -1.3073
  269TIP3    H2  772   0.807   5.234   1.724 -0.1403  1.4753 -0.4831
  270TIP3   OH2  773   5.009   3.701   0.213  0.1640 -0.4969 -0.7046
  270TIP3    H1  774   5.073   3.659   0.271  1.6157  0.6186 -1.4329
  270TIP3    H2  775   5.027   3.795   0.220  0.1525 -0.2987 -2.6652
  271TIP3   OH2  776   0.768   6.237   3.006  0.0393  0.5323  0.6669
  271TIP3    H1  777   0.736   6.197   2.925  1.4035 -2.1170  1.2969
  271TIP3    H2  778   0.732   6.182   3.075  1.5018  0.7442  1.6454
  272TIP3   OH2  779   7.160   6.772   3.712  0.2489 -0.0755 -0.0061
  272TIP3    H1  780   7.106   6.768   3.791 -0.3691  0.8508 -0.3588
  272TIP3    H2  781   7.177   6.681   3.689 -1.5778 -0.4120 -0.1559
  273TIP3   OH2  782   7.191   0.587   2.656  0.0152  0.1863 -0.1945
  273TIP3    H1  783   7.158   0.498   2.671  1.4569 -0.0720  1.8618
  273TIP3    H2  784   7.283   0.575   2.633 -0.3800  1.0669 -2.4001
  274TIP3   OH2  785   5.176   6.052   2.114 -0.3812 -0.6868 -0.0480
  274TIP3    H1  786   5.173   6.129   2.170  0.6752 -0.0325 -0.8650
  274TIP3    H2  787   5.141   6.082   2.030 -0.2078 -1.1702 -0.2960
  275TIP3   OH2  788   7.123   4.589   3.453 -0.0622 -0.1336  0.4215
  275TIP3    H1  789   7.069   4.538   3.392 -0.9549 -0.8464  1.7672
  275TIP3    H2  790   7.060   4.639   3.505  0.7695  2.0450 -0.5416
  276TIP3   OH2  791   6.370   4.439   4.335  0.3912 -0.1215  0.3655
  276TIP3    H1  792   6.302   4.415   4.398  0.9549 -0.3820  0.8960
  276TIP3    H2  793   6.395   4.356   4.295  0.7081 -0.0951  0.5040
  277TIP3   OH2  794   0.346   2.367   1.027  0.2067  0.3626  0.4574
  277TIP3    H1  795   0.346   2.381   0.932 -0.7612  1.3135  0.5716
  277TIP3    H2  796   0.255   2.346   1.048  0.2925  0.7245  1.2423
  278TIP3   OH2  797   6.035   4.455   1.009 -0.4338  0.5770  0.0697
  278TIP3    H1  798   6.012   4.411   1.091 -0.4046 -1.1238 -0.7948
  278TIP3    H2  799   5.995   4.400   0.941 -1.0237  2.3122 -1.0389
  279TIP3   OH2  800   1.818   1.487   4.704  0.1946 -0.2250 -0.0756
  279TIP3    H1  801   1.849   1.565   4.751 -1.3389  0.3369  0.0452
  279TIP3    H2  802   1.738   1.515   4.661 -2.7139 -2.6673  3.1787
  280TIP3   OH2  803   3.729   4.135   3.974 -0.1794  0.1745  0.3881
  280TIP3    H1  804   3.810   4.086   3.968 -0.2378 -0.1828  2.0580
  280TIP3    H2  805   3.756   4.224   3.998 -0.2516  0.1441  0.5870
  281TIP3   OH2  806   6.106   6.572   4.537 -0.2457  0.2207  0.0970
  281TIP3    H1  807   6.045   6.567   4.611 -0.7145  1.3412 -0.2040
  281TIP3    H2  808   6.193   6.563   4.577 -0.5101  0.4553  0.7403
  282TIP3   OH2  809   6.358   1.294   5.567  0.1129  0.4143 -0.5692
  282TIP3    H1  810   6.411   1.227   5.524  1.7290  0.7064  0.8297
  282TIP3    H2  811   6.290   1.245   5.613 -0.4543 -0.0250 -1.8195
  283TIP3   OH2  812   2.865   1.425   1.825 -0.1861  0.3936  0.2638
  283TIP3    H1  813   2.859   1.378   1.742 -1.2449 -0.5309  0.8347
  283TIP3    H2  814   2.877   1.517   1.800  0.8419 -0.0249 -0.8811
  284TIP3   OH2  815   5.229   4.876   0.992  0.1707 -0.2931 -0.2212
  284TIP3    H1  816   5.239   4.876   0.897  1.6317 -1.1453 -0.0879
  284TIP3    H2  817   5.298   4.934   1.024 -0.7641  0.5640  0.3094
  285TIP3   OH2  818   5.950   1.388   3.350  0.0002 -0.1313  0.1142
  285TIP3    H1  819   5.909   1.334   3.283  0.5652  0.8212 -1.0315
  285TIP3    H2  820   6.040   1.399   3.321  0.5542 -0.5502  1.5726
  286TIP3   OH2  821   0.519   1.982   5.095  0.1091 -0.2975  0.0368
  286TIP3    H1  822   0.433   2.000   5.132  0.8392  1.6281  0.9652
  286TIP3    H2  823   0.533   2.054   5.033  0.1566 -1.8170 -1.7747
  287TIP3   OH2  824   4.399   6.572   1.396 -0.2347  0.1869 -0.0623
  287TIP3    H1  825   4.324   6.580   1.455 -1.1158 -0.6451 -1.0323
  287TIP3    H2  826   4.427   6.662   1.380 -0.5947  0.4675  0.8517
  288TIP3   OH2  827   5.260   3.842   3.813  0.1401 -0.7653 -0.1968
  288TIP3    H1  828   5.255   3.906   3.742  1.5484 -1.3950 -0.9200
  288TIP3    H2  829   5.205   3.770   3.783  0.9770 -1.1657 -0.8484
  289TIP3   OH2  830   6.160   2.597   2.362  0.0068  0.2057 -0.2106
  289TIP3    H1  831   6.172   2.635   2.275 -0.6492  1.0809  0.0650
  289TIP3    H2  832   6.188   2.666   2.422  0.6852 -0.4807  0.2747
  290TIP3   OH2  833   6.978   1.084   2.256  0.3170 -0.6769 -0.1298
  290TIP3    H1  834   7.056   1.045   2.217  0.2520 -0.6180 -0.3185
  290TIP3    H2  835   6.994   1.178   2.253  0.0947 -0.6484 -0.4755
  291TIP3   OH2  836   6.349   2.653   3.657 -0.1215 -0.4739 -0.1449
  291TIP3    H1  837   6.391   2.716   3.599  0.8236  0.9686  1.9714
  291TIP3    H2  838   6.420   2.596   3.686 -0.6309 -1.3582 -0.6095
  292TIP3   OH2  839   6.314   2.772   1.006  0.4634  0.2196 -0.7342
  292TIP3    H1  840   6.251   2.767   1.078  1.8090  0.4369  0.4957
  292TIP3    H2  841   6.264   2.809   0.934  0.0044  3.8279  1.2068
  293TIP3   OH2  842   4.541   1.632   4.348  0.3018 -0.1639  0.1101
  293TIP3    H1  843   4.527   1.726   4.351 -1.0751 -0.3721  1.3284
  293TIP3    H2  844   4.624   1.618   4.391 -0.7710  0.3063  2.4768
  294TIP3   OH2  845   5.661   5.951   2.231 -0.4017  0.2540 -0.0111
  294TIP3    H1  846   5.703   5.981   2.150 -0.5350 -0.7471 -0.4633
  294TIP3    H2  847   5.567   5.951   2.210 -0.4723  0.4458  0.3004
  295TIP3   OH2  848   4.601   4.404   1.983  0.0233  0.3709  0.0724
  295TIP3    H1  849   4.612   4.311   2.002 -0.1419  0.1952 -0.6808
  295TIP3    H2  850   4.529   4.432   2.039 -0.6666 -0.2090 -0.5218
  296TIP3   OH2  851   5.138   4.391   0.066 -0.2655  0.1603 -0.3720
  296TIP3    H1  852   5.211   4.448   0.040  2.2697 -2.7848 -0.3495
  296TIP3    H2  853   5.168   4.352   0.148 -2.7097  0.0903  0.5534
  297TIP3   OH2  854   1.399   1.476   3.859  0.2311 -0.4106  0.1503
  297TIP3    H1  855   1.451   1.439   3.787  1.0053 -0.0474  0.5047
  297TIP3    H2  856   1.312   1.489   3.821  0.5751 -0.4073 -0.6715
  298TIP3   OH2  857   1.801   3.670   0.376  0.1780 -0.2141 -1.0863
  298TIP3    H1  858   1.889   3.674   0.339 -0.3766  2.9416 -2.3478
  298TIP3    H2  859   1.748   3.724   0.318 -2.1440 -0.2285  0.8675
  299TIP3   OH2  860   5.831   6.287   2.543  0.7118 -0.0998 -0.2037
  299TIP3    H1  861   5.772   6.314   2.473  0.1754  2.0830  1.0076
  299TIP3    H2  862   5.917   6.280   2.500  0.1017 -0.5323 -1.4064
  300TIP3   OH2  863   2.759   1.716   5.161  0.1602  0.0471  0.2547
  300TIP3    H1  864   2.739   1.626   5.133  1.0743 -0.3918  0.9584
  300TIP3    H2  865   2.721   1.722   5.249 -0.1615  0.4565  0.0899
  301TIP3   OH2  866   3.273   2.955   3.937 -0.0534 -0.3524  0.1037
  301TIP3    H1  867   3.337   2.995   3.996  0.5432  1.0137 -1.4104
  301TIP3    H2  868   3.322   2.888   3.890  0.0889  0.1836 -0.5215
  302TIP3   OH2  869   4.385   4.515   3.162 -0.5264  0.6205  0.0401
  302TIP3    H1  870   4.418   4.460   3.091  0.9548 -0.4682  1.4858
  302TIP3    H2  871   4.370   4.454   3.235  1.1390  2.0433  1.7009
  303TIP3   OH2  872   3.740   6.185   0.259  0.1248 -0.1992 -0.0038
  303TIP3    H1  873   3.811   6.233   0.216 -0.3515  1.4864  0.9917
  303TIP3    H2  874   3.706   6.246   0.324 -1.9665 -1.1145 -0.1526
  304TIP3   OH2  875   6.236   2.824   2.913 -0.0549 -0.5555  1.0447
  304TIP3    H1  876   6.284   2.896   2.955 -0.9342  0.8818 -0.3032
  304TIP3    H2  877   6.165   2.803   2.974  0.2273 -0.2900  1.4631
  305TIP3   OH2  878   6.630   4.196   1.194 -0.3440  0.0797  0.0513
  305TIP3    H1  879   6.723   4.216   1.188  0.1342 -1.9515  0.0529
  305TIP3    H2  880   6.605   4.170   1.105 -1.4365  2.4850 -0.4277
  306TIP3   OH2  881   5.826   2.132   5.325  0.2853 -0.0552 -0.2233
  306TIP3    H1  882   5.845   2.051   5.372 -0.8693 -0.4560 -0.3980
  306TIP3    H2  883   5.730   2.140   5.330  0.0471 -0.3092 -2.7811
  307TIP3   OH2  884   4.166   2.854   4.935 -0.9642  0.0133  0.1913
  307TIP3    H1  885   4.236   2.919   4.938  0.6628 -1.7072  1.4299
  307TIP3    H2  886   4.170   2.819   4.846 -1.9608  1.6345 -0.5408
  308TIP3   OH2  887   1.094   6.006   0.551  1.0615 -0.2487 -0.1706
  308TIP3    H1  888   1.170   6.039   0.600  0.3097 -0.9709  1.5653
  308TIP3    H2  889   1.079   5.918   0.587 -1.2916  0.3125  0.3828
  309TIP3   OH2  890   0.172   6.214   5.110 -0.1781 -0.3847 -1.0173
  309TIP3    H1  891   0.215   6.131   5.134 -2.9919 -1.0365  2.7296
  309TIP3    H2  892   0.120   6.236   5.187 -0.7781  4.1530 -2.4749
  310TIP3   OH2  893   1.008   4.637   1.547 -0.0111 -0.0592  0.4187
  310TIP3    H1  894   1.028   4.641   1.454 -0.2790  0.7434  0.3920
  310TIP3    H2  895   0.927   4.687   1.557 -1.6252 -2.5332  0.6422
  311TIP3   OH2  896   1.556   5.798   3.716  0.2919 -0.1991 -0.0155
  311TIP3    H1  897   1.560   5.878   3.663 -0.1755 -0.0149  0.2315
  311TIP3    H2  898   1.552   5.829   3.806 -0.1172 -0.4963  0.0705
  312TIP3   OH2  899   4.767   6.441   0.689  0.3486  0.3326 -0.0961
  312TIP3    H1  900   4.778   6.509   0.623  1.2479  0.0988 -0.1986
  312TIP3    H2  901   4.718   6.371   0.644  0.5838  0.3532 -0.3843
  313TIP3   OH2  902   6.930   2.311   4.689 -0.1237  0.3493 -0.0451
  313TIP3    H1  903   6.997   2.340   4.750 -0.0565  0.0361  0.0276
  313TIP3    H2  904   6.942   2.367   4.612  1.7288 -1.2352 -0.9687
  314TIP3   OH2  905   6.322   1.904   4.062  0.1862 -0.6964 -0.9634
  314TIP3    H1  906   6.263   1.843   4.106 -1.2543  0.9716 -0.4656
  314TIP3    H2  907   6.409   1.880   4.094 -0.4673 -1.7198  0.1391
  315TIP3   OH2  908   1.239   3.942   3.511 -0.5106 -0.7426 -0.3227
  315TIP3    H1  909   1.158   3.893   3.507 -0.5887 -0.7179  0.6533
  315TIP3    H2  910   1.296   3.891   3.569 -0.5190  0.1929  0.5294
  316TIP3   OH2  911   3.445   4.244   1.233  0.1015 -0.3130 -0.4051
  316TIP3    H1  912   3.369   4.270   1.286  0.5748 -0.9390  0.5917
  316TIP3    H2  913   3.407   4.221   1.148 -0.6408  0.9162 -0.4295
  317TIP3   OH2  914   1.725   1.294   5.884  0.9434 -0.0477  0.7056
  317TIP3    H1  915   1.635   1.324   5.892  0.7644 -0.5183  0.5042
  317TIP3    H2  916   1.736   1.277   5.790  1.2253 -0.0359  0.7369
  318TIP3   OH2  917   5.134   2.261   0.442 -0.3304  0.2840 -0.6762
  318TIP3    H1  918   5.134   2.245   0.537  0.5756  0.6996 -0.5988
  318TIP3    H2  919   5.045   2.290   0.423 -0.4387  0.4888  0.0938
  319TIP3   OH2  920   3.970   5.608   1.698  0.4989 -0.1548  0.1894
  319TIP3    H1  921   4.041   5.657   1.655 -1.4852  0.4683 -2.7420
  319TIP3    H2  922   3.962   5.528   1.646 -1.0023 -0.1433  0.3639
  320TIP3   OH2  923   3.877   6.500   1.500 -0.6061 -0.0823  0.0194
  320TIP3    H1  924   3.803   6.458   1.456 -1.0309 -1.5714  2.0006
  320TIP3    H2  925   3.942   6.430   1.510  0.0449  0.5688  0.4924
  321TIP3   OH2  926   4.845   3.693   0.676  0.1973 -0.5619  0.1545
  321TIP3    H1  927   4.851   3.765   0.739  0.8495 -0.9413  0.5428
  321TIP3    H2  928   4.820   3.617   0.729  2.1789 -1.2075  0.2418
  322TIP3   OH2  929   5.826   4.552   5.533  0.1502  0.1436 -0.0317
  322TIP3    H1  930   5.892   4.539   5.601 -0.1101 -3.1234 -0.2233
  322TIP3    H2  931   5.755   4.597   5.577  1.0952  0.5561  1.1265
  323TIP3   OH2  932   6.125   5.101   4.984 -0.1724 -0.0817 -0.2231
  323TIP3    H1  933   6.128   5.195   4.965 -0.9324  0.2146  1.0057
  323TIP3    H2  934   6.094   5.096   5.074  0.4006 -1.5050 -0.0819
  324TIP3   OH2  935   4.605   5.024   3.776  0.3939  0.3352 -0.3673
  324TIP3    H1  936   4.645   5.109   3.759  0.9242  0.2025  0.1523
  324TIP3    H2  937   4.634   4.969   3.703  1.3486  0.1900  0.0954
  325TIP3   OH2  938   3.353   0.174   5.044 -0.2596  0.1933 -0.0544
  325TIP3    H1  939   3.432   0.196   4.995  0.6500  0.8326  1.5932
  325TIP3    H2  940   3.287   0.156   4.978  0.8194  1.2976 -1.4964
  326TIP3   OH2  941   1.842   5.826   4.106 -0.5377 -0.4271 -0.0327
  326TIP3    H1  942   1.908   5.833   4.174 -0.9238 -1.4409  0.4697
  326TIP3    H2  943   1.847   5.909   4.059 -0.3383  0.3405  1.2936
  327TIP3   OH2  944   1.545   3.482   0.172 -0.0736 -0.2059  0.7552
  327TIP3    H1  945   1.557   3.574   0.197  2.4020 -0.3984  0.5782
  327TIP3    H2  946   1.627   3.459   0.128 -0.7284 -2.4515  0.5887
  328TIP3   OH2  947   4.522   3.201   0.700  0.1477  0.3105  0.2075
  328TIP3    H1  948   4.535   3.128   0.641  1.5978  0.6354  0.0690
  328TIP3    H2  949   4.493   3.273   0.644  0.9016  0.4399 -0.0384
  329TIP3   OH2  950   3.427   2.964   2.589 -0.1045 -0.0135 -0.0149
  329TIP3    H1  951   3.481   3.010   2.524  0.5115  0.8852  1.0853
  329TIP3    H2  952   3.356   2.926   2.538  0.9701 -0.3163 -1.3758
  330TIP3   OH2  953   4.486   0.827   3.236  0.2495  0.0239  0.0778
  330TIP3    H1  954   4.504   0.908   3.283 -1.1743  1.4638 -1.6775
  330TIP3    H2  955   4.407   0.793   3.277 -0.0532  0.4013 -0.1773
  331TIP3   OH2  956   1.967   0.200   4.721  0.1089 -0.4169 -0.0422
  331TIP3    H1  957   1.931   0.201   4.632 -0.9250  0.4090  0.3646
  331TIP3    H2  958   1.896   0.166   4.775 -0.4632  2.0839  0.9053
  332TIP3   OH2  959   2.814   3.008   2.205  0.5458  0.1063  0.5153
  332TIP3    H1  960   2.861   2.926   2.194 -1.1258 -0.7971 -0.1599
  332TIP3    H2  961   2.797   3.013   2.300 -0.3963 -0.9665  0.4268
  333TIP3   OH2  962   4.181   4.125   5.640 -0.5617  0.1758  0.0006
  333TIP3    H1  963   4.195   4.133   5.546 -0.5294 -0.1470 -0.0226
  333TIP3    H2  964   4.270   4.118   5.676 -0.5916 -0.1553  0.0122
  334TIP3   OH2  965   5.502   5.657   3.349 -0.6162  0.6339 -0.0412
  334TIP3    H1  966   5.556   5.729   3.382  0.3380  0.3251 -0.8827
  334TIP3    H2  967   5.561   5.582   3.346 -0.8749  0.4706 -1.7007
  335TIP3   OH2  968   2.657   2.650   2.514 -0.0948 -0.1596 -1.1368
  335TIP3    H1  969   2.568   2.678   2.536  0.0390 -1.4860  1.5165
  335TIP3    H2  970   2.712   2.691   2.581  0.9333 -1.4330 -1.1558
  336TIP3   OH2  971   5.294   3.942   5.920 -0.1069  0.1785 -0.1227
  336TIP3    H1  972   5.208   3.944   5.879 -0.3105  0.6934  0.3030
  336TIP3    H2  973   5.348   3.999   5.866 -0.1083  0.0649 -0.2421
  337TIP3   OH2  974   1.579   1.186   1.059  0.2168 -0.4756 -0.6274
  337TIP3    H1  975   1.584   1.157   1.150 -0.2043  1.0378 -0.1013
  337TIP3    H2  976   1.669   1.186   1.029  0.7102  1.5176  0.6430
  338TIP3   OH2  977   6.738   6.325   4.029 -0.1725 -0.2011  0.0030
  338TIP3    H1  978   6.748   6.296   3.938  1.2644  0.1349  0.0288
  338TIP3    H2  979   6.804   6.393   4.040 -1.6418  1.1534  0.7542
  339TIP3   OH2  980   1.329   5.939   2.744 -0.6216 -0.5645 -0.1150
  339TIP3    H1  981   1.409   5.896   2.774  0.3589  1.3235  0.1426
  339TIP3    H2  982   1.274   5.868   2.712  0.8773 -1.9895  0.3275
  340TIP3   OH2  983   1.327   2.005   0.990  0.1514  0.2802  0.5556
  340TIP3    H1  984   1.367   2.035   0.908 -1.6054  0.4815 -0.2827
  340TIP3    H2  985   1.306   2.085   1.038  2.3799  0.1448  1.8764
  341TIP3   OH2  986   7.097   4.418   3.227  0.1242  0.3928  0.3447
  341TIP3    H1  987   7.010   4.387   3.249  0.5841  0.4581  2.4680
  341TIP3    H2  988   7.156   4.346   3.250  0.7605  0.8970  0.3339
  342TIP3   OH2  989   4.235   3.249   4.975 -0.2459 -0.1448  0.2398
  342TIP3    H1  990   4.191   3.236   5.060  0.1168  1.5051  0.7135
  342TIP3    H2  991   4.303   3.314   4.993  0.8065 -0.8574 -1.0228
  343TIP3   OH2  992   6.407   0.728   2.610 -0.2980  0.2829  0.3652
  343TIP3    H1  993   6.383   0.787   2.681 -0.6043  0.0331  0.4714
  343TIP3    H2  994   6.413   0.642   2.651  0.6050  0.3136  0.2998
  344TIP3   OH2  995   1.647   0.145   3.970 -0.3284  0.2849  0.3641
  344TIP3    H1  996   1.641   0.065   3.918  0.1289  1.4248 -1.5307
  344TIP3    H2  997   1.556   0.168   3.990 -0.4978 -0.2417  0.2167
  345TIP3   OH2  998   5.847   0.556   4.639 -0.5374 -0.4186  0.7454
  345TIP3    H1  999   5.809   0.551   4.552 -0.4026 -1.4444  0.7339
  345TIP3    H2 1000   5.921   0.617   4.630 -2.3046  1.8678  0.8472
  346TIP3   OH2 1001   5.529   3.815   2.121 -0.2555  0.4689  0.1384
  346TIP3    H1 1002   5.606   3.823   2.179 -0.3685 -0.7361  0.4934
  346TIP3    H2 1003   5.551   3.743   2.062  0.1621  2.1428 -1.8663
  347TIP3   OH2 1004   4.038   3.915   3.490 -0.0589  0.0580 -0.2491
  347TIP3    H1 1005   3.975   3.952   3.552  0.2534 -1.0882  0.7858
  347TIP3    H2 1006   3.984   3.883   3.417 -0.4438  1.2221 -0.5126
  348TIP3   OH2 1007   1.376   0.133   3.032 -0.2382 -0.8116  0.4015
  348TIP3    H1 1008   1.369   0.223   3.063  1.0950 -0.3857 -0.4777
  348TIP3    H2 1009   1.304   0.124   2.968 -0.5714 -0.4840  0.7285
  349TIP3   OH2 1010   3.955   5.052   2.059 -0.8795 -0.3526  0.0544
  349TIP3    H1 1011   3.986   4.999   1.985 -0.0114  1.2287 -0.7591
  349TIP3    H2 1012   4.003   5.017   2.134  0.6975  0.0960 -0.6911
  350TIP3   OH2 1013   4.512   1.335   4.355  0.6826  0.3803  0.2896
  350TIP3    H1 1014   4.592   1.310   4.308  0.7988 -0.1584  0.7599
  350TIP3    H2 1015   4.515   1.431   4.358  2.4842  0.3225  2.2660
  351TIP3   OH2 1016   2.004   2.904   0.546  0.2944 -0.1797  0.5582
  351TIP3    H1 1017   2.037   2.846   0.478 -1.3060  0.3583 -0.7259
  351TIP3    H2 1018   2.065   2.978   0.546 -0.8985  0.9184 -1.9381
  352TIP3   OH2 1019   1.767   3.729   1.052 -0.2564  0.4172 -0.4573
  352TIP3    H1 1020   1.799   3.641   1.034  1.2543  0.3762  1.9315
  352TIP3    H2 1021   1.674   3.716   1.074 -0.2497 -0.4533 -0.8813
  353TIP3   OH2 1022   1.469   6.003   5.696 -0.0351  0.1906 -0.7625
  353TIP3    H1 1023   1.436   5.968   5.779 -1.4869  0.3424 -1.2419
  353TIP3    H2 1024   1.488   6.095   5.714 -2.1077  0.7133 -1.0206
  354TIP3   OH2 1025   1.882   5.818   5.076  0.5537 -0.4235 -0.5518
  354TIP3    H1 1026   1.974   5.793   5.088  0.3284 -0.8157  0.4255
  354TIP3    H2 1027   1.833   5.737   5.093  0.0767 -0.5561 -2.3508
  355TIP3   OH2 1028   5.068   6.027   2.429  0.2194  0.6989  0.1567
  355TIP3    H1 1029   5.049   5.938   2.459  1.5505  0.6301  0.8785
  355TIP3    H2 1030   5.017   6.036   2.348 -1.4705 -0.0082  1.0849
  356TIP3   OH2 1031   2.735   2.356   2.768  0.2265 -0.3375 -0.0041
  356TIP3    H1 1032   2.651   2.311   2.781  0.1254 -0.7090 -1.7755
  356TIP3    H2 1033   2.717   2.447   2.790 -1.3890  0.1239 -2.7759
  357TIP3   OH2 1034   5.377   4.945   4.408  0.0795 -0.1077  0.1761
  357TIP3    H1 1035   5.383   4.857   4.372 -0.0013 -0.9987  2.1992
  357TIP3    H2 1036   5.467   4.967   4.433 -0.1204 -0.2812  1.0966
  358TIP3   OH2 1037   0.856   6.710   0.707 -0.1851  0.3880  0.0311
  358TIP3    H1 1038   0.895   6.623   0.697  0.5661  0.8276 -1.0876
  358TIP3    H2 1039   0.931   6.768   0.722 -0.6610  0.8890  0.5450
  359TIP3   OH2 1040   1.034   5.808   1.836 -0.1072 -0.2145  0.1260
  359TIP3    H1 1041   1.029   5.873   1.766  0.7918 -0.3421 -0.0753
  359TIP3    H2 1042   1.025   5.859   1.916 -0.0912  0.0746 -0.0530
  360TIP3   OH2 1043   2.959   1.460   2.660  0.1922  0.0333  0.2137
  360TIP3    H1 1044   2.973   1.366   2.652 -1.9101 -0.3937  0.9403
  360TIP3    H2 1045   2.902   1.483   2.586  2.4487  1.2124 -1.2697
  361TIP3   OH2 1046   1.567   1.391   3.668 -0.3838 -0.7266 -0.1120
  361TIP3    H1 1047   1.542   1.446   3.593 -2.8579  2.0971  2.4748
  361TIP3    H2 1048   1.662   1.398   3.672 -0.0228 -1.8396 -3.4341
  362TIP3   OH2 1049   2.931   1.679   1.734  0.2489  0.0928  0.2776
  362TIP3    H1 1050   3.004   1.731   1.701  1.9864 -1.9331  0.6622
  362TIP3    H2 1051   2.866   1.743   1.764  1.3655  1.9706 -1.1093
  363TIP3   OH2 1052   5.963   1.105   0.849 -0.6530 -0.0984  0.5821
  363TIP3    H1 1053   5.959   1.190   0.806  0.7343  0.5167  1.5871
  363TIP3    H2 1054   5.997   1.046   0.782  0.4365  0.6122  0.4896
  364TIP3   OH2 1055   0.122   2.779   4.664  0.4386 -0.0118  0.3445
  364TIP3    H1 1056   0.178   2.845   4.705 -0.5443  0.3273  1.1992
  364TIP3    H2 1057   0.062   2.752   4.733 -0.5266 -0.2786 -0.5640
  365TIP3   OH2 1058   7.028   5.310   3.444  0.0457 -0.0755  1.0725
  365TIP3    H1 1059   7.063   5.383   3.392 -0.8391  0.4519  1.2059
  365TIP3    H2 1060   6.977   5.258   3.381  1.2068 -0.9754  0.8265
  366TIP3   OH2 1061   5.043   1.932   4.722  0.1691 -0.4074 -0.2565
  366TIP3    H1 1062   5.100   1.855   4.727  1.1583  0.3292  0.0542
  366TIP3    H2 1063   5.080   1.994   4.785 -0.6835  0.2818 -0.4168
  367TIP3   OH2 1064   3.207   3.539   2.895  0.4939 -0.0005 -0.1952
  367TIP3    H1 1065   3.275   3.499   2.950 -0.1260 -0.9680 -0.1091
  367TIP3    H2 1066   3.171   3.609   2.950 -0.4516 -1.2681  0.8515
  368TIP3   OH2 1067   4.679   4.627   5.776 -0.1279  0.1942  0.3561
  368TIP3    H1 1068   4.692   4.693   5.845 -3.1863  0.6360  0.6589
  368TIP3    H2 1069   4.649   4.549   5.822  1.8091 -0.9187 -0.1696
  369TIP3   OH2 1070   0.716   3.172   4.083  0.5085 -0.2932 -0.0903
  369TIP3    H1 1071   0.763   3.164   4.166  0.4627  0.3614  0.0053
  369TIP3    H2 1072   0.635   3.217   4.106  1.6625  2.3913 -0.8572
  370TIP3   OH2 1073   3.661   1.608   5.744 -0.2695  0.6241  0.3705
  370TIP3    H1 1074   3.660   1.512   5.741 -1.1627  0.6308 -1.9722
  370TIP3    H2 1075   3.738   1.633   5.693  1.3801  1.2364  2.9493
  371TIP3   OH2 1076   2.601   1.645   1.278 -0.3079 -0.1424 -0.1241
  371TIP3    H1 1077   2.600   1.740   1.271 -1.3348 -0.0499  0.9931
  371TIP3    H2 1078   2.667   1.626   1.344  2.1546 -0.4377 -2.4926
  372TIP3   OH2 1079   5.162   0.296   5.513  0.1967 -0.0689  0.1454
  372TIP3    H1 1080   5.189   0.210   5.482  1.2427  0.3972 -0.3142
  372TIP3    H2 1081   5.140   0.283   5.605 -1.6215 -1.2075 -0.4019
  373TIP3   OH2 1082   0.640   2.755   5.375 -0.2452 -0.1280 -0.0558
  373TIP3    H1 1083   0.565   2.812   5.394  0.0532  0.8847 -1.7134
  373TIP3    H2 1084   0.704   2.777   5.443 -1.6770 -1.5987  1.9053
  374TIP3   OH2 1085   0.913   3.562   3.368  0.1901  0.1167 -0.3175
  374TIP3    H1 1086   0.975   3.624   3.329  1.8180 -0.7050  0.8781
  374TIP3    H2 1087   0.848   3.618   3.411  0.9753  1.0046 -0.2485
  375TIP3   OH2 1088   6.485   1.960   0.112 -0.0795  0.0944 -0.0657
  375TIP3    H1 1089   6.415   1.915   0.065  0.7395 -1.0330 -0.2428
  375TIP3    H2 1090   6.467   1.942   0.204 -0.6555  0.7711 -0.0386
  376TIP3   OH2 1091   6.669   6.110   4.666  0.1685  0.4377 -0.0236
  376TIP3    H1 1092   6.624   6.026   4.671 -0.2538  0.5967 -0.8739
  376TIP3    H2 1093   6.602   6.175   4.686  0.8125  0.5364  2.0605
  377TIP3   OH2 1094   6.852   1.622   4.991  0.0849  0.1372 -0.2311
  377TIP3    H1 1095   6.929   1.586   5.034  1.6113  0.8822 -2.1481
  377TIP3    H2 1096   6.829   1.556   4.925  0.1918  0.6967 -0.8360
  378TIP3   OH2 1097   5.769   1.973   2.844 -0.3791  0.4485 -0.1825
  378TIP3    H1 1098   5.713   1.960   2.768 -0.8007  0.3788  0.1355
  378TIP3    H2 1099   5.834   2.037   2.815 -0.9472  0.9393 -0.3951
  379TIP3   OH2 1100   7.065   4.030   4.508  0.1540  0.2094 -0.4415
  379TIP3    H1 1101   7.083   3.949   4.460  0.2188  0.2406 -0.4693
  379TIP3    H2 1102   7.088   4.100   4.447  0.3155  0.2487 -0.3351
  380TIP3   OH2 1103   2.533   1.992   4.047 -0.2209  0.6624  0.5088
  380TIP3    H1 1104   2.493   1.984   3.960 -0.0993  1.3493  0.3868
  380TIP3    H2 1105   2.504   2.078   4.079  0.4427  0.7855  0.7893
  381TIP3   OH2 1106   3.132   3.188   4.102  0.1349 -0.2420 -0.0452
  381TIP3    H1 1107   3.105   3.100   4.130  3.0302 -2.2682 -2.8405
  381TIP3    H2 1108   3.201   3.213   4.164 -0.7269  0.1356  0.7842
  382TIP3   OH2 1109   2.884   0.239   2.531 -0.0123  0.2685 -0.0396
  382TIP3    H1 1110   2.855   0.331   2.532  1.4901  0.7762  0.2689
  382TIP3    H2 1111   2.934   0.231   2.450  1.3123  0.2390  0.7489
  383TIP3   OH2 1112   0.877   2.620   4.814  0.3676  0.0713 -0.4556
  383TIP3    H1 1113   0.848   2.711   4.815  0.8279  0.2278  0.9673
  383TIP3    H2 1114   0.799   2.570   4.789 -0.3016  0.7331  0.2576
  384TIP3   OH2 1115   2.267   0.661   5.462 -0.0970  0.2059  0.0588
  384TIP3    H1 1116   2.356   0.694   5.450 -0.3103  0.5798 -0.4897
  384TIP3    H2 1117   2.271   0.569   5.436  0.8416 -0.6867  2.9466
  385TIP3   OH2 1118   1.073   1.434   4.902  0.2672  0.3097 -0.4184
  385TIP3    H1 1119   1.043   1.377   4.832 -0.3247  0.6641 -0.4554
  385TIP3    H2 1120   1.083   1.520   4.861  0.4274  0.4044 -0.1885
  386TIP3   OH2 1121   2.372   2.939   5.207  0.6594 -0.4454 -0.3595
  386TIP3    H1 1122   2.297   2.967   5.155  0.0122 -1.3866  0.0281
  386TIP3    H2 1123   2.448   2.975   5.162 -0.0608  1.0714 -0.3958
  387TIP3   OH2 1124   1.983   6.482   0.213 -0.6694 -0.1652 -0.2818
  387TIP3    H1 1125   1.893   6.481   0.178 -0.1470 -2.0927 -1.7391
  387TIP3    H2 1126   2.030   6.418   0.160  1.7024  1.0625  0.1877
  388TIP3   OH2 1127   5.315   4.126   2.746 -0.0683 -0.1410 -0.3336
  388TIP3    H1 1128   5.296   4.132   2.840 -0.4581  0.4042 -0.4417
  388TIP3    H2 1129   5.309   4.216   2.715 -0.8140 -0.4227 -1.0434
  389TIP3   OH2 1130   6.674   5.637   1.967 -0.2730 -0.4921 -0.4540
  389TIP3    H1 1131   6.734   5.710   1.974  0.7598 -1.3666  0.0912
  389TIP3    H2 1132   6.616   5.660   1.894 -0.6075  1.2860  0.3089
  390TIP3   OH2 1133   0.773   2.295   3.557 -0.0619 -0.3285  0.1169
  390TIP3    H1 1134   0.812   2.318   3.473  0.0769 -1.3684 -0.1123
  390TIP3    H2 1135   0.758   2.379   3.600 -0.8829  0.2599 -1.2697
  391TIP3   OH2 1136   1.470   0.814   0.713  0.2655  0.7645  0.3587
  391TIP3    H1 1137   1.420   0.775   0.785 -1.7228  3.9108  0.8863
  391TIP3    H2 1138   1.561   0.796   0.734 -0.3635 -0.1243  2.6125
  392TIP3   OH2 1139   0.811   2.821   5.587  0.1942 -0.0284 -0.0878
  392TIP3    H1 1140   0.787   2.902   5.632  1.2385 -1.1310  2.6721
  392TIP3    H2 1141   0.891   2.844   5.539  0.0393  0.7688  0.0195
  393TIP3   OH2 1142   2.073   1.608   0.208 -0.0223 -0.1681  0.2732
  393TIP3    H1 1143   2.051   1.698   0.229  0.3294 -0.2657  1.0748
  393TIP3    H2 1144   1.990   1.561   0.213 -0.2903  0.1782 -0.5984
  394TIP3   OH2 1145   3.971   1.695   0.377 -0.0682  0.4820 -0.0189
  394TIP3    H1 1146   3.898   1.756   0.366 -1.0894 -0.8023 -0.7156
  394TIP3    H2 1147   4.026   1.735   0.443 -2.7328  0.2964  2.5190
  395TIP3   OH2 1148   1.587   5.805   4.210 -0.4342 -0.7524 -0.5405
  395TIP3    H1 1149   1.666   5.806   4.156  0.1501 -0.5295  0.2916
  395TIP3    H2 1150   1.620   5.793   4.299 -1.2267  0.8451  0.0004
  396TIP3   OH2 1151   3.184   5.865   2.669  0.4356  0.4323  0.3841
  396TIP3    H1 1152   3.219   5.816   2.743  1.2302  0.4091  0.0039
  396TIP3    H2 1153   3.252   5.929   2.648  0.5964 -0.1254 -0.8755
  397TIP3   OH2 1154   2.738   4.585   4.344  0.2163 -0.3596 -0.4367
  397TIP3    H1 1155   2.820   4.630   4.366 -0.6611  0.8301  0.5181
  397TIP3    H2 1156   2.730   4.595   4.249  0.2886  1.1026 -0.3076
  398TIP3   OH2 1157   6.938   0.537   2.433 -0.5469 -0.1511 -0.1078
  398TIP3    H1 1158   6.876   0.539   2.505  0.5005  1.4774  0.8298
  398TIP3    H2 1159   6.953   0.629   2.411  0.1571 -0.5659 -1.5212
  399TIP3   OH2 1160   2.432   3.960   5.514 -0.1721  0.3756 -0.1470
  399TIP3    H1 1161   2.432   4.019   5.590  1.4175 -1.1482  1.1341
  399TIP3    H2 1162   2.348   3.914   5.519 -0.1009  0.3129  0.6921
  400TIP3   OH2 1163   4.817   4.497   3.287  0.0754  0.4050  0.3558
  400TIP3    H1 1164   4.842   4.409   3.258  0.1529  0.6887 -0.4689
  400TIP3    H2 1165   4.801   4.545   3.206  1.7995  1.6765  0.6994
  401TIP3   OH2 1166   5.909   6.437   1.401 -0.4317  0.0529  0.5052
  401TIP3    H1 1167   5.957   6.357   1.378  0.7967  0.4011  1.7496
  401TIP3    H2 1168   5.883   6.474   1.317  2.4584  0.4168 -0.3229
  402TIP3   OH2 1169   2.287   0.717   3.148  0.2991 -0.0810  0.6322
  402TIP3    H1 1170   2.314   0.663   3.222 -0.7307 -1.6967 -0.1266
  402TIP3    H2 1171   2.205   0.679   3.118  0.0716  1.2681 -0.6098
  403TIP3   OH2 1172   3.206   4.177   5.684 -0.4847  0.0026 -0.0740
  403TIP3    H1 1173   3.158   4.213   5.610 -0.4442 -0.2604 -0.2316
  403TIP3    H2 1174   3.265   4.246   5.711  0.4178 -0.3358 -1.1017
  404TIP3   OH2 1175   6.312   5.190   3.205  0.2319 -0.0770 -0.8188
  404TIP3    H1 1176   6.391   5.219   3.251 -0.5156  0.6999  0.0155
  404TIP3    H2 1177   6.324   5.221   3.115  0.6818  0.4133 -0.5953
  405TIP3   OH2 1178   5.986   6.580   2.413 -0.0424  0.0870 -0.3654
  405TIP3    H1 1179   6.081   6.591   2.407 -0.0037  0.3254  0.5342
  405TIP3    H2 1180   5.966   6.507   2.355  0.9165 -1.0745  0.7140
  406TIP3   OH2 1181   5.822   0.368   2.249  0.6004  0.2321  0.2241
  406TIP3    H1 1182   5.896   0.407   2.202  0.5779  0.5803  0.4737
  406TIP3    H2 1183   5.858   0.288   2.288  0.8373  0.3838  0.3171
  407TIP3   OH2 1184   2.319   0.171   1.708 -0.1386  0.0083 -0.0724
  407TIP3    H1 1185   2.300   0.121   1.787 -1.5460 -0.4470 -0.6694
  407TIP3    H2 1186   2.377   0.115   1.657  1.3518  0.5953  0.9110
  408TIP3   OH2 1187   5.953   2.689   3.547  0.1279 -0.4063  0.0985
  408TIP3    H1 1188   6.039   2.725   3.568 -0.8119  2.5770 -0.7604
  408TIP3    H2 1189   5.893   2.731   3.609 -1.5422  2.6756 -3.2107
  409TIP3   OH2 1190   0.800   3.328   3.875  0.6636  0.7675  0.0282
  409TIP3    H1 1191   0.781   3.266   3.945  0.4280 -1.1793 -1.6655
  409TIP3    H2 1192   0.883   3.368   3.900  1.3477 -1.0003  0.6913
  410TIP3   OH2 1193   1.509   1.466   1.897 -0.6934 -0.1661  0.7027
  410TIP3    H1 1194   1.587   1.461   1.952 -0.5173  0.1386  0.4852
  410TIP3    H2 1195   1.499   1.378   1.861  0.3841  0.1480 -0.3988
  411TIP3   OH2 1196   4.851   2.168   2.946 -0.1226 -0.6188 -0.4260
  411TIP3    H1 1197   4.818   2.252   2.977 -0.5730 -1.2199  0.7914
  411TIP3    H2 1198   4.939   2.188   2.913 -0.9774  0.6673 -2.0215
  412TIP3   OH2 1199   2.286   5.555   3.942  0.0478 -0.7244  0.3224
  412TIP3    H1 1200   2.201   5.552   3.898  0.0708 -0.5915  0.2677
  412TIP3    H2 1201   2.273   5.506   4.023 -0.2361 -0.2049  0.5889
  413TIP3   OH2 1202   4.150   4.327   1.288 -0.2892 -0.1900  0.3582
  413TIP3    H1 1203   4.170   4.234   1.297  0.4962 -0.1101 -0.3784
  413TIP3    H2 1204   4.146   4.360   1.377  2.6192 -0.3053  0.6244
  414TIP3   OH2 1205   6.276   5.472   4.846  0.2462  0.0905  0.0539
  414TIP3    H1 1206   6.183   5.446   4.847  0.0933  0.5377 -0.9738
  414TIP3    H2 1207   6.285   5.524   4.766  1.5909 -0.7155 -0.3550
  415TIP3   OH2 1208   5.622   1.191   4.732 -0.0609  0.0810  0.7990
  415TIP3    H1 1209   5.559   1.189   4.804 -1.0497 -1.0056 -0.0554
  415TIP3    H2 1210   5.574   1.154   4.658  0.7985  1.5144 -0.5367
  416TIP3   OH2 1211   3.540   3.406   3.817  0.6021  0.2489  0.3485
  416TIP3    H1 1212   3.510   3.424   3.728 -2.0958 -1.1024  0.8966
  416TIP3    H2 1213   3.605   3.337   3.807 -0.0249 -0.2246 -0.5467
  417TIP3   OH2 1214   1.899   6.798   1.308  0.6727  0.3812 -0.1818
  417TIP3    H1 1215   1.831   6.787   1.375  0.6628  1.4905  0.0007
  417TIP3    H2 1216   1.971   6.742   1.338  1.0779  1.6566  1.3204
  418TIP3   OH2 1217   6.105   2.771   5.417 -0.7311 -0.3914  0.0828
  418TIP3    H1 1218   6.055   2.726   5.485 -1.0247  1.9070  1.4849
  418TIP3    H2 1219   6.178   2.812   5.463 -1.0042  1.3385 -0.9478
  419TIP3   OH2 1220   3.227   1.533   2.748  0.4475  0.1483  0.1367
  419TIP3    H1 1221   3.136   1.532   2.719  0.5077  1.4348 -0.1419
  419TIP3    H2 1222   3.271   1.469   2.693 -0.1134  0.1793 -0.3473
  420TIP3   OH2 1223   6.519   6.704   5.050  0.0774  0.2908 -0.5139
  420TIP3    H1 1224   6.442   6.647   5.048  0.9850 -1.0005 -0.6045
  420TIP3    H2 1225   6.498   6.775   4.990 -1.9456  1.2656  1.1972
  421TIP3   OH2 1226   4.658   4.281   3.657  0.2032 -0.2047  0.6887
  421TIP3    H1 1227   4.565   4.306   3.657  0.2654  0.0480  1.6899
  421TIP3    H2 1228   4.703   4.356   3.618  0.0979  0.1372  1.2148
  422TIP3   OH2 1229   6.816   1.289   5.076  0.3849 -0.1358  0.9960
  422TIP3    H1 1230   6.801   1.278   4.982  2.1707 -0.3554  0.6994
  422TIP3    H2 1231   6.881   1.359   5.082  1.6473 -1.3207  1.9242
  423TIP3   OH2 1232   5.176   0.116   1.079  0.5475 -0.0697  0.0249
  423TIP3    H1 1233   5.170   0.151   0.990  2.8283  0.7297  0.1207
  423TIP3    H2 1234   5.087   0.087   1.099 -0.3004  0.8819 -2.0317
  424TIP3   OH2 1235   5.189   5.149   1.197  0.2461 -0.2158 -0.4380
  424TIP3    H1 1236   5.220   5.149   1.287 -1.4830  0.5724  0.2101
  424TIP3    H2 1237   5.098   5.118   1.203 -0.7530  2.2376 -1.5208
  425TIP3   OH2 1238   2.701   2.437   2.352 -0.2646 -0.0983  0.2017
  425TIP3    H1 1239   2.789   2.470   2.331 -0.9282  2.1510  0.6384
  425TIP3    H2 1240   2.669   2.498   2.419 -1.2855 -2.2855  1.7944
  426TIP3   OH2 1241   1.789   4.681   4.772  0.6955  0.7458 -0.0338
  426TIP3    H1 1242   1.755   4.601   4.812 -0.0681  0.6619 -0.8148
  426TIP3    H2 1243   1.856   4.712   4.833  1.2075 -0.6342  0.1497
  427TIP3   OH2 1244   2.691   6.241   3.054  0.3798 -0.0260 -0.0090
  427TIP3    H1 1245   2.600   6.226   3.028  0.6173 -2.7543  0.4741
  427TIP3    H2 1246   2.709   6.330   3.025 -2.2106  0.3425 -0.7708
  428TIP3   OH2 1247   6.062   5.698   1.330  0.4792  0.3869 -0.8377
  428TIP3    H1 1248   6.002   5.679   1.258 -0.2447 -0.0806 -0.1241
  428TIP3    H2 1249   6.026   5.776   1.371  0.9348  0.6963 -1.0206
  429TIP3   OH2 1250   4.679   2.640   5.654  0.1571 -0.3547  0.3155
  429TIP3    H1 1251   4.713   2.726   5.628 -0.2755  0.2634  1.6707
  429TIP3    H2 1252   4.754   2.581   5.644  0.9772  0.5290  0.9745
  430TIP3   OH2 1253   3.089   6.113   0.440 -0.5581  0.0133  0.4671
  430TIP3    H1 1254   3.082   6.100   0.535 -0.2922 -0.6546  0.4025
  430TIP3    H2 1255   3.009   6.160   0.416 -0.7515 -0.0429  0.9836
  431TIP3   OH2 1256   2.412   2.842   4.444  0.1739 -0.2546 -0.5643
  431TIP3    H1 1257   2.476   2.771   4.440  1.2736  0.7483 -1.7352
  431TIP3    H2 1258   2.450   2.912   4.391 -0.6542  1.4118  0.9322
  432TIP3   OH2 1259   3.139   6.728   3.351  0.5926 -0.0738  0.1756
  432TIP3    H1 1260   3.144   6.822   3.363 -1.8448  0.2819 -1.0873
  432TIP3    H2 1261   3.061   6.714   3.298 -0.2890 -2.9412  1.9738
  433TIP3   OH2 1262   6.558   6.665   0.230 -0.1541  0.2911 -0.5446
  433TIP3    H1 1263   6.643   6.699   0.202 -0.7123  0.8675 -1.5964
  433TIP3    H2 1264   6.506   6.660   0.150 -0.9215 -0.6529 -0.0170
  434TIP3   OH2 1265   5.194   2.561   4.443 -0.8873  0.6860 -0.3972
  434TIP3    H1 1266   5.137   2.603   4.378 -1.4362 -0.2438 -0.5269
  434TIP3    H2 1267   5.153   2.582   4.527 -1.9485 -0.7041 -0.5321
  435TIP3   OH2 1268   1.525   2.254   5.124 -0.2659 -0.0975  0.0740
  435TIP3    H1 1269   1.477   2.323   5.079  1.4681  1.3898  0.4142
  435TIP3    H2 1270   1.600   2.237   5.067  0.0768 -0.7037  0.7014
  436TIP3   OH2 1271   2.154   5.198   5.066  0.2463 -0.2611  0.1156
  436TIP3    H1 1272   2.231   5.169   5.114 -0.6160  0.3370  1.9294
  436TIP3    H2 1273   2.096   5.122   5.065 -0.3202  0.1270  1.3158
  437TIP3   OH2 1274   1.168   5.387   2.504  0.4023  0.1498  0.1448
  437TIP3    H1 1275   1.083   5.376   2.545 -0.5655  2.2438 -1.1447
  437TIP3    H2 1276   1.222   5.431   2.570  0.5943 -1.3663  1.0345
  438TIP3   OH2 1277   6.022   0.581   0.840 -0.2848  0.0710 -1.0007
  438TIP3    H1 1278   5.939   0.535   0.856 -0.0199 -0.1468 -0.1790
  438TIP3    H2 1279   6.037   0.571   0.746 -0.0893 -1.8186 -0.8074
  439TIP3   OH2 1280   1.282   0.559   5.821 -0.4339 -0.1373 -0.0522
  439TIP3    H1 1281   1.304   0.468   5.838 -0.1842 -0.1395 -0.3688
  439TIP3    H2 1282   1.210   0.555   5.758 -0.9666 -0.1218  0.5410
  440TIP3   OH2 1283   0.869   1.021   3.528 -0.2971 -0.1830  0.0403
  440TIP3    H1 1284   0.939   0.955   3.530  1.2002  1.3430  0.0775
  440TIP3    H2 1285   0.840   1.027   3.619  0.8012  0.4340  0.3752
  441TIP3   OH2 1286   1.196   2.822   2.771  0.4621  0.3924 -0.7222
  441TIP3    H1 1287   1.286   2.795   2.788 -0.6138 -2.7077  0.8151
  441TIP3    H2 1288   1.180   2.798   2.680  1.5374  2.3654 -1.5012
  442TIP3   OH2 1289   1.047   2.299   1.458  0.2581  0.6261 -0.7846
  442TIP3    H1 1290   1.057   2.254   1.374 -0.3435 -0.4244 -0.3182
  442TIP3    H2 1291   1.112   2.258   1.515 -1.3206 -0.8302  0.0867
  443TIP3   OH2 1292   6.307   4.852   1.955 -0.6619  0.0219  0.5277
  443TIP3    H1 1293   6.268   4.813   1.876 -1.2935  1.6358 -0.0122
  443TIP3    H2 1294   6.364   4.921   1.922  0.2559 -0.2754  1.4477
  444TIP3   OH2 1295   0.217   3.285   5.148 -0.2858  0.0563  0.2566
  444TIP3    H1 1296   0.291   3.336   5.179 -2.7625  3.1478  1.5869
  444TIP3    H2 1297   0.147   3.302   5.211 -3.3743  0.6342 -2.9865
  445TIP3   OH2 1298   4.417   5.977   4.352 -0.4139  0.4642 -0.9355
  445TIP3    H1 1299   4.406   5.906   4.289 -1.6834 -0.4343  0.2495
  445TIP3    H2 1300   4.344   5.967   4.413  0.5628  1.5326  0.4735
  446TIP3   OH2 1301   4.777   5.180   1.973 -0.1786  0.2273  0.5636
  446TIP3    H1 1302   4.816   5.093   1.978 -0.3428  0.1236  0.1482
  446TIP3    H2 1303   4.824   5.224   1.902 -0.9923 -0.0054 -0.1510
  447TIP3   OH2 1304   3.761   4.909   3.389  0.4124 -0.2524  0.6807
  447TIP3    H1 1305   3.841   4.906   3.336  0.3922 -0.3920  0.6560
  447TIP3    H2 1306   3.781   4.854   3.465  0.4805  0.0397  0.8758
  448TIP3   OH2 1307   2.407   0.112   1.438 -0.2220 -0.2211  0.0558
  448TIP3    H1 1308   2.394   0.021   1.411 -0.6782 -0.3574  0.7155
  448TIP3    H2 1309   2.321   0.153   1.427 -0.7464 -0.5779  2.4054
  449TIP3   OH2 1310   6.795   0.956   1.728  0.2403  0.0671 -0.0523
  449TIP3    H1 1311   6.748   0.923   1.652 -1.3816 -0.9164  1.2956
  449TIP3    H2 1312   6.731   1.011   1.774  0.8875 -0.0281  1.0125
  450TIP3   OH2 1313   0.354   1.520   1.068 -0.1640  0.8893 -0.0937
  450TIP3    H1 1314   0.369   1.523   0.974 -0.1233 -2.1022 -0.2656
  450TIP3    H2 1315   0.441   1.528   1.107  0.3422 -1.7123 -0.5276
  451TIP3   OH2 1316   3.606   5.599   0.699 -0.2394  0.1099  0.5015
  451TIP3    H1 1317   3.660   5.520   0.691 -1.4530 -0.6562 -0.5499
  451TIP3    H2 1318   3.634   5.654   0.625 -0.7408 -0.2089  0.0640
  452TIP3   OH2 1319   4.501   0.579   2.806  0.6003  0.7906 -0.3337
  452TIP3    H1 1320   4.588   0.618   2.809  0.6853  0.6757 -1.0595
  452TIP3    H2 1321   4.512   0.498   2.756  0.8833 -1.4296  3.0381
  453TIP3   OH2 1322   0.876   1.815   2.209  0.3175 -0.0132 -0.3719
  453TIP3    H1 1323   0.788   1.824   2.172  0.3617 -1.8094 -1.0158
  453TIP3    H2 1324   0.867   1.842   2.301 -0.7051  0.6227 -0.6490
  454TIP3   OH2 1325   6.063   2.426   2.028 -0.0316 -0.6728 -0.3209
  454TIP3    H1 1326   6.131   2.386   2.082 -0.2024 -0.8346 -0.2226
  454TIP3    H2 1327   6.083   2.398   1.939 -0.2111 -1.0755 -0.2406
  455TIP3   OH2 1328   4.396   5.153   5.351 -0.2067  0.3957  0.1844
  455TIP3    H1 1329   4.488   5.129   5.335  0.2970  1.9121  0.5826
  455TIP3    H2 1330   4.370   5.201   5.272 -1.0183 -0.9592 -0.3844
  456TIP3   OH2 1331   4.664   5.250   4.454  0.7129  0.1783  0.6264
  456TIP3    H1 1332   4.755   5.234   4.479  0.9086  0.9037  0.3845
  456TIP3    H2 1333   4.669   5.315   4.384 -0.1414  2.9893  2.9864
  457TIP3   OH2 1334   2.159   1.778   2.736  0.5632  0.0754  0.3687
  457TIP3    H1 1335   2.203   1.776   2.651  1.7085 -1.8464  0.9512
  457TIP3    H2 1336   2.201   1.849   2.783  0.2949  0.7972 -0.4512
  458TIP3   OH2 1337   7.066   5.325   0.836  0.3815  0.3464  0.0640
  458TIP3    H1 1338   6.982   5.349   0.795  0.8497  0.4913 -0.8397
  458TIP3    H2 1339   7.043   5.301   0.926 -0.6690  0.0881 -0.2620
  459TIP3   OH2 1340   4.720   0.720   2.515 -0.1447 -0.1624  0.1701
  459TIP3    H1 1341   4.716   0.624   2.512 -0.1693 -0.1689  0.3567
  459TIP3    H2 1342   4.812   0.739   2.534  0.1208 -0.1090 -1.1010
  460TIP3   OH2 1343   0.146   0.950   3.758  0.0132 -0.2900  0.3503
  460TIP3    H1 1344   0.170   1.026   3.811  1.0413 -0.1630 -0.2708
  460TIP3    H2 1345   0.109   0.888   3.821  0.5034  0.1599  1.0966
  461TIP3   OH2 1346   3.075   1.082   1.620 -0.7287  0.4933 -0.0102
  461TIP3    H1 1347   3.115   1.084   1.708 -0.8235 -0.0219  0.0504
  461TIP3    H2 1348   3.137   1.129   1.565  0.8308 -1.6820 -0.2520
  462TIP3   OH2 1349   1.614   6.136   4.022  0.0337 -0.1042  0.1539
  462TIP3    H1 1350   1.700   6.110   4.054  0.1920  0.3843  0.1223
  462TIP3    H2 1351   1.571   6.175   4.098  0.8949  2.2852 -0.5118
  463TIP3   OH2 1352   1.798   6.244   1.350  0.8340 -0.2398 -0.0497
  463TIP3    H1 1353   1.863   6.293   1.300  1.0415 -1.2514 -0.7944
  463TIP3    H2 1354   1.715   6.264   1.307  1.0422 -1.3085 -0.9953
  464TIP3   OH2 1355   0.417   6.329   3.828  0.3809 -0.2158  0.3530
  464TIP3    H1 1356   0.397   6.278   3.906 -0.1359 -0.6717 -0.0692
  464TIP3    H2 1357   0.500   6.373   3.848  1.0209 -1.4931  0.5888
  465TIP3   OH2 1358   2.307   0.154   0.353  0.8597  0.1614 -0.6455
  465TIP3    H1 1359   2.325   0.063   0.330 -1.2596 -0.1558 -1.2477
  465TIP3    H2 1360   2.252   0.148   0.431  0.9124  0.9364 -0.5428
  466TIP3   OH2 1361   0.230   3.138   0.916 -0.1770 -0.0308  0.0441
  466TIP3    H1 1362   0.185   3.171   0.993  0.1475  0.2476  0.1187
  466TIP3    H2 1363   0.221   3.207   0.851 -0.5759 -0.3258 -0.2202
  467TIP3   OH2 1364   6.362   0.242   3.056 -0.0278  0.5539 -0.7849
  467TIP3    H1 1365   6.276   0.272   3.029 -0.5554 -0.8181 -0.7069
  467TIP3    H2 1366   6.352   0.216   3.147  0.6521  1.0086 -0.5652
  468TIP3   OH2 1367   3.079   4.594   0.593 -0.0295 -0.0549  0.0924
  468TIP3    H1 1368   3.129   4.575   0.673 -0.3102 -0.7690  0.1093
  468TIP3    H2 1369   3.119   4.673   0.558 -0.3168  0.6642  1.2993
  469TIP3   OH2 1370   5.624   6.292   5.336 -0.1678 -0.1937 -0.3383
  469TIP3    H1 1371   5.600   6.322   5.424  0.2929 -1.7373  0.3551
  469TIP3    H2 1372   5.719   6.279   5.340  0.1838  1.6312 -1.7061
  470TIP3   OH2 1373   0.493   2.854   2.819  0.2714  0.7428  0.3592
  470TIP3    H1 1374   0.550   2.873   2.745 -1.7787 -0.3085 -1.6107
  470TIP3    H2 1375   0.487   2.758   2.820 -2.1772  0.8371 -0.1504
  471TIP3   OH2 1376   5.981   0.954   4.528 -0.2748  0.3550  0.2514
  471TIP3    H1 1377   6.055   1.012   4.544 -1.1727  1.7713 -0.4974
  471TIP3    H2 1378   5.940   0.943   4.614 -0.7704  1.8267  0.2364
  472TIP3   OH2 1379   6.149   3.597   4.250  0.5015  0.0913  0.1925
  472TIP3    H1 1380   6.057   3.604   4.223  0.4526 -0.4783  0.2035
  472TIP3    H2 1381   6.144   3.585   4.345  0.4645 -2.3517 -0.0734
  473TIP3   OH2 1382   3.919   5.413   2.642 -0.2384  0.3265  0.1213
  473TIP3    H1 1383   4.002   5.429   2.686 -0.7293 -0.9338  1.6244
  473TIP3    H2 1384   3.942   5.394   2.551  0.9588  1.4105  0.1757
  474TIP3   OH2 1385   3.418   5.788   1.673 -0.4699  0.1251  0.2794
  474TIP3    H1 1386   3.485   5.731   1.711 -1.0257 -0.1870  0.8070
  474TIP3    H2 1387   3.463   5.872   1.660 -0.7567  0.9674  3.6878
  475TIP3   OH2 1388   2.172   2.794   2.702 -0.1505 -0.0490  0.1688
  475TIP3    H1 1389   2.109   2.760   2.767  2.1315 -1.3398  1.8674
  475TIP3    H2 1390   2.173   2.888   2.717 -0.4057 -0.2137  1.3554
  476TIP3   OH2 1391   1.321   5.054   1.057 -0.3093  0.3323  0.1248
  476TIP3    H1 1392   1.251   5.025   1.115  0.4015  0.9104  1.3104
  476TIP3    H2 1393   1.394   4.994   1.075  0.1990  1.0355  0.4784
  477TIP3   OH2 1394   5.633   4.529   4.623 -0.3344 -0.3648 -0.5581
  477TIP3    H1 1395   5.633   4.519   4.718  0.7304  0.8844 -0.4035
  477TIP3    H2 1396   5.700   4.469   4.593  0.9616  0.8965 -0.2847
  478TIP3   OH2 1397   3.247   4.964   1.253 -0.2229 -0.5061  0.7776
  478TIP3    H1 1398   3.332   4.985   1.214 -0.1081 -0.0707  1.2485
  478TIP3    H2 1399   3.185   4.973   1.181 -0.1617  1.3215  0.8940
  479TIP3   OH2 1400   3.893   6.262   1.736 -0.1236 -0.3731 -0.1183
  479TIP3    H1 1401   3.801   6.260   1.764  0.0774  0.1901  0.6408
  479TIP3    H2 1402   3.890   6.250   1.641 -0.9700 -0.4973 -0.0846
  480TIP3   OH2 1403   3.459   6.749   5.028 -0.3543 -0.1606 -0.2414
  480TIP3    H1 1404   3.487   6.658   5.030 -1.5519 -0.6504 -2.9180
  480TIP3    H2 1405   3.385   6.753   5.089  1.5498 -0.1779  2.2570
  481TIP3   OH2 1406   1.297   1.631   4.500 -0.9189  0.2005  0.7145
  481TIP3    H1 1407   1.379   1.597   4.464 -2.1385 -0.1555 -1.9787
  481TIP3    H2 1408   1.301   1.611   4.594  2.2852  0.7430  0.7799
  482TIP3   OH2 1409   0.247   2.011   0.929  0.5903 -0.1054  0.0959
  482TIP3    H1 1410   0.268   2.016   0.836  0.1203  1.0726  0.0472
  482TIP3    H2 1411   0.164   2.057   0.938  1.1455  0.6971  1.2540
  483TIP3   OH2 1412   1.552   2.497   4.315 -0.2961  0.1463 -0.0772
  483TIP3    H1 1413   1.509   2.433   4.260 -0.9850 -0.7773  1.4704
  483TIP3    H2 1414   1.520   2.479   4.403  0.4759  1.8012  0.5922
  484TIP3   OH2 1415   3.941   4.112   0.300 -0.1430 -0.1139  0.2774
  484TIP3    H1 1416   3.927   4.207   0.298  2.2790  0.3116 -1.6899
  484TIP3    H2 1417   4.014   4.099   0.360  0.1353 -0.6199 -0.1578
  485TIP3   OH2 1418   2.986   4.852   4.090  0.7790 -0.4516 -0.1187
  485TIP3    H1 1419   2.950   4.778   4.042 -0.5334 -1.1146  1.7797
  485TIP3    H2 1420   2.932   4.859   4.168  3.3945 -0.0628  1.7996
  486TIP3   OH2 1421   6.840   0.235   2.417 -0.0472  0.5138  0.0715
  486TIP3    H1 1422   6.843   0.171   2.488 -2.5351  0.6536  0.4261
  486TIP3    H2 1423   6.887   0.311   2.451 -3.0902  1.4635  2.6879
  487TIP3   OH2 1424   2.423   0.760   3.674 -0.2430  0.2100 -0.1360
  487TIP3    H1 1425   2.473   0.681   3.695 -0.7032 -0.5572 -1.8032
  487TIP3    H2 1426   2.481   0.811   3.617 -0.2312  0.7384  0.3397
  488TIP3   OH2 1427   4.486   0.211   0.240  0.3597  0.1321  0.2268
  488TIP3    H1 1428   4.465   0.127   0.280  0.0477  0.2077  0.2240
  488TIP3    H2 1429   4.572   0.233   0.274  0.3599 -0.0981  0.3755
  489TIP3   OH2 1430   2.944   3.044   4.556 -0.3963  0.4476 -0.3782
  489TIP3    H1 1431   2.861   3.070   4.597 -0.6064  2.2216 -1.8026
  489TIP3    H2 1432   3.006   3.040   4.629 -1.2802  1.0789  0.4441
  490TIP3   OH2 1433   0.540   4.506   0.356  0.1570 -0.5123 -0.1604
  490TIP3    H1 1434   0.594   4.564   0.410 -0.5855 -0.5728  0.6626
  490TIP3    H2 1435   0.569   4.418   0.378 -1.5267 -0.6702  1.7507
  491TIP3   OH2 1436   5.498   4.303   4.327 -0.2230  0.2924  0.1727
  491TIP3    H1 1437   5.496   4.229   4.388  0.3919  0.8583  0.9028
  491TIP3    H2 1438   5.453   4.271   4.249  1.4147 -1.4287 -0.1665
  492TIP3   OH2 1439   2.325   5.239   0.139  0.1607  0.4457 -0.7644
  492TIP3    H1 1440   2.352   5.331   0.140 -2.7951  1.4146  0.6499
  492TIP3    H2 1441   2.230   5.242   0.135 -0.0260 -2.5995 -0.7565
  493TIP3   OH2 1442   4.886   2.868   4.371  0.2379  0.6605  0.0198
  493TIP3    H1 1443   4.966   2.854   4.321  0.4522 -0.0407  0.5414
  493TIP3    H2 1444   4.816   2.837   4.314  0.5838 -1.2704  0.5871
  494TIP3   OH2 1445   3.387   0.335   3.411 -0.5732 -0.1117 -0.4063
  494TIP3    H1 1446   3.434   0.414   3.384  0.4746 -0.6699 -0.2908
  494TIP3    H2 1447   3.298   0.365   3.430  0.3250  1.4450  1.7225
  495TIP3   OH2 1448   6.595   5.116   5.579  0.0271  0.0305  0.0567
  495TIP3    H1 1449   6.549   5.033   5.595  0.7858 -0.3959  0.1025
  495TIP3    H2 1450   6.595   5.160   5.663 -2.3169  1.1287 -0.4265
  496TIP3   OH2 1451   2.658   3.428   2.731  0.2342  0.2380  0.5333
  496TIP3    H1 1452   2.614   3.423   2.816  1.3050  1.0014  1.1618
  496TIP3    H2 1453   2.695   3.341   2.718 -0.2944 -0.0072  0.6428
  497TIP3   OH2 1454   7.087   0.330   5.727  0.6679  0.3457 -0.4306
  497TIP3    H1 1455   7.006   0.370   5.758  0.6352  1.2407 -1.6203
  497TIP3    H2 1456   7.082   0.239   5.758 -0.5349  0.5310 -0.0361
  498TIP3   OH2 1457   1.693   4.420   4.258  0.0459  0.2324 -0.6297
  498TIP3    H1 1458   1.600   4.403   4.274 -0.1088  1.0096 -0.6626
  498TIP3    H2 1459   1.697   4.512   4.234  0.6644 -0.1137 -1.9560
  499TIP3   OH2 1460   5.712   1.763   4.274  0.3266  0.0464  0.3569
  499TIP3    H1 1461   5.650   1.694   4.249 -1.9214  1.6576  1.1705
  499TIP3    H2 1462   5.789   1.746   4.220 -1.1693 -1.4968 -1.4585
  500TIP3   OH2 1463   2.770   2.525   0.201  0.0586  0.4778  0.3093
  500TIP3    H1 1464   2.816   2.556   0.279 -0.1518 -1.6243  1.3637
  500TIP3    H2 1465   2.683   2.502   0.233  0.8436 -3.3035  0.3138
  501TIP3   OH2 1466   6.824   1.528   4.715 -0.3066 -0.0905  0.1397
  501TIP3    H1 1467   6.915   1.507   4.737 -0.8058 -0.8012  1.6848
  501TIP3    H2 1468   6.778   1.444   4.725 -0.9077 -0.0771 -2.0638
  502TIP3   OH2 1469   2.532   0.249   1.976 -0.3677  0.5334 -0.5472
  502TIP3    H1 1470   2.447   0.222   2.011 -1.0720  1.4446 -1.4748
  502TIP3    H2 1471   2.590   0.252   2.052 -0.6058 -2.0686 -0.1731
  503TIP3   OH2 1472   3.132   3.810   5.067 -0.0562  0.4290 -0.2254
  503TIP3    H1 1473   3.065   3.845   5.126  0.9651  0.4600  0.9563
  503TIP3    H2 1474   3.097   3.725   5.039 -1.6753  1.4866 -1.5762
  504TIP3   OH2 1475   4.033   3.047   1.571  0.1890 -0.0290  0.0583
  504TIP3    H1 1476   4.049   2.967   1.621  1.3682 -0.3484 -0.7815
  504TIP3    H2 1477   4.022   3.018   1.481  0.4420  0.7323 -0.2324
  505TIP3   OH2 1478   0.721   0.607   1.966 -0.4880  0.2326 -0.4505
  505TIP3    H1 1479   0.754   0.694   1.988  0.3977 -0.4304  0.9195
  505TIP3    H2 1480   0.799   0.556   1.945 -0.9957 -0.2655 -1.1876
  506TIP3   OH2 1481   6.766   2.096   4.100 -0.4220  0.4481 -0.0601
  506TIP3    H1 1482   6.719   2.136   4.174  1.0512  0.0207  1.1480
  506TIP3    H2 1483   6.701   2.039   4.059 -1.0107 -0.1153  1.5469
  507TIP3   OH2 1484   5.623   4.102   2.912 -0.7354 -0.0714  0.0732
  507TIP3    H1 1485   5.592   4.015   2.938 -1.9623  0.4701  0.5325
  507TIP3    H2 1486   5.606   4.157   2.988 -0.2112  0.6267 -0.3036
  508TIP3   OH2 1487   0.079   3.015   1.201  0.5145  0.3148 -0.2259
  508TIP3    H1 1488   0.096   2.965   1.121  0.1241  0.5379 -0.4509
  508TIP3    H2 1489   0.024   3.087   1.173  0.2430  0.3085  0.2773
  509TIP3   OH2 1490   5.163   4.124   0.636 -0.0347 -0.1375 -0.2857
  509TIP3    H1 1491   5.242   4.135   0.689 -1.3901  1.0326  1.5885
  509TIP3    H2 1492   5.090   4.140   0.696 -1.7688 -1.9874 -1.7455
  510TIP3   OH2 1493   4.196   0.869   0.468 -0.2366 -0.0531 -0.7367
  510TIP3    H1 1494   4.175   0.775   0.469 -2.5229  0.3918 -1.2536
  510TIP3    H2 1495   4.214   0.888   0.376  1.2938 -0.1594 -0.4814
  511TIP3   OH2 1496   5.234   6.474   0.213 -0.1516 -0.5750 -0.5575
  511TIP3    H1 1497   5.154   6.425   0.199 -0.5405 -0.4251  0.9582
  511TIP3    H2 1498   5.208   6.566   0.203  0.1737 -0.5726 -1.5308
  512TIP3   OH2 1499   3.972   0.252   5.290 -0.4254 -0.6067  0.2601
  512TIP3    H1 1500   3.944   0.249   5.199 -2.5757 -1.2544  0.8930
  512TIP3    H2 1501   4.021   0.171   5.303 -1.6471 -1.3921  0.1115
  513TIP3   OH2 1502   6.491   6.550   1.147 -0.4840  0.4392  0.2600
  513TIP3    H1 1503   6.519   6.601   1.223 -0.0093 -1.0736  1.1518
  513TIP3    H2 1504   6.513   6.605   1.072 -0.2497  1.6477  1.1800
  514TIP3   OH2 1505   4.938   2.807   4.866 -0.6244  0.4542  0.4229
  514TIP3    H1 1506   5.012   2.849   4.909  0.4486  0.2597 -1.1385
  514TIP3    H2 1507   4.884   2.772   4.938  1.2637 -0.2056  1.5803
  515TIP3   OH2 1508   0.217   3.405   1.439  0.5781 -0.0499  0.2062
  515TIP3    H1 1509   0.233   3.347   1.514  0.5271  0.3049  0.4935
  515TIP3    H2 1510   0.122   3.415   1.436  0.5394 -0.5149 -0.2524
  516TIP3   OH2 1511   2.630   0.312   1.734  0.0204 -0.1671  0.2996
  516TIP3    H1 1512   2.610   0.240   1.674  1.1442  0.6319 -1.1074
  516TIP3    H2 1513   2.600   0.281   1.819 -0.3426 -1.9264 -0.4136
  517TIP3   OH2 1514   1.886   4.316   0.796  0.2073 -0.3833  0.0634
  517TIP3    H1 1515   1.900   4.332   0.889  0.8250  1.4312 -0.3045
  517TIP3    H2 1516   1.960   4.262   0.770  1.6775  1.5335  0.0558
  518TIP3   OH2 1517   6.217   6.025   2.806  0.1870 -0.2182  0.0930
  518TIP3    H1 1518   6.229   6.017   2.711 -0.1480  0.2605  0.0066
  518TIP3    H2 1519   6.154   5.957   2.828 -0.1047 -0.0165 -0.1075
  519TIP3   OH2 1520   2.263   4.560   0.345  0.3554  0.2410  0.9013
  519TIP3    H1 1521   2.248   4.556   0.439 -1.2354 -1.0161  0.6344
  519TIP3    H2 1522   2.219   4.482   0.310  0.5108  0.9217 -0.9296
  520TIP3   OH2 1523   1.784   5.625   3.756 -0.3398 -0.5276  0.0492
  520TIP3    H1 1524   1.851   5.687   3.727  0.3956 -1.5196 -0.4383
  520TIP3    H2 1525   1.702   5.673   3.748  0.3235  0.7833  0.8716
  521TIP3   OH2 1526   4.738   0.813   1.693  0.4232  0.3498  0.3767
  521TIP3    H1 1527   4.801   0.877   1.660 -0.7344  1.0727 -0.5125
  521TIP3    H2 1528   4.665   0.866   1.724 -0.0254 -0.4989  0.7924
  522TIP3   OH2 1529   0.622   2.578   4.044  0.4858 -0.3666 -0.1339
  522TIP3    H1 1530   0.647   2.671   4.043  3.1122 -0.9937 -0.1184
  522TIP3    H2 1531   0.620   2.555   4.137  0.6926 -0.5319 -0.1708
  523TIP3   OH2 1532   1.627   6.377   4.901 -0.5079 -0.0036 -0.5118
  523TIP3    H1 1533   1.686   6.401   4.830 -0.5236  0.3613 -0.4036
  523TIP3    H2 1534   1.556   6.328   4.858 -0.9662  0.9581 -0.8793
  524TIP3   OH2 1535   5.791   0.460   1.417  0.0832  0.2198 -0.7064
  524TIP3    H1 1536   5.860   0.485   1.478  0.1452  0.5019 -0.8900
  524TIP3    H2 1537   5.796   0.365   1.412 -0.2711  0.1455  0.1429
  525TIP3   OH2 1538   3.521   0.505   3.725  0.0718  0.3593 -0.7668
  525TIP3    H1 1539   3.507   0.488   3.632 -0.5513  0.6266 -0.7270
  525TIP3    H2 1540   3.470   0.437   3.770  0.1965  0.3595 -0.6246
  526TIP3   OH2 1541   3.960   0.420   2.327  0.2059 -0.0744 -0.0623
  526TIP3    H1 1542   3.924   0.342   2.369 -3.5907  0.3777 -2.0303
  526TIP3    H2 1543   3.914   0.493   2.368  3.4130  1.2997  1.4773
  527TIP3   OH2 1544   3.975   4.833   1.296  0.1646 -0.1890 -0.2382
  527TIP3    H1 1545   4.000   4.818   1.205  1.8093  0.9456 -0.0128
  527TIP3    H2 1546   3.946   4.924   1.298  1.0002  0.0690  0.5338
  528TIP3   OH2 1547   2.691   2.777   5.070  0.1797  0.0390  0.2707
  528TIP3    H1 1548   2.739   2.828   5.135  1.3621 -1.8693  0.9929
  528TIP3    H2 1549   2.738   2.694   5.066 -1.8266 -1.1145 -0.6328
  529TIP3   OH2 1550   3.467   3.041   3.008  0.0886  0.2478  0.0043
  529TIP3    H1 1551   3.559   3.055   2.988 -0.6535  2.3859 -2.3882
  529TIP3    H2 1552   3.447   2.956   2.969  0.2582  1.4113 -2.7900
  530TIP3   OH2 1553   4.805   4.193   2.653 -0.3308 -0.0946 -0.1571
  530TIP3    H1 1554   4.743   4.122   2.637  0.0706 -0.3893 -0.4266
  530TIP3    H2 1555   4.868   4.156   2.715 -0.8053  0.4244  0.6516
  531TIP3   OH2 1556   6.103   2.099   5.482 -0.7058  0.7822 -0.1375
  531TIP3    H1 1557   6.157   2.094   5.561  0.6753  1.4595 -1.0052
  531TIP3    H2 1558   6.092   2.007   5.456 -0.2703  0.6167  0.2375
  532TIP3   OH2 1559   2.024   4.096   5.092  0.8554 -0.2858  0.7189
  532TIP3    H1 1560   2.097   4.038   5.070  0.5443 -0.1388 -0.7987
  532TIP3    H2 1561   2.050   4.138   5.174  2.1796 -0.7024  0.5303
  533TIP3   OH2 1562   2.672   6.049   0.950  0.3510 -0.1913  0.5294
  533TIP3    H1 1563   2.701   6.109   1.018 -0.4600  1.2779 -0.3642
  533TIP3    H2 1564   2.721   5.968   0.967  2.8308  1.2415  0.7337
  534TIP3   OH2 1565   4.135   1.391   4.449  0.6156 -0.2031  0.3016
  534TIP3    H1 1566   4.166   1.480   4.465 -0.8370  0.1687  1.3168
  534TIP3    H2 1567   4.132   1.383   4.353  2.9625 -0.0079  0.1727
  535TIP3   OH2 1568   1.473   6.542   0.170  0.0406 -0.1783  0.1400
  535TIP3    H1 1569   1.441   6.569   0.084 -0.7326 -1.4868 -0.0144
  535TIP3    H2 1570   1.405   6.484   0.204 -0.2187  1.2472  2.1662
  536TIP3   OH2 1571   4.311   4.777   2.323  0.3564  0.1901 -0.1279
  536TIP3    H1 1572   4.299   4.825   2.404  0.4929 -0.6323  0.3896
  536TIP3    H2 1573   4.285   4.687   2.344 -3.1648  0.6202 -1.9338
  537TIP3   OH2 1574   4.385   2.207   1.535  0.7455 -0.3427 -0.0578
  537TIP3    H1 1575   4.448   2.265   1.491  0.6679  0.6054  1.0269
  537TIP3    H2 1576   4.357   2.256   1.612 -1.6720 -0.5392 -0.7196
  538TIP3   OH2 1577   3.391   2.192   0.878  0.1304  0.2349  0.1919
  538TIP3    H1 1578   3.298   2.206   0.860  0.0540 -1.6014 -1.0680
  538TIP3    H2 1579   3.433   2.276   0.856 -0.9731  0.4459 -1.2274
  539TIP3   OH2 1580   6.035   6.068   3.863 -0.7040 -0.9005 -0.2688
  539TIP3    H1 1581   5.980   6.143   3.839 -0.5337 -0.4430  0.7061
  539TIP3    H2 1582   6.115   6.080   3.810 -1.1702 -1.0879 -1.0360
  540TIP3   OH2 1583   6.681   0.442   5.849 -0.3871 -0.1650 -0.1245
  540TIP3    H1 1584   6.730   0.452   5.930 -2.6529  1.5142  1.1793
  540TIP3    H2 1585   6.706   0.518   5.796 -2.3869  1.4967  1.1223
  541TIP3   OH2 1586   6.615   0.643   2.979 -0.1705  0.4284  0.1496
  541TIP3    H1 1587   6.669   0.576   2.937 -0.2986  0.7156 -0.4732
  541TIP3    H2 1588   6.649   0.726   2.946 -1.0497  0.6103 -0.3281
  542TIP3   OH2 1589   4.123   3.985   0.482 -0.2290 -0.0493  0.0311
  542TIP3    H1 1590   4.083   3.948   0.560  0.4868 -0.7310  0.0888
  542TIP3    H2 1591   4.166   3.911   0.439  1.2614  0.6846  0.1728
  543TIP3   OH2 1592   0.596   0.702   5.011  0.2129  0.3902 -0.5275
  543TIP3    H1 1593   0.543   0.710   4.932  0.1349 -0.6350 -0.5934
  543TIP3    H2 1594   0.542   0.652   5.072  0.5070  0.6518 -0.0434
  544TIP3   OH2 1595   3.939   2.020   0.983  0.4906  0.1074 -0.4725
  544TIP3    H1 1596   3.848   1.992   0.990  0.8196 -1.0267 -0.4944
  544TIP3    H2 1597   3.971   1.978   0.904  1.3752 -0.5362  0.2045
  545TIP3   OH2 1598   6.963   6.395   5.276  0.3227  0.0055 -0.0082
  545TIP3    H1 1599   6.872   6.423   5.285  0.3128 -0.2992  0.9982
  545TIP3    H2 1600   7.014   6.473   5.297  0.3045  0.3692 -1.2665
  546TIP3   OH2 1601   2.202   1.186   4.436  0.0703  0.5279 -0.6639
  546TIP3    H1 1602   2.195   1.184   4.531 -0.1691 -1.7522 -0.6727
  546TIP3    H2 1603   2.211   1.279   4.414  1.2990  1.0090  1.6388
  547TIP3   OH2 1604   4.329   2.050   5.891  0.0305  0.3046  0.3399
  547TIP3    H1 1605   4.255   2.069   5.948 -0.1255 -0.6614  0.4737
  547TIP3    H2 1606   4.320   2.111   5.818 -0.2381  0.9760  0.9306
  548TIP3   OH2 1607   6.820   4.356   3.312  0.1257  0.7451 -0.1280
  548TIP3    H1 1608   6.767   4.421   3.359 -0.8351  0.2322 -0.4999
  548TIP3    H2 1609   6.855   4.300   3.381 -0.3071  0.7185  0.0701
  549TIP3   OH2 1610   0.766   1.431   0.843  0.5993 -0.1577  0.4008
  549TIP3    H1 1611   0.801   1.512   0.880  0.0544  0.1601  0.2182
  549TIP3    H2 1612   0.827   1.408   0.773  1.4546 -0.5832  1.2460
  550TIP3   OH2 1613   0.205   1.312   2.088  0.0617  0.1681  0.5400
  550TIP3    H1 1614   0.163   1.266   2.016 -2.0399 -1.6206  2.7302
  550TIP3    H2 1615   0.298   1.294   2.077 -0.1498  0.1212 -1.7484
  551TIP3   OH2 1616   1.372   3.993   0.437  0.3759 -0.4384 -0.0466
  551TIP3    H1 1617   1.293   4.002   0.383  0.1099 -1.4714  0.1417
  551TIP3    H2 1618   1.361   4.056   0.508  0.0658 -0.0636 -0.4244
  552TIP3   OH2 1619   5.067   1.257   4.196 -0.1294 -0.1362  0.2875
  552TIP3    H1 1620   4.998   1.323   4.188 -0.0236 -0.0995 -0.3785
  552TIP3    H2 1621   5.126   1.291   4.263 -0.1279  0.4028  0.0199
  553TIP3   OH2 1622   6.513   4.609   0.611  0.0996  0.2803 -0.4744
  553TIP3    H1 1623   6.518   4.521   0.646 -1.9393 -0.4922 -1.9318
  553TIP3    H2 1624   6.442   4.651   0.661 -0.0521  0.5396 -0.8992
  554TIP3   OH2 1625   2.691   3.314   4.612  0.5352  0.3796  0.1399
  554TIP3    H1 1626   2.606   3.314   4.567  0.6620  1.5201 -0.1399
  554TIP3    H2 1627   2.755   3.325   4.542  0.9021 -0.2618  0.3731
  555TIP3   OH2 1628   6.265   4.774   3.844 -0.2173  0.0761 -0.1443
  555TIP3    H1 1629   6.232   4.849   3.795  0.2904  0.8118  0.6098
  555TIP3    H2 1630   6.210   4.701   3.817 -1.0585  0.8286 -0.5089
  556TIP3   OH2 1631   4.561   5.918   5.664  0.5254  0.0372 -0.1527
  556TIP3    H1 1632   4.635   5.901   5.722 -0.1543 -0.5878  0.5547
  556TIP3    H2 1633   4.554   5.840   5.610 -0.8500 -0.8047  1.1690
  557TIP3   OH2 1634   0.912   5.618   2.595 -0.4626 -0.4267  0.2574
  557TIP3    H1 1635   0.947   5.638   2.683 -1.3015  1.1418  0.2715
  557TIP3    H2 1636   0.837   5.562   2.611 -0.1540 -0.7788  0.4860
  558TIP3   OH2 1637   5.755   1.529   3.146  0.4891 -0.5109 -0.3447
  558TIP3    H1 1638   5.849   1.547   3.143  0.6295 -0.6788  1.8080
  558TIP3    H2 1639   5.749   1.434   3.153  0.3013 -0.3816  1.8797
  559TIP3   OH2 1640   1.410   5.637   3.577  0.1352 -0.1876 -0.3714
  559TIP3    H1 1641   1.455   5.558   3.608 -0.6436 -0.2095  0.7902
  559TIP3    H2 1642   1.446   5.708   3.631 -1.4300 -0.2612  0.8454
  560TIP3   OH2 1643   3.456   4.661   1.682 -0.0033 -1.1111  0.8421
  560TIP3    H1 1644   3.529   4.668   1.743  0.0236 -4.0319  1.3282
  560TIP3    H2 1645   3.496   4.631   1.600 -0.4279 -0.8033  0.5187
  561TIP3   OH2 1646   5.025   2.276   0.033  0.2546 -0.2434 -0.6305
  561TIP3    H1 1647   4.970   2.242  -0.038 -0.0753 -1.4804  0.1902
  561TIP3    H2 1648   5.006   2.220   0.108  0.1879  1.3718  0.6180
  562TIP3   OH2 1649   4.916   5.340   3.275 -0.2178 -0.5330  0.0314
  562TIP3    H1 1650   4.928   5.434   3.267  0.6884 -0.6934 -0.6570
  562TIP3    H2 1651   4.949   5.319   3.362  1.1885 -0.4368 -0.4528
  563TIP3   OH2 1652   5.112   0.836   0.663  0.0753  0.0500  0.2131
  563TIP3    H1 1653   5.038   0.879   0.706  1.2325  0.5718  1.8063
  563TIP3    H2 1654   5.175   0.907   0.647  1.2289 -0.7001  1.1692
  564TIP3   OH2 1655   7.215   0.628   4.519 -0.3295 -0.0638 -0.3763
  564TIP3    H1 1656   7.133   0.674   4.503 -0.2622  0.1177 -0.2118
  564TIP3    H2 1657   7.282   0.697   4.511 -0.0239 -0.4972 -2.1565
  565TIP3   OH2 1658   2.230   0.344   0.589  0.4787 -0.9130 -0.3556
  565TIP3    H1 1659   2.156   0.326   0.647  0.8507 -0.2265  0.3556
  565TIP3    H2 1660   2.192   0.392   0.515  0.1825 -0.7423 -0.0933
  566TIP3   OH2 1661   2.571   1.573   1.769  0.4872  0.2278  0.4786
  566TIP3    H1 1662   2.492   1.524   1.788  0.2841  0.3384 -0.0382
  566TIP3    H2 1663   2.624   1.567   1.848 -0.2455  0.5527  1.0059
  567TIP3   OH2 1664   4.036   0.472   0.838  0.4043  0.0539 -0.3146
  567TIP3    H1 1665   4.118   0.424   0.828  0.3175 -0.0247 -0.6718
  567TIP3    H2 1666   3.974   0.427   0.780  0.0352 -0.0519  0.1534
  568TIP3   OH2 1667   3.780   0.077   0.824  0.0102  0.3695 -0.1687
  568TIP3    H1 1668   3.762   0.019   0.750  1.4420  0.7519 -0.8449
  568TIP3    H2 1669   3.822   0.020   0.889 -0.6221  0.1821  0.0823
  569TIP3   OH2 1670   1.198   3.477   3.893  0.1117  0.4618 -0.1303
  569TIP3    H1 1671   1.262   3.500   3.960  1.3619 -1.3272 -0.6443
  569TIP3    H2 1672   1.118   3.524   3.920  1.3263  1.9712  1.0568
  570TIP3   OH2 1673   6.707   3.152   0.524 -0.6377  0.2937  0.0798
  570TIP3    H1 1674   6.800   3.145   0.546 -1.1812  0.3451  2.7115
  570TIP3    H2 1675   6.671   3.066   0.545 -1.2381  0.3302 -0.7612
  571TIP3   OH2 1676   1.002   1.972   4.977  0.0317 -0.0686  0.1575
  571TIP3    H1 1677   1.097   1.967   4.974  0.0252  0.2193 -1.2304
  571TIP3    H2 1678   0.984   2.054   5.023  0.4726  0.2652 -0.2511
  572TIP3   OH2 1679   6.221   2.972   1.879 -0.4739 -0.4479  0.0602
  572TIP3    H1 1680   6.166   3.037   1.923 -0.3287  0.4545 -1.0556
  572TIP3    H2 1681   6.162   2.900   1.859 -0.8576 -0.2332  0.4022
  573TIP3   OH2 1682   5.751   1.633   1.069  0.0823 -0.2208 -0.3541
  573TIP3    H1 1683   5.675   1.687   1.088 -1.5439 -2.9244  1.6603
  573TIP3    H2 1684   5.821   1.669   1.124  0.4357  2.4109 -2.3750
  574TIP3   OH2 1685   6.801   1.051   0.874 -0.2738  0.4439  0.5347
  574TIP3    H1 1686   6.706   1.056   0.877 -0.2595  0.6851  0.5970
  574TIP3    H2 1687   6.820   0.960   0.851 -0.4487 -0.4235  3.5055
  575TIP3   OH2 1688   6.894   1.858   1.993 -0.4358 -0.2211  0.0127
  575TIP3    H1 1689   6.988   1.847   1.980 -0.5397 -1.2858  0.1516
  575TIP3    H2 1690   6.857   1.771   1.980 -1.2531 -0.0851  1.2228
  576TIP3   OH2 1691   2.038   0.247   1.248  0.4471 -0.3939 -0.1304
  576TIP3    H1 1692   2.077   0.277   1.330 -2.0944  0.1156  1.0117
  576TIP3    H2 1693   1.951   0.286   1.248  0.7552  0.6009 -3.7002
  577TIP3   OH2 1694   3.495   5.275   5.269 -0.3853  0.0421  0.1885
  577TIP3    H1 1695   3.574   5.230   5.239  0.3882 -0.9856  3.4141
  577TIP3    H2 1696   3.513   5.367   5.252  0.9569 -0.2702 -0.2634
  578TIP3   OH2 1697   0.279   1.987   5.687  0.2930 -0.2450  0.5948
  578TIP3    H1 1698   0.359   2.040   5.687  0.0499  0.1352  0.2595
  578TIP3    H2 1699   0.286   1.933   5.608 -0.0835  0.2735  0.1956
  579TIP3   OH2 1700   6.618   4.356   5.566  0.3402  0.0229 -0.6294
  579TIP3    H1 1701   6.563   4.279   5.577  1.8733 -1.0134  0.1171
  579TIP3    H2 1702   6.706   4.322   5.552  0.9896  1.6317 -0.7567
  580TIP3   OH2 1703   2.323   2.592   0.020 -0.8670 -0.5350 -0.5538
  580TIP3    H1 1704   2.414   2.616   0.038 -0.3870 -1.4623 -1.5830
  580TIP3    H2 1705   2.286   2.571   0.105  0.1370 -0.9748 -0.2095
  581TIP3   OH2 1706   6.410   5.352   1.412  0.2545 -0.1707 -0.0525
  581TIP3    H1 1707   6.464   5.289   1.366  0.2380 -0.7817  0.7432
  581TIP3    H2 1708   6.334   5.366   1.356  0.4421 -0.5706 -0.4021
  582TIP3   OH2 1709   4.192   0.925   2.030 -0.2868 -0.3236 -0.2351
  582TIP3    H1 1710   4.240   0.996   2.072  0.2729  0.0901 -1.5206
  582TIP3    H2 1711   4.101   0.952   2.032 -0.0453  0.5835 -0.9697
  583TIP3   OH2 1712   2.749   1.593   4.546 -0.0950 -0.2165  0.0501
  583TIP3    H1 1713   2.676   1.641   4.584 -0.8717 -1.0780 -0.3364
  583TIP3    H2 1714   2.792   1.552   4.622 -0.7488 -0.7073  0.1646
  584TIP3   OH2 1715   0.771   2.208   5.018  0.5142  0.5019  0.5718
  584TIP3    H1 1716   0.683   2.242   5.035 -0.1294 -1.1355  0.6881
  584TIP3    H2 1717   0.786   2.144   5.088  1.2951 -0.1223 -0.1451
  585TIP3   OH2 1718   6.673   5.980   5.045 -0.2631  0.1128  0.2045
  585TIP3    H1 1719   6.611   5.915   5.079 -0.9840  0.9060  0.4444
  585TIP3    H2 1720   6.617   6.051   5.013  0.5230  1.1433  1.0508
  586TIP3   OH2 1721   4.896   1.339   3.842  0.5872  0.1684  0.8273
  586TIP3    H1 1722   4.808   1.362   3.872 -1.2977 -1.0721 -3.0797
  586TIP3    H2 1723   4.918   1.258   3.887 -0.8736 -0.1818  0.9374
  587TIP3   OH2 1724   2.040   3.161   3.542  0.5258  0.0517 -0.4038
  587TIP3    H1 1725   2.032   3.096   3.611 -1.1393 -0.1258 -0.7310
  587TIP3    H2 1726   2.099   3.227   3.578  3.8277 -2.4580 -0.7487
  588TIP3   OH2 1727   1.527   3.943   3.070 -0.1929 -0.4235 -0.1222
  588TIP3    H1 1728   1.503   3.898   2.989  0.4128 -0.1195 -0.4851
  588TIP3    H2 1729   1.620   3.923   3.081 -0.2898 -0.5132  0.5361
  589TIP3   OH2 1730   2.934   0.908   0.257  0.5367 -0.2389  0.3352
  589TIP3    H1 1731   3.015   0.881   0.213 -0.2554  0.7901 -1.8899
  589TIP3    H2 1732   2.890   0.965   0.194 -2.1108 -1.0228  1.3392
  590TIP3   OH2 1733   4.548   4.137   2.014  0.3368  0.2938 -0.4068
  590TIP3    H1 1734   4.513   4.137   1.924 -0.7461 -1.8748 -0.0562
  590TIP3    H2 1735   4.471   4.133   2.070  0.9050  3.4869  0.7840
  591TIP3   OH2 1736   2.555   6.574   0.101 -0.4419  0.1225 -0.9258
  591TIP3    H1 1737   2.520   6.487   0.120 -0.3691  0.3682  0.4880
  591TIP3    H2 1738   2.484   6.635   0.123  0.8700  0.6612  2.5658
  592TIP3   OH2 1739   4.779   3.844   1.457 -0.2113 -0.1713  0.5188
  592TIP3    H1 1740   4.700   3.888   1.489 -1.8154 -1.5891 -1.2551
  592TIP3    H2 1741   4.747   3.760   1.423  2.1314 -0.9349  0.0569
  593TIP3   OH2 1742   6.265   1.337   0.761  0.2661 -0.0699  0.2227
  593TIP3    H1 1743   6.208   1.391   0.706  2.0679  1.8603  0.0831
  593TIP3    H2 1744   6.230   1.347   0.849 -0.8324 -0.6537 -0.1346
  594TIP3   OH2 1745   7.100   2.128   1.620 -0.0454 -0.2349  0.1034
  594TIP3    H1 1746   7.065   2.039   1.623 -0.7174  0.0397  0.5021
  594TIP3    H2 1747   7.193   2.118   1.640 -0.2301 -0.7900  0.6816
  595TIP3   OH2 1748   5.677   0.948   5.017  0.1221 -0.0190 -0.0691
  595TIP3    H1 1749   5.712   1.029   5.053  0.9342 -0.1463 -0.5564
  595TIP3    H2 1750   5.629   0.908   5.089  1.6632 -0.2497  0.8530
  596TIP3   OH2 1751   3.703   1.721   3.440 -0.2194  0.4042 -0.0253
  596TIP3    H1 1752   3.791   1.753   3.418  0.5482  0.1120  2.3422
  596TIP3    H2 1753   3.709   1.626   3.434 -0.0883  0.3372  1.0429
  597TIP3   OH2 1754   0.087   2.878   3.759 -0.2906 -0.1701  0.0492
  597TIP3    H1 1755   0.079   2.809   3.693  0.6918 -0.9051  0.6613
  597TIP3    H2 1756   0.001   2.920   3.761  0.0689  0.9476 -2.8351
  598TIP3   OH2 1757   0.472   3.335   5.730 -0.1278 -0.5308 -0.7805
  598TIP3    H1 1758   0.383   3.303   5.742 -0.1811  0.3008  1.3838
  598TIP3    H2 1759   0.462   3.427   5.708  0.1723  0.2921  2.1548
  599TIP3   OH2 1760   6.594   3.698   2.667 -0.3338  0.2653  0.5403
  599TIP3    H1 1761   6.503   3.676   2.645 -1.1490  1.1650  2.6799
  599TIP3    H2 1762   6.625   3.749   2.592 -1.8070  0.4292  0.0071
  600TIP3   OH2 1763   7.084   4.136   2.372  0.0193  0.3399  0.5503
  600TIP3    H1 1764   6.997   4.099   2.358 -0.8738  2.7203 -0.6916
  600TIP3    H2 1765   7.083   4.166   2.463 -0.6251  0.7036  0.4319
  601TIP3   OH2 1766   4.669   3.270   3.036 -0.5151  0.0496 -0.5282
  601TIP3    H1 1767   4.707   3.186   3.061 -2.4406 -0.9110 -0.6640
  601TIP3    H2 1768   4.706   3.332   3.099 -0.1722 -1.1599  0.5183
  602TIP3   OH2 1769   3.279   1.145   3.600  0.2426  0.5553  0.0978
  602TIP3    H1 1770   3.344   1.076   3.615  0.1838  0.2326 -1.0596
  602TIP3    H2 1771   3.324   1.226   3.622  1.0014  0.3240 -0.5776
  603TIP3   OH2 1772   3.479   1.939   2.315 -0.1013 -0.0761 -0.0074
  603TIP3    H1 1773   3.433   1.858   2.339  0.3831 -1.0595 -2.1779
  603TIP3    H2 1774   3.563   1.933   2.359 -0.0521 -0.7846 -0.1855
  604TIP3   OH2 1775   6.874   4.290   1.198  0.0300  0.2390 -0.0117
  604TIP3    H1 1776   6.863   4.377   1.160  1.0775  0.0913 -0.6817
  604TIP3    H2 1777   6.945   4.300   1.261 -0.2107 -0.0119  0.2995
  605TIP3   OH2 1778   4.992   4.595   4.029 -0.3599 -0.0616  0.2952
  605TIP3    H1 1779   5.000   4.513   3.980  1.2797  0.0921  0.2510
  605TIP3    H2 1780   5.009   4.571   4.120 -0.4771  0.1404  0.3729
  606TIP3   OH2 1781   0.791   6.034   0.898  0.7681  0.3593  0.3342
  606TIP3    H1 1782   0.852   6.071   0.835 -2.9747  0.4473 -3.7215
  606TIP3    H2 1783   0.767   5.949   0.861 -0.6039 -0.2784  2.4661
  607TIP3   OH2 1784   6.896   2.560   2.192 -0.0876 -0.1649  0.0210
  607TIP3    H1 1785   6.941   2.641   2.218  1.2461 -1.2525  1.2491
  607TIP3    H2 1786   6.830   2.589   2.129 -0.3927  2.0252  1.2420
  608TIP3   OH2 1787   3.863   6.264   2.233  0.1461 -0.1063  0.1156
  608TIP3    H1 1788   3.892   6.344   2.278 -1.3945 -0.0725  1.1390
  608TIP3    H2 1789   3.837   6.294   2.146 -0.5991  0.5666  0.5560
  609TIP3   OH2 1790   7.152   2.559   2.775  0.5171  0.0881 -0.4429
  609TIP3    H1 1791   7.219   2.549   2.707  1.7543 -1.5525  0.9221
  609TIP3    H2 1792   7.176   2.494   2.841 -1.2524  0.9003  1.0702
  610TIP3   OH2 1793   4.719   1.775   2.482 -0.9055 -0.1540  0.2968
  610TIP3    H1 1794   4.670   1.827   2.418 -0.3510 -1.4252 -1.2135
  610TIP3    H2 1795   4.654   1.716   2.520 -1.1148  0.1642  0.4348
  611TIP3   OH2 1796   6.120   4.465   3.505 -0.6185  0.2824 -0.4366
  611TIP3    H1 1797   6.171   4.440   3.582  0.6626  0.4894 -1.2015
  611TIP3    H2 1798   6.080   4.383   3.476 -2.4489  0.4609  1.3531
  612TIP3   OH2 1799   5.846   4.790   4.887 -0.0717 -0.0596 -0.7723
  612TIP3    H1 1800   5.902   4.728   4.935 -0.8004  0.2895  0.5828
  612TIP3    H2 1801   5.826   4.746   4.805  1.7526 -0.4149 -1.0833
  613TIP3   OH2 1802   5.312   1.430   4.653  0.1559  0.3995  0.8843
  613TIP3    H1 1803   5.376   1.457   4.719  1.3040 -0.6791  0.2796
  613TIP3    H2 1804   5.267   1.355   4.692  1.5483 -0.9016  0.1326
  614TIP3   OH2 1805   0.214   5.334   5.854  0.1591 -0.5618  0.8013
  614TIP3    H1 1806   0.210   5.243   5.885  1.5189 -0.7619  0.4632
  614TIP3    H2 1807   0.139   5.343   5.796  0.0600 -1.5016  0.7706
  615TIP3   OH2 1808   0.484   5.937   4.132  0.8471  0.0347 -0.4953
  615TIP3    H1 1809   0.539   5.974   4.201 -0.7471  0.2416  0.7493
  615TIP3    H2 1810   0.427   5.875   4.179 -0.2830  0.1800 -1.6257
  616TIP3   OH2 1811   0.580   6.433   1.216  0.5417  0.1440  0.0925
  616TIP3    H1 1812   0.660   6.479   1.239  1.0751 -0.7574  0.0943
  616TIP3    H2 1813   0.571   6.444   1.121  1.0841 -0.3755 -0.0279
  617TIP3   OH2 1814   4.507   2.983   0.539 -0.0019 -0.3166 -0.5303
  617TIP3    H1 1815   4.446   2.936   0.481 -1.1953  1.4760 -0.7874
  617TIP3    H2 1816   4.584   2.998   0.484 -0.0975 -0.8919 -0.8328
  618TIP3   OH2 1817   0.625   6.496   3.549  0.2995  0.2470  0.4584
  618TIP3    H1 1818   0.544   6.468   3.507  1.1492 -0.3357 -0.8687
  618TIP3    H2 1819   0.644   6.581   3.509  1.4840 -0.6277 -0.9516
  619TIP3   OH2 1820   6.290   3.620   0.326  0.3773 -0.3426 -0.5571
  619TIP3    H1 1821   6.259   3.618   0.416  1.4772  0.9156 -0.1113
  619TIP3    H2 1822   6.219   3.662   0.276  1.0235  1.9639  0.3352
  620TIP3   OH2 1823   1.075   2.622   5.584  0.4208 -0.6263  0.3891
  620TIP3    H1 1824   0.986   2.616   5.551  0.0235  0.4865  1.1903
  620TIP3    H2 1825   1.130   2.627   5.506 -0.1539 -1.8344 -0.1200
  621TIP3   OH2 1826   3.966   5.802   1.286 -0.6789  0.0178 -0.2471
  621TIP3    H1 1827   4.057   5.831   1.287 -0.0233 -1.8404  1.3066
  621TIP3    H2 1828   3.934   5.823   1.374 -1.6525  0.3457 -0.6727
  622TIP3   OH2 1829   6.331   1.623   3.959 -0.2230 -0.3052  0.0472
  622TIP3    H1 1830   6.236   1.632   3.952 -0.1090  1.1060  0.0116
  622TIP3    H2 1831   6.366   1.691   3.901  0.7681  0.5325  1.5366
  623TIP3   OH2 1832   0.931   6.281   3.384  0.7298 -0.2704  0.5833
  623TIP3    H1 1833   0.911   6.288   3.291 -1.0818 -2.5659  0.7070
  623TIP3    H2 1834   0.903   6.366   3.421 -0.4942 -0.0914 -0.6683
  624TIP3   OH2 1835   5.527   2.488   3.891 -0.2284  0.0695  0.7639
  624TIP3    H1 1836   5.597   2.433   3.855 -1.8392 -1.4854 -0.1231
  624TIP3    H2 1837   5.490   2.533   3.815 -0.6552  0.3329  1.1228
  625TIP3   OH2 1838   6.409   2.979   1.291  0.0408 -0.3441 -0.3459
  625TIP3    H1 1839   6.498   2.987   1.324  0.1374  1.3648 -0.9331
  625TIP3    H2 1840   6.402   3.046   1.223 -1.3401 -1.2237 -1.1132
  626TIP3   OH2 1841   3.853   6.229   3.577 -0.3850 -0.2483  0.7289
  626TIP3    H1 1842   3.920   6.210   3.512 -0.6633  0.6420  0.1694
  626TIP3    H2 1843   3.796   6.152   3.575 -0.3241 -0.2810  0.0164
  627TIP3   OH2 1844   3.729   5.670   2.285  0.3110  0.6165  0.5417
  627TIP3    H1 1845   3.823   5.685   2.271  0.3861 -0.5091 -0.2766
  627TIP3    H2 1846   3.691   5.677   2.198  0.0304 -1.5001  0.4458
  628TIP3   OH2 1847   4.406   5.318   3.341 -0.0346 -0.0393 -0.7121
  628TIP3    H1 1848   4.367   5.383   3.283 -0.9657 -0.7571 -0.9201
  628TIP3    H2 1849   4.472   5.274   3.287 -0.3694 -0.1974 -0.9956
  629TIP3   OH2 1850   1.226   3.225   4.210 -0.0239 -0.2229  0.1202
  629TIP3    H1 1851   1.158   3.170   4.250 -0.3092 -0.8504 -1.1660
  629TIP3    H2 1852   1.302   3.167   4.204  1.3755  1.0102  3.3414
  630TIP3   OH2 1853   0.099   2.051   1.804  0.0784 -0.2457  0.3898
  630TIP3    H1 1854   0.142   1.971   1.834  0.6219  0.5814  1.9300
  630TIP3    H2 1855   0.047   2.080   1.879 -3.3317 -1.2173 -1.3817
  631TIP3   OH2 1856   6.969   0.568   0.842 -0.0910 -0.0801 -0.2026
  631TIP3    H1 1857   6.977   0.502   0.911 -2.8661  2.2041  2.5970
  631TIP3    H2 1858   7.058   0.599   0.829  0.5129 -0.1621  2.9513
  632TIP3   OH2 1859   5.585   4.392   2.109  0.0101  0.5731 -0.2130
  632TIP3    H1 1860   5.555   4.314   2.155 -1.1730  1.0919 -0.0597
  632TIP3    H2 1861   5.677   4.375   2.088  0.9963  0.7779  3.3905
  633TIP3   OH2 1862   2.369   6.702   0.769 -0.7010  0.0493  0.5104
  633TIP3    H1 1863   2.414   6.786   0.764 -2.5093  0.9666 -2.1655
  633TIP3    H2 1864   2.278   6.724   0.787 -0.9761 -1.4637  1.1827
  634TIP3   OH2 1865   1.041   6.572   4.895 -0.0637 -0.0834 -0.5533
  634TIP3    H1 1866   1.042   6.626   4.816  0.4387 -0.0032 -0.4948
  634TIP3    H2 1867   1.121   6.519   4.890 -0.1378 -0.2361 -0.2075
  635TIP3   OH2 1868   6.624   1.177   0.605  0.1017 -0.3036 -0.2641
  635TIP3    H1 1869   6.595   1.108   0.665 -1.1335 -1.8811 -2.5102
  635TIP3    H2 1870   6.692   1.135   0.552  0.3838  0.6773 -0.6923
  636TIP3   OH2 1871   3.975   2.132   5.277  0.4364  0.0658 -0.1484
  636TIP3    H1 1872   4.037   2.203   5.261  2.8964 -2.1017 -1.1525
  636TIP3    H2 1873   3.965   2.089   5.192 -3.1579  0.7400 -0.1888
  637TIP3   OH2 1874   5.082   3.637   2.274 -0.2269 -0.2339 -0.3391
  637TIP3    H1 1875   5.106   3.677   2.358 -1.5378 -0.0914 -0.0033
  637TIP3    H2 1876   5.145   3.673   2.211  2.0166 -1.7983  0.8647
  638TIP3   OH2 1877   1.105   5.361   1.432 -0.2948  0.6017  0.1559
  638TIP3    H1 1878   1.198   5.371   1.410 -0.0196 -0.3276  0.8197
  638TIP3    H2 1879   1.106   5.317   1.518 -1.3509 -0.2259 -0.2384
  639TIP3   OH2 1880   5.488   0.308   3.558  0.5610  0.8442 -0.3658
  639TIP3    H1 1881   5.583   0.313   3.546  0.6322  1.9119  0.4610
  639TIP3    H2 1882   5.477   0.267   3.644  0.2704  0.5553 -0.5403
  640TIP3   OH2 1883   0.069   4.485   4.697  0.1447 -0.0003  0.0167
  640TIP3    H1 1884   0.065   4.579   4.679 -0.4039  0.4939  2.3642
  640TIP3    H2 1885   0.003   4.471   4.765  0.3385 -2.0760 -0.1537
  641TIP3   OH2 1886   1.486   5.105   5.043 -0.1281 -0.1028 -0.4631
  641TIP3    H1 1887   1.460   5.071   4.958 -0.8717 -0.3940 -0.1254
  641TIP3    H2 1888   1.406   5.142   5.080  0.3680  0.7769 -0.2354
  642TIP3   OH2 1889   5.921   5.434   0.898  0.2208 -0.3820 -0.2773
  642TIP3    H1 1890   5.927   5.396   0.810 -0.8964 -0.9075 -0.1500
  642TIP3    H2 1891   5.829   5.423   0.922  0.5191 -0.2760  0.9751
  643TIP3   OH2 1892   0.905   6.576   1.760  0.5979 -0.5470 -0.1052
  643TIP3    H1 1893   0.938   6.551   1.847 -0.5386 -1.0802  0.1974
  643TIP3    H2 1894   0.971   6.635   1.725  0.6056  0.4727  1.5395
  644TIP3   OH2 1895   4.319   4.050   4.246 -0.2212  0.3571 -0.8150
  644TIP3    H1 1896   4.407   4.089   4.243  0.4983 -1.1298 -0.1140
  644TIP3    H2 1897   4.267   4.106   4.188  0.4328  3.0254  0.9655
  645TIP3   OH2 1898   0.373   4.516   4.834  0.7203 -0.2217  0.2122
  645TIP3    H1 1899   0.402   4.594   4.882  0.1975  0.6122 -0.7972
  645TIP3    H2 1900   0.304   4.547   4.776  0.9836 -1.3051 -0.7243
  646TIP3   OH2 1901   1.025   0.813   1.802 -0.4294 -0.5956  0.6225
  646TIP3    H1 1902   1.094   0.857   1.753  0.5641 -1.6599  1.0139
  646TIP3    H2 1903   0.962   0.882   1.822 -0.0622  0.1661 -0.7490
  647TIP3   OH2 1904   5.793   0.093   3.706  0.0629 -0.3995  0.2939
  647TIP3    H1 1905   5.813   0.013   3.755  0.1531  1.2231  3.1297
  647TIP3    H2 1906   5.879   0.127   3.679 -0.0263 -1.6857 -1.8012
  648TIP3   OH2 1907   1.244   6.428   4.447  0.3144  0.5424  0.4573
  648TIP3    H1 1908   1.211   6.418   4.358  1.0830  1.9505 -0.0242
  648TIP3    H2 1909   1.337   6.448   4.435  1.0908 -1.9745  1.7094
  649TIP3   OH2 1910   6.747   4.142   4.917  0.1754 -0.2032  0.1349
  649TIP3    H1 1911   6.662   4.114   4.885  1.3832 -1.3772 -2.4063
  649TIP3    H2 1912   6.757   4.231   4.883 -0.2235  0.1273  0.8699
  650TIP3   OH2 1913   4.108   5.399   5.730 -0.2558 -0.7346  0.6229
  650TIP3    H1 1914   4.185   5.457   5.733 -0.5892 -0.1090 -1.3052
  650TIP3    H2 1915   4.144   5.314   5.707 -0.1346 -0.4178 -0.3933
  651TIP3   OH2 1916   3.826   0.334   0.711 -0.1516  0.4324 -0.1268
  651TIP3    H1 1917   3.804   0.350   0.619 -2.0018 -0.9053  0.0099
  651TIP3    H2 1918   3.794   0.245   0.727  3.4134 -0.8238  0.8705
  652TIP3   OH2 1919   5.411   2.819   1.241  0.1467 -0.7792  0.5144
  652TIP3    H1 1920   5.495   2.854   1.210 -0.0252 -1.2356 -0.5290
  652TIP3    H2 1921   5.401   2.736   1.194 -1.1531 -0.4499  0.1737
  653TIP3   OH2 1922   3.854   6.285   3.248 -0.1473  0.6305 -0.9008
  653TIP3    H1 1923   3.787   6.297   3.180 -0.6509 -0.1048 -0.5502
  653TIP3    H2 1924   3.908   6.364   3.243  0.8261 -0.0718 -3.2707
  654TIP3   OH2 1925   7.023   1.111   1.634 -0.2812 -0.1003  0.2516
  654TIP3    H1 1926   6.954   1.114   1.568 -0.4145 -0.5190  0.3693
  654TIP3    H2 1927   7.040   1.018   1.648 -0.8680 -0.0477  1.4560
  655TIP3   OH2 1928   1.284   5.797   2.302  0.1210  0.6082 -0.1465
  655TIP3    H1 1929   1.239   5.880   2.284 -0.2118  0.6304  0.7485
  655TIP3    H2 1930   1.357   5.822   2.359  0.7908  0.4568 -0.9177
  656TIP3   OH2 1931   0.678   0.989   4.717 -0.6352  0.3466  0.6605
  656TIP3    H1 1932   0.705   1.076   4.747 -3.4542  1.6729 -0.3255
  656TIP3    H2 1933   0.608   1.006   4.654  0.2743 -2.6025 -1.3264
  657TIP3   OH2 1934   0.495   6.786   0.118 -1.0235 -0.1858 -0.2905
  657TIP3    H1 1935   0.415   6.740   0.092  0.4849 -3.0373 -0.2859
  657TIP3    H2 1936   0.526   6.739   0.195  0.5740  0.9490 -0.1814
  658TIP3   OH2 1937   1.408   5.660   2.626  0.1551  0.1675  0.2713
  658TIP3    H1 1938   1.457   5.742   2.623  0.4163  0.1179  1.9797
  658TIP3    H2 1939   1.434   5.620   2.709 -0.5370 -1.2977 -0.1794
  659TIP3   OH2 1940   4.220   3.168   3.227  0.0181  0.9071  0.8335
  659TIP3    H1 1941   4.183   3.159   3.315  0.0100  0.0364  0.7421
  659TIP3    H2 1942   4.233   3.079   3.196  1.0293  1.2024  0.3623
  660TIP3   OH2 1943   3.266   2.253   0.291  0.0314  0.1304  0.4640
  660TIP3    H1 1944   3.342   2.201   0.315  0.9166  0.9356 -0.4523
  660TIP3    H2 1945   3.221   2.201   0.224  0.6430  0.3069 -0.0973
  661TIP3   OH2 1946   5.652   2.882   1.083 -0.0649 -0.2732  0.5060
  661TIP3    H1 1947   5.725   2.931   1.121  0.8423 -0.5607 -0.7979
  661TIP3    H2 1948   5.665   2.792   1.114  0.2489 -0.3604  0.1303
  662TIP3   OH2 1949   7.181   5.581   4.977 -0.6115  0.0985 -0.0314
  662TIP3    H1 1950   7.174   5.665   4.932  0.4467  1.0187  1.4329
  662TIP3    H2 1951   7.253   5.536   4.932 -1.7154 -0.4319 -1.3586
  663TIP3   OH2 1952   1.265   1.080   3.409  0.2418 -0.8225 -0.3388
  663TIP3    H1 1953   1.237   0.990   3.427 -0.1806 -0.2936  1.9376
  663TIP3    H2 1954   1.215   1.134   3.469  2.1313  0.7183 -0.0360
  664TIP3   OH2 1955   6.244   2.995   5.674  0.2387  0.3213  0.0629
  664TIP3    H1 1956   6.272   2.911   5.711  0.4217  0.7018  0.7986
  664TIP3    H2 1957   6.298   3.005   5.595 -0.5062 -0.7325 -0.6095
  665TIP3   OH2 1958   7.196   4.556   1.438 -0.0384  0.0368 -0.2511
  665TIP3    H1 1959   7.221   4.621   1.503  1.2881  0.4633 -1.1427
  665TIP3    H2 1960   7.130   4.600   1.385 -1.8925 -0.6615  1.3607
  666TIP3   OH2 1961   1.746   5.336   3.511 -0.5066  0.5932  0.3121
  666TIP3    H1 1962   1.656   5.334   3.542 -0.6756 -2.8701 -0.0398
  666TIP3    H2 1963   1.738   5.353   3.417 -0.6366  2.0049  0.5639
  667TIP3   OH2 1964   0.692   5.331   4.977  0.7496 -0.1150  0.1805
  667TIP3    H1 1965   0.721   5.363   4.892  0.3510 -0.3163 -0.0338
  667TIP3    H2 1966   0.663   5.409   5.025 -1.6446 -0.2689 -0.8816
  668TIP3   OH2 1967   0.300   1.231   5.260 -0.4041 -0.0934 -0.0782
  668TIP3    H1 1968   0.227   1.170   5.255 -0.5851 -0.1502  2.2139
  668TIP3    H2 1969   0.336   1.233   5.171 -2.6459 -0.6950 -1.0701
  669TIP3   OH2 1970   2.523   4.264   1.566 -0.4228  0.2014  0.2705
  669TIP3    H1 1971   2.586   4.335   1.555 -1.6787  1.7503  2.3051
  669TIP3    H2 1972   2.576   4.187   1.587  0.8275  1.4575  1.9500
  670TIP3   OH2 1973   1.785   5.018   2.579  0.2305  0.2473  0.0681
  670TIP3    H1 1974   1.754   5.003   2.668 -1.6953 -0.3709 -0.6653
  670TIP3    H2 1975   1.858   4.957   2.569  0.0960 -0.0888  1.0138
  671TIP3   OH2 1976   3.160   2.061   1.490  0.3115  0.0467 -0.5051
  671TIP3    H1 1977   3.107   2.122   1.439  0.3434  0.4321 -0.0841
  671TIP3    H2 1978   3.225   2.115   1.534 -0.3511 -0.1226  0.7555
  672TIP3   OH2 1979   0.496   0.464   1.400 -0.8959 -0.2262 -0.0140
  672TIP3    H1 1980   0.555   0.523   1.352 -1.1661 -0.5716 -0.7839
  672TIP3    H2 1981   0.507   0.379   1.357 -1.5859 -0.4054  0.1515
  673TIP3   OH2 1982   2.860   5.784   5.845  0.3156  0.0568 -0.2110
  673TIP3    H1 1983   2.813   5.852   5.797 -0.0183  0.4490  0.6554
  673TIP3    H2 1984   2.941   5.826   5.875  0.0725  0.1129  0.3926
  674TIP3   OH2 1985   5.021   0.209   0.411 -0.1410 -0.0202  0.2655
  674TIP3    H1 1986   5.114   0.207   0.432  0.3481  2.9714 -1.0445
  674TIP3    H2 1987   5.018   0.222   0.316 -1.9017  0.1744  0.3059
  675TIP3   OH2 1988   6.488   3.831   2.212 -0.5939  0.4006 -0.2300
  675TIP3    H1 1989   6.551   3.846   2.282  0.4124  1.1963 -1.2770
  675TIP3    H2 1990   6.437   3.755   2.242  1.7841 -1.2069  0.0247
  676TIP3   OH2 1991   4.382   5.940   3.719  0.3302 -0.7751 -0.0304
  676TIP3    H1 1992   4.314   6.000   3.687 -0.7404 -2.8256 -1.8795
  676TIP3    H2 1993   4.351   5.914   3.805  0.8963  1.3634  0.8837
  677TIP3   OH2 1994   6.898   6.229   2.271 -0.6399  0.2967 -0.3459
  677TIP3    H1 1995   6.986   6.265   2.275  0.3158 -1.9255  0.0774
  677TIP3    H2 1996   6.895   6.163   2.341 -2.4873 -0.0171 -0.6536
  678TIP3   OH2 1997   4.658   2.820   2.959 -0.5933 -0.0594  0.2391
  678TIP3    H1 1998   4.640   2.896   3.014 -0.5713  0.0365  0.1148
  678TIP3    H2 1999   4.650   2.853   2.870  0.7110  0.1189  0.1621
  679TIP3   OH2 2000   1.282   5.023   5.817 -0.6304 -0.0329 -0.4529
  679TIP3    H1 2001   1.198   4.983   5.836 -1.1078  0.3674 -1.6062
  679TIP3    H2 2002   1.338   4.949   5.792 -0.9662 -0.1859 -0.7668
  680TIP3   OH2 2003   2.608   6.130   0.422 -0.6026 -0.1698 -0.1508
  680TIP3    H1 2004   2.572   6.071   0.357 -0.4464  0.0305 -0.4204
  680TIP3    H2 2005   2.689   6.164   0.383 -0.1893 -0.5107  0.3910
  681TIP3   OH2 2006   0.653   5.604   1.396  0.2425 -0.0586 -0.1432
  681TIP3    H1 2007   0.691   5.684   1.359  2.4616 -1.6465 -1.5547
  681TIP3    H2 2008   0.715   5.577   1.464 -1.1282  0.0437  1.1822
  682TIP3   OH2 2009   3.483   2.121   4.118  0.3606 -0.2749  0.0071
  682TIP3    H1 2010   3.389   2.110   4.104  0.6150 -1.0834 -1.2198
  682TIP3    H2 2011   3.523   2.052   4.066  1.7924  2.1297 -2.3245
  683TIP3   OH2 2012   1.144   2.934   4.591  0.2114 -0.0848  0.0129
  683TIP3    H1 2013   1.207   2.938   4.519 -0.2748  0.3672 -0.3905
  683TIP3    H2 2014   1.061   2.913   4.550 -0.4953  2.1603  0.1467
  684TIP3   OH2 2015   2.381   1.812   4.180  0.3886  0.1102 -0.1183
  684TIP3    H1 2016   2.442   1.884   4.161  0.2135  0.9490  2.1644
  684TIP3    H2 2017   2.295   1.850   4.164  0.2435  0.8022  1.9953
  685TIP3   OH2 2018   1.708   1.869   1.676  0.2862  0.3057  0.1473
  685TIP3    H1 2019   1.748   1.794   1.719 -1.0559 -0.8442 -0.5270
  685TIP3    H2 2020   1.614   1.856   1.687 -0.0331  0.8718 -1.6037
  686TIP3   OH2 2021   0.084   1.790   1.487  0.0936 -0.6523  0.4769
  686TIP3    H1 2022   0.158   1.805   1.546  2.0104  2.1404 -2.3111
  686TIP3    H2 2023   0.084   1.866   1.428 -3.7350 -1.5880 -1.0441
  687TIP3   OH2 2024   2.947   5.682   3.446 -0.1402 -0.6909  0.1192
  687TIP3    H1 2025   2.861   5.693   3.488 -0.6472  0.7995 -1.1962
  687TIP3    H2 2026   2.933   5.614   3.380 -0.6394  0.3284 -0.8524
  688TIP3   OH2 2027   6.549   3.499   4.363  0.2135  0.2925  0.3778
  688TIP3    H1 2028   6.598   3.580   4.377  1.8132 -0.2087 -1.7699
  688TIP3    H2 2029   6.561   3.479   4.270  1.3062 -3.2752  1.1107
  689TIP3   OH2 2030   4.097   4.868   5.672 -0.0992  0.3818 -0.6646
  689TIP3    H1 2031   4.144   4.871   5.589  0.2512 -0.9390 -0.5455
  689TIP3    H2 2032   4.166   4.852   5.738 -0.4781  0.4467 -0.2464
  690TIP3   OH2 2033   4.808   0.463   3.152  0.1821 -0.2100 -0.5844
  690TIP3    H1 2034   4.796   0.407   3.075  1.2653 -1.8388  0.3767
  690TIP3    H2 2035   4.804   0.552   3.117 -0.5243 -0.8711 -2.3361
  691TIP3   OH2 2036   3.367   3.443   1.978 -0.5525 -0.3885 -0.6098
  691TIP3    H1 2037   3.327   3.530   1.971 -1.6053 -0.7810  0.1480
  691TIP3    H2 2038   3.449   3.450   1.930  0.1316  1.4668  0.7080
  692TIP3   OH2 2039   5.568   1.063   4.322  0.1050  0.3202  0.5873
  692TIP3    H1 2040   5.479   1.030   4.318  1.3358 -3.2320 -1.4080
  692TIP3    H2 2041   5.611   1.009   4.389  1.3605  0.2020 -0.2868
  693TIP3   OH2 2042   5.190   5.501   5.699 -0.3513 -0.4395  0.0328
  693TIP3    H1 2043   5.138   5.436   5.652 -0.3240 -0.0088 -0.6003
  693TIP3    H2 2044   5.221   5.454   5.777 -0.7897 -1.0167 -0.1301
  694TIP3   OH2 2045   2.779   5.808   1.043 -0.8665 -0.4283  0.3776
  694TIP3    H1 2046   2.824   5.813   1.127 -0.8319 -1.7570  0.4648
  694TIP3    H2 2047   2.849   5.815   0.978 -0.8958  0.6238  0.4378
  695TIP3   OH2 2048   5.412   5.797   2.689  0.5058  0.2959 -0.2151
  695TIP3    H1 2049   5.333   5.850   2.698  0.7199  0.4739  0.6466
  695TIP3    H2 2050   5.425   5.758   2.776  1.0039 -0.2471 -0.5237
  696TIP3   OH2 2051   3.670   2.921   5.859 -0.0961 -0.7701 -0.2431
  696TIP3    H1 2052   3.751   2.969   5.872 -0.8037 -0.0895  2.1024
  696TIP3    H2 2053   3.698   2.834   5.829  1.4072 -0.1941 -0.5658
  697TIP3   OH2 2054   6.755   2.729   3.951  0.5464 -0.2816 -0.6554
  697TIP3    H1 2055   6.785   2.670   3.882  0.6653 -0.8186 -0.1556
  697TIP3    H2 2056   6.736   2.671   4.025  1.1452  0.3505  0.0146
  698TIP3   OH2 2057   5.336   1.927   4.218  0.4697  0.2269 -0.1100
  698TIP3    H1 2058   5.320   1.868   4.144 -1.7400  1.1601 -0.4476
  698TIP3    H2 2059   5.348   2.013   4.178 -2.1089  0.9994  0.5981
  699TIP3   OH2 2060   3.648   3.640   2.694  0.2677  0.0118 -0.1866
  699TIP3    H1 2061   3.697   3.721   2.677  0.1184  0.1625  0.0886
  699TIP3    H2 2062   3.577   3.667   2.752 -1.0602  0.0821 -1.7949
  700TIP3   OH2 2063   1.520  -0.000   1.667  0.0113  0.1790  0.0386
  700TIP3    H1 2064   1.523   0.018   1.760  1.1751  1.5860 -0.2400
  700TIP3    H2 2065   1.427  -0.004   1.646 -0.2598  0.3068  1.1546
  701TIP3   OH2 2066   6.814   1.865   2.382 -0.4412  0.2152  0.6677
  701TIP3    H1 2067   6.861   1.818   2.451  0.0110  1.6491  1.3853
  701TIP3    H2 2068   6.814   1.804   2.307 -0.0591 -0.9744  1.6006
  702TIP3   OH2 2069   6.807   5.334   0.736 -0.4881 -0.0831  0.0777
  702TIP3    H1 2070   6.771   5.318   0.823 -0.3052  1.5750  0.4898
  702TIP3    H2 2071   6.755   5.406   0.701  1.3628  1.3149  0.0524
  703TIP3   OH2 2072   5.046   1.533   1.245 -0.2389  0.3963  0.4610
  703TIP3    H1 2073   4.958   1.565   1.266  0.5326  1.6023  2.0767
  703TIP3    H2 2074   5.084   1.602   1.191 -0.2755 -0.1595 -0.3007
  704TIP3   OH2 2075   3.505   6.034   3.715 -0.2430  0.2437 -0.3614
  704TIP3    H1 2076   3.593   5.997   3.705 -1.2902 -2.7629  0.4271
  704TIP3    H2 2077   3.511   6.089   3.793  1.6419  2.8652 -2.1630
  705TIP3   OH2 2078   3.175   5.158   2.844  0.1020  0.6606  0.0442
  705TIP3    H1 2079   3.080   5.172   2.836  0.1761  2.3187  1.3883
  705TIP3    H2 2080   3.213   5.242   2.817  1.1823  0.0786 -0.2674
  706TIP3   OH2 2081   0.918   4.571   2.572  0.0297 -0.4652 -0.1527
  706TIP3    H1 2082   0.987   4.616   2.523  1.0361  1.5787  2.8639
  706TIP3    H2 2083   0.961   4.494   2.610 -0.3350 -1.1493 -1.0770
  707TIP3   OH2 2084   0.505   0.286   1.128  0.3289  0.1459  0.5580
  707TIP3    H1 2085   0.458   0.244   1.200  0.3455 -0.2251  0.3552
  707TIP3    H2 2086   0.501   0.222   1.057  0.7050  0.3235  0.3772
  708TIP3   OH2 2087   7.008   2.233   5.550  0.1853  0.0128  0.3159
  708TIP3    H1 2088   6.926   2.184   5.550  0.0047  0.1763 -2.1727
  708TIP3    H2 2089   7.073   2.171   5.518  0.7848  0.2609  1.0322
  709TIP3   OH2 2090   3.828   1.152   4.347  0.8474 -0.0899 -0.3293
  709TIP3    H1 2091   3.888   1.213   4.305 -0.1018  1.0493 -0.0818
  709TIP3    H2 2092   3.763   1.131   4.280 -0.6756  1.7410  0.4819
  710TIP3   OH2 2093   7.164   5.238   4.834  0.2500  0.5165 -0.9313
  710TIP3    H1 2094   7.092   5.206   4.780  0.9620 -0.2612 -1.4470
  710TIP3    H2 2095   7.126   5.311   4.884 -0.6476  0.7230 -1.8717
  711TIP3   OH2 2096   4.532   4.967   1.926 -0.6825  0.1125  0.5255
  711TIP3    H1 2097   4.494   4.881   1.943 -1.3348  0.6507  2.0119
  711TIP3    H2 2098   4.626   4.952   1.932 -0.6212 -1.0049 -2.0182
  712TIP3   OH2 2099   1.930   4.221   5.898  0.5037 -0.3029  0.0167
  712TIP3    H1 2100   1.972   4.306   5.887  0.3785 -0.0454  1.3178
  712TIP3    H2 2101   1.842   4.233   5.862  0.2423  0.3536  0.8359
  713TIP3   OH2 2102   1.031   4.650   3.325  0.3053  0.6915 -0.7246
  713TIP3    H1 2103   1.097   4.674   3.260  0.9144  1.3264  0.0986
  713TIP3    H2 2104   0.954   4.626   3.274  1.9318 -2.6533 -1.8455
  714TIP3   OH2 2105   6.407   6.040   1.094 -0.1479  0.4652  0.0656
  714TIP3    H1 2106   6.495   6.002   1.102  0.1034  0.9807 -0.1757
  714TIP3    H2 2107   6.382   6.063   1.183 -0.3311 -0.3241  0.2213
  715TIP3   OH2 2108   5.735   2.322   3.427 -0.1892  0.8099  0.4035
  715TIP3    H1 2109   5.720   2.227   3.427 -0.0639  0.7854  0.7574
  715TIP3    H2 2110   5.814   2.333   3.481  0.7514  0.9691 -0.9716
  716TIP3   OH2 2111   6.445   0.286   4.964  0.4012 -0.0222 -0.1671
  716TIP3    H1 2112   6.538   0.302   4.980  0.0870  0.9202  0.9119
  716TIP3    H2 2113   6.400   0.348   5.022 -0.9012  0.3372 -1.4802
  717TIP3   OH2 2114   4.813   2.158   0.201 -0.2992 -0.1471 -0.1740
  717TIP3    H1 2115   4.755   2.211   0.147  0.2537  0.1955 -0.4405
  717TIP3    H2 2116   4.813   2.072   0.158  0.5825  0.2791 -1.0655
  718TIP3   OH2 2117   0.400   3.814   4.558  0.2391  0.0682 -0.1532
  718TIP3    H1 2118   0.412   3.909   4.554 -2.0037  0.4620  1.2162
  718TIP3    H2 2119   0.432   3.789   4.644 -1.5226  0.0210  0.5253
  719TIP3   OH2 2120   2.973   3.277   5.881  0.1968 -0.3246 -0.2853
  719TIP3    H1 2121   3.062   3.247   5.865 -0.1068 -0.9794 -0.7938
  719TIP3    H2 2122   2.923   3.197   5.895 -0.0402  0.0907  1.5180
  720TIP3   OH2 2123   2.873   0.794   0.701  0.4948  0.0380 -0.3031
  720TIP3    H1 2124   2.817   0.832   0.769  0.8921 -1.2072  0.7630
  720TIP3    H2 2125   2.937   0.742   0.749 -0.0267 -1.9848 -1.6737
  721TIP3   OH2 2126   2.033   3.819   2.704  0.2556 -0.7647  0.2268
  721TIP3    H1 2127   1.986   3.877   2.764 -0.9265  0.4104 -1.7326
  721TIP3    H2 2128   1.979   3.740   2.698  1.1353 -1.5301  1.7864
  722TIP3   OH2 2129   0.519   3.614   2.851 -0.3069  0.6117  0.0200
  722TIP3    H1 2130   0.564   3.640   2.770  1.0790  0.5353  0.7383
  722TIP3    H2 2131   0.569   3.539   2.883 -1.7746 -0.3421  0.1586
  723TIP3   OH2 2132   4.494   5.862   4.648  0.3683  0.4303  0.5140
  723TIP3    H1 2133   4.433   5.805   4.693 -0.6403  2.0553  1.2973
  723TIP3    H2 2134   4.498   5.941   4.703  1.4675  1.2401 -0.6702
  724TIP3   OH2 2135   5.957   4.064   5.853 -0.2384 -0.5445  0.2756
  724TIP3    H1 2136   5.917   4.011   5.922 -0.8599 -0.5786 -0.1009
  724TIP3    H2 2137   5.936   4.018   5.772 -1.9595  0.9115 -0.1969
  725TIP3   OH2 2138   1.460   1.858   1.805  0.1896  0.8319 -0.2348
  725TIP3    H1 2139   1.512   1.933   1.836  0.4667  0.3034  0.6241
  725TIP3    H2 2140   1.377   1.897   1.777  0.6517  1.5602 -0.6153
  726TIP3   OH2 2141   5.833   4.697   4.615  0.0621 -0.3285 -0.0121
  726TIP3    H1 2142   5.914   4.674   4.568 -0.1188  0.8664 -0.9450
  726TIP3    H2 2143   5.767   4.639   4.578 -0.0300  0.4455 -1.1178
  727TIP3   OH2 2144   4.016   1.085   4.894  0.6526 -0.1081 -0.2384
  727TIP3    H1 2145   4.054   1.146   4.830  0.2811 -0.7278 -1.0578
  727TIP3    H2 2146   4.016   1.135   4.976  1.7467  0.4687 -0.5617
  728TIP3   OH2 2147   5.331   6.115   0.057 -0.0316  0.0802  0.2483
  728TIP3    H1 2148   5.285   6.095   0.139 -0.6134 -0.8320 -0.2866
  728TIP3    H2 2149   5.388   6.040   0.042 -0.6553 -0.2218 -0.6842
  729TIP3   OH2 2150   3.981   0.344   0.107 -0.2853  0.0281 -0.0638
  729TIP3    H1 2151   4.051   0.302   0.057 -0.4576 -2.0047  1.2445
  729TIP3    H2 2152   4.019   0.426   0.138  0.5458  0.2916 -1.6673
  730TIP3   OH2 2153   1.254   0.484   0.563 -0.4298 -0.2240  0.2474
  730TIP3    H1 2154   1.173   0.512   0.604  0.1275  1.5577  0.2150
  730TIP3    H2 2155   1.238   0.495   0.469 -0.5018 -0.8711  0.1828
  731TIP3   OH2 2156   4.258   3.953   1.215 -0.1646 -0.1958 -0.3247
  731TIP3    H1 2157   4.162   3.949   1.212 -0.1859 -0.4345  0.3264
  731TIP3    H2 2158   4.286   3.868   1.180 -0.1656  0.1305 -1.1375
  732TIP3   OH2 2159   5.315   1.088   2.300 -0.0754  0.3360  0.1386
  732TIP3    H1 2160   5.365   1.074   2.220 -0.5475  2.2609 -0.5414
  732TIP3    H2 2161   5.374   1.138   2.357  0.1795 -0.8289  0.9318
  733TIP3   OH2 2162   5.916   6.201   3.526 -0.0862  0.0825  0.4891
  733TIP3    H1 2163   5.847   6.267   3.519  0.1806  0.2207 -1.1583
  733TIP3    H2 2164   5.997   6.251   3.534  0.2392  0.0321 -1.9247
  734TIP3   OH2 2165   2.493   0.777   5.500 -0.2751 -0.0748  0.2245
  734TIP3    H1 2166   2.556   0.706   5.484 -1.7415 -1.5860  0.8072
  734TIP3    H2 2167   2.492   0.787   5.595  0.2550  1.0946  0.1269
  735TIP3   OH2 2168   0.960   1.280   2.240  0.2549 -0.1187  0.0543
  735TIP3    H1 2169   0.941   1.374   2.235 -0.9200 -0.3210  0.4634
  735TIP3    H2 2170   0.926   1.253   2.325  1.5923 -0.7131  0.4298
  736TIP3   OH2 2171   3.391   1.660   0.712  0.3861  0.4039 -0.2820
  736TIP3    H1 2172   3.388   1.568   0.683 -0.1204  0.1833  0.4485
  736TIP3    H2 2173   3.350   1.659   0.798  4.1108  0.6179  1.6700
  737TIP3   OH2 2174   4.853   5.517   4.211 -0.2017  0.2800  0.1686
  737TIP3    H1 2175   4.767   5.478   4.225 -0.3517 -0.0113 -1.3414
  737TIP3    H2 2176   4.883   5.543   4.298 -2.5257  1.9026  0.5803
  738TIP3   OH2 2177   0.704   6.231   1.722 -0.2607  0.3291 -0.0175
  738TIP3    H1 2178   0.663   6.194   1.644 -0.7657 -0.2578  0.5122
  738TIP3    H2 2179   0.792   6.193   1.723  0.3128  1.5736 -1.1459
  739TIP3   OH2 2180   2.375   1.993   2.156 -0.2284  0.0718 -0.4808
  739TIP3    H1 2181   2.398   1.917   2.102 -0.7325  1.0308 -2.1179
  739TIP3    H2 2182   2.300   1.963   2.208  0.9195 -1.2032  0.5181
  740TIP3   OH2 2183   2.589   5.784   5.233  0.0861 -0.1235  0.2517
  740TIP3    H1 2184   2.635   5.842   5.293  0.5849 -0.0794 -0.1681
  740TIP3    H2 2185   2.645   5.707   5.226  0.8562  0.5549 -1.4280
  741TIP3   OH2 2186   6.913   3.821   4.627  0.2923  0.5116  0.3102
  741TIP3    H1 2187   6.993   3.773   4.648  0.1064 -0.0817 -0.2972
  741TIP3    H2 2188   6.939   3.913   4.625  0.3439  0.6387  3.0282
  742TIP3   OH2 2189   5.560   0.122   0.796 -0.0288 -0.3265 -0.1662
  742TIP3    H1 2190   5.619   0.077   0.857  1.5505  0.0207 -1.3590
  742TIP3    H2 2191   5.619   0.167   0.735 -1.5018 -0.9336 -2.1600
  743TIP3   OH2 2192   1.066   6.439   2.115  0.3900  0.0956 -0.3411
  743TIP3    H1 2193   1.096   6.524   2.084  1.0050 -0.3600 -1.0232
  743TIP3    H2 2194   1.088   6.378   2.045 -0.6863 -0.5222 -0.1732
  744TIP3   OH2 2195   6.398   2.762   2.368 -0.0619 -0.0805 -0.2786
  744TIP3    H1 2196   6.384   2.813   2.447  1.4281 -1.2486  0.7985
  744TIP3    H2 2197   6.449   2.819   2.311 -0.1848  0.3625  0.0489
  745TIP3   OH2 2198   6.658   3.998   0.966 -0.2204  0.3509 -1.3847
  745TIP3    H1 2199   6.697   3.913   0.949 -1.1986 -0.1652 -1.0873
  745TIP3    H2 2200   6.565   3.987   0.946 -0.8824  0.5880  1.2377
  746TIP3   OH2 2201   3.485   4.735   2.026 -0.6170  0.4850  0.3142
  746TIP3    H1 2202   3.526   4.818   2.004  0.5098 -0.1073  0.1233
  746TIP3    H2 2203   3.533   4.670   1.976 -2.4046 -0.1540 -0.6698
  747TIP3   OH2 2204   1.871   3.162   5.475 -0.1339 -0.3168 -0.3682
  747TIP3    H1 2205   1.860   3.076   5.515  0.2826  0.7526  2.2748
  747TIP3    H2 2206   1.959   3.159   5.436 -0.4471 -1.3181 -1.0410
  748TIP3   OH2 2207   1.636   1.601   2.158  0.2085  0.2261 -0.2327
  748TIP3    H1 2208   1.655   1.654   2.235  1.3825  0.0123 -0.3529
  748TIP3    H2 2209   1.661   1.512   2.184 -0.5549 -0.0555 -0.4530
  749TIP3   OH2 2210   1.038   4.175   1.478 -0.0931 -0.1730  0.1599
  749TIP3    H1 2211   1.076   4.262   1.486 -0.5880  0.1057 -0.5168
  749TIP3    H2 2212   1.036   4.142   1.568  0.2000  0.4599  0.4065
  750TIP3   OH2 2213   4.306   5.883   3.968 -0.3533 -0.1384 -0.1383
  750TIP3    H1 2214   4.267   5.959   4.012 -0.1999 -1.2030  1.9629
  750TIP3    H2 2215   4.231   5.832   3.939 -0.5659 -0.9254  1.6571
  751TIP3   OH2 2216   6.235   5.359   2.437  0.0097  0.0769  0.3523
  751TIP3    H1 2217   6.292   5.398   2.371 -0.5832  1.0356  0.3945
  751TIP3    H2 2218   6.295   5.326   2.504  0.5685 -0.0932 -0.2181
  752TIP3   OH2 2219   2.767   6.680   4.762 -0.8770  0.2260  0.0243
  752TIP3    H1 2220   2.808   6.671   4.675 -2.0006  0.7236 -0.5745
  752TIP3    H2 2221   2.686   6.727   4.745 -1.5705 -0.4949  1.2352
  753TIP3   OH2 2222   3.290   0.366   5.542 -0.1296  0.6133 -0.2507
  753TIP3    H1 2223   3.382   0.354   5.566 -0.1750 -1.8462 -0.9579
  753TIP3    H2 2224   3.292   0.422   5.465  0.8022  0.4951 -0.3255
  754TIP3   OH2 2225   6.252   5.981   0.716 -0.0158 -0.2318  0.1736
  754TIP3    H1 2226   6.287   6.054   0.767  0.1382 -0.7071  0.7559
  754TIP3    H2 2227   6.213   5.923   0.781  1.6472 -1.6713 -0.0494
  755TIP3   OH2 2228   5.101   0.475   4.564  0.0720  0.0299  0.3542
  755TIP3    H1 2229   5.135   0.386   4.573 -0.6495 -0.2520  0.3208
  755TIP3    H2 2230   5.151   0.513   4.492  1.2937  0.1002  1.2009
  756TIP3   OH2 2231   0.568   5.492   2.864  0.2443  0.1786  0.1159
  756TIP3    H1 2232   0.529   5.557   2.806  3.1249  0.9420 -1.1421
  756TIP3    H2 2233   0.502   5.478   2.932 -2.2727  1.0867 -1.9448
  757TIP3   OH2 2234   5.450   5.755   4.974  0.0958 -0.2147  0.0723
  757TIP3    H1 2235   5.509   5.810   4.922  0.0169 -0.9559 -0.8221
  757TIP3    H2 2236   5.387   5.817   5.012  1.3725  0.5826  0.9731
  758TIP3   OH2 2237   4.635   1.515   0.565 -0.1180  0.2731  0.0276
  758TIP3    H1 2238   4.628   1.519   0.660  0.3943 -0.6132  0.1139
  758TIP3    H2 2239   4.715   1.562   0.545 -0.1177  0.2853  0.0561
  759TIP3   OH2 2240   3.405   2.777   0.047 -0.2281 -0.6577  0.5648
  759TIP3    H1 2241   3.431   2.836   0.118 -1.6602  3.9383 -2.2302
  759TIP3    H2 2242   3.335   2.724   0.084 -1.2187  1.8273  2.5921
  760TIP3   OH2 2243   2.309   0.504   5.820  0.6151  0.0308 -0.0721
  760TIP3    H1 2244   2.399   0.472   5.819  0.7471  0.3819  0.3637
  760TIP3    H2 2245   2.265   0.454   5.751  1.0417 -0.4352 -0.0138
  761TIP3   OH2 2246   2.902   3.321   3.746  0.4624  1.0003 -0.3997
  761TIP3    H1 2247   2.833   3.382   3.774  1.9447  1.7580  1.9600
  761TIP3    H2 2248   2.875   3.293   3.659 -2.3111  1.9821  0.0138
  762TIP3   OH2 2249   1.504   5.691   4.926 -0.3168  0.9856  0.1570
  762TIP3    H1 2250   1.443   5.712   4.855  1.3631  1.9957 -1.0678
  762TIP3    H2 2251   1.590   5.691   4.884  0.5252 -0.6882  1.7567
  763TIP3   OH2 2252   4.740   3.924   2.571 -0.9006 -0.4405  0.5347
  763TIP3    H1 2253   4.750   3.961   2.483 -1.0578 -0.0676  0.6687
  763TIP3    H2 2254   4.750   3.830   2.559  1.6332 -0.2339  0.4776
  764TIP3   OH2 2255   2.918   0.432   0.979 -0.4818 -0.2857  0.4678
  764TIP3    H1 2256   2.846   0.445   1.042 -1.1113 -0.6748 -0.1608
  764TIP3    H2 2257   2.875   0.435   0.893  0.2909 -0.3185  0.0756
  765TIP3   OH2 2258   4.941   1.419   2.603  0.0020 -0.3830 -0.7037
  765TIP3    H1 2259   4.909   1.331   2.623 -0.6512  0.7005  4.1261
  765TIP3    H2 2260   4.864   1.476   2.613  1.2722  1.1693  0.9104
  766TIP3   OH2 2261   0.532   5.336   3.614 -0.2094 -0.3011 -0.6869
  766TIP3    H1 2262   0.570   5.423   3.620 -0.2116 -0.3673  0.8669
  766TIP3    H2 2263   0.596   5.280   3.658  0.1950 -1.2450 -2.3882
  767TIP3   OH2 2264   5.268   3.352   2.517  0.3038 -0.2856 -0.2242
  767TIP3    H1 2265   5.323   3.302   2.577 -0.5307  0.1630  0.9733
  767TIP3    H2 2266   5.204   3.395   2.574 -0.1439  0.6598 -1.3923
  768TIP3   OH2 2267   1.401   1.496   1.109  0.5605  0.0154 -0.2255
  768TIP3    H1 2268   1.334   1.508   1.042 -0.3233 -2.0901  0.2070
  768TIP3    H2 2269   1.469   1.444   1.067 -0.0625 -1.4327  0.5128
  769TIP3   OH2 2270   4.684   3.079   1.101 -0.6258  0.3957  0.4659
  769TIP3    H1 2271   4.610   3.019   1.115 -0.4161 -0.1543 -0.7115
  769TIP3    H2 2272   4.649   3.148   1.045 -0.7284  1.1444  1.4165
  770TIP3   OH2 2273   0.549   0.826   0.765  0.2874 -0.1090  0.4043
  770TIP3    H1 2274   0.597   0.830   0.682 -3.0502  0.7341 -1.6980
  770TIP3    H2 2275   0.580   0.902   0.814  1.1634  0.3530 -0.8201
  771TIP3   OH2 2276   3.368   3.172   5.199  0.4632 -0.2033 -0.4157
  771TIP3    H1 2277   3.375   3.177   5.103  0.7287  1.3562 -0.3398
  771TIP3    H2 2278   3.321   3.252   5.224  1.7987  0.2328  0.8694
  772TIP3   OH2 2279   2.968   6.407   3.757  0.1365 -0.3141  0.1333
  772TIP3    H1 2280   2.979   6.452   3.673  0.2521  1.0796  0.8540
  772TIP3    H2 2281   2.909   6.334   3.738  0.3631 -0.1761 -1.1987
  773TIP3   OH2 2282   2.104   6.108   1.191  0.5546 -0.4093  0.8688
  773TIP3    H1 2283   2.068   6.196   1.193  0.6486 -0.3675  0.7297
  773TIP3    H2 2284   2.034   6.052   1.224 -0.1231 -0.5037 -0.6524
  774TIP3   OH2 2285   4.954   2.690   3.951 -0.2967 -0.4238  0.0388
  774TIP3    H1 2286   4.937   2.596   3.958  0.0888 -0.4129  1.3377
  774TIP3    H2 2287   4.969   2.704   3.857  1.3759 -1.9637  0.0060
  775TIP3   OH2 2288   1.303   5.215   1.686  0.5937 -0.4955 -0.7940
  775TIP3    H1 2289   1.258   5.146   1.736 -1.2200  0.8082 -0.5230
  775TIP3    H2 2290   1.324   5.174   1.602 -1.0082 -1.2406 -0.8754
  776TIP3   OH2 2291   5.745   3.060   2.861  0.0577  0.3084  0.1412
  776TIP3    H1 2292   5.760   3.054   2.767  0.5966  1.2171  0.1579
  776TIP3    H2 2293   5.722   3.152   2.876 -0.0141  0.1744  0.8957
  777TIP3   OH2 2294   6.246   5.746   4.135  0.7697  0.2170 -0.0958
  777TIP3    H1 2295   6.329   5.699   4.124  0.4902 -0.1924 -0.5318
  777TIP3    H2 2296   6.189   5.708   4.068 -0.0822 -0.2198  0.8624
  778TIP3   OH2 2297   2.260   4.385   3.760  0.3920 -0.5818 -0.3862
  778TIP3    H1 2298   2.317   4.322   3.804  0.8615  0.1863  0.1483
  778TIP3    H2 2299   2.193   4.406   3.825  0.5755 -0.1047 -0.3465
  779TIP3   OH2 2300   1.953   6.651   4.769 -0.0981  0.4752  0.3936
  779TIP3    H1 2301   1.871   6.614   4.736 -0.8416  2.5737 -0.3068
  779TIP3    H2 2302   2.007   6.575   4.789 -1.7968 -0.9661 -0.1772
  780TIP3   OH2 2303   2.303   4.934   1.953 -0.1219 -0.5832 -0.7901
  780TIP3    H1 2304   2.301   5.020   1.911  0.1588  0.0570  0.4307
  780TIP3    H2 2305   2.386   4.895   1.925  0.3438  0.0815 -0.3757
  781TIP3   OH2 2306   2.727   1.146   1.859 -0.5929 -0.0159 -0.2317
  781TIP3    H1 2307   2.722   1.222   1.917  0.3314  0.1574 -0.3716
  781TIP3    H2 2308   2.639   1.107   1.863 -1.3805  1.6149 -0.9178
  782TIP3   OH2 2309   5.095   4.413   2.230 -0.3608 -0.6122 -0.0789
  782TIP3    H1 2310   5.022   4.386   2.285  0.0656 -2.1870 -0.2325
  782TIP3    H2 2311   5.165   4.435   2.291 -0.5387 -0.3344  0.0314
  783TIP3   OH2 2312   1.886   2.298   0.264  0.3428  0.1848 -0.3238
  783TIP3    H1 2313   1.801   2.336   0.240 -0.1286  0.0234  0.9967
  783TIP3    H2 2314   1.902   2.232   0.197 -0.8500 -0.1605 -0.3024
  784TIP3   OH2 2315   3.282   4.550   2.726 -0.0597  0.2023 -0.0627
  784TIP3    H1 2316   3.247   4.497   2.797  1.2186  1.4252  1.5511
  784TIP3    H2 2317   3.216   4.617   2.710 -0.4620 -0.2276 -0.2209
  785TIP3   OH2 2318   5.202   6.070   1.073 -0.6503 -0.5189  0.2948
  785TIP3    H1 2319   5.113   6.104   1.075 -0.6870  0.4686 -4.8741
  785TIP3    H2 2320   5.195   5.987   1.027  1.0076 -1.1212  1.0443
  786TIP3   OH2 2321   3.492   2.806   4.121  0.3404 -0.3507  0.2215
  786TIP3    H1 2322   3.497   2.899   4.139  1.7029 -0.3072 -0.2462
  786TIP3    H2 2323   3.413   2.777   4.165  0.1483  0.9363  0.7660
  787TIP3   OH2 2324   3.685   3.478   5.163 -0.2090  0.5916  0.3439
  787TIP3    H1 2325   3.612   3.535   5.138 -0.5898 -0.1320 -0.2088
  787TIP3    H2 2326   3.650   3.426   5.236 -0.9100 -1.0679 -1.0967
  788TIP3   OH2 2327   1.035   6.814   5.586 -0.1087 -0.1820  0.4529
  788TIP3    H1 2328   1.039   6.720   5.568  0.9435  0.0271 -0.5544
  788TIP3    H2 2329   1.075   6.855   5.509  0.2037  1.0476  1.2330
  789TIP3   OH2 2330   1.633   3.686   3.276  0.4821 -0.2045  0.4621
  789TIP3    H1 2331   1.553   3.634   3.285 -0.4976  1.3771  1.3495
  789TIP3    H2 2332   1.610   3.772   3.310  1.4957  1.4092 -2.5593
  790TIP3   OH2 2333   0.633   0.434   4.638 -0.0239  0.1106  0.3722
  790TIP3    H1 2334   0.647   0.365   4.574  1.1572 -0.6365  1.3725
  790TIP3    H2 2335   0.658   0.394   4.722 -0.7767  1.2868  1.1938
  791TIP3   OH2 2336   7.217   0.933   1.109  0.0552 -0.0521 -0.3880
  791TIP3    H1 2337   7.220   0.837   1.116 -1.3964 -0.1753 -1.0386
  791TIP3    H2 2338   7.188   0.962   1.195 -0.7463 -0.3061 -0.5601
  792TIP3   OH2 2339   4.680   2.962   3.329  0.3043 -0.3698 -0.3045
  792TIP3    H1 2340   4.640   2.882   3.294  0.9125 -0.8701  0.1220
  792TIP3    H2 2341   4.616   3.031   3.310 -1.0716 -1.2497  0.9080
  793TIP3   OH2 2342   5.150   3.080   1.599  0.0835  0.1631  0.2081
  793TIP3    H1 2343   5.230   3.125   1.627  0.9730 -0.3894 -1.3336
  793TIP3    H2 2344   5.109   3.140   1.537  0.4849 -0.4693 -0.6951
  794TIP3   OH2 2345   4.055   4.302   4.190 -0.4451 -0.2421 -0.0925
  794TIP3    H1 2346   4.009   4.376   4.149 -0.6161 -0.3394 -0.0764
  794TIP3    H2 2347   4.094   4.340   4.269  1.4174  0.3805 -1.2432
  795TIP3   OH2 2348   5.175   3.752   1.602  0.5063 -0.3258 -0.1818
  795TIP3    H1 2349   5.163   3.732   1.695  1.4794 -0.4641 -0.0750
  795TIP3    H2 2350   5.130   3.681   1.557  0.5796 -0.6136  0.1872
  796TIP3   OH2 2351   1.246   5.743   1.657  0.3596  0.0939  0.7539
  796TIP3    H1 2352   1.170   5.756   1.712 -1.7204 -0.3328 -1.8045
  796TIP3    H2 2353   1.279   5.831   1.639  2.0424  0.1902  3.7426
  797TIP3   OH2 2354   1.659   5.564   0.835 -0.3499 -0.0907  0.5122
  797TIP3    H1 2355   1.567   5.544   0.822 -0.4639  0.4367  0.4659
  797TIP3    H2 2356   1.698   5.482   0.863 -0.6726 -0.5129 -0.2544
  798TIP3   OH2 2357   2.771   5.332   1.239 -0.0570 -0.0911 -0.4949
  798TIP3    H1 2358   2.850   5.386   1.247  1.2451 -1.8857 -0.7870
  798TIP3    H2 2359   2.803   5.242   1.232 -2.1460 -0.9074 -0.3703
  799TIP3   OH2 2360   3.208   3.083   1.525 -0.3559  0.3374  0.3761
  799TIP3    H1 2361   3.118   3.098   1.554 -0.4586  1.5786 -0.5175
  799TIP3    H2 2362   3.217   3.136   1.446  0.5678 -1.2878 -0.6771
  800TIP3   OH2 2363   4.120   6.074   2.753  0.1311 -0.3910 -0.2544
  800TIP3    H1 2364   4.172   6.008   2.799  1.0027 -0.9122 -1.8809
  800TIP3    H2 2365   4.175   6.100   2.679 -0.4891  1.6792 -0.0501
  801TIP3   OH2 2366   2.893   1.315   3.824  0.4832 -0.0122  0.2307
  801TIP3    H1 2367   2.822   1.253   3.840 -0.8190  0.2309 -3.4488
  801TIP3    H2 2368   2.864   1.396   3.867 -0.1580 -0.6399  1.0125
  802TIP3   OH2 2369   5.803   0.647   4.007 -0.1214  0.4594  0.3132
  802TIP3    H1 2370   5.734   0.662   4.072 -1.4032  1.5436 -1.2166
  802TIP3    H2 2371   5.758   0.606   3.933  1.2473 -0.4879 -0.0375
  803TIP3   OH2 2372   7.050   1.489   3.786 -0.1177  0.0303 -0.1930
  803TIP3    H1 2373   7.043   1.571   3.834  1.1974  0.0448  0.0223
  803TIP3    H2 2374   6.989   1.430   3.831 -1.8399  1.1468 -0.9918
  804TIP3   OH2 2375   5.238   1.249   4.811 -0.1655  0.7047 -0.3253
  804TIP3    H1 2376   5.317   1.252   4.865  0.5309  2.0076 -1.3629
  804TIP3    H2 2377   5.228   1.156   4.787  1.5215  0.6395 -0.8434
  805TIP3   OH2 2378   4.187   5.521   4.995 -0.6633 -0.1808  0.1703
  805TIP3    H1 2379   4.179   5.591   5.060  0.6258 -0.7983  1.0373
  805TIP3    H2 2380   4.104   5.523   4.946 -1.5201  0.5223  1.5997
  806TIP3   OH2 2381   6.127   0.290   2.918  0.2682 -0.3057 -0.2832
  806TIP3    H1 2382   6.120   0.382   2.943 -0.9926 -0.4071 -0.1696
  806TIP3    H2 2383   6.039   0.267   2.886 -0.6781 -2.4520  3.1990
  807TIP3   OH2 2384   5.122   2.182   2.923  0.3090 -0.3260 -0.7989
  807TIP3    H1 2385   5.119   2.088   2.907  1.5899 -0.5894  0.3157
  807TIP3    H2 2386   5.176   2.217   2.852  1.4692 -0.7207 -0.1248
  808TIP3   OH2 2387   4.329   0.210   3.786 -0.2179 -0.1712 -0.4004
  808TIP3    H1 2388   4.404   0.241   3.735 -0.1787  0.5059  0.0531
  808TIP3    H2 2389   4.363   0.135   3.836  0.1139  0.0336 -0.3169
  809TIP3   OH2 2390   5.449   6.569   0.639 -0.0610  0.0443  0.2336
  809TIP3    H1 2391   5.455   6.653   0.593  0.6433 -0.8405 -1.3631
  809TIP3    H2 2392   5.474   6.504   0.573 -1.9568 -1.5619  1.0084
  810TIP3   OH2 2393   4.107   3.505   0.135  0.6182  0.4993 -0.2348
  810TIP3    H1 2394   4.093   3.543   0.048 -0.4535 -0.2341 -0.3985
  810TIP3    H2 2395   4.051   3.557   0.193 -0.2979 -0.3304 -0.3448
  811TIP3   OH2 2396   2.547   1.562   0.332 -0.0937 -0.1685  0.2936
  811TIP3    H1 2397   2.464   1.516   0.325 -0.2196 -0.1028  1.2773
  811TIP3    H2 2398   2.606   1.498   0.373  1.2645 -1.3661 -3.1629
  812TIP3   OH2 2399   3.163   0.754   5.736  0.1606  0.0213 -0.0820
  812TIP3    H1 2400   3.222   0.707   5.795  0.8998 -0.0197 -0.8297
  812TIP3    H2 2401   3.086   0.698   5.730  0.7753 -0.8173 -0.4674
  813TIP3   OH2 2402   2.979   6.748   5.209 -0.1210  0.2379 -0.1785
  813TIP3    H1 2403   3.047   6.754   5.143  0.7207 -0.7403  0.5721
  813TIP3    H2 2404   2.924   6.675   5.180 -0.5561  0.6918 -0.5097
  814TIP3   OH2 2405   3.656   4.989   2.040 -0.5136 -0.2436  0.6579
  814TIP3    H1 2406   3.749   4.966   2.031 -0.2144  0.2429  2.2076
  814TIP3    H2 2407   3.652   5.042   2.120 -2.0559  0.1735  0.3368
  815TIP3   OH2 2408   0.577   6.398   0.054 -0.1489  0.2413  0.1605
  815TIP3    H1 2409   0.496   6.447   0.034  0.9046  3.4129  2.6970
  815TIP3    H2 2410   0.566   6.371   0.145  0.7884 -1.3004 -0.1571
  816TIP3   OH2 2411   7.044   4.157   2.084 -0.5627 -0.3898  0.3860
  816TIP3    H1 2412   6.994   4.143   2.004 -0.7617  0.4395  0.3588
  816TIP3    H2 2413   7.066   4.250   2.083 -0.6777 -0.3414  1.3559
  817TIP3   OH2 2414   7.134   1.862   5.136 -0.0060  0.2137  0.2569
  817TIP3    H1 2415   7.080   1.852   5.215 -0.9725  0.2681 -0.3717
  817TIP3    H2 2416   7.203   1.797   5.145 -1.3483 -1.2811  0.1586
  818TIP3   OH2 2417   3.121   1.879   3.523  0.1369  0.2210  0.6336
  818TIP3    H1 2418   3.204   1.888   3.571 -1.0061  1.4091  2.4967
  818TIP3    H2 2419   3.055   1.868   3.591 -1.4053  0.5018 -0.7578
  819TIP3   OH2 2420   6.835   3.939   5.636  0.2791  0.1561 -0.2105
  819TIP3    H1 2421   6.838   4.035   5.635  0.6732  0.1918  1.5194
  819TIP3    H2 2422   6.905   3.912   5.577  1.7057  0.9586  1.0619
  820TIP3   OH2 2423   1.336   5.541   2.859  0.0265  0.0479  0.0095
  820TIP3    H1 2424   1.265   5.572   2.915  0.6641  1.0217  0.3108
  820TIP3    H2 2425   1.381   5.474   2.911 -1.2104 -1.2475 -0.5444
  821TIP3   OH2 2426   0.280   0.164   4.059  0.1652 -0.4062  0.1959
  821TIP3    H1 2427   0.191   0.135   4.039 -0.0758 -0.6989  1.5817
  821TIP3    H2 2428   0.277   0.259   4.054 -0.6267 -0.3247  1.6758
  822TIP3   OH2 2429   2.982   3.846   4.048  0.1329 -0.0649 -0.6247
  822TIP3    H1 2430   3.053   3.805   4.097  0.0662 -1.8229 -1.9238
  822TIP3    H2 2431   2.902   3.816   4.092  0.1034  1.6243  0.6120
  823TIP3   OH2 2432   1.269   1.270   5.020 -0.3155 -0.3222 -0.0340
  823TIP3    H1 2433   1.196   1.317   4.980 -1.6113 -0.1060  2.4498
  823TIP3    H2 2434   1.238   1.246   5.107  2.7170  0.1239  1.2730
  824TIP3   OH2 2435   4.905   0.677   1.873  0.8727  0.0725 -0.3264
  824TIP3    H1 2436   4.878   0.589   1.848  1.3980 -0.1016 -0.2905
  824TIP3    H2 2437   4.847   0.735   1.824 -0.3319 -0.2997  0.6116
  825TIP3   OH2 2438   2.140   4.131   2.985 -0.1313 -0.1251  0.1594
  825TIP3    H1 2439   2.196   4.053   2.980  1.3383  0.8706  0.5343
  825TIP3    H2 2440   2.087   4.127   2.905  1.6712 -0.2413 -1.0905
  826TIP3   OH2 2441   3.382   1.729   3.795  0.1174  0.3868 -0.2089
  826TIP3    H1 2442   3.333   1.685   3.725  1.0531  0.0496 -0.6624
  826TIP3    H2 2443   3.350   1.689   3.876 -0.9119  0.7184 -0.4371
  827TIP3   OH2 2444   2.786   3.066   3.273 -0.1305 -0.7265  0.2689
  827TIP3    H1 2445   2.716   3.119   3.311 -0.5337 -1.5602  0.7166
  827TIP3    H2 2446   2.753   3.040   3.187  0.6202  0.8312 -0.5421
  828TIP3   OH2 2447   0.361   2.610   1.175  0.0144 -0.2832  0.1209
  828TIP3    H1 2448   0.338   2.643   1.088  0.3415 -0.7564 -0.1501
  828TIP3    H2 2449   0.396   2.523   1.159 -0.4349 -0.5919  0.7833
  829TIP3   OH2 2450   6.888   0.037   5.105  0.1195 -0.2535  0.1260
  829TIP3    H1 2451   6.905  -0.010   5.024  0.4948 -0.6223  0.4115
  829TIP3    H2 2452   6.835   0.112   5.079 -0.8949 -1.0815 -0.2753
  830TIP3   OH2 2453   3.257   5.107   5.332 -0.3664  0.4860  0.5292
  830TIP3    H1 2454   3.247   5.141   5.420 -0.1117 -0.0959  0.7862
  830TIP3    H2 2455   3.331   5.154   5.296  1.0552 -0.9416  1.4666
  831TIP3   OH2 2456   0.365   2.898   0.612  0.8341 -0.0851 -0.1628
  831TIP3    H1 2457   0.406   2.829   0.663  0.7017  0.3971  0.6109
  831TIP3    H2 2458   0.410   2.895   0.527  0.5561 -1.3638 -0.2759
  832TIP3   OH2 2459   2.680   4.692   0.800  0.2365  0.1161 -0.0258
  832TIP3    H1 2460   2.750   4.739   0.845  1.2279 -1.0103 -0.3260
  832TIP3    H2 2461   2.692   4.713   0.707 -1.3735  1.8784  0.1120
  833TIP3   OH2 2462   4.728   6.670   5.196 -0.6684 -0.2248  0.3506
  833TIP3    H1 2463   4.676   6.749   5.180 -2.6766 -1.1666  1.8742
  833TIP3    H2 2464   4.802   6.700   5.250 -1.0845  0.6952  0.4228
  834TIP3   OH2 2465   2.263   1.705   2.455 -0.1724 -0.4597  0.2277
  834TIP3    H1 2466   2.241   1.791   2.418 -1.8954 -0.5859  0.8593
  834TIP3    H2 2467   2.351   1.716   2.491 -0.9247  1.5333  1.6579
  835TIP3   OH2 2468   0.767   4.490   4.625 -0.0092  0.2590 -0.0725
  835TIP3    H1 2469   0.830   4.461   4.691 -0.7041 -0.4448  0.2954
  835TIP3    H2 2470   0.682   4.474   4.665 -0.4481 -0.2420 -1.1753
  836TIP3   OH2 2471   2.750   0.684   3.887  0.0442 -1.1227  0.0811
  836TIP3    H1 2472   2.660   0.681   3.917  0.2262  0.0479  0.8007
  836TIP3    H2 2473   2.746   0.724   3.801  0.0239  0.8264  0.9308
  837TIP3   OH2 2474   6.302   5.779   1.815  0.2503  0.1984  0.1110
  837TIP3    H1 2475   6.251   5.722   1.757  0.5879 -1.1279  1.0893
  837TIP3    H2 2476   6.271   5.867   1.794 -2.0734 -0.5102  0.3007
  838TIP3   OH2 2477   1.799   3.773   0.689  0.8465  0.2997 -0.0851
  838TIP3    H1 2478   1.837   3.853   0.651  0.1107  0.5279 -0.3586
  838TIP3    H2 2479   1.716   3.802   0.726 -0.0331 -0.5709 -1.3087
  839TIP3   OH2 2480   5.005   0.273   2.844 -0.3238  0.6969  0.5104
  839TIP3    H1 2481   5.081   0.315   2.885  1.4483 -0.3864 -1.5001
  839TIP3    H2 2482   5.012   0.181   2.868 -0.0707  0.3034 -0.9934
  840TIP3   OH2 2483   5.778   5.262   5.262  0.0159 -0.4017  0.7414
  840TIP3    H1 2484   5.779   5.212   5.344  1.0680  0.0160  0.9970
  840TIP3    H2 2485   5.686   5.261   5.235 -0.6611  0.7767  2.7498
  841TIP3   OH2 2486   1.489   2.140   4.357 -0.3346 -0.1190  0.1629
  841TIP3    H1 2487   1.406   2.186   4.346 -0.0595  0.0981 -1.2270
  841TIP3    H2 2488   1.465   2.056   4.395 -1.0603  0.3714  0.8107
  842TIP3   OH2 2489   1.696   5.660   3.171 -0.3643  0.0327 -0.6258
  842TIP3    H1 2490   1.766   5.702   3.221  0.1080 -0.2603 -1.0360
  842TIP3    H2 2491   1.615   5.694   3.210 -0.0118 -0.5185  0.6300
  843TIP3   OH2 2492   5.495   0.795   3.226  0.0255 -0.0767  0.3691
  843TIP3    H1 2493   5.486   0.788   3.321  0.5002  0.7270  0.4799
  843TIP3    H2 2494   5.572   0.741   3.205 -1.9855 -3.0314 -0.0029
  844TIP3   OH2 2495   5.524   2.328   1.076 -0.3782  0.0168 -0.2765
  844TIP3    H1 2496   5.540   2.302   0.985  1.6668 -0.2779  0.1134
  844TIP3    H2 2497   5.480   2.253   1.115  0.1241 -0.4864 -0.6578
  845TIP3   OH2 2498   2.956   1.058   1.992 -0.3621 -0.3834 -0.3810
  845TIP3    H1 2499   2.938   0.969   2.022 -1.2874 -1.3616 -3.4154
  845TIP3    H2 2500   2.882   1.079   1.936  0.3037  1.9751 -0.4654
  846TIP3   OH2 2501   6.613   5.854   1.357  0.6566 -0.0252 -0.0375
  846TIP3    H1 2502   6.694   5.905   1.349  0.7047  0.2504  1.7150
  846TIP3    H2 2503   6.643   5.763   1.364  0.7771  0.0181  0.0157
  847TIP3   OH2 2504   0.404   2.045   0.684  0.1174  0.4417  0.3807
  847TIP3    H1 2505   0.452   2.056   0.767  0.7485 -0.9338  0.2279
  847TIP3    H2 2506   0.407   2.132   0.644  0.9789  0.8131  1.1836
  848TIP3   OH2 2507   3.414   4.353   5.730  0.1268 -0.0321  0.5952
  848TIP3    H1 2508   3.458   4.426   5.774 -0.7352  0.6679  0.3247
  848TIP3    H2 2509   3.424   4.371   5.637 -2.9353  1.6187  0.4391
  849TIP3   OH2 2510   0.266   6.677   3.784 -0.0931  0.7118  0.4233
  849TIP3    H1 2511   0.254   6.740   3.855 -1.0669  0.8871  0.1228
  849TIP3    H2 2512   0.242   6.593   3.822  1.0578  0.5234  0.7802
  850TIP3   OH2 2513   4.837   2.286   2.542 -0.6097  0.7340  0.3991
  850TIP3    H1 2514   4.753   2.270   2.586 -0.5070 -1.4944 -0.1094
  850TIP3    H2 2515   4.817   2.352   2.476 -2.1269 -0.1815 -0.1139
  851TIP3   OH2 2516   2.240   0.981   5.533  0.4063  0.3624 -0.0282
  851TIP3    H1 2517   2.311   0.916   5.533  0.1878  0.1053  0.9120
  851TIP3    H2 2518   2.161   0.928   5.526  0.2971  0.6640 -1.3370
  852TIP3   OH2 2519   6.443   3.598   3.646 -0.1548 -0.3396 -0.0063
  852TIP3    H1 2520   6.351   3.574   3.635 -0.2173  0.1150 -0.5624
  852TIP3    H2 2521   6.488   3.516   3.666 -0.4777 -0.8045 -1.1094
  853TIP3   OH2 2522   5.647   4.727   0.463  0.4809  0.2386 -0.0722
  853TIP3    H1 2523   5.577   4.782   0.498 -0.3943 -0.4682 -0.6608
  853TIP3    H2 2524   5.645   4.743   0.369  1.2643  0.3824 -0.0644
  854TIP3   OH2 2525   2.885   4.570   1.424  0.5546 -0.2159  0.7464
  854TIP3    H1 2526   2.947   4.624   1.473  0.1197 -0.1664  1.2417
  854TIP3    H2 2527   2.834   4.633   1.373  0.6918 -0.2362  0.5797
  855TIP3   OH2 2528   0.490   1.243   2.278 -0.3142 -0.3868 -0.4976
  855TIP3    H1 2529   0.493   1.247   2.183 -0.6443 -0.1793 -0.4988
  855TIP3    H2 2530   0.564   1.187   2.302 -1.7946 -2.7158 -1.0269
  856TIP3   OH2 2531   6.056   0.561   4.163 -0.5571  0.6399  0.0469
  856TIP3    H1 2532   6.117   0.603   4.223 -0.2434  0.5673 -0.2194
  856TIP3    H2 2533   5.986   0.626   4.150 -1.5726  0.0009  1.8919
  857TIP3   OH2 2534   0.262   0.317   3.565  0.1522 -0.1698 -0.7333
  857TIP3    H1 2535   0.318   0.302   3.489  2.5199 -0.5744  0.9874
  857TIP3    H2 2536   0.260   0.232   3.611 -0.1858  0.3845  0.3160
  858TIP3   OH2 2537   5.285   1.734   3.996  0.0953  0.3203  0.1470
  858TIP3    H1 2538   5.361   1.768   3.948 -0.4605  0.3648 -0.7341
  858TIP3    H2 2539   5.269   1.647   3.958 -0.6832  0.5755 -0.1422
  859TIP3   OH2 2540   6.146   6.322   2.812 -0.0567 -0.0649 -0.0479
  859TIP3    H1 2541   6.111   6.306   2.725 -0.2798  0.6303 -0.0874
  859TIP3    H2 2542   6.167   6.235   2.846 -0.6638 -0.3889 -0.5018
  860TIP3   OH2 2543   5.042   5.312   5.536  0.7637 -0.1343 -0.1384
  860TIP3    H1 2544   5.058   5.221   5.512  2.2079  0.6727 -2.4919
  860TIP3    H2 2545   5.042   5.360   5.454 -0.8712  1.9188  0.9497
  861TIP3   OH2 2546   4.325   5.257   5.845  0.2384 -0.1949  0.1963
  861TIP3    H1 2547   4.331   5.330   5.906 -3.1752 -0.2412  0.8281
  861TIP3    H2 2548   4.375   5.284   5.769  1.2599  1.6149  1.4527
  862TIP3   OH2 2549   0.559   5.825   0.157 -0.2719  0.4601 -0.2157
  862TIP3    H1 2550   0.577   5.835   0.250 -0.3380  1.4178 -0.2974
  862TIP3    H2 2551   0.472   5.862   0.145  0.3721  1.8350 -0.9124
  863TIP3   OH2 2552   0.278   5.904   0.179  0.5015  0.1313 -0.2878
  863TIP3    H1 2553   0.257   5.921   0.271  1.6856  1.9952 -0.2965
  863TIP3    H2 2554   0.195   5.878   0.140 -0.3852  0.9156  0.9736
  864TIP3   OH2 2555   5.587   4.878   1.127  0.0938  0.0335 -0.2740
  864TIP3    H1 2556   5.652   4.947   1.113  0.8361 -0.5105  0.3515
  864TIP3    H2 2557   5.572   4.878   1.222  2.2285 -2.4513  0.2001
  865TIP3   OH2 2558   0.017   5.651   1.918  0.2390  0.5088  0.1016
  865TIP3    H1 2559   0.076   5.577   1.905 -0.2898  0.2676 -1.0810
  865TIP3    H2 2560   0.072   5.728   1.904  0.8543  0.3702  1.6114
  866TIP3   OH2 2561   3.680   5.604   2.548  0.3736 -0.2501 -0.4646
  866TIP3    H1 2562   3.764   5.629   2.585 -0.0013  0.1332  0.1486
  866TIP3    H2 2563   3.692   5.613   2.453  0.7097  0.8118 -0.3364
  867TIP3   OH2 2564   1.772   4.030   0.373 -0.1150  0.0014 -0.4445
  867TIP3    H1 2565   1.733   4.086   0.441  1.1116  0.1043  0.2041
  867TIP3    H2 2566   1.704   3.966   0.353 -1.9769  2.2780 -1.9523
  868TIP3   OH2 2567   3.009   4.325   3.544 -0.0260  0.1801 -0.5142
  868TIP3    H1 2568   2.980   4.413   3.567  1.1741  0.8085 -1.3024
  868TIP3    H2 2569   3.039   4.332   3.453 -0.8652 -1.2881 -0.9381
  869TIP3   OH2 2570   2.570   4.794   5.293  0.0976 -0.0336  0.2671
  869TIP3    H1 2571   2.492   4.805   5.239  0.5253  2.5941  0.0525
  869TIP3    H2 2572   2.537   4.784   5.382 -0.4956  0.7844  0.1418
  870TIP3   OH2 2573   5.906   5.701   4.277  0.1233  0.9380 -0.3843
  870TIP3    H1 2574   5.981   5.761   4.279  0.1155  0.9475  1.5269
  870TIP3    H2 2575   5.935   5.625   4.328 -1.2406  1.0741  0.6423
  871TIP3   OH2 2576   1.140   3.599   5.494  0.1412 -0.0117 -0.2886
  871TIP3    H1 2577   1.232   3.626   5.490 -0.1514  0.9164 -1.0114
  871TIP3    H2 2578   1.139   3.527   5.557  1.0282  1.3645  1.3798
  872TIP3   OH2 2579   3.686   6.281   1.089 -0.3035 -0.1525  0.0604
  872TIP3    H1 2580   3.781   6.291   1.090 -0.2813 -0.2058 -0.7567
  872TIP3    H2 2581   3.673   6.193   1.054 -0.6392 -0.5182  1.0645
  873TIP3   OH2 2582   4.191   0.176   0.433 -0.2060 -1.0400  0.7342
  873TIP3    H1 2583   4.144   0.125   0.367 -0.1297 -0.4300  0.2001
  873TIP3    H2 2584   4.160   0.140   0.516  1.6382 -3.6001  0.4280
  874TIP3   OH2 2585   5.654   2.705   3.190  0.1897 -0.3503  0.3664
  874TIP3    H1 2586   5.686   2.778   3.138 -2.3403  0.5195 -0.0998
  874TIP3    H2 2587   5.704   2.629   3.158 -0.0043  0.4758 -2.0979
  875TIP3   OH2 2588   3.007   2.494   5.355  0.2932  0.1958 -0.1634
  875TIP3    H1 2589   3.033   2.421   5.299  0.8525  0.3220 -0.0814
  875TIP3    H2 2590   2.964   2.453   5.430 -0.4178  0.0243 -0.6596
  876TIP3   OH2 2591   6.985   3.554   1.504  0.6703 -0.2287 -0.3184
  876TIP3    H1 2592   7.034   3.633   1.528  0.9618 -0.9127  1.5078
  876TIP3    H2 2593   7.053   3.489   1.485  0.5005 -0.8376  1.0339
  877TIP3   OH2 2594   0.015   6.610   0.824 -0.3990 -0.5595  0.1813
  877TIP3    H1 2595   0.062   6.681   0.868  0.2759 -1.5433  1.0950
  877TIP3    H2 2596   0.015   6.538   0.887  1.4964 -2.4090 -1.7379
  878TIP3   OH2 2597   3.343   0.722   5.163  0.4451 -0.1094 -0.3351
  878TIP3    H1 2598   3.395   0.656   5.116  0.9425  0.1328 -0.1318
  878TIP3    H2 2599   3.269   0.673   5.199  1.7861 -0.9313  1.4196
  879TIP3   OH2 2600   3.016   5.367   2.472  0.2547  0.3494  0.0854
  879TIP3    H1 2601   2.994   5.446   2.520  1.7109  0.1297  1.1876
  879TIP3    H2 2602   3.105   5.384   2.438  0.9916 -1.1495  1.1659
  880TIP3   OH2 2603   3.551   1.712   5.171  0.0502  0.1631  0.2217
  880TIP3    H1 2604   3.560   1.618   5.157  0.1866  0.1468  0.4131
  880TIP3    H2 2605   3.532   1.721   5.265 -3.4713  0.0949 -0.3338
  881TIP3   OH2 2606   5.586   2.240   4.058 -0.4884 -0.4636 -0.6129
  881TIP3    H1 2607   5.653   2.244   4.127 -0.7600  2.4764 -0.3870
  881TIP3    H2 2608   5.630   2.272   3.980 -1.1896 -0.0262 -0.8374
  882TIP3   OH2 2609   7.096   4.976   0.398  0.2901  0.1902 -0.0616
  882TIP3    H1 2610   7.003   4.999   0.392  0.4765  0.9181 -0.3393
  882TIP3    H2 2611   7.118   4.942   0.311  0.1388 -0.5540  0.1912
  883TIP3   OH2 2612   4.547   3.788   5.850  0.5322 -0.6396  0.1931
  883TIP3    H1 2613   4.637   3.792   5.817  0.1475 -0.7198 -0.9020
  883TIP3    H2 2614   4.557   3.780   5.945  1.7525 -3.2036 -0.0409
  884TIP3   OH2 2615   1.106   6.245   5.451 -0.0278 -0.1507 -0.0227
  884TIP3    H1 2616   1.132   6.259   5.359  0.4169  0.3268  0.1721
  884TIP3    H2 2617   1.176   6.286   5.502 -1.4739  1.7794  0.5211
  885TIP3   OH2 2618   6.206   1.398   4.405 -0.0242  0.3197  0.2120
  885TIP3    H1 2619   6.231   1.323   4.459 -1.0866  0.1244  0.4539
  885TIP3    H2 2620   6.201   1.471   4.468  0.3224  0.4498  0.0935
  886TIP3   OH2 2621   0.327   5.918   2.050 -0.2991  0.3951 -0.1540
  886TIP3    H1 2622   0.301   5.873   2.131  1.1509 -0.2730 -0.0209
  886TIP3    H2 2623   0.285   6.004   2.055  1.1138  1.0360  2.1666
  887TIP3   OH2 2624   5.111   3.697   1.876 -0.1415  0.3842 -0.8181
  887TIP3    H1 2625   5.075   3.609   1.867 -3.5214  1.6368 -1.3150
  887TIP3    H2 2626   5.153   3.698   1.962 -1.6287 -1.2433 -0.0108
  888TIP3   OH2 2627   2.570   3.390   3.394  0.2833 -0.1626  0.4884
  888TIP3    H1 2628   2.532   3.313   3.436  0.3116  0.0794  0.9689
  888TIP3    H2 2629   2.501   3.457   3.401  1.1305  0.5936  2.2835
  889TIP3   OH2 2630   1.711   0.751   0.844  0.9310  0.1652  0.0409
  889TIP3    H1 2631   1.778   0.685   0.859  1.2877  0.5025 -0.0605
  889TIP3    H2 2632   1.724   0.817   0.913  1.7675  1.0676 -0.9406
  890TIP3   OH2 2633   4.750   3.198   5.422 -0.3960  0.1613  0.4565
  890TIP3    H1 2634   4.730   3.230   5.335  2.8473  0.0665 -0.4256
  890TIP3    H2 2635   4.777   3.275   5.471 -0.8029 -0.0066  0.9589
  891TIP3   OH2 2636   2.513   6.367   4.982 -0.4016  0.1364  0.3350
  891TIP3    H1 2637   2.481   6.371   4.892  0.9969 -0.1275 -0.2046
  891TIP3    H2 2638   2.475   6.443   5.025 -0.0031  1.0315 -0.8542
  892TIP3   OH2 2639   0.733   5.429   2.670 -0.0198  0.3352  0.4932
  892TIP3    H1 2640   0.738   5.334   2.667  0.4142  0.3446  0.8708
  892TIP3    H2 2641   0.670   5.447   2.741 -0.6869  0.3213 -0.0860
  893TIP3   OH2 2642   4.019   1.321   5.748  0.0292  0.2548  0.4043
  893TIP3    H1 2643   4.094   1.293   5.695 -1.0224  0.4434 -1.2788
  893TIP3    H2 2644   4.031   1.416   5.757 -1.1000  0.6917 -1.8444
  894TIP3   OH2 2645   6.585   3.641   4.041 -0.2732 -0.1223  0.6412
  894TIP3    H1 2646   6.567   3.729   4.009 -0.4478 -0.3318  0.1473
  894TIP3    H2 2647   6.625   3.596   3.966  3.0460  0.5124  1.8470
  895TIP3   OH2 2648   6.878   4.151   1.836  0.3143 -0.0268  0.1290
  895TIP3    H1 2649   6.888   4.058   1.813 -1.7233 -0.4937  0.9394
  895TIP3    H2 2650   6.844   4.192   1.756 -1.3866 -0.5464  0.5532
  896TIP3   OH2 2651   2.084   5.373   0.278  0.0097  0.1455 -0.3707
  896TIP3    H1 2652   2.062   5.461   0.306  0.5539  0.5012 -1.0181
  896TIP3    H2 2653   2.004   5.339   0.238  0.5986  1.4850 -2.8783
  897TIP3   OH2 2654   2.121   2.411   4.523  0.2292 -0.5384  0.1061
  897TIP3    H1 2655   2.183   2.484   4.520 -0.7068  0.2551 -1.5778
  897TIP3    H2 2656   2.163   2.346   4.579  2.1073  0.3855 -0.1447
  898TIP3   OH2 2657   6.012   0.336   3.242  0.3323 -0.1724  0.6938
  898TIP3    H1 2658   6.072   0.263   3.226  2.0125  1.4957 -1.2899
  898TIP3    H2 2659   6.056   0.389   3.308  0.8290  0.7890 -0.3867
  899TIP3   OH2 2660   1.920   2.746   0.250  0.3992 -0.6860 -0.3707
  899TIP3    H1 2661   1.915   2.805   0.175  1.6285 -0.5778 -0.3882
  899TIP3    H2 2662   1.977   2.675   0.221  1.6277 -0.2040  0.7159
  900TIP3   OH2 2663   1.224   3.925   3.918  0.2082 -0.8908 -0.1852
  900TIP3    H1 2664   1.214   4.020   3.928 -3.0188 -1.0433 -0.8481
  900TIP3    H2 2665   1.314   3.914   3.887  0.4590  2.0180 -0.8327
  901TIP3   OH2 2666   6.073   5.801   2.031  0.6895 -0.0845  0.7864
  901TIP3    H1 2667   6.050   5.836   1.945 -1.2707  0.7131  1.5769
  901TIP3    H2 2668   6.008   5.732   2.047  0.7214  0.1154  1.8245
  902TIP3   OH2 2669   5.627   3.131   0.941 -0.3827  0.3088  0.4156
  902TIP3    H1 2670   5.631   3.044   0.981  0.2117 -0.5245 -1.3646
  902TIP3    H2 2671   5.535   3.157   0.950 -0.7834 -0.9368  0.1355
  903TIP3   OH2 2672   3.931   5.463   5.222 -0.1415  0.8062  0.1795
  903TIP3    H1 2673   3.900   5.430   5.307 -1.2893  0.3264 -0.3913
  903TIP3    H2 2674   3.954   5.384   5.172 -1.3227  0.9275 -0.6140
  904TIP3   OH2 2675   4.240   1.312   0.656 -0.3215 -0.5217 -0.4232
  904TIP3    H1 2676   4.303   1.263   0.603 -0.3352 -0.5188 -0.4426
  904TIP3    H2 2677   4.211   1.383   0.598 -1.4027 -1.3328 -0.9288
  905TIP3   OH2 2678   2.298   5.200   1.831  0.6012  0.0820  0.1287
  905TIP3    H1 2679   2.230   5.267   1.835  1.4588  0.9883 -0.2330
  905TIP3    H2 2680   2.278   5.149   1.752  1.2053  1.3045 -0.8361
  906TIP3   OH2 2681   3.227   5.908   0.736  0.5331 -0.3846 -0.0616
  906TIP3    H1 2682   3.255   5.855   0.811 -1.4698 -0.8870  0.3680
  906TIP3    H2 2683   3.282   5.877   0.664  1.5949 -0.7923  0.8832
  907TIP3   OH2 2684   3.978   2.274   2.251  0.6782 -0.2070  0.3237
  907TIP3    H1 2685   4.051   2.264   2.312  1.2889 -0.4449 -0.4491
  907TIP3    H2 2686   3.960   2.186   2.219  1.6080  0.1636 -1.2819
  908TIP3   OH2 2687   5.430   3.705   0.384 -0.2339  0.5134  0.3282
  908TIP3    H1 2688   5.477   3.628   0.415  0.1995  0.1284 -1.2136
  908TIP3    H2 2689   5.380   3.734   0.460  0.4991 -0.5887  1.2697
  909TIP3   OH2 2690   4.306   2.514   4.974  0.3303 -0.4989 -0.2614
  909TIP3    H1 2691   4.347   2.433   4.944 -0.0129 -1.1506  0.9341
  909TIP3    H2 2692   4.217   2.510   4.939  0.0787 -1.0256  0.3983
  910TIP3   OH2 2693   6.828   4.979   5.498 -0.2039 -0.1273 -0.5972
  910TIP3    H1 2694   6.766   5.047   5.524 -0.7046 -0.9659  0.4666
  910TIP3    H2 2695   6.869   5.013   5.419 -2.0112  0.4610 -1.3303
  911TIP3   OH2 2696   4.727   2.292   5.515 -0.5923 -0.2270  0.1940
  911TIP3    H1 2697   4.777   2.289   5.433 -0.6905 -0.9402  0.1491
  911TIP3    H2 2698   4.646   2.337   5.492 -0.1615  0.5544  0.1647
  912TIP3   OH2 2699   3.458   3.926   1.362  0.1509  0.1055 -0.0927
  912TIP3    H1 2700   3.476   4.019   1.373 -0.5852  0.3254 -0.5847
  912TIP3    H2 2701   3.393   3.923   1.291  0.3339 -0.7957 -0.2361
  913TIP3   OH2 2702   4.194   2.412   5.626 -0.3766  0.6013 -0.2556
  913TIP3    H1 2703   4.175   2.318   5.630  1.3366  0.2673  0.5615
  913TIP3    H2 2704   4.178   2.444   5.714  0.4092  0.7879 -0.1734
  914TIP3   OH2 2705   0.869   4.877   5.385  0.5595 -0.4415  0.1219
  914TIP3    H1 2706   0.931   4.918   5.325 -0.3219 -0.4934 -0.8374
  914TIP3    H2 2707   0.882   4.925   5.468 -0.8774  2.3265 -1.1048
  915TIP3   OH2 2708   0.941   1.669   2.560  0.3098  0.4805  0.5273
  915TIP3    H1 2709   0.929   1.753   2.516 -1.7666 -0.4474 -0.8425
  915TIP3    H2 2710   1.035   1.652   2.554  0.2678  0.7931 -2.9437
  916TIP3   OH2 2711   3.587   2.515   4.607 -0.1638 -0.7573 -0.2655
  916TIP3    H1 2712   3.666   2.466   4.627  0.3856  0.7480  1.6426
  916TIP3    H2 2713   3.596   2.541   4.515  1.5120 -0.7342 -0.1170
  917TIP3   OH2 2714   0.302   3.281   3.213 -0.2310  0.2129  0.1068
  917TIP3    H1 2715   0.356   3.302   3.137  1.2911 -1.4666  0.6610
  917TIP3    H2 2716   0.230   3.228   3.178  0.0993  0.0016 -0.2513
  918TIP3   OH2 2717   0.526   1.229   5.504 -0.0859  0.0255 -0.3388
  918TIP3    H1 2718   0.510   1.310   5.553 -0.9012  0.1846 -0.8603
  918TIP3    H2 2719   0.455   1.224   5.441 -0.1189 -1.1741 -0.2293
  919TIP3   OH2 2720   4.643   4.720   5.516  0.1018  0.1863  0.0281
  919TIP3    H1 2721   4.669   4.681   5.599  0.7642 -0.0561 -0.2836
  919TIP3    H2 2722   4.711   4.785   5.498 -1.2143  1.8490  0.7645
  920TIP3   OH2 2723   1.749   3.970   3.730  0.1701  0.2683 -0.3353
  920TIP3    H1 2724   1.790   3.971   3.644 -0.5497  2.0619 -0.7018
  920TIP3    H2 2725   1.800   4.032   3.782  0.5808 -0.7716  0.5603
  921TIP3   OH2 2726   1.380   4.724   3.158  0.8588 -0.0184 -0.0870
  921TIP3    H1 2727   1.356   4.634   3.181  0.5539  0.1632  0.3132
  921TIP3    H2 2728   1.474   4.720   3.140  0.8502 -0.4135 -0.0545
  922TIP3   OH2 2729   0.249   3.895   2.708 -0.2086 -0.2834  0.3845
  922TIP3    H1 2730   0.184   3.962   2.729 -0.3596 -0.0232 -0.8573
  922TIP3    H2 2731   0.200   3.829   2.659  0.3769 -0.2672 -0.2359
  923TIP3   OH2 2732   2.414   3.418   2.584 -0.0795  0.2457  0.0890
  923TIP3    H1 2733   2.510   3.421   2.578  0.0201 -2.6688 -1.8495
  923TIP3    H2 2734   2.396   3.366   2.662 -0.0144 -0.0383 -0.0807
  924TIP3   OH2 2735   5.984   0.818   1.762 -0.5360 -0.1787  0.5953
  924TIP3    H1 2736   5.957   0.898   1.717  0.3076 -0.1637  0.0879
  924TIP3    H2 2737   5.914   0.801   1.825 -1.2207  0.3960  0.0121
  925TIP3   OH2 2738   1.630   4.157   4.044 -0.1914 -0.1591 -0.2946
  925TIP3    H1 2739   1.715   4.197   4.064  0.3361 -0.8267 -1.1240
  925TIP3    H2 2740   1.581   4.226   4.000  0.9555 -0.5539 -2.3175
  926TIP3   OH2 2741   6.506   0.689   4.393  0.2723 -0.0247  0.1552
  926TIP3    H1 2742   6.566   0.762   4.410  0.1524 -0.0327  0.6227
  926TIP3    H2 2743   6.518   0.669   4.300  0.2424  0.6437  0.0100
  927TIP3   OH2 2744   4.640   0.374   1.361  0.0673 -0.1458 -0.0988
  927TIP3    H1 2745   4.561   0.425   1.381  0.3006  0.5012 -0.7789
  927TIP3    H2 2746   4.634   0.298   1.418  0.3712  1.2778  1.9416
  928TIP3   OH2 2747   0.321   6.423   2.140  0.0919 -0.0401  0.5424
  928TIP3    H1 2748   0.343   6.482   2.212  0.8653 -2.5374  2.5007
  928TIP3    H2 2749   0.406   6.388   2.111 -0.3935 -0.7712 -0.0420
  929TIP3   OH2 2750   6.176   3.659   3.871  0.3022  0.4048  0.2860
  929TIP3    H1 2751   6.115   3.593   3.837  2.4558 -1.4529 -0.2204
  929TIP3    H2 2752   6.225   3.614   3.939  1.3768  1.7267  0.4318
  930TIP3   OH2 2753   0.879   6.612   0.417  0.3519  0.0844 -0.2022
  930TIP3    H1 2754   0.845   6.530   0.452 -1.2862  0.6601 -0.3658
  930TIP3    H2 2755   0.816   6.678   0.445  1.0853  1.1369 -0.9529
  931TIP3   OH2 2756   0.499   6.362   3.159 -0.0260  0.3347 -0.3258
  931TIP3    H1 2757   0.410   6.327   3.165 -0.5535  1.4376 -1.2229
  931TIP3    H2 2758   0.555   6.293   3.193 -1.2366 -0.3442  0.3396
  932TIP3   OH2 2759   6.631   1.119   2.341  0.4037  0.5012  0.3380
  932TIP3    H1 2760   6.646   1.193   2.400  0.2047  0.4160  0.4917
  932TIP3    H2 2761   6.635   1.158   2.253  0.7621  0.6147  0.4035
  933TIP3   OH2 2762   2.153   2.094   0.696  0.8692 -0.4609 -0.4721
  933TIP3    H1 2763   2.159   2.122   0.605  0.9495  1.1769  0.0185
  933TIP3    H2 2764   2.091   2.154   0.736  0.2385 -1.6493  0.3943
  934TIP3   OH2 2765   1.213   2.890   1.075 -0.9151  0.2317  0.9033
  934TIP3    H1 2766   1.119   2.871   1.083 -0.9477 -0.6542 -1.1350
  934TIP3    H2 2767   1.251   2.809   1.040  0.4580  0.9235  0.7277
  935TIP3   OH2 2768   5.688   4.452   3.131  0.4011 -0.0425  0.1220
  935TIP3    H1 2769   5.756   4.494   3.182 -0.7340  1.2661  0.6223
  935TIP3    H2 2770   5.689   4.498   3.047 -1.6495  1.9335  1.0899
  936TIP3   OH2 2771   2.973   4.537   4.828  0.3021 -0.1253  0.7983
  936TIP3    H1 2772   3.038   4.566   4.764 -0.1756 -2.0500 -0.6439
  936TIP3    H2 2773   2.891   4.535   4.779 -0.4187  0.0268  1.9678
  937TIP3   OH2 2774   6.103   4.451   2.276 -0.0567 -0.0550 -0.2917
  937TIP3    H1 2775   6.022   4.485   2.313 -0.2217  0.2654 -0.9373
  937TIP3    H2 2776   6.165   4.450   2.349 -0.2206  1.0631 -0.1280
  938TIP3   OH2 2777   4.421   4.988   1.009  0.0875 -0.0862  0.7224
  938TIP3    H1 2778   4.363   4.924   1.050 -0.2588  0.4826  1.1437
  938TIP3    H2 2779   4.507   4.945   1.006 -0.5511 -1.3806 -0.9321
  939TIP3   OH2 2780   1.623   0.516   2.244 -0.7254 -0.1307  0.1097
  939TIP3    H1 2781   1.640   0.472   2.326 -1.7074 -0.7882 -0.0287
  939TIP3    H2 2782   1.671   0.599   2.251  1.0115 -1.1108  0.4349
  940TIP3   OH2 2783   5.814   2.271   0.008  0.4167 -0.2580 -0.4952
  940TIP3    H1 2784   5.836   2.220   0.086 -0.7175 -0.3341 -0.2139
  940TIP3    H2 2785   5.795   2.205  -0.059 -0.6811 -0.2242 -0.2352
  941TIP3   OH2 2786   2.777   4.860   4.605  0.1343  0.0849  0.0573
  941TIP3    H1 2787   2.705   4.913   4.572  0.3676 -0.4494 -1.4225
  941TIP3    H2 2788   2.842   4.923   4.635  0.1882  0.6558 -1.1862
  942TIP3   OH2 2789   0.071   2.669   2.974 -0.6573  0.4772  0.0456
  942TIP3    H1 2790   0.104   2.581   2.990 -1.4888  0.3988  1.4858
  942TIP3    H2 2791   0.001   2.657   2.910 -0.9453  0.0486  0.4383
  943TIP3   OH2 2792   0.548   3.880   3.580 -0.6867  0.4224  0.7168
  943TIP3    H1 2793   0.469   3.832   3.603 -1.3515  0.2103 -1.6948
  943TIP3    H2 2794   0.612   3.812   3.559 -0.8147  0.5819 -0.2104
  944TIP3   OH2 2795   6.800   5.912   1.730 -0.3153  0.4829 -0.0730
  944TIP3    H1 2796   6.719   5.860   1.733  0.1414 -0.4301 -1.8418
  944TIP3    H2 2797   6.853   5.879   1.803 -2.1622  2.3234  2.2527
  945TIP3   OH2 2798   5.807   1.339   2.856 -0.0968 -0.3053  0.5334
  945TIP3    H1 2799   5.718   1.335   2.821 -0.1012  0.7238  0.4129
  945TIP3    H2 2800   5.799   1.306   2.945 -0.4036 -1.2204  0.1864
  946TIP3   OH2 2801   2.579   6.597   2.133  0.5026 -0.1684  0.1655
  946TIP3    H1 2802   2.615   6.639   2.055  0.2465 -1.0056 -0.4198
  946TIP3    H2 2803   2.656   6.567   2.182  0.6977  1.1477  0.7121
  947TIP3   OH2 2804   0.360   4.600   0.792  0.2595  0.0666 -0.6002
  947TIP3    H1 2805   0.321   4.514   0.803 -0.1344  0.2362 -0.6718
  947TIP3    H2 2806   0.287   4.658   0.772  0.3186  0.6929  0.8687
  948TIP3   OH2 2807   4.198   1.876   2.817 -0.1326 -0.4451 -0.3160
  948TIP3    H1 2808   4.155   1.800   2.777 -1.4641  0.0737  0.0781
  948TIP3    H2 2809   4.218   1.848   2.906 -0.7493 -0.2938 -0.1274
  949TIP3   OH2 2810   2.644   1.247   2.747  0.0716 -0.1546  0.0037
  949TIP3    H1 2811   2.588   1.251   2.669 -0.3434  1.1366  0.3576
  949TIP3    H2 2812   2.733   1.240   2.712  0.2152  3.4562 -0.7292
  950TIP3   OH2 2813   2.045   3.871   1.393 -0.1202 -0.2333  0.2335
  950TIP3    H1 2814   1.974   3.912   1.344 -1.2012 -1.6245  0.5759
  950TIP3    H2 2815   2.060   3.929   1.467  1.5325  1.9028 -1.6536
  951TIP3   OH2 2816   1.795   3.638   1.913  0.1650  0.0529  0.4091
  951TIP3    H1 2817   1.843   3.715   1.943 -0.0137  0.5850 -0.6021
  951TIP3    H2 2818   1.704   3.657   1.934  0.0825  0.2683 -0.1269
  952TIP3   OH2 2819   2.354   6.253   5.180  0.1118  0.0850 -0.1561
  952TIP3    H1 2820   2.280   6.223   5.127  0.5053 -1.6449  0.2135
  952TIP3    H2 2821   2.422   6.276   5.117 -0.3414  0.6435 -0.4573
  953TIP3   OH2 2822   2.911   1.053   4.335  0.2382  0.1937 -0.2665
  953TIP3    H1 2823   2.885   1.122   4.274  1.1109 -0.1414 -1.0514
  953TIP3    H2 2824   2.994   1.083   4.372 -0.1321  0.2505  0.5398
  954TIP3   OH2 2825   0.152   3.756   4.512  0.4304  0.2117 -0.1156
  954TIP3    H1 2826   0.106   3.832   4.548 -0.4709 -0.6822  0.6759
  954TIP3    H2 2827   0.243   3.769   4.538  0.7931  2.2304 -2.0654
  955TIP3   OH2 2828   4.493   0.818   5.895 -0.8682  0.5592 -0.4376
  955TIP3    H1 2829   4.555   0.748   5.871  1.4460  1.6881  1.8484
  955TIP3    H2 2830   4.435   0.825   5.819  0.7707 -1.6956 -2.0306
  956TIP3   OH2 2831   6.513   6.431   3.636  0.3779 -0.1659  0.2977
  956TIP3    H1 2832   6.437   6.433   3.695  0.0062 -3.2269  0.0718
  956TIP3    H2 2833   6.578   6.377   3.682  2.0535  1.4815 -0.0090
  957TIP3   OH2 2834   6.073   6.755   0.700  0.1492 -0.2203  0.4443
  957TIP3    H1 2835   5.992   6.805   0.706 -0.1586 -0.6198 -0.2816
  957TIP3    H2 2836   6.112   6.782   0.617  0.8915  0.1561  0.9051
  958TIP3   OH2 2837   0.655   4.702   2.616  0.2736  0.3518 -0.2691
  958TIP3    H1 2838   0.729   4.640   2.610  1.4316  1.5551  0.9106
  958TIP3    H2 2839   0.678   4.773   2.556 -1.0852 -0.3367 -1.6700
  959TIP3   OH2 2840   2.059   6.756   3.852  0.3541  0.2562  0.1881
  959TIP3    H1 2841   2.129   6.753   3.916  0.8757  2.9712 -0.1148
  959TIP3    H2 2842   2.103   6.767   3.768 -0.3749 -1.4120 -0.4491
  960TIP3   OH2 2843   5.240   1.377   4.380  0.0143 -0.1545  0.5562
  960TIP3    H1 2844   5.226   1.463   4.340  0.4126 -0.9715 -1.4167
  960TIP3    H2 2845   5.304   1.393   4.449  0.8274  0.9764 -0.4263
  961TIP3   OH2 2846   0.620   3.102   1.938  0.2845  0.0659  0.5334
  961TIP3    H1 2847   0.529   3.076   1.925 -0.6138  2.5896  1.1703
  961TIP3    H2 2848   0.645   3.146   1.857 -0.4082  2.7216  1.6488
  962TIP3   OH2 2849   6.183   1.222   0.157  0.1385  0.0628 -0.1437
  962TIP3    H1 2850   6.279   1.220   0.153  0.2244  0.2396  1.2161
  962TIP3    H2 2851   6.164   1.247   0.247 -1.2046 -0.8838 -0.1389
  963TIP3   OH2 2852   6.606   3.731   0.301  0.1077 -0.0330  0.0480
  963TIP3    H1 2853   6.592   3.692   0.215 -0.6487 -0.4226  0.3327
  963TIP3    H2 2854   6.539   3.690   0.356  2.6144 -2.3380  1.6374
  964TIP3   OH2 2855   2.526   0.485   1.440  0.1471 -0.0242 -0.0532
  964TIP3    H1 2856   2.598   0.548   1.447 -1.1929  1.8801 -2.0322
  964TIP3    H2 2857   2.486   0.484   1.527  1.6507 -0.0190  0.6740
  965TIP3   OH2 2858   3.171   1.517   3.377  0.3364  1.0517 -0.0720
  965TIP3    H1 2859   3.164   1.541   3.470  0.0022 -0.5381  0.3478
  965TIP3    H2 2860   3.246   1.458   3.373  0.1120  0.8004 -0.7331
  966TIP3   OH2 2861   0.482   2.487   5.602 -0.1454  0.1583 -0.5490
  966TIP3    H1 2862   0.553   2.501   5.665 -1.2695 -1.2734  1.1379
  966TIP3    H2 2863   0.436   2.572   5.599 -0.1790  0.2178  0.7619
  967TIP3   OH2 2864   0.469   3.586   3.257  0.1118  0.3018  0.2777
  967TIP3    H1 2865   0.387   3.582   3.305  0.3462 -0.1169  0.6461
  967TIP3    H2 2866   0.453   3.650   3.188 -1.2766 -1.4063 -1.0785
  968TIP3   OH2 2867   1.639   1.192   2.473  0.6960 -0.5342 -0.2458
  968TIP3    H1 2868   1.646   1.286   2.489  1.6950 -0.2473 -2.0284
  968TIP3    H2 2869   1.663   1.182   2.381 -1.4006 -2.3218 -0.6723
  969TIP3   OH2 2870   6.418   5.428   3.731 -0.0121  0.5507 -0.4872
  969TIP3    H1 2871   6.413   5.498   3.666  1.8534 -1.5123 -3.0796
  969TIP3    H2 2872   6.395   5.349   3.682  1.7130 -1.1355  1.2909
  970TIP3   OH2 2873   0.122   4.656   3.606 -0.1929 -0.3701  0.0536
  970TIP3    H1 2874   0.060   4.627   3.538  1.9079 -1.8146 -1.3531
  970TIP3    H2 2875   0.158   4.575   3.642  0.7066  0.4389  1.0278
  971TIP3   OH2 2876   2.824   1.161   0.527  0.3523  0.3861 -0.1937
  971TIP3    H1 2877   2.767   1.086   0.510  0.0729  0.6159 -0.2837
  971TIP3    H2 2878   2.892   1.127   0.585  1.0451 -0.3084 -1.3618
  972TIP3   OH2 2879   6.828   6.148   4.904 -0.7865  0.2506  0.3074
  972TIP3    H1 2880   6.796   6.079   4.962 -0.8374  0.1989  0.2178
  972TIP3    H2 2881   6.793   6.125   4.818  0.2085 -0.2924  0.0235
  973TIP3   OH2 2882   5.066   0.757   2.835 -0.2228 -0.2631  0.0248
  973TIP3    H1 2883   5.118   0.683   2.807 -0.6272  0.1586 -1.9981
  973TIP3    H2 2884   5.116   0.834   2.807 -1.0461  0.1652 -0.3157
  974TIP3   OH2 2885   4.846   2.008   5.552  0.5076  0.0347 -0.2754
  974TIP3    H1 2886   4.911   2.050   5.608  0.7642 -0.5943 -0.0899
  974TIP3    H2 2887   4.796   2.080   5.514  1.3449  0.5289 -0.4558
  975TIP3   OH2 2888   4.911   2.606   1.556 -0.4796 -0.5561 -0.0251
  975TIP3    H1 2889   4.815   2.610   1.555 -0.4556  0.7273  0.5952
  975TIP3    H2 2890   4.939   2.689   1.518  0.3753 -0.5006  0.6930
  976TIP3   OH2 2891   1.788   1.534   0.244  0.0896 -0.1857  0.2498
  976TIP3    H1 2892   1.750   1.617   0.214  0.2745  0.5562  1.9749
  976TIP3    H2 2893   1.712   1.482   0.271  0.1064  0.6994  2.2086
  977TIP3   OH2 2894   7.065   2.826   5.739  0.2019 -0.1230  0.5070
  977TIP3    H1 2895   7.124   2.759   5.704  0.6345  0.8033 -0.6023
  977TIP3    H2 2896   7.064   2.810   5.833  1.6787 -0.6019  0.4701
  978TIP3   OH2 2897   3.623   2.639   5.333 -0.1615  0.0951 -0.4088
  978TIP3    H1 2898   3.686   2.618   5.402  0.2847 -1.0625 -1.1372
  978TIP3    H2 2899   3.542   2.658   5.380  0.1966 -0.4096  0.4534
  979TIP3   OH2 2900   2.269   3.582   4.127 -0.3799  0.1339  0.2508
  979TIP3    H1 2901   2.269   3.500   4.077  1.8071 -0.4102  1.0206
  979TIP3    H2 2902   2.258   3.650   4.061  0.0234 -0.6809 -0.6820
  980TIP3   OH2 2903   1.662   5.705   4.476  0.2313  0.3373 -0.5320
  980TIP3    H1 2904   1.634   5.617   4.499 -0.7487  1.0084  0.9882
  980TIP3    H2 2905   1.751   5.711   4.510 -0.1624  0.3396  0.5381
  981TIP3   OH2 2906   6.647   5.068   0.147 -0.1733  0.2351  0.0917
  981TIP3    H1 2907   6.634   5.128   0.074  0.1657  1.0829  0.7099
  981TIP3    H2 2908   6.563   5.069   0.194 -0.3060 -0.1096 -0.1322
  982TIP3   OH2 2909   1.799   0.945   1.022 -0.2457 -0.2559  0.1910
  982TIP3    H1 2910   1.811   1.023   1.076  1.0578 -0.9191  0.9300
  982TIP3    H2 2911   1.878   0.941   0.969 -0.9935 -0.2617 -0.9493
  983TIP3   OH2 2912   0.467   5.459   2.437  0.0876 -0.4271 -0.1327
  983TIP3    H1 2913   0.552   5.415   2.439 -0.2348 -1.1317  2.7963
  983TIP3    H2 2914   0.483   5.541   2.392  2.0740 -0.9981 -0.5553
  984TIP3   OH2 2915   1.638   2.450   3.069 -0.5018  0.6078  0.1329
  984TIP3    H1 2916   1.728   2.464   3.040 -0.7153 -0.1631 -0.9502
  984TIP3    H2 2917   1.587   2.516   3.022 -0.7372 -0.1108 -0.6355
  985TIP3   OH2 2918   5.924   5.206   4.417 -0.4550  0.0315  0.2245
  985TIP3    H1 2919   5.922   5.126   4.469  0.6179 -1.1568 -1.4713
  985TIP3    H2 2920   5.904   5.178   4.328 -2.5151  2.0488 -0.0462
  986TIP3   OH2 2921   4.267   1.865   5.317 -0.1205 -0.1805  0.4546
  986TIP3    H1 2922   4.317   1.784   5.325 -0.5517 -0.3062  2.5651
  986TIP3    H2 2923   4.180   1.843   5.350 -0.7531  0.7355 -0.5199
  987TIP3   OH2 2924   5.907   1.025   1.560  0.0283  0.0840 -0.3286
  987TIP3    H1 2925   5.926   0.938   1.527 -1.2286 -0.0692 -0.7170
  987TIP3    H2 2926   5.814   1.039   1.539 -0.1035  1.0403  0.7644
  988TIP3   OH2 2927   4.801   1.525   5.680  0.0626  0.7023 -0.3148
  988TIP3    H1 2928   4.799   1.472   5.760 -0.1394  0.2910 -0.5847
  988TIP3    H2 2929   4.811   1.460   5.609 -0.5758  0.9946 -0.6773
  989TIP3   OH2 2930   3.540   4.860   2.949 -0.1974  0.3938 -0.1374
  989TIP3    H1 2931   3.469   4.858   3.013 -0.8962  1.2711 -0.8494
  989TIP3    H2 2932   3.619   4.879   3.000 -0.3803 -1.0280  0.7268
  990TIP3   OH2 2933   2.893   6.183   4.848 -0.0029  0.3483 -0.6181
  990TIP3    H1 2934   2.885   6.248   4.778  0.2707 -0.8306 -1.7907
  990TIP3    H2 2935   2.844   6.108   4.816 -0.3669 -0.0069  0.7453
  991TIP3   OH2 2936   6.515   0.250   2.115  0.2830 -0.7437 -0.2417
  991TIP3    H1 2937   6.426   0.266   2.145 -0.0768 -0.3910 -1.4457
  991TIP3    H2 2938   6.561   0.332   2.135  0.4643 -1.0724  0.7599
  992TIP3   OH2 2939   4.975   1.029   0.817 -0.4050  0.1292 -0.4284
  992TIP3    H1 2940   4.970   1.067   0.729 -0.9258  1.1842  0.0382
  992TIP3    H2 2941   4.891   1.050   0.857 -0.0689 -0.0953  0.4211
  993TIP3   OH2 2942   2.938   3.411   2.749 -0.3764 -0.7276 -0.2734
  993TIP3    H1 2943   3.005   3.378   2.689 -0.4043 -1.1848 -0.0569
  993TIP3    H2 2944   2.968   3.385   2.836  0.6381  1.5684  0.1262
  994TIP3   OH2 2945   1.333   6.356   5.566 -0.3725  0.1730 -0.1647
  994TIP3    H1 2946   1.316   6.437   5.613  0.6057  0.1683  0.2267
  994TIP3    H2 2947   1.428   6.353   5.557 -0.3951 -0.9180 -0.1906
  995TIP3   OH2 2948   3.384   4.617   0.261 -0.6281 -0.0694 -0.4692
  995TIP3    H1 2949   3.332   4.608   0.181 -1.9770 -0.4979  0.4247
  995TIP3    H2 2950   3.375   4.710   0.285 -1.4016 -0.2401 -0.0622
  996TIP3   OH2 2951   3.348   4.109   0.372 -0.2679 -0.9436  0.3044
  996TIP3    H1 2952   3.408   4.034   0.368  0.3228 -0.7293  2.9420
  996TIP3    H2 2953   3.387   4.175   0.315 -0.0524 -2.1181 -0.9548
  997TIP3   OH2 2954   0.277   4.825   4.269 -0.1088 -0.5447  0.1541
  997TIP3    H1 2955   0.209   4.888   4.244  0.0900 -0.3057  0.2014
  997TIP3    H2 2956   0.344   4.835   4.200 -0.1049 -0.7477  0.1297
  998TIP3   OH2 2957   1.865   1.148   1.207  0.4171  0.1152 -0.0178
  998TIP3    H1 2958   1.884   1.212   1.276  1.5464 -0.1608 -0.0602
  998TIP3    H2 2959   1.931   1.164   1.140  2.7249 -2.9566  1.2408
  999TIP3   OH2 2960   2.144   5.815   3.933  0.1771  0.4032  0.1311
  999TIP3    H1 2961   2.095   5.758   3.873  0.9373  0.8711 -0.9769
  999TIP3    H2 2962   2.096   5.898   3.932  0.5184  0.5971 -0.2977
 1000TIP3   OH2 2963   3.251   4.996   3.674  0.2077  0.3193  0.0269
 1000TIP3    H1 2964   3.195   5.054   3.726  0.0221  0.0986  0.0709
 1000TIP3    H2 2965   3.198   4.919   3.658  0.8143 -0.2892  0.8581
 1001TIP3   OH2 2966   7.137   3.601   4.211 -0.2133 -0.2490 -0.0055
 1001TIP3    H1 2967   7.053   3.573   4.176 -0.3016  0.1783 -0.1454
 1001TIP3    H2 2968   7.157   3.538   4.280  0.0563 -1.2303 -0.9540
 1002TIP3   OH2 2969   6.012   6.184   4.958 -0.2163 -0.0693  0.6638
 1002TIP3    H1 2970   5.922   6.211   4.942  0.3155  2.0793  1.0273
 1002TIP3    H2 2971   6.004   6.106   5.013 -1.8346  0.2034  0.8643
 1003TIP3   OH2 2972   5.502   1.579   0.070  0.1111 -0.2197  0.5232
 1003TIP3    H1 2973   5.440   1.648   0.048  1.2978  1.0763  1.0840
 1003TIP3    H2 2974   5.579   1.626   0.102  1.4161 -1.7622 -0.2265
 1004TIP3   OH2 2975   5.825   0.725   5.644  0.4692  0.5828  0.6573
 1004TIP3    H1 2976   5.817   0.778   5.565  1.0923  1.0607  0.9075
 1004TIP3    H2 2977   5.749   0.666   5.641 -0.3261  1.5837  0.4544
 1005TIP3   OH2 2978   0.351   6.523   5.867  0.3975 -0.1896  0.4213
 1005TIP3    H1 2979   0.383   6.500   5.781 -0.3688 -1.8514  0.5494
 1005TIP3    H2 2980   0.257   6.533   5.856  0.3814  0.2839  0.9263
 1006TIP3   OH2 2981   5.987   4.851   3.792 -0.1942  0.3481  0.3206
 1006TIP3    H1 2982   5.908   4.822   3.837 -0.1651  0.9037  0.7558
 1006TIP3    H2 2983   5.964   4.937   3.757  0.1230  0.3869  0.2068
 1007TIP3   OH2 2984   5.146   2.073   4.442 -0.3343  0.4040  0.0530
 1007TIP3    H1 2985   5.066   2.021   4.450  0.7449 -1.3078  0.4583
 1007TIP3    H2 2986   5.174   2.061   4.351 -1.4412  2.4806 -0.6151
 1008TIP3   OH2 2987   1.085   5.391   0.586  0.2889  0.0786  0.2541
 1008TIP3    H1 2988   1.126   5.331   0.648  0.6809  0.0932  0.0089
 1008TIP3    H2 2989   1.061   5.337   0.511 -1.9611 -0.3284  1.1972
 1009TIP3   OH2 2990   7.116   2.661   4.288 -0.0857  0.1840 -0.1435
 1009TIP3    H1 2991   7.072   2.688   4.208  1.0986  0.5765 -0.6736
 1009TIP3    H2 2992   7.103   2.734   4.349  0.7714  0.7990 -0.6753
 1010TIP3   OH2 2993   1.084   0.712   2.680  0.4550  0.2129  0.0453
 1010TIP3    H1 2994   1.053   0.635   2.632  3.3165 -1.4639  0.6692
 1010TIP3    H2 2995   1.123   0.768   2.613 -2.2366  1.5986 -0.5140
 1011TIP3   OH2 2996   2.083   6.419   5.228 -0.2372 -0.0887 -0.1596
 1011TIP3    H1 2997   2.170   6.400   5.192  0.6213  1.8962  0.6980
 1011TIP3    H2 2998   2.060   6.341   5.278  1.9375  0.0319  1.1778
 1012TIP3   OH2 2999   4.325   4.564   1.238  0.1494 -0.0919 -0.5089
 1012TIP3    H1 3000   4.265   4.499   1.274  0.3152  0.5726  1.0546
 1012TIP3    H2 3001   4.404   4.515   1.217 -0.5374 -0.7809 -1.5270
 1013TIP3   OH2 3002   4.642   5.623   4.556 -0.6446 -0.3270  0.2552
 1013TIP3    H1 3003   4.572   5.580   4.507 -1.3275  2.3360 -1.2530
 1013TIP3    H2 3004   4.600   5.698   4.598  0.9099  0.1283  1.0937
 1014TIP3   OH2 3005   0.522   4.338   1.112 -0.3473  0.2669 -0.0527
 1014TIP3    H1 3006   0.453   4.336   1.178  0.0138 -1.9316  0.3617
 1014TIP3    H2 3007   0.523   4.428   1.080 -2.5489  0.6587  0.8050
 1015TIP3   OH2 3008   1.420   0.675   1.523  0.4165 -0.0898 -0.1474
 1015TIP3    H1 3009   1.471   0.724   1.459 -2.4372 -0.6264 -3.0897
 1015TIP3    H2 3010   1.376   0.743   1.575  1.2326  0.3654 -0.0312
 1016TIP3   OH2 3011   0.397   2.442   5.324 -0.0873  0.0089 -0.0469
 1016TIP3    H1 3012   0.387   2.506   5.394 -1.1313 -0.1995 -0.0013
 1016TIP3    H2 3013   0.432   2.364   5.369  0.0493  0.1503  0.0949
 1017TIP3   OH2 3014   3.697   0.389   2.521  0.0904  0.0416  0.1519
 1017TIP3    H1 3015   3.607   0.358   2.516  0.6877 -1.5377 -2.4306
 1017TIP3    H2 3016   3.749   0.311   2.539  0.9882  0.9233  1.5673
 1018TIP3   OH2 3017   6.194   4.600   0.280 -0.1241  0.3569  0.1110
 1018TIP3    H1 3018   6.167   4.681   0.236 -0.0327 -0.1867 -0.9792
 1018TIP3    H2 3019   6.274   4.574   0.235 -0.4969 -0.6750  0.0144
 1019TIP3   OH2 3020   3.380   4.922   1.696  0.2617 -0.0286 -0.2743
 1019TIP3    H1 3021   3.423   4.840   1.719 -2.1112 -1.3095 -0.0475
 1019TIP3    H2 3022   3.317   4.898   1.627 -1.0355  1.3902  0.3483
 1020TIP3   OH2 3023   6.253   6.631   2.751 -0.3555 -0.6715  0.4151
 1020TIP3    H1 3024   6.217   6.718   2.739 -2.7526 -1.6367  0.1811
 1020TIP3    H2 3025   6.187   6.583   2.800  0.3508 -2.7034 -0.4914
 1021TIP3   OH2 3026   0.377   2.679   2.247 -0.5369  0.1634 -0.6245
 1021TIP3    H1 3027   0.359   2.671   2.341 -4.3653 -0.5981 -1.2690
 1021TIP3    H2 3028   0.419   2.764   2.238 -0.0483  0.2472  1.7709
 1022TIP3   OH2 3029   5.210   0.987   3.603  0.2408 -0.1823 -0.5029
 1022TIP3    H1 3030   5.218   1.063   3.661  1.1001 -0.3626 -0.3718
 1022TIP3    H2 3031   5.220   1.023   3.515 -1.4848  0.1523 -0.5863
 1023TIP3   OH2 3032   2.725   6.225   1.140  0.1203  0.1095  0.4811
 1023TIP3    H1 3033   2.755   6.248   1.228  1.1238 -0.9849  0.4421
 1023TIP3    H2 3034   2.735   6.306   1.090 -0.7532  0.8352  1.4242
 1024TIP3   OH2 3035   6.981   3.955   3.515  0.4911  0.3592 -0.4370
 1024TIP3    H1 3036   7.026   3.916   3.589  0.4217  2.1872  0.6287
 1024TIP3    H2 3037   7.016   4.044   3.509 -1.1135  0.9843 -1.1854
 1025TIP3   OH2 3038   4.011   6.389   0.385  0.2972 -0.1356 -0.4770
 1025TIP3    H1 3039   3.942   6.393   0.452  0.5927  0.1369 -0.1838
 1025TIP3    H2 3040   4.093   6.383   0.435  0.4989 -0.2885 -0.8193
 1026TIP3   OH2 3041   3.235   3.345   1.637 -0.3526  0.0810 -0.4515
 1026TIP3    H1 3042   3.182   3.405   1.688  0.3679  1.2790 -1.0614
 1026TIP3    H2 3043   3.273   3.285   1.701 -1.3809  0.0287  0.1259
 1027TIP3   OH2 3044   5.706   6.430   2.088 -0.0172 -0.0050  0.0176
 1027TIP3    H1 3045   5.678   6.520   2.073  1.4278  0.2428 -1.4943
 1027TIP3    H2 3046   5.625   6.380   2.097 -0.8431  1.4424  1.0604
 1028TIP3   OH2 3047   2.561   3.710   5.456  0.0143 -0.4292 -0.5432
 1028TIP3    H1 3048   2.480   3.670   5.424 -0.6211  1.5191 -1.5290
 1028TIP3    H2 3049   2.536   3.799   5.481  1.3575 -0.5721  1.5766
 1029TIP3   OH2 3050   4.825   4.824   4.651  0.7056 -0.7961  0.1699
 1029TIP3    H1 3051   4.855   4.734   4.635  2.2529 -0.2749 -0.1043
 1029TIP3    H2 3052   4.830   4.834   4.746  1.2647 -0.7884  0.1475
 1030TIP3   OH2 3053   3.893   2.086   4.081 -0.0067  0.0860 -0.2187
 1030TIP3    H1 3054   3.965   2.034   4.117  0.7338  1.1633 -0.0754
 1030TIP3    H2 3055   3.876   2.151   4.149  0.7094  1.5057 -1.3441
 1031TIP3   OH2 3056   4.376   1.750   4.939  0.0208  0.1124  0.1834
 1031TIP3    H1 3057   4.296   1.764   4.989 -0.1062  0.2944 -0.0723
 1031TIP3    H2 3058   4.368   1.807   4.863  0.2583 -0.0901  0.0032
 1032TIP3   OH2 3059   4.070   2.381   0.798  0.2684  0.5933  0.2465
 1032TIP3    H1 3060   4.056   2.471   0.769  0.5344  0.9198  1.0911
 1032TIP3    H2 3061   4.012   2.372   0.873  1.2337  0.5045  0.9970
 1033TIP3   OH2 3062   3.268   6.653   0.687  0.2884  0.2140 -0.2400
 1033TIP3    H1 3063   3.287   6.667   0.594  2.1923 -0.1018  0.0553
 1033TIP3    H2 3064   3.301   6.565   0.705  0.7121  0.5859  0.8995
 1034TIP3   OH2 3065   6.189   4.919   0.644  0.2067  0.1385  0.4280
 1034TIP3    H1 3066   6.109   4.961   0.675  0.3551  0.5054  0.3102
 1034TIP3    H2 3067   6.206   4.958   0.559 -0.2505 -0.9424 -0.1730
 1035TIP3   OH2 3068   0.513   5.961   1.513 -0.8131  0.2618 -0.5211
 1035TIP3    H1 3069   0.571   5.977   1.438 -0.4336 -1.1361 -0.5542
 1035TIP3    H2 3070   0.571   5.962   1.589 -0.3532 -2.8891 -0.7144
 1036TIP3   OH2 3071   1.208   2.305   4.969 -0.0357  0.5592 -0.0718
 1036TIP3    H1 3072   1.140   2.370   4.986 -0.2909  0.6103 -1.2114
 1036TIP3    H2 3073   1.288   2.357   4.958  0.1971  0.5004  1.2461
 1037TIP3   OH2 3074   0.733   4.929   1.161 -0.3689  0.2225 -0.5529
 1037TIP3    H1 3075   0.727   4.887   1.247  0.2318  0.3396 -0.4470
 1037TIP3    H2 3076   0.691   5.014   1.173 -0.4612  0.1601 -0.4297
 1038TIP3   OH2 3077   5.549   4.551   4.885  0.1509 -0.5615 -0.2658
 1038TIP3    H1 3078   5.477   4.610   4.862 -0.3154 -1.3800 -0.9159
 1038TIP3    H2 3079   5.561   4.565   4.979 -0.4258  0.0521 -0.2731
 1039TIP3   OH2 3080   3.384   0.504   5.823 -0.4483 -0.0282 -0.0505
 1039TIP3    H1 3081   3.422   0.586   5.853 -1.1262  1.5926 -3.1703
 1039TIP3    H2 3082   3.440   0.477   5.750 -2.0042 -0.5662 -1.1076
 1040TIP3   OH2 3083   6.176   0.761   0.061 -0.1363 -0.4688  0.0591
 1040TIP3    H1 3084   6.141   0.798   0.142 -0.4295  0.7232 -0.5920
 1040TIP3    H2 3085   6.103   0.713   0.023  0.1960 -1.6156  0.8237
 1041TIP3   OH2 3086   2.136   2.891   4.260  0.2744 -0.1038  0.3969
 1041TIP3    H1 3087   2.205   2.824   4.265 -1.5640 -2.1666 -0.3738
 1041TIP3    H2 3088   2.085   2.879   4.340 -0.9164 -0.6455 -0.4164
 1042TIP3   OH2 3089   0.091   0.322   5.380 -0.0566 -0.1424 -0.0975
 1042TIP3    H1 3090   0.157   0.356   5.320 -0.7076  0.0843 -0.6943
 1042TIP3    H2 3091   0.038   0.262   5.327  0.0316 -0.7859  0.5198
 1043TIP3   OH2 3092   0.895   6.738   2.510  0.1064  0.1848 -0.1150
 1043TIP3    H1 3093   0.942   6.656   2.518  1.8435  1.0269 -1.1191
 1043TIP3    H2 3094   0.896   6.776   2.599  0.4358 -0.2725  0.0765
 1044TIP3   OH2 3095   3.606   6.662   5.716  0.0559 -0.1924  0.4230
 1044TIP3    H1 3096   3.700   6.642   5.716  0.2965  0.8631 -0.1289
 1044TIP3    H2 3097   3.570   6.603   5.649  0.5384  0.2719 -0.2628
 1045TIP3   OH2 3098   4.420   6.271   4.381 -0.0122 -0.2930  0.0215
 1045TIP3    H1 3099   4.437   6.313   4.297  0.6647 -0.3476  0.1234
 1045TIP3    H2 3100   4.438   6.178   4.365  0.0962 -0.3074  0.2210
 1046TIP3   OH2 3101   4.642   0.477   4.285 -0.1067  0.3124 -0.1179
 1046TIP3    H1 3102   4.730   0.440   4.298 -0.4498 -0.0970  1.2116
 1046TIP3    H2 3103   4.642   0.508   4.195  1.2224 -0.1816 -0.3097
 1047TIP3   OH2 3104   6.914   1.635   3.176 -0.0019 -0.0546 -0.3597
 1047TIP3    H1 3105   6.910   1.560   3.117  1.1786 -0.1431 -0.3565
 1047TIP3    H2 3106   7.006   1.642   3.200 -0.0714  1.4138 -0.3799
 1048TIP3   OH2 3107   3.920   3.390   5.332 -0.2478  0.2232  0.1298
 1048TIP3    H1 3108   3.894   3.302   5.304 -0.6201  0.6020 -0.7496
 1048TIP3    H2 3109   3.850   3.447   5.299  0.5830  0.9958 -0.3350
 1049TIP3   OH2 3110   4.780   5.639   2.503 -1.1565  0.0120 -0.1877
 1049TIP3    H1 3111   4.782   5.636   2.599  0.4787  0.6860 -0.1655
 1049TIP3    H2 3112   4.780   5.547   2.477 -0.4366 -0.1903  0.4682
 1050TIP3   OH2 3113   3.730   3.417   1.079  0.2692 -0.0104  0.0865
 1050TIP3    H1 3114   3.661   3.458   1.131  1.2843 -0.1977  1.6508
 1050TIP3    H2 3115   3.789   3.489   1.057 -0.1204  0.0561 -0.7958
 1051TIP3   OH2 3116   2.543   3.423   1.201 -0.0474  0.5671 -0.1220
 1051TIP3    H1 3117   2.554   3.465   1.287 -1.4634  0.6251  0.0648
 1051TIP3    H2 3118   2.549   3.495   1.138 -0.9785  0.8568  0.0934
 1052TIP3   OH2 3119   4.830   1.321   2.983 -0.5957 -0.2041  0.1830
 1052TIP3    H1 3120   4.811   1.294   3.073 -1.7285 -0.0468  0.0134
 1052TIP3    H2 3121   4.857   1.412   2.991  1.6560 -0.8456  0.5871
 1053TIP3   OH2 3122   3.853   5.963   4.157  0.4129 -0.0842  0.7780
 1053TIP3    H1 3123   3.819   5.911   4.084 -0.9592  1.4037  0.3048
 1053TIP3    H2 3124   3.807   5.929   4.234 -0.8399  0.6709  0.4025
 1054TIP3   OH2 3125   5.004   6.455   0.045 -0.5623 -0.0355  0.1658
 1054TIP3    H1 3126   4.949   6.382   0.070  0.5253 -1.1677 -0.5769
 1054TIP3    H2 3127   5.024   6.439  -0.048  2.1952 -0.5617  0.7393
 1055TIP3   OH2 3128   4.520   5.672   0.318  0.2229  0.1020 -0.0086
 1055TIP3    H1 3129   4.559   5.593   0.357  0.1231  0.3001  0.5028
 1055TIP3    H2 3130   4.589   5.706   0.260  0.9271  0.6008  1.0899
 1056TIP3   OH2 3131   2.030   0.895   4.486 -0.1714 -0.5565 -0.0195
 1056TIP3    H1 3132   2.024   0.928   4.576  0.7741  3.8005 -1.3165
 1056TIP3    H2 3133   1.939   0.879   4.460 -0.5808 -0.2929  1.1760
 1057TIP3   OH2 3134   3.437   3.988   5.564 -0.1992 -0.6813  0.3915
 1057TIP3    H1 3135   3.501   4.011   5.496 -1.4577 -2.3948 -1.5195
 1057TIP3    H2 3136   3.365   4.050   5.550  0.2498  0.0639  1.3238
 1058TIP3   OH2 3137   6.120   1.249   0.441  0.2049 -0.0930  0.3785
 1058TIP3    H1 3138   6.198   1.224   0.490  0.2684  1.1514  0.9387
 1058TIP3    H2 3139   6.074   1.166   0.426 -0.0845 -0.4983  2.9878
 1059TIP3   OH2 3140   4.748   2.421   5.112  0.2563  0.2691 -0.0185
 1059TIP3    H1 3141   4.772   2.336   5.075  0.1192  1.0104 -1.9559
 1059TIP3    H2 3142   4.764   2.483   5.040 -1.8233  1.5741  0.5564
 1060TIP3   OH2 3143   2.458   5.143   2.764  0.1778 -0.2482 -0.0348
 1060TIP3    H1 3144   2.449   5.146   2.859  0.2173 -1.3998  0.0209
 1060TIP3    H2 3145   2.420   5.225   2.734 -0.3879 -0.1352  0.9364
 1061TIP3   OH2 3146   2.671   0.898   4.414 -0.3254 -0.1988  0.9231
 1061TIP3    H1 3147   2.669   0.828   4.349  1.0428 -0.5956  1.2604
 1061TIP3    H2 3148   2.731   0.963   4.377  0.2392 -0.2944  1.6420
 1062TIP3   OH2 3149   5.163   5.075   1.922  0.3500 -0.0171 -0.9000
 1062TIP3    H1 3150   5.166   4.979   1.918 -1.8155 -0.1803 -0.1551
 1062TIP3    H2 3151   5.076   5.097   1.889  0.4971  1.6439 -0.2636
 1063TIP3   OH2 3152   1.109   3.546   3.650 -0.1165 -0.0493  0.6141
 1063TIP3    H1 3153   1.126   3.486   3.723  0.3512  0.0484  0.5899
 1063TIP3    H2 3154   1.030   3.511   3.608  0.9379 -1.4900 -0.2705
 1064TIP3   OH2 3155   4.281   5.618   5.717 -0.1540  0.2128  0.1989
 1064TIP3    H1 3156   4.342   5.650   5.650 -0.8807  0.5578 -0.3037
 1064TIP3    H2 3157   4.225   5.693   5.736 -1.0981 -0.4035 -0.1097
 1065TIP3   OH2 3158   2.206   2.075   3.397 -0.5465  0.0852 -0.8869
 1065TIP3    H1 3159   2.201   2.060   3.302 -0.5824 -0.4665 -0.8007
 1065TIP3    H2 3160   2.298   2.060   3.418 -0.3306  1.1773 -0.9870
 1066TIP3   OH2 3161   2.074   4.212   1.169  0.1703  0.0974  0.1547
 1066TIP3    H1 3162   2.112   4.181   1.087  1.2176  0.3812  0.5166
 1066TIP3    H2 3163   2.028   4.136   1.205 -0.5855  0.0672 -0.8451
 1067TIP3   OH2 3164   7.203   5.787   5.177 -0.0967 -0.1942  0.0167
 1067TIP3    H1 3165   7.207   5.732   5.098 -0.6904  0.6124 -0.5809
 1067TIP3    H2 3166   7.110   5.792   5.199  0.0538 -0.3248  0.7197
 1068TIP3   OH2 3167   0.372   5.509   2.032 -0.1478 -0.1827  0.4244
 1068TIP3    H1 3168   0.421   5.589   2.055 -0.5078 -0.0133  0.6054
 1068TIP3    H2 3169   0.369   5.459   2.113  0.4247 -0.5700  0.2127
 1069TIP3   OH2 3170   5.188   4.246   4.618  0.0829 -0.0496  0.2198
 1069TIP3    H1 3171   5.208   4.158   4.586 -1.0783 -0.4780  0.6428
 1069TIP3    H2 3172   5.248   4.258   4.691  0.5719 -0.2962 -0.1292
 1070TIP3   OH2 3173   6.318   1.110   0.590 -0.3936 -0.4998 -0.2183
 1070TIP3    H1 3174   6.408   1.139   0.608  0.6403 -3.8000  0.7032
 1070TIP3    H2 3175   6.264   1.161   0.649  1.0687  0.4010  0.4055
 1071TIP3   OH2 3176   1.562   0.777   0.284 -0.4899  0.0729 -0.0767
 1071TIP3    H1 3177   1.495   0.730   0.234  0.0753 -0.6039 -0.2193
 1071TIP3    H2 3178   1.556   0.739   0.372  1.9457 -2.5117 -0.8679
 1072TIP3   OH2 3179   1.471   1.364   5.829  0.6782  0.1902 -0.5541
 1072TIP3    H1 3180   1.433   1.435   5.880 -1.2967 -0.6899 -0.6681
 1072TIP3    H2 3181   1.452   1.387   5.738  2.4785  0.8188 -0.8009
 1073TIP3   OH2 3182   6.444   1.414   0.978 -0.4361  0.1866  0.1527
 1073TIP3    H1 3183   6.418   1.391   0.889 -0.0328  0.5580 -0.0596
 1073TIP3    H2 3184   6.449   1.509   0.979  0.9848  0.1285  0.1677
 1074TIP3   OH2 3185   6.574   2.064   5.566  0.2608  0.0339 -0.1313
 1074TIP3    H1 3186   6.508   2.115   5.518 -2.2905 -2.0724  0.8910
 1074TIP3    H2 3187   6.573   1.978   5.523  1.3840 -0.4448  0.7672
 1075TIP3   OH2 3188   6.328   2.492   4.116 -0.1457 -0.1859  0.6548
 1075TIP3    H1 3189   6.405   2.481   4.060  0.2777  0.8283  1.0171
 1075TIP3    H2 3190   6.305   2.584   4.109 -1.0472 -0.3818  0.9210
 1076TIP3   OH2 3191   6.140   2.722   1.496  0.0174  0.3540 -0.4882
 1076TIP3    H1 3192   6.160   2.686   1.582 -2.7378 -2.1144 -0.7299
 1076TIP3    H2 3193   6.052   2.758   1.505  0.8595  2.9307 -1.5640
 1077TIP3   OH2 3194   3.799   2.346   2.770  0.1610  0.3039  0.5057
 1077TIP3    H1 3195   3.847   2.352   2.688  0.1631 -0.7586  0.4192
 1077TIP3    H2 3196   3.851   2.397   2.833  0.4651  0.6197  0.0010
 1078TIP3   OH2 3197   5.153   1.637   0.398  0.1026 -0.6962 -0.3279
 1078TIP3    H1 3198   5.203   1.713   0.369 -0.5911 -0.5643 -1.2434
 1078TIP3    H2 3199   5.142   1.584   0.318 -0.8752 -0.9005 -0.0746
 1079TIP3   OH2 3200   3.713   3.877   5.281 -0.0891  0.2659 -0.4348
 1079TIP3    H1 3201   3.725   3.967   5.313 -1.9771  0.3083  0.2920
 1079TIP3    H2 3202   3.720   3.823   5.360  0.8159 -0.2177 -0.8347
 1080TIP3   OH2 3203   4.550   3.372   1.892  0.6280  0.1207 -0.2005
 1080TIP3    H1 3204   4.616   3.330   1.947  0.4077  0.2196  0.1427
 1080TIP3    H2 3205   4.600   3.414   1.822  1.0587  1.3726  0.8239
 1081TIP3   OH2 3206   2.511   0.175   3.292  0.0518  0.3272 -0.2404
 1081TIP3    H1 3207   2.561   0.245   3.335 -0.7357  0.1366  1.0457
 1081TIP3    H2 3208   2.431   0.167   3.344 -0.0866 -1.2192 -0.6436
 1082TIP3   OH2 3209   2.432   6.170   2.942 -0.4234  0.2373  0.0073
 1082TIP3    H1 3210   2.427   6.137   2.852  0.9670  0.2590 -0.0991
 1082TIP3    H2 3211   2.361   6.233   2.948 -0.4807  0.3046 -1.1068
 1083TIP3   OH2 3212   3.741   2.090   2.735 -0.4326 -0.4203 -0.3133
 1083TIP3    H1 3213   3.778   2.170   2.772  2.2520 -0.9089 -1.7336
 1083TIP3    H2 3214   3.653   2.116   2.706 -0.0269  1.7158  0.1816
 1084TIP3   OH2 3215   4.647   4.846   0.919  0.3352  0.4133 -0.0706
 1084TIP3    H1 3216   4.729   4.800   0.900  0.6608  1.1034 -0.3739
 1084TIP3    H2 3217   4.603   4.854   0.834 -0.0009  0.1285  0.0762
 1085TIP3   OH2 3218   5.364   2.312   5.408 -0.3535 -0.4014  0.1208
 1085TIP3    H1 3219   5.327   2.260   5.480 -0.0354 -0.1509  0.4734
 1085TIP3    H2 3220   5.314   2.394   5.411  0.4272  0.0659  0.8063
 1086TIP3   OH2 3221   6.149   0.167   2.668 -0.5334 -0.1643 -0.0232
 1086TIP3    H1 3222   6.136   0.158   2.762 -0.7360 -1.5452 -0.1701
 1086TIP3    H2 3223   6.135   0.260   2.651 -1.9485 -0.1445  1.0881
 1087TIP3   OH2 3224   4.942  -0.011   4.692  0.0720  0.4370 -0.1173
 1087TIP3    H1 3225   4.917   0.081   4.686 -0.3612  0.4532  1.4204
 1087TIP3    H2 3226   4.859  -0.059   4.689  0.2304  0.1527 -0.0433
 1088TIP3   OH2 3227   5.819   0.282   0.195 -0.7630 -0.0543 -0.5753
 1088TIP3    H1 3228   5.773   0.200   0.212 -0.3009 -0.3371 -0.6504
 1088TIP3    H2 3229   5.801   0.300   0.103 -1.6541  0.4413 -0.3127
 1089TIP3   OH2 3230   2.001   0.618   2.106 -0.3456  0.3100 -0.0081
 1089TIP3    H1 3231   1.953   0.674   2.045 -1.6793 -0.7610 -0.0069
 1089TIP3    H2 3232   2.049   0.557   2.050  0.0306  0.5947  0.0023
 1090TIP3   OH2 3233   2.744   0.233   2.159  0.6881 -0.1242  0.2833
 1090TIP3    H1 3234   2.784   0.149   2.181 -0.0115 -0.6464 -0.3763
 1090TIP3    H2 3235   2.691   0.255   2.236  1.1123 -0.1238  0.5819
 1091TIP3   OH2 3236   1.326   2.118   1.933 -0.0111 -0.1894 -0.0072
 1091TIP3    H1 3237   1.398   2.182   1.928  0.2970 -0.6189 -1.5835
 1091TIP3    H2 3238   1.252   2.168   1.968  0.9909  0.2936  1.5396
 1092TIP3   OH2 3239   5.111   3.494   0.354  0.1868 -0.0525  0.7013
 1092TIP3    H1 3240   5.207   3.493   0.357  0.1928 -0.4400  0.4124
 1092TIP3    H2 3241   5.090   3.476   0.263 -0.1364  2.1717  0.2753
 1093TIP3   OH2 3242   5.374   5.451   2.485  0.3025  0.2947  0.1882
 1093TIP3    H1 3243   5.456   5.497   2.502 -0.2112  0.9070  1.0962
 1093TIP3    H2 3244   5.400   5.359   2.477  1.0952  0.4933  0.3687
 1094TIP3   OH2 3245   2.541   0.533   0.013 -0.5682 -0.1156  0.5993
 1094TIP3    H1 3246   2.586   0.450   0.032  0.7206  0.0878 -1.2205
 1094TIP3    H2 3247   2.462   0.506  -0.035 -0.8116 -0.3354  1.1135
 1095TIP3   OH2 3248   5.017   1.699   2.719 -0.3040  0.1955  0.0691
 1095TIP3    H1 3249   4.988   1.662   2.802 -0.4090 -0.5202 -0.2783
 1095TIP3    H2 3250   4.937   1.730   2.677 -0.1116  1.9038  0.8431
 1096TIP3   OH2 3251   1.395   3.651   0.459 -0.5417 -0.1031  0.4330
 1096TIP3    H1 3252   1.485   3.630   0.485 -0.9820 -0.7820  1.5148
 1096TIP3    H2 3253   1.350   3.666   0.542 -2.0631 -2.4868  0.1353
 1097TIP3   OH2 3254   5.706   5.734   1.016  0.1608  0.6856  0.3281
 1097TIP3    H1 3255   5.711   5.804   0.952  1.4544 -0.0735 -0.4524
 1097TIP3    H2 3256   5.615   5.704   1.013  0.1650  0.7561 -1.0700
 1098TIP3   OH2 3257   6.983   1.862   0.050  0.2112  0.0576 -0.0288
 1098TIP3    H1 3258   6.890   1.884   0.047  0.1858 -0.0224  0.1397
 1098TIP3    H2 3259   6.988   1.772   0.018  0.2480  0.1160 -0.1835
 1099TIP3   OH2 3260   4.795   2.257   1.016 -0.7501 -0.3127  0.0985
 1099TIP3    H1 3261   4.837   2.206   0.947 -1.5048  1.7199 -1.9855
 1099TIP3    H2 3262   4.706   2.224   1.021 -0.9429  0.1087 -0.5200
 1100TIP3   OH2 3263   4.925   4.581   4.574 -0.1197 -0.2445 -1.0904
 1100TIP3    H1 3264   4.932   4.534   4.658  0.0338 -0.3524 -1.1648
 1100TIP3    H2 3265   4.874   4.523   4.518 -0.0674 -0.2500 -1.1314
 1101TIP3   OH2 3266   4.947   2.330   3.277  0.0948  0.2191  0.1004
 1101TIP3    H1 3267   5.041   2.325   3.256  0.3143 -0.0789  1.0756
 1101TIP3    H2 3268   4.905   2.349   3.194  1.0195  0.2918 -0.3707
 1102TIP3   OH2 3269   0.831   5.397   3.480  0.0368  0.0703  0.0464
 1102TIP3    H1 3270   0.819   5.402   3.386 -0.5663  0.5918  0.1441
 1102TIP3    H2 3271   0.838   5.303   3.499 -1.8502 -0.1577 -0.2821
 1103TIP3   OH2 3272   3.904   3.292   2.872 -0.3013  0.0255 -0.0708
 1103TIP3    H1 3273   3.874   3.232   2.804 -0.7123 -1.0537  1.0065
 1103TIP3    H2 3274   3.974   3.342   2.832  0.1552 -1.2935 -0.9729
 1104TIP3   OH2 3275   1.159   5.758   2.542 -0.0251  0.0168  0.6874
 1104TIP3    H1 3276   1.184   5.758   2.449 -1.1651 -3.0282  0.2864
 1104TIP3    H2 3277   1.228   5.708   2.585  0.7584  1.8277  1.6395
 1105TIP3   OH2 3278   1.764   3.733   1.399 -0.3001  0.0979  0.1062
 1105TIP3    H1 3279   1.778   3.815   1.352  2.8717 -1.0441 -1.2139
 1105TIP3    H2 3280   1.807   3.746   1.484 -1.7461  0.4863  0.8143
 1106TIP3   OH2 3281   1.414   4.532   0.863 -0.6262  0.3443 -0.2697
 1106TIP3    H1 3282   1.483   4.597   0.853 -0.4891  0.2282 -0.0840
 1106TIP3    H2 3283   1.344   4.578   0.910 -0.4445  0.2996  0.0486
 1107TIP3   OH2 3284   2.936   0.095   3.086  0.0763  0.3455  0.2020
 1107TIP3    H1 3285   2.984   0.013   3.095  0.9764  0.5234 -2.3488
 1107TIP3    H2 3286   2.848   0.069   3.058  0.5331  0.2227 -1.1927
 1108TIP3   OH2 3287   2.061   3.630   0.744  0.5021  0.1466  0.0302
 1108TIP3    H1 3288   1.974   3.659   0.718  0.4888 -1.7533 -2.4057
 1108TIP3    H2 3289   2.046   3.573   0.819 -0.6280 -1.4853 -1.3521
 1109TIP3   OH2 3290   1.774   4.527   0.647  0.2686  0.2868 -0.2837
 1109TIP3    H1 3291   1.847   4.583   0.619  1.2148 -0.8957 -0.2541
 1109TIP3    H2 3292   1.816   4.451   0.686 -0.9923 -0.4663 -0.3503
 1110TIP3   OH2 3293   0.938   4.275   5.406  0.2651  0.1352  0.0191
 1110TIP3    H1 3294   0.981   4.192   5.430 -0.3470 -0.9792 -2.4028
 1110TIP3    H2 3295   0.991   4.309   5.334 -0.8226  0.6533 -0.5562
 1111TIP3   OH2 3296   4.177   0.614   1.043  0.7487 -0.1891 -0.3300
 1111TIP3    H1 3297   4.256   0.567   1.072 -0.0973 -1.6303 -0.2836
 1111TIP3    H2 3298   4.141   0.559   0.973 -0.1220  0.5340 -0.4601
 1112TIP3   OH2 3299   0.702   5.699   4.383 -0.0727 -0.5614  0.3896
 1112TIP3    H1 3300   0.644   5.634   4.423 -1.0341 -0.9606 -1.5393
 1112TIP3    H2 3301   0.734   5.656   4.303  2.6812 -0.2436  1.2251
 1113TIP3   OH2 3302   4.485   5.686   5.499 -0.8251  0.1338 -0.3326
 1113TIP3    H1 3303   4.474   5.755   5.435  2.4468 -1.7093 -3.2304
 1113TIP3    H2 3304   4.432   5.613   5.466 -0.5350 -0.2664  0.0638
 1114TIP3   OH2 3305   7.134   1.426   0.816 -0.7500  0.1898  0.0426
 1114TIP3    H1 3306   7.086   1.344   0.819 -0.3904 -0.0765 -1.1992
 1114TIP3    H2 3307   7.070   1.490   0.785 -1.4165  0.7106  2.2551
 1115TIP3   OH2 3308   4.718   5.267   1.292  0.0706 -0.3147 -0.1061
 1115TIP3    H1 3309   4.701   5.255   1.386  0.8010  1.0990  0.2441
 1115TIP3    H2 3310   4.632   5.257   1.251 -0.5618  0.6192  0.9135
 1116TIP3   OH2 3311   4.750   0.453   5.169  0.3365 -0.4957 -0.0155
 1116TIP3    H1 3312   4.665   0.436   5.209 -1.3036  0.8948 -2.5608
 1116TIP3    H2 3313   4.783   0.530   5.215 -0.4020 -0.2911  0.1915
 1117TIP3   OH2 3314   1.783   4.555   3.587  0.0136  0.1788  0.0880
 1117TIP3    H1 3315   1.787   4.466   3.622  3.4560  0.5729  1.0636
 1117TIP3    H2 3316   1.803   4.612   3.661  1.5349  1.4583 -1.2091
 1118TIP3   OH2 3317   1.923   1.613   5.081  0.1055 -0.1270 -0.0404
 1118TIP3    H1 3318   1.860   1.616   5.153 -0.5497 -1.4164 -0.5196
 1118TIP3    H2 3319   1.899   1.687   5.025  0.2377  0.5216  0.7481
 1119TIP3   OH2 3320   4.860   5.063   0.070  0.4328  0.1347  0.4133
 1119TIP3    H1 3321   4.824   5.054   0.158 -1.9637 -0.7144 -0.5681
 1119TIP3    H2 3322   4.858   4.974   0.034 -1.4907  0.8247 -1.4609
 1120TIP3   OH2 3323   0.257   2.067   1.233  0.1331  0.5582  0.7793
 1120TIP3    H1 3324   0.274   2.027   1.147 -0.1523  3.0586 -0.5372
 1120TIP3    H2 3325   0.167   2.042   1.253  0.0971  0.1943  0.2069
 1121TIP3   OH2 3326   2.114   5.385   3.301 -0.1462 -0.0461 -0.2805
 1121TIP3    H1 3327   2.162   5.304   3.321  0.6771  0.5556  0.2767
 1121TIP3    H2 3328   2.174   5.435   3.247 -0.0367  0.8212  0.6191
 1122TIP3   OH2 3329   4.004   2.506   4.207  0.2492 -0.3502  0.3393
 1122TIP3    H1 3330   3.998   2.535   4.116  0.3500  1.5098  0.8769
 1122TIP3    H2 3331   3.955   2.424   4.209 -1.4311  0.5429 -1.0004
 1123TIP3   OH2 3332   1.988   4.586   2.649 -0.6885 -0.3025 -0.0987
 1123TIP3    H1 3333   1.897   4.574   2.621 -0.8478  1.0826 -0.2561
 1123TIP3    H2 3334   1.984   4.595   2.744 -0.8456  0.7384 -0.1964
 1124TIP3   OH2 3335   5.897   4.873   5.280 -0.4727  0.1603 -0.6848
 1124TIP3    H1 3336   5.973   4.930   5.267  0.4720 -0.9829 -0.3719
 1124TIP3    H2 3337   5.852   4.909   5.356  0.2534  0.3414 -0.3408
 1125TIP3   OH2 3338   0.826   1.330   5.693  0.4513  0.4233  0.1048
 1125TIP3    H1 3339   0.889   1.356   5.625  1.4845 -1.6060  0.1738
 1125TIP3    H2 3340   0.799   1.242   5.667 -0.8456  0.4870  1.1623
 1126TIP3   OH2 3341   1.045   5.974   4.404  0.5443  0.1472  0.2490
 1126TIP3    H1 3342   1.108   6.005   4.339  2.9866 -1.8526  1.5000
 1126TIP3    H2 3343   0.984   5.920   4.354  1.8302 -0.6087 -0.5523
 1127TIP3   OH2 3344   0.286   2.117   2.257  0.0208  0.3711  0.0701
 1127TIP3    H1 3345   0.293   2.208   2.227  2.5123 -0.1874 -1.3807
 1127TIP3    H2 3346   0.342   2.068   2.196 -1.9933 -2.3169  0.1952
 1128TIP3   OH2 3347   3.663   4.638   1.862  0.2645  0.4182 -0.5558
 1128TIP3    H1 3348   3.665   4.542   1.861  0.3378  0.3800  1.1873
 1128TIP3    H2 3349   3.756   4.663   1.864  0.2265  0.5009  0.1371
 1129TIP3   OH2 3350   4.813   1.555   4.471  0.2091  0.0053 -0.0806
 1129TIP3    H1 3351   4.826   1.460   4.482 -0.8067 -0.0913  0.4525
 1129TIP3    H2 3352   4.896   1.587   4.436  0.7318 -1.0129  0.1881
 1130TIP3   OH2 3353   0.155   3.276   2.964 -0.5427  0.2577 -0.1161
 1130TIP3    H1 3354   0.126   3.207   3.023  1.5356  0.8393  1.7090
 1130TIP3    H2 3355   0.160   3.234   2.878 -1.8377 -1.1005  0.4289
 1131TIP3   OH2 3356   4.323   5.839   1.866 -0.0272 -0.2539 -0.1397
 1131TIP3    H1 3357   4.276   5.781   1.926  1.1848 -2.1394 -0.9086
 1131TIP3    H2 3358   4.270   5.919   1.862 -2.2929 -1.6571  0.2361
 1132TIP3   OH2 3359   5.898   2.824   1.479  0.1066  0.1809  0.1291
 1132TIP3    H1 3360   5.894   2.894   1.543 -1.7524 -0.9841  1.3883
 1132TIP3    H2 3361   5.868   2.863   1.398 -0.3952  0.9690  0.6870
 1133TIP3   OH2 3362   1.814   2.669   3.988 -0.0970  0.3288  0.0580
 1133TIP3    H1 3363   1.870   2.683   4.064  1.1013 -0.1220 -0.7005
 1133TIP3    H2 3364   1.730   2.642   4.024  0.1709  0.9999  1.2373
 1134TIP3   OH2 3365   3.975   6.481   2.322  0.2780 -0.4717  1.0482
 1134TIP3    H1 3366   4.057   6.446   2.286 -1.0827 -0.4899 -2.4535
 1134TIP3    H2 3367   3.980   6.575   2.306 -1.4930 -0.7772 -2.1366
 1135TIP3   OH2 3368   3.446   5.920   5.473  0.2118 -0.3851  0.4215
 1135TIP3    H1 3369   3.410   5.854   5.414  0.4061  0.4178 -0.6180
 1135TIP3    H2 3370   3.405   5.902   5.558 -0.7975 -0.9665 -0.1814
 1136TIP3   OH2 3371   1.335   5.047   4.801 -0.1288 -0.2469 -0.7063
 1136TIP3    H1 3372   1.283   4.986   4.853  1.0345 -0.0597  0.7655
 1136TIP3    H2 3373   1.281   5.126   4.795 -0.2615 -0.2424  0.3325
 1137TIP3   OH2 3374   6.965   2.584   2.567  0.1974 -0.2884  0.3846
 1137TIP3    H1 3375   7.028   2.595   2.638  1.3087  1.2718 -0.7748
 1137TIP3    H2 3376   6.880   2.580   2.611  1.0366 -3.6252  2.0957
 1138TIP3   OH2 3377   1.130   2.052   2.633  0.6272 -0.2019 -0.0543
 1138TIP3    H1 3378   1.150   1.960   2.646  0.6303 -0.3027 -0.7192
 1138TIP3    H2 3379   1.089   2.080   2.714  2.8772 -0.1341  1.1336
 1139TIP3   OH2 3380   6.646   2.910   0.893 -0.4493 -0.2154 -1.2795
 1139TIP3    H1 3381   6.688   2.995   0.911 -0.5903  0.6507 -4.4018
 1139TIP3    H2 3382   6.717   2.846   0.902 -0.3278  0.1728  1.0746
 1140TIP3   OH2 3383   2.669   5.673   3.994 -0.2095 -0.3771 -0.3273
 1140TIP3    H1 3384   2.586   5.710   3.964  0.0724 -0.4498 -1.2096
 1140TIP3    H2 3385   2.704   5.739   4.055  0.9792  1.5673 -2.9314
 1141TIP3   OH2 3386   4.111   0.024   5.351  0.1706 -0.1214  0.1192
 1141TIP3    H1 3387   4.138   0.051   5.263  1.6266 -1.2389  0.1845
 1141TIP3    H2 3388   4.091  -0.069   5.343  1.8967 -0.6543  1.2427
 1142TIP3   OH2 3389   0.805   0.451   1.198  0.2717 -0.5081  0.7169
 1142TIP3    H1 3390   0.726   0.505   1.191 -0.1959 -1.3524 -1.1800
 1142TIP3    H2 3391   0.814   0.434   1.291 -1.7438 -0.3039  0.9953
 1143TIP3   OH2 3392   4.531   0.610   0.810 -0.8257  0.2699 -0.1879
 1143TIP3    H1 3393   4.566   0.578   0.894 -0.7317 -1.0804 -0.7269
 1143TIP3    H2 3394   4.477   0.685   0.834 -0.7917 -0.0891  1.0813
 1144TIP3   OH2 3395   1.374   6.194   1.966 -0.0752 -0.4451  0.1844
 1144TIP3    H1 3396   1.462   6.214   1.998 -0.1258  1.0185 -0.4808
 1144TIP3    H2 3397   1.371   6.099   1.959  1.4996 -0.5017  0.0642
 1145TIP3   OH2 3398   2.376   5.855   1.967 -0.5059 -0.3224 -0.1187
 1145TIP3    H1 3399   2.387   5.782   1.906  0.4195 -2.2213  2.1670
 1145TIP3    H2 3400   2.360   5.813   2.051 -0.7319  2.1741  1.1642
 1146TIP3   OH2 3401   1.850   3.996   0.953  0.1778  0.3436 -0.3766
 1146TIP3    H1 3402   1.812   3.910   0.974  1.1911  0.1239  0.6775
 1146TIP3    H2 3403   1.776   4.048   0.923 -0.3964 -1.0185 -1.4443
 1147TIP3   OH2 3404   6.187   0.102   3.250  0.3112 -0.0440  0.7397
 1147TIP3    H1 3405   6.257   0.072   3.308  3.6058 -1.1695 -3.3261
 1147TIP3    H2 3406   6.162   0.025   3.200 -0.3657  1.3560 -1.1923
 1148TIP3   OH2 3407   3.677   3.406   5.816  0.5725 -0.0002 -0.0732
 1148TIP3    H1 3408   3.635   3.492   5.815 -1.1919 -0.7132  2.7555
 1148TIP3    H2 3409   3.731   3.406   5.895  0.2455 -1.6077  0.1877
 1149TIP3   OH2 3410   1.643   0.043   3.509 -0.2728  0.0782  0.2816
 1149TIP3    H1 3411   1.610   0.128   3.481  1.7210  1.2996  1.3835
 1149TIP3    H2 3412   1.682   0.005   3.430 -1.1151  0.1976 -0.2035
 1150TIP3   OH2 3413   1.417   1.067   4.886 -0.0935  0.7498  0.2180
 1150TIP3    H1 3414   1.350   1.111   4.937 -0.8127  1.6061 -1.4064
 1150TIP3    H2 3415   1.369   1.023   4.816  0.8730 -0.3681  0.2164
 1151TIP3   OH2 3416   3.832   1.509   3.150 -1.0463  0.2404  0.5186
 1151TIP3    H1 3417   3.761   1.560   3.112 -1.3986  0.6750  1.6967
 1151TIP3    H2 3418   3.787   1.436   3.193 -0.6198 -0.5379 -0.3247
 1152TIP3   OH2 3419   4.874   0.137   0.622  0.1657  0.2916 -0.1424
 1152TIP3    H1 3420   4.882   0.222   0.665  0.3719 -0.4934  1.4249
 1152TIP3    H2 3421   4.941   0.139   0.554 -0.3277  1.6558 -0.6304
 1153TIP3   OH2 3422   3.803   6.556   4.366 -0.3417  0.9173 -0.0238
 1153TIP3    H1 3423   3.734   6.521   4.309  0.8735  1.1461 -1.7008
 1153TIP3    H2 3424   3.834   6.634   4.320  2.7248 -0.5306 -0.6287
 1154TIP3   OH2 3425   6.792   0.743   4.790  0.0262 -0.0839 -0.1639
 1154TIP3    H1 3426   6.705   0.765   4.756 -0.6794 -3.3669 -0.8188
 1154TIP3    H2 3427   6.783   0.751   4.885 -0.2254  1.8749 -0.3094
 1155TIP3   OH2 3428   6.696   3.729   5.094 -0.9092 -0.1921 -0.2583
 1155TIP3    H1 3429   6.726   3.777   5.171  0.6367  0.0263 -0.9502
 1155TIP3    H2 3430   6.647   3.655   5.129 -0.9244  0.3492  0.9055
 1156TIP3   OH2 3431   4.053   1.875   3.554 -0.3421  0.5833 -0.2602
 1156TIP3    H1 3432   4.034   1.782   3.568  0.4719  0.5153  0.4401
 1156TIP3    H2 3433   4.043   1.887   3.460 -2.7274  0.3181 -0.0934
 1157TIP3   OH2 3434   5.183   6.717   0.366 -0.1360 -0.1497  0.1928
 1157TIP3    H1 3435   5.166   6.633   0.407  0.2434 -1.1542 -1.6016
 1157TIP3    H2 3436   5.096   6.751   0.344 -0.2398 -0.7154 -0.2860
 1158TIP3   OH2 3437   4.454   0.829   3.569  0.2980  0.2324  0.1565
 1158TIP3    H1 3438   4.377   0.885   3.581 -0.8274 -1.1652 -0.2779
 1158TIP3    H2 3439   4.433   0.776   3.492  2.0207  0.3298 -0.4218
 1159TIP3   OH2 3440   6.137   2.879   3.398  0.1086 -0.5874  0.1821
 1159TIP3    H1 3441   6.083   2.860   3.321 -0.5909  0.2725  0.4480
 1159TIP3    H2 3442   6.193   2.951   3.370  0.4088 -0.7996  0.2324
 1160TIP3   OH2 3443   1.701   5.064   0.126  0.3530  0.1044 -0.2454
 1160TIP3    H1 3444   1.750   5.001   0.074  1.2262  0.0054  0.6771
 1160TIP3    H2 3445   1.722   5.042   0.217  1.1449  2.0672  0.0953
 1161TIP3   OH2 3446   6.015   5.133   0.731  0.2902 -0.2960 -0.0869
 1161TIP3    H1 3447   6.065   5.212   0.715  0.6388 -0.2297  1.1808
 1161TIP3    H2 3448   5.933   5.145   0.683  0.5587  0.5977 -0.3279
 1162TIP3   OH2 3449   3.228   1.976   4.067  0.4940 -0.6717 -0.1386
 1162TIP3    H1 3450   3.140   1.945   4.087 -0.8848  3.2661  0.8936
 1162TIP3    H2 3451   3.220   2.014   3.979  0.2370  2.1998  1.0192
 1163TIP3   OH2 3452   0.240   2.256   0.064  0.2257  0.1522 -0.2456
 1163TIP3    H1 3453   0.303   2.326   0.053  0.4952 -0.0662 -0.0964
 1163TIP3    H2 3454   0.165   2.297   0.107  0.2511  0.4177 -0.4551
 1164TIP3   OH2 3455   4.004   0.491   4.805 -0.4788  0.2179 -0.9515
 1164TIP3    H1 3456   3.919   0.504   4.849 -0.5355  0.8813 -1.2404
 1164TIP3    H2 3457   4.048   0.576   4.812  0.2490 -0.1799 -0.6322
 1165TIP3   OH2 3458   6.425   0.693   1.836 -0.1383  0.3040  0.0314
 1165TIP3    H1 3459   6.369   0.723   1.764  0.6764  1.6785 -0.0779
 1165TIP3    H2 3460   6.442   0.773   1.887 -1.1967 -0.7368  2.1413
 1166TIP3   OH2 3461   4.637   4.071   0.129 -0.1812 -0.0876  0.0553
 1166TIP3    H1 3462   4.587   4.129   0.071  1.1448  0.2733 -0.7773
 1166TIP3    H2 3463   4.659   3.996   0.074 -0.5583 -0.6584  0.6749
 1167TIP3   OH2 3464   2.299   0.177   2.148 -0.2043  0.4143  0.5767
 1167TIP3    H1 3465   2.288   0.242   2.217 -1.4885  0.9702 -0.1220
 1167TIP3    H2 3466   2.316   0.095   2.194  0.9744  1.1300  1.4783
 1168TIP3   OH2 3467   1.421   1.489   5.581  0.0640 -0.5939  0.3500
 1168TIP3    H1 3468   1.481   1.498   5.507 -0.9501  1.3238 -0.3065
 1168TIP3    H2 3469   1.335   1.506   5.544 -0.4044  1.1508  2.0434
 1169TIP3   OH2 3470   6.238   4.150   2.776  0.4375  0.0567  0.1248
 1169TIP3    H1 3471   6.180   4.163   2.701  1.9290 -0.3893 -1.1425
 1169TIP3    H2 3472   6.243   4.055   2.786  2.5284 -0.0241 -1.1143
 1170TIP3   OH2 3473   2.814   0.435   1.959  0.1568  0.0467  0.3025
 1170TIP3    H1 3474   2.818   0.374   2.032 -1.8903 -0.5151  0.0019
 1170TIP3    H2 3475   2.875   0.399   1.894 -0.2427 -1.1071  0.5501
 1171TIP3   OH2 3476   2.117   1.407   2.024 -0.0805 -0.1220  0.3636
 1171TIP3    H1 3477   2.048   1.365   1.973 -0.4637  0.5979  0.2781
 1171TIP3    H2 3478   2.090   1.499   2.029  0.4759  0.0105  0.9900
 1172TIP3   OH2 3479   4.913   6.429   1.789  0.0592  0.0532  0.1376
 1172TIP3    H1 3480   4.996   6.381   1.796 -0.4988 -0.9666  0.0314
 1172TIP3    H2 3481   4.937   6.521   1.802  1.4483 -0.0274 -1.5362
 1173TIP3   OH2 3482   5.525   4.412   5.223  0.0677 -0.2537  0.1104
 1173TIP3    H1 3483   5.526   4.507   5.219  0.0200 -0.2689 -0.4077
 1173TIP3    H2 3484   5.436   4.390   5.251 -0.1816 -0.1608 -0.5791
 1174TIP3   OH2 3485   0.557   5.071   1.295  0.1379  0.6608  0.0795
 1174TIP3    H1 3486   0.472   5.034   1.319  0.0620  0.8308  0.0716
 1174TIP3    H2 3487   0.557   5.159   1.333  1.0343  0.0241  1.6854
 1175TIP3   OH2 3488   6.654   1.620   0.711  0.3791 -0.4346  0.0773
 1175TIP3    H1 3489   6.600   1.541   0.722 -0.8811  0.5486  1.3056
 1175TIP3    H2 3490   6.592   1.690   0.695  1.4818  0.3634 -0.9093
 1176TIP3   OH2 3491   0.862   6.388   5.315  0.0990  0.0381  0.3904
 1176TIP3    H1 3492   0.897   6.374   5.227 -0.2517  1.4836 -0.0056
 1176TIP3    H2 3493   0.933   6.431   5.363  1.6859 -3.8911  2.0137
 1177TIP3   OH2 3494   0.046   4.394   0.456  0.0727 -0.3384  0.3792
 1177TIP3    H1 3495  -0.043   4.416   0.429 -0.5492 -2.5066  0.4451
 1177TIP3    H2 3496   0.050   4.416   0.549 -0.4079 -0.2625  0.3807
 1178TIP3   OH2 3497   0.307   3.255   0.323 -0.5104  0.4859 -0.2257
 1178TIP3    H1 3498   0.283   3.344   0.295  0.7640  0.4656 -1.5011
 1178TIP3    H2 3499   0.393   3.266   0.364 -0.4821 -0.1224 -0.1218
 1179TIP3   OH2 3500   3.397   4.647   3.112  0.3421  0.5087  0.1134
 1179TIP3    H1 3501   3.371   4.700   3.188  0.3133 -1.8725  1.8955
 1179TIP3    H2 3502   3.320   4.595   3.090  1.1648 -0.8880  0.3489
 1180TIP3   OH2 3503   1.451   3.327   4.388  0.5683  0.4107  0.1689
 1180TIP3    H1 3504   1.539   3.314   4.354  0.8865 -2.9327  1.8522
 1180TIP3    H2 3505   1.394   3.326   4.311  1.7070 -1.2984 -0.7092
 1181TIP3   OH2 3506   5.308   1.477   3.905 -0.3027 -0.2130 -0.5095
 1181TIP3    H1 3507   5.334   1.385   3.911 -0.9771 -0.4322 -0.9454
 1181TIP3    H2 3508   5.366   1.514   3.838  0.2624 -0.2101 -0.0268
 1182TIP3   OH2 3509   2.761   6.572   5.501 -0.2477  0.1779 -0.2691
 1182TIP3    H1 3510   2.729   6.516   5.572  2.8670 -0.0288  1.1283
 1182TIP3    H2 3511   2.798   6.511   5.437  1.7899  0.4981  0.5437
 1183TIP3   OH2 3512   5.789   3.395   1.201 -0.1429  0.0130 -0.6397
 1183TIP3    H1 3513   5.805   3.415   1.109  0.6372 -1.9915 -1.0031
 1183TIP3    H2 3514   5.875   3.374   1.236 -0.5908 -0.4751  0.2005
 1184TIP3   OH2 3515   3.467   0.302   0.119  0.4360 -0.1195 -0.4840
 1184TIP3    H1 3516   3.551   0.319   0.161 -0.2205 -1.1751  1.3408
 1184TIP3    H2 3517   3.439   0.218   0.154 -1.4497  0.2638 -0.9813
 1185TIP3   OH2 3518   0.840   5.322   2.939 -0.7480  0.4124 -0.1933
 1185TIP3    H1 3519   0.808   5.233   2.952  1.1319 -0.2865 -0.1189
 1185TIP3    H2 3520   0.823   5.366   3.022 -1.3853  0.0473 -0.1231
 1186TIP3   OH2 3521   2.324   4.821   5.162 -0.4042  0.2710 -0.7269
 1186TIP3    H1 3522   2.265   4.797   5.233  0.4767 -0.2018 -0.1290
 1186TIP3    H2 3523   2.349   4.911   5.181  1.8940 -0.6167  1.1476
 1187TIP3   OH2 3524   1.429   4.751   4.361  0.3059  0.5404 -0.8750
 1187TIP3    H1 3525   1.431   4.760   4.457 -0.9628  1.6294 -0.9240
 1187TIP3    H2 3526   1.405   4.838   4.329 -2.0601 -0.4548 -2.0234
 1188TIP3   OH2 3527   0.879   5.746   2.358 -1.0043 -0.0880  0.1395
 1188TIP3    H1 3528   0.900   5.747   2.451 -0.5190 -0.5520  0.0416
 1188TIP3    H2 3529   0.924   5.669   2.324 -1.2008  0.0607 -0.4752
 1189TIP3   OH2 3530   7.016   0.651   3.638 -0.1067  0.0840  0.3506
 1189TIP3    H1 3531   6.991   0.726   3.691  1.5430  0.3481  0.8009
 1189TIP3    H2 3532   7.034   0.581   3.701  0.3740 -0.0626  0.0569
 1190TIP3   OH2 3533   4.170   1.521   2.972 -0.0028 -0.4376  0.1340
 1190TIP3    H1 3534   4.137   1.561   3.053 -2.9265 -0.0830 -1.1106
 1190TIP3    H2 3535   4.253   1.479   2.998 -0.1704  0.7518  2.9754
 1191TIP3   OH2 3536   3.642   3.420   2.891 -0.2195 -0.2293 -0.2790
 1191TIP3    H1 3537   3.672   3.487   2.830 -1.0679 -0.8901 -1.4577
 1191TIP3    H2 3538   3.708   3.350   2.884  0.1590  0.0637  0.2489
 1192TIP3   OH2 3539   3.177   3.405   0.761  0.3036  0.6925 -0.3420
 1192TIP3    H1 3540   3.182   3.325   0.709  0.8132  0.2143  0.4078
 1192TIP3    H2 3541   3.264   3.443   0.755  0.3688  0.6312  0.1498
 1193TIP3   OH2 3542   5.685   2.755   5.856  0.0140  0.5893 -0.3473
 1193TIP3    H1 3543   5.658   2.790   5.941 -1.7886 -0.0438 -0.6071
 1193TIP3    H2 3544   5.691   2.660   5.871  1.2002  0.6270 -0.5526
 1194TIP3   OH2 3545   0.840   5.314   1.900  0.4570  0.0779 -0.0693
 1194TIP3    H1 3546   0.915   5.342   1.952 -0.6392  0.0045  1.6173
 1194TIP3    H2 3547   0.765   5.358   1.940 -0.2770  1.3529 -2.6310
 1195TIP3   OH2 3548   1.992   2.789   4.750 -0.9973  0.2796  0.2856
 1195TIP3    H1 3549   1.932   2.808   4.823  0.0265  0.3881  1.1251
 1195TIP3    H2 3550   2.079   2.787   4.790 -0.6003 -1.8295 -0.5524
 1196TIP3   OH2 3551   5.722   0.371   2.504 -0.2457  0.2562  0.4142
 1196TIP3    H1 3552   5.726   0.393   2.411 -0.6942  0.5218  0.4511
 1196TIP3    H2 3553   5.753   0.281   2.509  1.5764  0.8374  0.2424
 1197TIP3   OH2 3554   5.706   6.129   3.666  0.1819 -0.1269 -0.5277
 1197TIP3    H1 3555   5.779   6.113   3.606 -0.1767  0.3094 -1.0932
 1197TIP3    H2 3556   5.647   6.186   3.617  0.4462  1.2352  0.6835
 1198TIP3   OH2 3557   2.305   1.833   1.386  0.1423  0.5261 -0.3728
 1198TIP3    H1 3558   2.339   1.768   1.324 -1.3889  0.5784 -1.3130
 1198TIP3    H2 3559   2.270   1.780   1.458 -0.8119  0.2966 -0.9873
 1199TIP3   OH2 3560   4.659   4.713   5.134 -0.4412 -0.6557 -0.5035
 1199TIP3    H1 3561   4.658   4.807   5.122 -1.9043 -0.8211 -1.9459
 1199TIP3    H2 3562   4.751   4.689   5.129 -0.1523  0.5538 -1.3771
 1200TIP3   OH2 3563   3.786   2.323   5.388 -0.1074 -0.4044  0.5602
 1200TIP3    H1 3564   3.747   2.378   5.320  2.4253  2.1515  0.9799
 1200TIP3    H2 3565   3.842   2.262   5.340 -0.7383 -0.7320  0.2275
 1201TIP3   OH2 3566   1.481   5.178   4.094 -0.2636  0.1303  0.4854
 1201TIP3    H1 3567   1.410   5.243   4.104 -0.5754 -0.2193  0.5551
 1201TIP3    H2 3568   1.561   5.231   4.088 -0.5310  0.5305  0.3935
 1202TIP3   OH2 3569   2.838   4.441   5.673 -0.2874 -0.1800 -0.1885
 1202TIP3    H1 3570   2.816   4.490   5.594 -0.1087 -1.1794 -0.8763
 1202TIP3    H2 3571   2.922   4.478   5.701 -0.5200  0.4157 -0.2633
 1203TIP3   OH2 3572   3.756   0.735   2.671 -0.4966 -0.1484  0.0998
 1203TIP3    H1 3573   3.687   0.796   2.643 -1.7387 -0.5844  2.0270
 1203TIP3    H2 3574   3.834   0.789   2.680 -1.2535  0.9141  0.4819
 1204TIP3   OH2 3575   1.195   2.189   4.704  0.0445 -0.3129  0.2244
 1204TIP3    H1 3576   1.159   2.242   4.774  2.1777  2.2045 -0.4286
 1204TIP3    H2 3577   1.288   2.181   4.726  0.4159 -0.9640 -1.4181
 1205TIP3   OH2 3578   0.612   6.483   5.358  0.7949  0.1016 -0.2231
 1205TIP3    H1 3579   0.623   6.565   5.310  2.0574  0.5977  0.8579
 1205TIP3    H2 3580   0.694   6.436   5.347  0.2347 -0.8607 -0.4926
 1206TIP3   OH2 3581   2.468   2.586   2.003  0.2477 -0.3319 -0.5473
 1206TIP3    H1 3582   2.385   2.634   1.998  0.1487 -0.6070 -1.7751
 1206TIP3    H2 3583   2.531   2.649   2.037  0.0418  0.5740 -1.7972
 1207TIP3   OH2 3584   3.275   0.988   2.947 -0.4451  0.2428 -0.5253
 1207TIP3    H1 3585   3.324   0.948   3.018  0.6203 -1.1669 -1.9674
 1207TIP3    H2 3586   3.289   1.082   2.958  0.0565  0.0339  0.8489
 1208TIP3   OH2 3587   1.002   6.262   2.853 -0.3422  0.0944  0.1268
 1208TIP3    H1 3588   1.090   6.227   2.869 -0.3689 -0.7149 -1.3658
 1208TIP3    H2 3589   0.955   6.245   2.934  1.4763  2.6777  1.9203
 1209TIP3   OH2 3590   2.620   4.321   4.288  0.3168 -0.0678  0.2389
 1209TIP3    H1 3591   2.689   4.295   4.350  1.5599  2.4995  0.0988
 1209TIP3    H2 3592   2.600   4.412   4.312 -3.4877 -0.8264  0.6077
 1210TIP3   OH2 3593   3.927   4.134   5.729 -0.4628 -0.1849 -0.0990
 1210TIP3    H1 3594   3.887   4.219   5.708  1.5729  1.3806  1.9030
 1210TIP3    H2 3595   4.016   4.141   5.695  0.2626 -0.8184  1.5890
 1211TIP3   OH2 3596   1.992   2.974   5.847  0.0023 -0.3457  0.0247
 1211TIP3    H1 3597   2.073   2.999   5.891  0.3894 -1.9513  0.3008
 1211TIP3    H2 3598   1.951   2.911   5.906 -0.1920 -1.4444 -1.2272
 1212TIP3   OH2 3599   2.889   1.763   2.177 -0.2912 -0.7164  0.3307
 1212TIP3    H1 3600   2.941   1.732   2.251  0.0808 -0.9579 -0.0327
 1212TIP3    H2 3601   2.828   1.827   2.216 -1.0298 -1.8321  1.0818
 1213TIP3   OH2 3602   5.668   0.168   2.061  0.0291  0.1939 -0.9409
 1213TIP3    H1 3603   5.644   0.162   2.154  3.3521  2.6525  0.2996
 1213TIP3    H2 3604   5.742   0.108   2.052  0.1261  0.4374 -1.8344
 1214TIP3   OH2 3605   7.193   2.107   5.023 -0.1644 -0.1682 -0.2212
 1214TIP3    H1 3606   7.181   2.031   5.080 -1.4981  0.5236  0.4530
 1214TIP3    H2 3607   7.105   2.130   4.994  0.1619  1.4151 -0.0502
 1215TIP3   OH2 3608   5.565   4.101   3.513  0.4872  0.3611  0.4734
 1215TIP3    H1 3609   5.497   4.034   3.524 -0.2068  0.5812 -1.8930
 1215TIP3    H2 3610   5.533   4.156   3.441  2.0695  1.9297  0.9011
 1216TIP3   OH2 3611   3.045   3.534   0.397 -0.7276 -0.1025 -0.1281
 1216TIP3    H1 3612   2.975   3.596   0.417 -1.2936 -0.4575 -0.9802
 1216TIP3    H2 3613   3.025   3.502   0.309 -0.3867 -1.4134  0.2528
 1217TIP3   OH2 3614   5.320   3.749   4.782  0.2135  0.0727  0.4818
 1217TIP3    H1 3615   5.237   3.721   4.743  0.3487  0.1400  0.1376
 1217TIP3    H2 3616   5.363   3.668   4.808 -0.0410  0.0487  0.8276
 1218TIP3   OH2 3617   6.283   5.126   5.628 -0.2084 -0.0892  0.1683
 1218TIP3    H1 3618   6.197   5.083   5.628 -0.7159  0.8957  0.1846
 1218TIP3    H2 3619   6.332   5.081   5.559 -0.5117 -1.0793  0.5754
 1219TIP3   OH2 3620   4.840   2.310   0.436 -0.1837  0.1885  0.0665
 1219TIP3    H1 3621   4.830   2.244   0.368  1.0924  0.8915 -0.8549
 1219TIP3    H2 3622   4.813   2.392   0.395 -1.4298  0.3276  1.0877
 1220TIP3   OH2 3623   7.060   3.470   0.339 -0.3353 -0.2091 -0.2994
 1220TIP3    H1 3624   7.094   3.530   0.406 -0.6703  0.0562 -0.3648
 1220TIP3    H2 3625   7.138   3.423   0.307 -0.1352 -0.1438  0.0802
 1221TIP3   OH2 3626   5.493   3.515   3.924  0.3428 -0.0446 -0.1750
 1221TIP3    H1 3627   5.517   3.431   3.964  1.0801  0.4672  0.4834
 1221TIP3    H2 3628   5.554   3.578   3.962  0.3116  0.6611 -1.2586
 1222TIP3   OH2 3629   2.109   6.547   1.860  0.4222  0.1703  0.7360
 1222TIP3    H1 3630   2.050   6.592   1.799 -0.2869 -1.8124 -0.1316
 1222TIP3    H2 3631   2.178   6.510   1.805  1.0854  0.3296  1.4424
 1223TIP3   OH2 3632   4.663   2.384   4.637 -0.4286 -0.2400  0.1023
 1223TIP3    H1 3633   4.721   2.404   4.711 -0.8683 -0.5956  0.5502
 1223TIP3    H2 3634   4.652   2.468   4.592 -1.0688  0.2317  1.1074
 1224TIP3   OH2 3635   7.174   6.296   2.313 -0.3169  0.4807 -0.1098
 1224TIP3    H1 3636   7.255   6.291   2.364 -0.1995 -1.3895 -0.4167
 1224TIP3    H2 3637   7.202   6.329   2.228  0.7207 -2.8792 -1.2137
 1225TIP3   OH2 3638   4.714   1.723   4.688  0.6025 -0.0010 -0.3183
 1225TIP3    H1 3639   4.728   1.678   4.604  0.0317 -0.8314  0.0084
 1225TIP3    H2 3640   4.621   1.746   4.687 -0.1581 -2.5873  1.2444
 1226TIP3   OH2 3641   0.713   1.637   1.233 -0.1114  0.0422  0.6458
 1226TIP3    H1 3642   0.797   1.591   1.227 -0.3350 -0.5252  1.6151
 1226TIP3    H2 3643   0.730   1.724   1.195  0.7257 -0.3026  0.2090
 1227TIP3   OH2 3644   5.240   4.418   0.336 -0.3067 -0.2135 -0.0997
 1227TIP3    H1 3645   5.329   4.440   0.309  0.4175 -1.9196  0.7355
 1227TIP3    H2 3646   5.200   4.502   0.357  2.4406  0.4914  3.3841
 1228TIP3   OH2 3647   1.012   5.964   3.894 -0.4687 -0.8638 -0.4816
 1228TIP3    H1 3648   0.965   6.034   3.849 -0.0666  0.6185  1.3005
 1228TIP3    H2 3649   1.090   6.006   3.929  0.7280 -2.6341 -0.9057
 1229TIP3   OH2 3650   1.878   5.214   1.603 -0.8868  0.2367 -0.1888
 1229TIP3    H1 3651   1.939   5.142   1.620 -0.2603  0.8213  0.0868
 1229TIP3    H2 3652   1.820   5.214   1.679 -1.0544 -0.1482 -0.3166
 1230TIP3   OH2 3653   4.439   0.788   3.912  0.1835 -0.2506 -0.4851
 1230TIP3    H1 3654   4.387   0.715   3.878 -0.5142  0.1391 -0.2508
 1230TIP3    H2 3655   4.420   0.861   3.853  1.7862 -0.5376 -1.4474
 1231TIP3   OH2 3656   6.010   1.084   2.931 -0.4142 -0.1840  0.1164
 1231TIP3    H1 3657   6.060   1.041   3.001  1.1580  1.9476  0.3882
 1231TIP3    H2 3658   6.062   1.069   2.852  0.2646  1.3356  0.2518
 1232TIP3   OH2 3659   5.220   6.386   4.803  0.0206 -0.1304 -0.6781
 1232TIP3    H1 3660   5.315   6.393   4.809  0.1663 -0.4796 -2.2168
 1232TIP3    H2 3661   5.205   6.308   4.750 -1.1047  0.2846 -0.9908
 1233TIP3   OH2 3662   3.218   3.588   2.631 -0.6263 -0.0796 -0.2171
 1233TIP3    H1 3663   3.208   3.561   2.722 -1.6923  0.1724 -0.2522
 1233TIP3    H2 3664   3.211   3.683   2.633 -0.0822 -0.0325 -0.4945
 1234TIP3   OH2 3665   0.093   5.182   0.298  0.8008 -0.2755 -0.4280
 1234TIP3    H1 3666   0.124   5.092   0.287  1.0593 -0.3954  1.0867
 1234TIP3    H2 3667   0.003   5.180   0.267  1.2173 -0.7161 -1.6932
 1235TIP3   OH2 3668   2.140   6.634   2.348 -0.0574 -0.2913  0.1491
 1235TIP3    H1 3669   2.115   6.711   2.296  0.1215  0.8214  1.6505
 1235TIP3    H2 3670   2.206   6.590   2.295 -0.3832  0.4180 -0.8864
 1236TIP3   OH2 3671   2.322   3.810   2.615 -0.7467 -0.0836 -0.1011
 1236TIP3    H1 3672   2.238   3.804   2.660 -0.3715 -0.9190  0.5005
 1236TIP3    H2 3673   2.327   3.731   2.561 -0.0296 -0.4269  0.4458
 1237TIP3   OH2 3674   6.075   3.395   1.234 -0.6176  0.3248  0.3522
 1237TIP3    H1 3675   6.098   3.457   1.165 -1.4205  0.2415  0.0020
 1237TIP3    H2 3676   6.077   3.309   1.191  1.6387 -0.0727  1.0980
 1238TIP3   OH2 3677   4.026   6.307   2.820 -0.7340 -0.9047 -0.6041
 1238TIP3    H1 3678   4.108   6.337   2.860 -1.7217 -1.4248  2.0025
 1238TIP3    H2 3679   4.035   6.212   2.817 -0.7664 -0.8854 -1.4880
 1239TIP3   OH2 3680   1.533   3.740   1.938 -0.2669  0.4122 -0.5835
 1239TIP3    H1 3681   1.456   3.698   1.976  0.5519 -1.4755 -0.8639
 1239TIP3    H2 3682   1.539   3.824   1.982 -1.1263 -0.4201  1.2348
 1240TIP3   OH2 3683   4.451   6.636   3.070 -0.2196 -0.6643 -0.2546
 1240TIP3    H1 3684   4.467   6.724   3.036 -2.6999 -0.1838 -0.3284
 1240TIP3    H2 3685   4.521   6.583   3.032  1.0282  1.1429 -0.6283
 1241TIP3   OH2 3686   5.792   6.775   0.619 -0.0439  0.4199 -0.4588
 1241TIP3    H1 3687   5.819   6.706   0.559 -2.9107  0.4458 -1.9817
 1241TIP3    H2 3688   5.805   6.857   0.570  1.7572  0.8737  0.6991
 1242TIP3   OH2 3689   5.964   1.130   4.292  0.0629  0.0456 -0.3822
 1242TIP3    H1 3690   5.998   1.056   4.344  0.2946 -0.1632 -0.8263
 1242TIP3    H2 3691   5.910   1.179   4.354  0.9086  0.1956  0.2480
 1243TIP3   OH2 3692   0.457   2.337   4.686  0.4255  0.2891  0.0738
 1243TIP3    H1 3693   0.505   2.407   4.732 -0.0123  1.2194 -0.8649
 1243TIP3    H2 3694   0.471   2.260   4.741  3.6360  0.3045 -0.4918
 1244TIP3   OH2 3695   0.235   3.217   2.243 -0.4616  0.1233  0.3346
 1244TIP3    H1 3696   0.195   3.303   2.254  1.3392  1.0735 -0.0420
 1244TIP3    H2 3697   0.329   3.233   2.250 -0.0356 -1.7253 -0.3807
 1245TIP3   OH2 3698   4.224   6.446   2.982 -0.1813  0.0357 -0.2431
 1245TIP3    H1 3699   4.166   6.517   2.954 -0.2619 -0.3109 -0.9736
 1245TIP3    H2 3700   4.303   6.491   3.013 -0.8810  0.5175  0.9209
 1246TIP3   OH2 3701   2.931   2.088   0.569 -0.1047  0.2655  0.5862
 1246TIP3    H1 3702   3.024   2.070   0.572 -0.3067 -0.8839  0.3786
 1246TIP3    H2 3703   2.921   2.174   0.611  0.7899 -0.5923  2.6930
 1247TIP3   OH2 3704   3.774   6.673   3.142  0.7054  0.4084 -0.3368
 1247TIP3    H1 3705   3.868   6.661   3.126  0.5414  1.9985 -3.0469
 1247TIP3    H2 3706   3.737   6.585   3.131  1.7500 -0.0723 -0.1320
 1248TIP3   OH2 3707   4.794   1.914   3.009  0.1195  0.4386  0.1119
 1248TIP3    H1 3708   4.820   1.995   2.964  2.2459 -0.9600 -1.3946
 1248TIP3    H2 3709   4.706   1.896   2.977  0.6191  0.8165 -1.5868
 1249TIP3   OH2 3710   4.625   1.522   0.841  0.4556  0.0186 -0.1321
 1249TIP3    H1 3711   4.575   1.589   0.888  0.7574 -1.3932  2.4025
 1249TIP3    H2 3712   4.715   1.535   0.869  0.3927 -1.9663  1.2160
 1250TIP3   OH2 3713   4.799   0.690   2.824 -0.5487  0.4252  0.2417
 1250TIP3    H1 3714   4.890   0.712   2.802 -0.3095 -1.9310 -1.4618
 1250TIP3    H2 3715   4.786   0.728   2.911  1.9500  1.1267  0.3849
 1251TIP3   OH2 3716   5.731   6.700   0.164 -0.5847  0.4559  0.0338
 1251TIP3    H1 3717   5.662   6.641   0.194  0.0015 -0.9595 -1.3096
 1251TIP3    H2 3718   5.811   6.648   0.169  0.0098  1.2507 -0.8356
 1252TIP3   OH2 3719   3.271   2.494   0.142  0.6121  0.5744  0.2580
 1252TIP3    H1 3720   3.246   2.493   0.049  3.0397  1.4771 -0.4831
 1252TIP3    H2 3721   3.277   2.401   0.165 -0.6352  0.3355 -0.2691
 1253TIP3   OH2 3722   6.906   2.224   0.521  0.3521  0.0079  0.3290
 1253TIP3    H1 3723   6.875   2.144   0.564  0.4287  0.0710  0.5007
 1253TIP3    H2 3724   6.831   2.254   0.470 -0.2189  0.7466  1.5719
 1254TIP3   OH2 3725   0.498   4.074   1.354 -0.0168 -0.4661 -0.2699
 1254TIP3    H1 3726   0.539   4.073   1.268  0.2800 -0.2309 -0.1376
 1254TIP3    H2 3727   0.532   3.995   1.398 -0.5786 -0.8665 -0.5504
 1255TIP3   OH2 3728   4.157   6.536   4.655 -0.3202 -0.2729 -0.0655
 1255TIP3    H1 3729   4.250   6.562   4.655 -0.7352  1.3129  0.1020
 1255TIP3    H2 3730   4.138   6.516   4.746 -0.5446  1.0337  0.1960
 1256TIP3   OH2 3731   1.306   1.272   4.227  0.0551  0.4710 -0.0224
 1256TIP3    H1 3732   1.222   1.233   4.202  1.0756 -0.4396 -2.2675
 1256TIP3    H2 3733   1.369   1.200   4.220  1.2268  1.3932  0.5583
 1257TIP3   OH2 3734   6.116   1.999   0.057 -0.2550  0.0176  0.3924
 1257TIP3    H1 3735   6.056   2.070   0.037 -1.5163 -0.9739  0.5549
 1257TIP3    H2 3736   6.103   1.982   0.151  2.1578  1.4685  1.0940
 1258TIP3   OH2 3737   2.059   1.095   2.648 -0.2182 -0.5192  0.1463
 1258TIP3    H1 3738   2.153   1.075   2.647  0.3279  1.7667  0.0903
 1258TIP3    H2 3739   2.039   1.116   2.556 -1.5037 -3.6495 -0.4205
 1259TIP3   OH2 3740   5.069   2.132   5.684  0.1992  1.1621 -0.4211
 1259TIP3    H1 3741   5.050   2.099   5.772 -1.3402  0.5453 -0.9534
 1259TIP3    H2 3742   5.164   2.146   5.684  0.7050 -1.6190  0.4017
 1260TIP3   OH2 3743   0.214   2.503   4.874 -0.5300  0.1149  0.6071
 1260TIP3    H1 3744   0.239   2.535   4.961 -1.6555  1.4420  0.4828
 1260TIP3    H2 3745   0.196   2.582   4.824 -2.0802 -0.6692 -0.1465
 1261TIP3   OH2 3746   3.620   2.738   2.068  0.1957  0.3332  0.4657
 1261TIP3    H1 3747   3.604   2.761   2.160 -1.3251 -0.1707  0.3516
 1261TIP3    H2 3748   3.566   2.799   2.018  1.4151  0.9449 -0.1355
 1262TIP3   OH2 3749   2.451   2.036   1.269 -0.0589  0.4003  0.9073
 1262TIP3    H1 3750   2.391   2.101   1.233 -2.2523 -2.8496 -1.9611
 1262TIP3    H2 3751   2.395   1.980   1.324  0.8530 -1.1661  0.3144
 1263TIP3   OH2 3752   0.481   4.497   1.382 -0.1072 -0.5603 -0.0776
 1263TIP3    H1 3753   0.490   4.580   1.430  2.0200  0.9019 -2.6400
 1263TIP3    H2 3754   0.408   4.512   1.322  0.0068 -0.6941 -0.2513
 1264TIP3   OH2 3755   0.147   6.102   4.850 -0.1783 -0.3816  0.4672
 1264TIP3    H1 3756   0.057   6.082   4.877 -0.3242  0.4868  0.6420
 1264TIP3    H2 3757   0.193   6.119   4.932 -0.2259  0.6619  0.2875
 1265TIP3   OH2 3758   4.913   4.330   3.986 -0.2727 -0.2202  0.8394
 1265TIP3    H1 3759   4.846   4.385   3.947  2.2719  2.7973  0.3262
 1265TIP3    H2 3760   4.939   4.270   3.916 -0.0847  0.9185 -0.0872
 1266TIP3   OH2 3761   1.650   6.750   1.737  0.4939 -0.1059 -0.1126
 1266TIP3    H1 3762   1.590   6.723   1.807  1.5595 -0.8955  0.5401
 1266TIP3    H2 3763   1.646   6.678   1.674 -2.2496  1.6281 -2.1530
 1267TIP3   OH2 3764   1.624   4.248   3.137 -0.5445 -0.2745  0.0615
 1267TIP3    H1 3765   1.674   4.172   3.108 -2.2367 -0.4005 -2.8834
 1267TIP3    H2 3766   1.560   4.213   3.199 -0.1939 -0.9357  0.0593
 1268TIP3   OH2 3767   0.353   2.351   5.837  0.0596  0.5421  0.4524
 1268TIP3    H1 3768   0.399   2.305   5.766 -0.7758 -0.8901  0.8075
 1268TIP3    H2 3769   0.372   2.444   5.821  0.7772  0.1775 -1.0123
 1269TIP3   OH2 3770   2.539   4.267   3.577 -0.2598  0.3009 -0.4511
 1269TIP3    H1 3771   2.496   4.291   3.495 -0.6091 -0.0668 -0.3803
 1269TIP3    H2 3772   2.610   4.209   3.550 -0.7369 -0.2958 -0.4556
 1270TIP3   OH2 3773   5.951   1.832   0.776  0.5853  0.3744 -0.6017
 1270TIP3    H1 3774   6.025   1.793   0.823 -0.5119 -0.9073  0.1217
 1270TIP3    H2 3775   5.946   1.921   0.810  1.1409  0.1344  0.1359
 1271TIP3   OH2 3776   0.543   3.443   4.955 -0.2379  0.9482  0.4593
 1271TIP3    H1 3777   0.566   3.420   4.865  1.8420 -1.5190  1.4941
 1271TIP3    H2 3778   0.614   3.500   4.985 -0.5110  1.1186  0.8030
 1272TIP3   OH2 3779   2.657   0.296   0.054  0.5270  0.8012 -0.2394
 1272TIP3    H1 3780   2.745   0.266   0.030  0.7950  1.1389  0.2833
 1272TIP3    H2 3781   2.660   0.301   0.150 -0.4185 -0.2554 -0.1338
 1273TIP3   OH2 3782   2.109   4.825   2.127 -0.1205 -0.3125 -0.2472
 1273TIP3    H1 3783   2.160   4.890   2.078 -0.2244 -0.8456 -1.0837
 1273TIP3    H2 3784   2.078   4.872   2.204  3.2464 -0.4171  1.3594
 1274TIP3   OH2 3785   0.433   2.163   3.576  0.8059 -0.4569 -0.1668
 1274TIP3    H1 3786   0.435   2.127   3.665 -0.6685 -1.4964 -0.5124
 1274TIP3    H2 3787   0.466   2.253   3.586  1.0251 -0.6712  1.3564
 1275TIP3   OH2 3788   3.559   5.383   2.248 -0.1957 -0.6375 -0.0394
 1275TIP3    H1 3789   3.561   5.470   2.209  0.9889 -0.6327  0.0140
 1275TIP3    H2 3790   3.634   5.337   2.209 -1.0462 -1.7807 -0.3936
 1276TIP3   OH2 3791   4.057   2.246   4.622 -0.3272  0.5484  0.6229
 1276TIP3    H1 3792   4.032   2.154   4.612  1.1252  0.1068  0.7950
 1276TIP3    H2 3793   4.150   2.248   4.596  0.3867  1.4873  3.0004
 1277TIP3   OH2 3794   0.431   5.588   1.243 -0.1762  0.3477  0.2785
 1277TIP3    H1 3795   0.388   5.672   1.261  1.6603  1.1229  1.3079
 1277TIP3    H2 3796   0.511   5.590   1.295  0.3462 -1.6969 -0.3518
 1278TIP3   OH2 3797   5.736   4.119   0.938  0.0803  0.1218 -0.7346
 1278TIP3    H1 3798   5.734   4.032   0.899  1.4278  0.8730 -2.6679
 1278TIP3    H2 3799   5.820   4.122   0.985  1.6613  1.3637 -3.4116
 1279TIP3   OH2 3800   0.789   4.310   4.403  0.0782 -0.3098  0.4909
 1279TIP3    H1 3801   0.779   4.388   4.459 -2.1685  1.3498 -1.9623
 1279TIP3    H2 3802   0.871   4.324   4.356 -0.3423  0.6687  0.0126
 1280TIP3   OH2 3803   2.431   4.306   4.075 -0.6473 -0.5227  0.0230
 1280TIP3    H1 3804   2.508   4.285   4.129  0.6748  1.2409 -1.0392
 1280TIP3    H2 3805   2.460   4.290   3.985 -1.8092 -0.6068 -0.3492
 1281TIP3   OH2 3806   3.999   4.253   1.584 -0.7949 -0.5942 -0.0867
 1281TIP3    H1 3807   4.089   4.220   1.579 -0.9335 -0.7965 -2.1609
 1281TIP3    H2 3808   3.955   4.211   1.510 -1.9392  1.3901 -0.5902
 1282TIP3   OH2 3809   3.153   4.147   1.359  0.8306  0.3963  0.0806
 1282TIP3    H1 3810   3.122   4.115   1.444 -0.0291 -0.4780 -0.5414
 1282TIP3    H2 3811   3.092   4.218   1.338 -0.3172 -0.8028 -0.7770
 1283TIP3   OH2 3812   6.289   0.990   0.993 -0.5135 -0.4480  0.4039
 1283TIP3    H1 3813   6.313   0.940   1.071 -2.4497 -1.6405  0.3047
 1283TIP3    H2 3814   6.266   0.924   0.928 -1.7190  0.5358 -0.2235
 1284TIP3   OH2 3815   3.619   2.827   2.334  0.6769 -0.1008 -0.1678
 1284TIP3    H1 3816   3.606   2.920   2.356 -0.1979 -0.1167 -0.5439
 1284TIP3    H2 3817   3.646   2.786   2.416 -3.1062 -0.2812  1.2100
 1285TIP3   OH2 3818   4.346   1.227   0.399 -0.3405 -0.5320  0.1495
 1285TIP3    H1 3819   4.437   1.209   0.422 -0.4766 -0.9123  0.3992
 1285TIP3    H2 3820   4.341   1.323   0.394  0.2768 -0.5305 -0.7191
 1286TIP3   OH2 3821   5.440   3.865   2.779  0.3511 -0.1463 -0.3696
 1286TIP3    H1 3822   5.389   3.945   2.793 -0.9543 -0.9371 -0.4993
 1286TIP3    H2 3823   5.446   3.857   2.684 -0.0861 -0.5421 -0.3679
 1287TIP3   OH2 3824   1.123   4.792   3.632 -0.1564  0.1295 -0.0162
 1287TIP3    H1 3825   1.094   4.838   3.553 -0.2992 -0.7217 -0.4782
 1287TIP3    H2 3826   1.216   4.777   3.619 -0.1753  0.0084 -0.0176
 1288TIP3   OH2 3827   4.942   2.318   4.479  0.5822 -0.0739 -0.0273
 1288TIP3    H1 3828   4.869   2.378   4.492  0.6536  0.0906 -0.3900
 1288TIP3    H2 3829   4.930   2.251   4.547 -0.0502 -0.1886 -0.2451
 1289TIP3   OH2 3830   2.408   3.410   1.740  0.0353 -0.2011  0.7678
 1289TIP3    H1 3831   2.483   3.443   1.790  1.5204 -1.7468 -0.3118
 1289TIP3    H2 3832   2.375   3.337   1.793  0.2661 -0.4845  0.5250
 1290TIP3   OH2 3833   4.578   6.705   4.375  0.6391 -0.2923 -0.3605
 1290TIP3    H1 3834   4.498   6.740   4.336  0.5846 -1.0541 -0.9590
 1290TIP3    H2 3835   4.632   6.782   4.391 -0.5144  0.3287  0.7928
 1291TIP3   OH2 3836   0.957   5.278   5.340 -0.1069 -0.0982  0.2430
 1291TIP3    H1 3837   0.883   5.247   5.288  0.3315  0.0005 -0.4542
 1291TIP3    H2 3838   0.977   5.206   5.400  1.6036 -1.7211 -2.0943
 1292TIP3   OH2 3839   7.145   6.632   4.554 -0.1733 -0.1027 -0.2230
 1292TIP3    H1 3840   7.195   6.593   4.625  0.3407  1.2651  0.2064
 1292TIP3    H2 3841   7.094   6.702   4.596 -1.6531 -0.7708 -0.8237
 1293TIP3   OH2 3842   1.217   6.108   2.931 -0.2808  0.0742 -0.0407
 1293TIP3    H1 3843   1.254   6.042   2.872  0.9021  0.6134  0.0742
 1293TIP3    H2 3844   1.151   6.060   2.981  1.2593 -1.3081  0.7573
 1294TIP3   OH2 3845   6.831   5.294   5.089  0.4663  0.3324  0.1520
 1294TIP3    H1 3846   6.852   5.316   4.999 -1.3493 -0.0177 -0.4015
 1294TIP3    H2 3847   6.828   5.378   5.135  3.2195  0.3957  0.3868
 1295TIP3   OH2 3848   3.402   2.288   5.228 -0.3776 -0.4609  0.0392
 1295TIP3    H1 3849   3.423   2.377   5.197  0.0258 -0.2839  0.7943
 1295TIP3    H2 3850   3.356   2.302   5.311 -2.0875 -0.9061 -0.8135
 1296TIP3   OH2 3851   1.818   6.386   0.711  0.6336 -0.4331  0.4379
 1296TIP3    H1 3852   1.840   6.342   0.793  1.2312 -0.4024  0.2989
 1296TIP3    H2 3853   1.804   6.478   0.736 -0.2848 -0.6307  0.6750
 1297TIP3   OH2 3854   5.635   2.755   0.231  0.2002  0.2282 -0.1587
 1297TIP3    H1 3855   5.715   2.748   0.283  0.5647  2.0094 -0.4114
 1297TIP3    H2 3856   5.584   2.822   0.276  0.7503  2.1895 -2.3239
 1298TIP3   OH2 3857   3.130   6.770   3.716  0.3175  0.1659  0.4980
 1298TIP3    H1 3858   3.211   6.817   3.698  0.2360  0.0643 -0.1775
 1298TIP3    H2 3859   3.158   6.681   3.737  0.4045  0.2414  0.7071
 1299TIP3   OH2 3860   0.875   3.417   5.022  0.1536  0.1345 -0.0205
 1299TIP3    H1 3861   0.847   3.494   4.972 -1.4125 -1.2139 -1.3332
 1299TIP3    H2 3862   0.857   3.440   5.113 -0.4195  1.2510 -0.3975
 1300TIP3   OH2 3863   5.965   3.379   5.006 -0.0946  0.0820 -0.0583
 1300TIP3    H1 3864   5.891   3.405   5.060  0.2206 -0.9908  0.9421
 1300TIP3    H2 3865   5.976   3.451   4.944 -1.4603  0.6209  0.2827
 1301TIP3   OH2 3866   0.665   3.105   3.203  0.8947  0.1777 -0.1933
 1301TIP3    H1 3867   0.702   3.020   3.228 -0.6382 -0.1942  0.9009
 1301TIP3    H2 3868   0.579   3.085   3.168  0.2391  1.3243  0.7016
 1302TIP3   OH2 3869   4.537   6.095   4.795  0.2846 -0.3920 -0.1991
 1302TIP3    H1 3870   4.548   6.162   4.863  0.2594 -0.3726 -0.2139
 1302TIP3    H2 3871   4.501   6.143   4.720  1.3786 -0.1989 -0.6177
 1303TIP3   OH2 3872   5.734   1.989   5.034 -0.1182  0.2861  0.3123
 1303TIP3    H1 3873   5.804   1.949   5.085 -0.0794  1.5516  1.2930
 1303TIP3    H2 3874   5.758   2.082   5.028 -0.6982  0.3812 -1.0626
 1304TIP3   OH2 3875   0.619   4.731   1.987 -0.1231  0.0480 -0.1586
 1304TIP3    H1 3876   0.592   4.683   1.908 -1.8833 -0.0116  0.4207
 1304TIP3    H2 3877   0.537   4.770   2.019  0.4696 -0.2696  1.8634
 1305TIP3   OH2 3878   2.503   0.649   4.012  0.0535  0.5831 -0.2817
 1305TIP3    H1 3879   2.424   0.702   3.999  0.2791  0.9564 -0.1214
 1305TIP3    H2 3880   2.472   0.559   4.002 -0.3575  0.7357 -0.4162
 1306TIP3   OH2 3881   1.203   4.608   5.308  0.6338 -0.1434 -0.2270
 1306TIP3    H1 3882   1.118   4.606   5.263 -0.0334 -0.4273  0.9887
 1306TIP3    H2 3883   1.256   4.668   5.257 -0.9582  1.6481  0.1068
 1307TIP3   OH2 3884   1.222   0.510   4.371  0.2584  0.3048  0.1561
 1307TIP3    H1 3885   1.152   0.476   4.315  1.0642  1.5174 -1.7117
 1307TIP3    H2 3886   1.178   0.537   4.451 -1.2376 -0.0095 -0.5220
 1308TIP3   OH2 3887   6.595   3.992   4.607  0.2998 -0.3633  0.3933
 1308TIP3    H1 3888   6.590   4.048   4.530  0.8641 -0.7924  0.0431
 1308TIP3    H2 3889   6.538   4.035   4.671  0.3278  0.3370 -0.0426
 1309TIP3   OH2 3890   4.866   4.058   1.693 -0.0837  0.3104  0.6854
 1309TIP3    H1 3891   4.944   4.047   1.639 -0.2169 -1.4073  0.8105
 1309TIP3    H2 3892   4.894   4.034   1.781 -0.5783  0.3471  0.8566
 1310TIP3   OH2 3893   4.982   6.023   5.283 -0.4280  0.0611 -0.3571
 1310TIP3    H1 3894   5.042   6.091   5.313 -0.9778 -0.5002  2.2753
 1310TIP3    H2 3895   4.933   5.999   5.362 -1.7085 -1.9047 -1.6845
 1311TIP3   OH2 3896   2.480   4.562   4.475 -0.1559  0.3677 -0.3733
 1311TIP3    H1 3897   2.456   4.491   4.534 -0.9359  1.2484  0.4034
 1311TIP3    H2 3898   2.575   4.570   4.484  0.0597 -1.1252 -1.1233
 1312TIP3   OH2 3899   4.419   0.057   3.300 -0.1090 -0.1956 -0.0287
 1312TIP3    H1 3900   4.514   0.052   3.313 -0.2364 -0.5013  0.8534
 1312TIP3    H2 3901   4.408   0.069   3.205  0.8121  0.0193 -0.1169
 1313TIP3   OH2 3902   2.686   2.837   3.475  0.1200 -0.3585 -0.4644
 1313TIP3    H1 3903   2.606   2.802   3.438 -1.5372  2.5426  0.0656
 1313TIP3    H2 3904   2.729   2.881   3.401  0.4431 -0.6031 -0.4233
 1314TIP3   OH2 3905   2.054   3.673   1.591  0.1497 -0.5884  1.0359
 1314TIP3    H1 3906   2.097   3.730   1.527 -0.8925  0.4993  1.2703
 1314TIP3    H2 3907   2.053   3.725   1.672 -1.6954 -0.5191  0.9985
 1315TIP3   OH2 3908   2.324   5.737   1.590 -0.1827  0.5940  0.7285
 1315TIP3    H1 3909   2.382   5.719   1.664  1.8140  0.1809 -0.8536
 1315TIP3    H2 3910   2.312   5.832   1.592  1.0944  0.7684  0.7189
 1316TIP3   OH2 3911   2.521   1.194   0.839 -0.2535 -0.0059 -0.3766
 1316TIP3    H1 3912   2.500   1.269   0.895  0.6064  0.7119 -0.9919
 1316TIP3    H2 3913   2.578   1.230   0.771 -2.9236 -0.3656 -3.0065
 1317TIP3   OH2 3914   0.034   6.311   3.469  1.0258 -0.5354  0.1601
 1317TIP3    H1 3915   0.004   6.325   3.559  0.6457  2.2507 -0.3029
 1317TIP3    H2 3916   0.077   6.394   3.445  0.5483 -0.9604 -2.4338
 1318TIP3   OH2 3917   4.735   0.958   3.558  0.0860 -0.3971  0.5738
 1318TIP3    H1 3918   4.685   0.880   3.584 -1.9403  0.3695 -0.7218
 1318TIP3    H2 3919   4.785   0.982   3.635  0.4724 -2.7387  1.1331
 1319TIP3   OH2 3920   0.025   2.664   1.792  0.1040  0.0284  0.2241
 1319TIP3    H1 3921   0.034   2.576   1.830  0.3784 -0.3677 -0.7075
 1319TIP3    H2 3922   0.012   2.648   1.699  2.5936  1.0154 -0.3767
 1320TIP3   OH2 3923   2.828   2.103   1.926  0.1036 -0.1720  0.4074
 1320TIP3    H1 3924   2.854   2.175   1.983 -0.4716 -0.0128  0.4706
 1320TIP3    H2 3925   2.862   2.126   1.839 -0.4164  0.3570  0.3463
 1321TIP3   OH2 3926   2.239   4.367   3.097 -0.4449 -0.4449  0.1831
 1321TIP3    H1 3927   2.311   4.396   3.041 -0.4432  0.4748  0.6353
 1321TIP3    H2 3928   2.208   4.286   3.057 -0.5116  0.2358 -1.1866
 1322TIP3   OH2 3929   0.589   4.477   0.667  0.5416  0.4876 -0.4744
 1322TIP3    H1 3930   0.564   4.385   0.655 -0.9687  0.7860  0.1769
 1322TIP3    H2 3931   0.514   4.517   0.709  1.0901  2.0927 -0.9496
 1323TIP3   OH2 3932   1.934   1.815   3.034 -0.3365 -0.6709 -0.1503
 1323TIP3    H1 3933   1.872   1.801   2.962  0.7050 -2.4488 -0.7466
 1323TIP3    H2 3934   2.007   1.757   3.015  1.6371  1.4927  0.4525
 1324TIP3   OH2 3935   2.190   5.074   0.942  0.3608  0.3468  0.1018
 1324TIP3    H1 3936   2.237   5.141   0.992  1.0181 -1.0730  1.4807
 1324TIP3    H2 3937   2.151   5.017   1.009  0.1392 -0.8643 -1.0191
 1325TIP3   OH2 3938   1.054   0.262   2.334  0.4286 -0.7129  0.0617
 1325TIP3    H1 3939   1.044   0.170   2.308 -2.6838 -0.3268 -0.4918
 1325TIP3    H2 3940   0.992   0.309   2.279  1.2521  1.6397  1.0168
 1326TIP3   OH2 3941   5.084   6.256   1.942 -0.1692  0.5026  0.5981
 1326TIP3    H1 3942   5.142   6.330   1.923 -1.3255  1.0728 -0.8839
 1326TIP3    H2 3943   5.032   6.286   2.017  1.1629  0.1159  1.7198
 1327TIP3   OH2 3944   1.942   0.184   0.988 -0.3588 -0.3879 -0.5120
 1327TIP3    H1 3945   1.969   0.204   1.078  1.9535 -0.7214 -1.0719
 1327TIP3    H2 3946   1.861   0.134   0.998  0.0093 -0.6918  1.4124
 1328TIP3   OH2 3947   1.314   1.484   2.655  0.2076  0.1666 -0.5250
 1328TIP3    H1 3948   1.406   1.508   2.646 -0.1199  0.8457 -2.5314
 1328TIP3    H2 3949   1.267   1.567   2.660 -0.3886 -0.1440 -0.7486
 1329TIP3   OH2 3950   1.844   2.613   0.616  0.1229 -0.0851  0.3319
 1329TIP3    H1 3951   1.816   2.550   0.550  0.4503 -0.2151  0.3170
 1329TIP3    H2 3952   1.895   2.678   0.568  1.2606 -0.7441  0.6050
 1330TIP3   OH2 3953   4.500   5.078   2.692  0.0600 -0.5401 -0.2613
 1330TIP3    H1 3954   4.551   5.047   2.766 -1.5653  1.6773  1.9540
 1330TIP3    H2 3955   4.562   5.126   2.638  0.6108  1.1555  1.7696
 1331TIP3   OH2 3956   0.594   4.085   5.504 -0.2687  0.2779 -0.7611
 1331TIP3    H1 3957   0.604   4.179   5.521 -1.7633  0.3433 -0.0439
 1331TIP3    H2 3958   0.640   4.042   5.576  1.9315  0.3918 -2.0207
 1332TIP3   OH2 3959   6.613   0.009   2.024 -0.3452 -0.4777 -0.3726
 1332TIP3    H1 3960   6.603   0.097   2.062 -0.8351 -0.4642 -0.5366
 1332TIP3    H2 3961   6.607   0.023   1.930 -0.0084 -0.6342 -0.4179
 1333TIP3   OH2 3962   2.486   1.472   3.181 -0.3991  0.0092  0.2800
 1333TIP3    H1 3963   2.500   1.492   3.089 -0.9922 -0.1492  0.1555
 1333TIP3    H2 3964   2.402   1.513   3.202 -1.1023 -1.3913  0.3075
 1334TIP3   OH2 3965   2.155   5.426   5.244 -0.2416 -0.5492  0.2425
 1334TIP3    H1 3966   2.093   5.403   5.313  0.7488 -0.4859  1.1773
 1334TIP3    H2 3967   2.153   5.351   5.184 -0.3147 -1.0994  0.9145
 1335TIP3   OH2 3968   6.010   3.915   5.016 -0.4950  0.4993 -0.7123
 1335TIP3    H1 3969   5.999   3.838   5.070 -2.0790  1.4920  0.4736
 1335TIP3    H2 3970   6.103   3.917   4.994  0.3040  0.2636  2.3148
 1336TIP3   OH2 3971   1.915   6.080   5.673  0.3187  0.2993 -0.1870
 1336TIP3    H1 3972   1.871   6.149   5.623  0.6290  0.8167  0.2473
 1336TIP3    H2 3973   1.987   6.052   5.616  2.2365  2.6352  0.9329
 1337TIP3   OH2 3974   4.026   4.768   4.048 -0.0448  0.0023 -0.2660
 1337TIP3    H1 3975   4.106   4.789   4.096 -1.4212 -0.2141  2.3072
 1337TIP3    H2 3976   3.995   4.686   4.086 -0.2312 -1.2953 -2.9688
 1338TIP3   OH2 3977   1.722   3.355   1.410 -0.0583  0.1515 -0.0228
 1338TIP3    H1 3978   1.806   3.336   1.369 -0.2550  0.6621 -0.6712
 1338TIP3    H2 3979   1.725   3.306   1.493  1.5719  1.4672  0.7676
 1339TIP3   OH2 3980   2.121   5.467   2.881 -0.4750  0.0056 -0.2277
 1339TIP3    H1 3981   2.087   5.395   2.935 -0.8966 -1.4695 -2.3425
 1339TIP3    H2 3982   2.044   5.515   2.852 -0.2419  0.8734  0.5473
 1340TIP3   OH2 3983   5.008   2.560   5.573  0.5833  0.0685 -0.3823
 1340TIP3    H1 3984   4.990   2.628   5.508  2.5764  0.0019 -1.0893
 1340TIP3    H2 3985   5.019   2.607   5.655 -3.3949  0.0316  0.3533
 1341TIP3   OH2 3986   2.271   1.722   1.870  0.4105 -0.2603 -0.0747
 1341TIP3    H1 3987   2.286   1.816   1.855 -0.5903 -0.1553 -0.5364
 1341TIP3    H2 3988   2.242   1.689   1.785 -3.0359 -0.1754  0.9093
 1342TIP3   OH2 3989   0.987   1.275   4.683 -0.6002  0.5709  0.8009
 1342TIP3    H1 3990   1.001   1.354   4.631 -0.0625  0.3393  0.5824
 1342TIP3    H2 3991   1.061   1.218   4.661 -1.0043 -0.0161  0.9146
 1343TIP3   OH2 3992   5.822   0.845   4.782  0.0475  0.3783 -0.6511
 1343TIP3    H1 3993   5.872   0.775   4.825  1.8126  1.5798 -0.6242
 1343TIP3    H2 3994   5.778   0.890   4.854  1.3198  1.1030 -0.3020
 1344TIP3   OH2 3995   3.442   0.448   1.090  0.7164 -0.4150  0.1891
 1344TIP3    H1 3996   3.363   0.426   1.039  1.3031 -1.8966 -0.1464
 1344TIP3    H2 3997   3.506   0.476   1.025 -0.0463  2.6382  0.6233
 1345TIP3   OH2 3998   7.198   4.370   4.420 -0.4452  0.1285  0.5383
 1345TIP3    H1 3999   7.205   4.376   4.516 -1.6678  1.6918  0.5711
 1345TIP3    H2 4000   7.174   4.458   4.392  0.5855 -0.1233 -1.3100
 1346TIP3   OH2 4001   2.096   4.371   0.520  0.2263 -0.0655 -0.3922
 1346TIP3    H1 4002   2.108   4.434   0.592  1.4504 -0.2310 -0.4178
 1346TIP3    H2 4003   2.008   4.387   0.488 -0.3042  0.1067  1.0604
 1347TIP3   OH2 4004   5.738   0.499   0.916 -0.1638 -0.2864 -0.6711
 1347TIP3    H1 4005   5.729   0.489   0.822  1.4465 -0.0166 -0.8777
 1347TIP3    H2 4006   5.687   0.578   0.937 -3.2823 -2.1425 -0.7582
 1348TIP3   OH2 4007   6.562   5.743   1.732 -0.3150 -0.6101  0.0990
 1348TIP3    H1 4008   6.542   5.685   1.658 -0.1430 -1.3350  0.6137
 1348TIP3    H2 4009   6.478   5.757   1.775 -0.5103  0.2415 -0.5228
 1349TIP3   OH2 4010   4.492   5.743   2.569  0.5350  0.0871 -0.7803
 1349TIP3    H1 4011   4.426   5.683   2.534 -0.3121 -1.3441  2.8741
 1349TIP3    H2 4012   4.571   5.690   2.579 -0.0081 -0.3558  1.7836
 1350TIP3   OH2 4013   2.232   6.627   3.407  0.4463  0.7185 -0.1529
 1350TIP3    H1 4014   2.277   6.544   3.424 -0.1768  0.4341  0.1292
 1350TIP3    H2 4015   2.139   6.607   3.422  0.2765  1.4216 -0.2642
 1351TIP3   OH2 4016   5.870   4.977   4.546 -0.6633 -0.1996  0.2667
 1351TIP3    H1 4017   5.934   4.983   4.617 -1.8042  1.7063  1.1896
 1351TIP3    H2 4018   5.841   4.885   4.549  2.4218 -1.3427 -0.6394
 1352TIP3   OH2 4019   1.319   6.169   4.403  0.8483 -0.0351 -0.6688
 1352TIP3    H1 4020   1.391   6.111   4.428  0.1162 -0.3251  0.9334
 1352TIP3    H2 4021   1.317   6.235   4.473  1.4288  1.7590 -2.2565
 1353TIP3   OH2 4022   7.026   5.438   4.231 -0.2927 -0.4849 -0.1865
 1353TIP3    H1 4023   7.013   5.359   4.283 -0.7558 -1.0602 -1.1443
 1353TIP3    H2 4024   7.012   5.510   4.292  1.0515 -1.1249  0.9289
 1354TIP3   OH2 4025   2.898   2.008   3.371  0.2721  0.0850 -0.8928
 1354TIP3    H1 4026   2.986   2.000   3.406  0.2010 -0.3591 -0.8094
 1354TIP3    H2 4027   2.908   2.063   3.293  0.8138 -0.9352 -1.5661
 1355TIP3   OH2 4028   6.152   5.422   1.351 -0.4774 -0.1188 -0.6571
 1355TIP3    H1 4029   6.179   5.410   1.260  0.0337 -0.1703 -0.5003
 1355TIP3    H2 4030   6.120   5.511   1.354  0.4950  0.2442 -0.6501
 1356TIP3   OH2 4031   4.021   2.907   5.462  0.2696  0.0258 -0.1338
 1356TIP3    H1 4032   3.946   2.942   5.509 -0.4577 -0.9872 -0.5094
 1356TIP3    H2 4033   3.988   2.830   5.416  1.3772 -0.0442 -0.8694
 1357TIP3   OH2 4034   2.291   5.525   0.076 -0.0985  0.0154 -0.5396
 1357TIP3    H1 4035   2.320   5.535   0.167 -1.6235  0.5747 -0.0751
 1357TIP3    H2 4036   2.360   5.566   0.024  0.0025  1.2151  0.4896
 1358TIP3   OH2 4037   1.878   3.009   2.386 -0.7391 -0.4640 -0.2466
 1358TIP3    H1 4038   1.861   2.923   2.425 -2.1341  0.2699  0.8671
 1358TIP3    H2 4039   1.953   3.044   2.434 -0.6457 -0.7470 -0.1855
 1359TIP3   OH2 4040   0.898   3.671   1.451 -0.2069 -0.2360 -0.4082
 1359TIP3    H1 4041   0.980   3.623   1.448  0.8323  1.4539 -0.1668
 1359TIP3    H2 4042   0.909   3.741   1.386 -1.7955 -0.4693 -0.9851
 1360TIP3   OH2 4043   3.880   2.460   1.451  0.2778  0.1509 -0.4790
 1360TIP3    H1 4044   3.945   2.527   1.425  2.7299 -2.0282 -0.3485
 1360TIP3    H2 4045   3.868   2.473   1.545 -1.8583  2.4299 -0.9602
 1361TIP3   OH2 4046   6.014   0.501   2.092  0.6245 -0.0329  0.2944
 1361TIP3    H1 4047   6.077   0.428   2.093 -0.4595 -1.0415 -0.8297
 1361TIP3    H2 4048   5.962   0.485   2.013  0.2218  1.8719  0.1458
 1362TIP3   OH2 4049   2.995   3.203   5.072  0.6315  0.3945  0.1230
 1362TIP3    H1 4050   3.046   3.257   5.132 -0.8073 -0.4578  2.2243
 1362TIP3    H2 4051   3.009   3.113   5.102 -0.1222 -0.0631 -0.8386
 1363TIP3   OH2 4052   6.477   2.026   4.420  0.4079  0.4360  0.2393
 1363TIP3    H1 4053   6.427   2.061   4.347  1.9232  1.2493 -0.4577
 1363TIP3    H2 4054   6.567   2.052   4.402  0.9216  0.0554  2.0540
 1364TIP3   OH2 4055   6.659   5.283   3.973  0.2521  0.4289 -0.3739
 1364TIP3    H1 4056   6.565   5.291   3.988  0.0317 -0.4837 -1.1785
 1364TIP3    H2 4057   6.689   5.373   3.965 -0.7178  0.7094 -1.0229
 1365TIP3   OH2 4058   0.964   2.568   1.540  0.4335 -0.2340  0.0052
 1365TIP3    H1 4059   0.982   2.585   1.633 -0.5140  1.0333 -0.0206
 1365TIP3    H2 4060   0.988   2.476   1.528  1.2213 -0.2286  1.3379
 1366TIP3   OH2 4061   4.938   0.180   4.468  0.1590 -0.0317 -0.4147
 1366TIP3    H1 4062   5.030   0.157   4.455 -0.0898 -0.4223 -1.6031
 1366TIP3    H2 4063   4.893   0.140   4.394 -0.8395  1.0020 -0.3898
 1367TIP3   OH2 4064   1.831   5.901   1.601  0.1104 -0.2222 -0.1414
 1367TIP3    H1 4065   1.825   5.971   1.665  1.9807 -0.0115 -0.1166
 1367TIP3    H2 4066   1.881   5.832   1.645  3.0400  0.6322 -1.8322
 1368TIP3   OH2 4067   0.827   6.623   1.254 -0.0817  0.0743  0.0977
 1368TIP3    H1 4068   0.820   6.708   1.211 -1.3676 -0.2869 -0.4428
 1368TIP3    H2 4069   0.812   6.641   1.346 -0.3522  0.4295 -0.0150
 1369TIP3   OH2 4070   5.029   3.634   4.750  0.3405  0.3144  0.0646
 1369TIP3    H1 4071   5.008   3.570   4.683  1.6285  0.3581 -0.4145
 1369TIP3    H2 4072   4.954   3.692   4.753  0.3578  0.4585 -1.5247
 1370TIP3   OH2 4073   6.388   3.706   4.527  0.1474  0.4155 -0.0723
 1370TIP3    H1 4074   6.481   3.701   4.550 -0.3822 -0.9586  2.1456
 1370TIP3    H2 4075   6.362   3.615   4.513 -1.2880  0.5161  1.5434
 1371TIP3   OH2 4076   2.518   2.667   0.605  0.3207 -0.2434 -0.6860
 1371TIP3    H1 4077   2.598   2.684   0.655 -0.4402  0.4526  0.3380
 1371TIP3    H2 4078   2.488   2.582   0.637 -0.0450  0.1001 -0.0774
 1372TIP3   OH2 4079   0.999   0.532   5.123  0.7099 -0.0689 -0.0016
 1372TIP3    H1 4080   0.917   0.522   5.171  1.5407 -0.0261  1.4919
 1372TIP3    H2 4081   1.065   0.543   5.191  2.1896 -1.6691 -1.1013
 1373TIP3   OH2 4082   3.762   4.928   4.087  0.4161 -0.1660  0.3707
 1373TIP3    H1 4083   3.797   4.863   4.148  0.9481 -1.3988 -1.1684
 1373TIP3    H2 4084   3.687   4.965   4.132  1.1158 -0.6240  1.9887
 1374TIP3   OH2 4085   0.221   5.217   3.244  0.2944  0.0018  0.4909
 1374TIP3    H1 4086   0.270   5.135   3.234  0.9282  0.4561 -0.3002
 1374TIP3    H2 4087   0.155   5.198   3.310  1.9727 -0.4485  2.1212
 1375TIP3   OH2 4088   1.705   5.326   3.900 -0.0604 -0.4285 -0.1659
 1375TIP3    H1 4089   1.744   5.392   3.958 -0.6055 -1.4995  1.4967
 1375TIP3    H2 4090   1.773   5.309   3.834  0.7981  0.4522  0.4622
 1376TIP3   OH2 4091   1.776   3.650   3.025  0.4137  0.0683  0.4803
 1376TIP3    H1 4092   1.826   3.570   3.039  0.7396 -0.2345 -1.9208
 1376TIP3    H2 4093   1.737   3.669   3.110  0.5046 -2.5007  1.1830
 1377TIP3   OH2 4094   3.886   0.977   1.877 -0.1672 -0.0690 -0.3243
 1377TIP3    H1 4095   3.831   0.991   1.954  1.7485 -0.1914  1.1291
 1377TIP3    H2 4096   3.890   0.882   1.867 -1.6165 -0.0478 -1.5469
 1378TIP3   OH2 4097   7.222   2.027   1.362 -0.2542  0.5048 -0.0812
 1378TIP3    H1 4098   7.208   2.083   1.438 -1.3010 -1.1780  1.0429
 1378TIP3    H2 4099   7.135   2.015   1.325 -0.0335 -0.2272 -0.3853
 1379TIP3   OH2 4100   4.621   4.201   0.355  0.5627 -0.2190  0.4121
 1379TIP3    H1 4101   4.672   4.165   0.283  1.3273  2.5018 -0.5272
 1379TIP3    H2 4102   4.676   4.191   0.432  1.3634  0.2436 -0.0941
 1380TIP3   OH2 4103   1.904   0.340   1.664 -0.1833 -0.0341 -0.2451
 1380TIP3    H1 4104   1.955   0.360   1.585  0.2487 -0.7502 -0.1540
 1380TIP3    H2 4105   1.908   0.421   1.715 -0.6530  0.5186 -1.0462
 1381TIP3   OH2 4106   7.101   5.163   1.344 -0.1670  0.1496 -0.0032
 1381TIP3    H1 4107   7.086   5.107   1.268  0.3352 -0.8013  0.5827
 1381TIP3    H2 4108   7.016   5.170   1.387 -0.5915  1.1955 -0.9717
 1382TIP3   OH2 4109   4.823   3.058   0.756  0.1539 -0.5477  0.4161
 1382TIP3    H1 4110   4.851   3.082   0.845 -0.0524 -1.4802  0.7376
 1382TIP3    H2 4111   4.873   3.117   0.699  0.3128  0.0412  1.1435
 1383TIP3   OH2 4112   3.841   0.219   1.585 -0.4737 -0.0870 -0.1265
 1383TIP3    H1 4113   3.764   0.254   1.541 -0.1842 -0.7283 -1.1535
 1383TIP3    H2 4114   3.838   0.125   1.569  0.3058 -0.1687  0.1637
 1384TIP3   OH2 4115   1.566   2.567   0.761 -0.3797  0.3448 -0.6027
 1384TIP3    H1 4116   1.642   2.522   0.797 -0.9544 -0.1916 -0.0180
 1384TIP3    H2 4117   1.518   2.499   0.714 -0.3249  0.7508 -1.2468
 1385TIP3   OH2 4118   2.438   5.089   4.934 -0.1200  0.7557 -0.0747
 1385TIP3    H1 4119   2.438   5.183   4.948  1.9511  0.5820  1.5125
 1385TIP3    H2 4120   2.384   5.076   4.855 -1.7416  3.0711  0.5534
 1386TIP3   OH2 4121   1.182   6.600   5.230  0.6479 -0.1236 -0.1502
 1386TIP3    H1 4122   1.247   6.546   5.275 -0.0932 -1.0754 -0.1931
 1386TIP3    H2 4123   1.218   6.615   5.143  1.1433 -0.0246  0.0719
 1387TIP3   OH2 4124   3.013   5.958   3.697 -0.1838 -0.3813 -0.4303
 1387TIP3    H1 4125   3.069   5.881   3.694 -1.3044 -1.1980 -1.3586
 1387TIP3    H2 4126   2.962   5.954   3.616 -0.0271  1.5302 -0.6555
 1388TIP3   OH2 4127   5.158   6.623   3.447  0.5216 -1.1283 -0.2363
 1388TIP3    H1 4128   5.183   6.659   3.362  1.5002  0.3791  0.6310
 1388TIP3    H2 4129   5.079   6.673   3.472  0.3183 -1.4655 -0.2017
 1389TIP3   OH2 4130   1.933   2.621   1.402 -0.3377  0.0437 -0.0289
 1389TIP3    H1 4131   1.877   2.693   1.430 -0.7617 -0.0670 -0.5724
 1389TIP3    H2 4132   2.020   2.646   1.432  0.1964  2.4438 -3.0946
 1390TIP3   OH2 4133   4.322   4.762   4.464  0.2832 -0.4168  0.2459
 1390TIP3    H1 4134   4.289   4.851   4.456 -0.8177 -0.8129  0.1836
 1390TIP3    H2 4135   4.394   4.769   4.527 -0.2742  0.3948  0.8124
 1391TIP3   OH2 4136   2.954   5.504   1.501  0.0813 -0.1368  0.2421
 1391TIP3    H1 4137   2.945   5.409   1.504 -1.7165  0.0177  1.9116
 1391TIP3    H2 4138   2.958   5.525   1.408  1.9037 -1.9196 -0.1376
 1392TIP3   OH2 4139   6.440   0.299   5.764 -0.5366 -0.0162  0.3502
 1392TIP3    H1 4140   6.520   0.349   5.751  0.8006 -2.2907 -0.6255
 1392TIP3    H2 4141   6.370   0.363   5.751  1.0777  2.0078  1.1123
 1393TIP3   OH2 4142   3.814   4.721   3.886  0.1677 -0.7106  0.1801
 1393TIP3    H1 4143   3.782   4.789   3.946  0.0503 -2.0956  1.7842
 1393TIP3    H2 4144   3.909   4.724   3.894  0.1303 -2.0508  1.9245
 1394TIP3   OH2 4145   6.138   2.572   0.723 -0.7296 -0.2558  0.0202
 1394TIP3    H1 4146   6.185   2.489   0.725 -0.3896 -0.0661  1.1922
 1394TIP3    H2 4147   6.108   2.582   0.633  2.1213 -0.0386 -0.9943
 1395TIP3   OH2 4148   6.285   2.316   2.165 -0.3327  0.2686 -0.1150
 1395TIP3    H1 4149   6.336   2.269   2.099  0.9420 -0.3795  1.2501
 1395TIP3    H2 4150   6.336   2.396   2.181 -0.8250  0.5960 -0.1769
 1396TIP3   OH2 4151   2.968   6.388   1.480  1.1426 -0.1436  0.0477
 1396TIP3    H1 4152   2.879   6.383   1.447  1.0551 -0.0991  0.2770
 1396TIP3    H2 4153   2.964   6.450   1.553  1.4226  0.1040 -0.1437
 1397TIP3   OH2 4154   5.981   3.234   1.427 -0.1371 -0.0992 -0.0869
 1397TIP3    H1 4155   6.059   3.218   1.479 -0.2281  0.6366  0.2954
 1397TIP3    H2 4156   6.013   3.281   1.349  0.0228 -1.3589 -0.8015
 1398TIP3   OH2 4157   3.756   3.744   3.305 -0.2505  0.2328  0.5253
 1398TIP3    H1 4158   3.666   3.734   3.336 -0.3090 -2.2134 -0.2551
 1398TIP3    H2 4159   3.753   3.718   3.213  1.0103  1.6288  0.0408
 1399TIP3   OH2 4160   0.498   4.230   0.702  0.3302 -0.7429 -0.5686
 1399TIP3    H1 4161   0.410   4.198   0.718 -0.1877 -0.0151 -1.8465
 1399TIP3    H2 4162   0.550   4.194   0.774 -1.5826  1.3267  2.0949
 1400TIP3   OH2 4163   2.860   4.130   5.613 -0.1368  0.0077 -0.7163
 1400TIP3    H1 4164   2.793   4.104   5.551 -0.3612 -0.5269 -0.2523
 1400TIP3    H2 4165   2.843   4.223   5.629  1.1323  0.6941 -2.9479
 1401TIP3   OH2 4166   2.086   5.613   3.721 -0.2369 -0.0687 -0.6995
 1401TIP3    H1 4167   2.007   5.577   3.680 -2.8020  3.4891  0.6583
 1401TIP3    H2 4168   2.135   5.653   3.649 -0.9636 -0.1584 -1.2481
 1402TIP3   OH2 4169   6.238   4.466   4.030 -0.0975  0.1555  0.1923
 1402TIP3    H1 4170   6.260   4.488   4.120 -2.8546  1.1501  0.7227
 1402TIP3    H2 4171   6.204   4.376   4.034 -0.2331  0.2042  0.1462
 1403TIP3   OH2 4172   6.676   0.332   0.309 -0.2805  0.4622 -0.2773
 1403TIP3    H1 4173   6.707   0.263   0.368 -1.8493  1.1814  1.4836
 1403TIP3    H2 4174   6.756   0.375   0.279  0.5824  0.3062  1.6550
 1404TIP3   OH2 4175   5.619   2.429   5.500 -0.7458 -0.4916  0.1941
 1404TIP3    H1 4176   5.570   2.388   5.429  0.3041 -2.1956  0.3962
 1404TIP3    H2 4177   5.558   2.430   5.573 -1.3843  0.0131 -0.3270
 1405TIP3   OH2 4178   1.706   0.672   0.047 -0.2471  0.1853 -0.3824
 1405TIP3    H1 4179   1.649   0.719  -0.014 -1.6426 -0.2041  0.5723
 1405TIP3    H2 4180   1.692   0.715   0.132 -2.0403 -2.2409  0.6601
 1406TIP3   OH2 4181   4.600   5.353   3.814 -0.0517  0.2541 -0.0428
 1406TIP3    H1 4182   4.647   5.387   3.737  1.2314  0.4086  0.7831
 1406TIP3    H2 4183   4.648   5.389   3.889  0.4766 -2.1820  0.8654
 1407TIP3   OH2 4184   6.543   2.804   5.263  0.5555  0.2398 -1.0341
 1407TIP3    H1 4185   6.551   2.836   5.173  0.2095  1.3115 -0.6966
 1407TIP3    H2 4186   6.580   2.715   5.260  0.4753  0.2316 -2.2418
 1408TIP3   OH2 4187   4.316   2.655   4.447  0.1132  0.0548  0.0973
 1408TIP3    H1 4188   4.271   2.736   4.423  1.0256 -0.1314 -2.5469
 1408TIP3    H2 4189   4.400   2.683   4.482  0.4210  0.2654 -0.8019
 1409TIP3   OH2 4190   2.761   6.595   3.898 -0.2176  0.2138 -0.1980
 1409TIP3    H1 4191   2.847   6.575   3.862  0.1115 -1.0217  1.1473
 1409TIP3    H2 4192   2.774   6.592   3.993 -1.7592 -0.1509  0.0269
 1410TIP3   OH2 4193   4.198   2.928   1.251  0.1789  0.3947 -0.5003
 1410TIP3    H1 4194   4.158   2.847   1.219  2.1618 -0.7876 -0.2086
 1410TIP3    H2 4195   4.290   2.905   1.265  0.4431  2.2292  1.3161
 1411TIP3   OH2 4196   1.080   0.684   0.661  0.6788  0.0047  0.1962
 1411TIP3    H1 4197   1.099   0.756   0.721 -3.1073  1.0742  0.3747
 1411TIP3    H2 4198   1.053   0.612   0.717 -0.8429  0.3133 -0.1055
 1412TIP3   OH2 4199   2.847   0.403   4.802  0.1098 -0.0097 -0.9244
 1412TIP3    H1 4200   2.887   0.490   4.794 -0.4604  0.4694  0.9136
 1412TIP3    H2 4201   2.766   0.409   4.752 -0.7022  1.0778  0.4230
 1413TIP3   OH2 4202   5.337   2.824   5.702 -0.4536 -0.5401 -0.1349
 1413TIP3    H1 4203   5.315   2.864   5.785  1.3133  1.2486 -0.4482
 1413TIP3    H2 4204   5.258   2.830   5.649 -1.4638 -1.3258  1.2368
 1414TIP3   OH2 4205   3.037   2.741   1.421  0.3313 -0.1897  0.3051
 1414TIP3    H1 4206   3.051   2.723   1.514  0.0798  0.1687  0.4141
 1414TIP3    H2 4207   3.074   2.828   1.407  4.2645 -1.8144 -0.8551
 1415TIP3   OH2 4208   1.469   1.769   4.176 -0.4253  0.0388 -0.0459
 1415TIP3    H1 4209   1.445   1.682   4.146  1.7854 -0.4894 -0.4198
 1415TIP3    H2 4210   1.558   1.760   4.209 -0.1555  2.1515 -0.0441
 1416TIP3   OH2 4211   1.242   0.890   1.623 -0.4114  0.4268  0.3598
 1416TIP3    H1 4212   1.325   0.893   1.671  1.1230 -0.8597 -2.0218
 1416TIP3    H2 4213   1.252   0.955   1.553 -0.3177 -1.4733 -1.4774
 1417TIP3   OH2 4214   0.784   5.637   5.472 -0.3614  0.5960  0.3898
 1417TIP3    H1 4215   0.691   5.617   5.465 -0.1422 -0.8424  1.1331
 1417TIP3    H2 4216   0.788   5.729   5.497 -1.5482  0.8840 -0.4257
 1418TIP3   OH2 4217   4.016   3.554   2.886 -0.2193  0.3050  0.2995
 1418TIP3    H1 4218   4.055   3.634   2.851 -0.7409  0.7089  0.6378
 1418TIP3    H2 4219   3.994   3.575   2.977  2.8604 -1.3054  1.5898
 1419TIP3   OH2 4220   7.027   0.069   0.299  0.2033  0.2713 -0.0493
 1419TIP3    H1 4221   6.989   0.116   0.224 -2.0902  0.3545  1.0663
 1419TIP3    H2 4222   7.112   0.111   0.313 -0.2025  1.6271 -1.3524
 1420TIP3   OH2 4223   3.455   2.788   2.850  0.5150  0.2176 -0.2139
 1420TIP3    H1 4224   3.472   2.830   2.765  1.1695 -2.3629 -1.4391
 1420TIP3    H2 4225   3.476   2.696   2.837  1.2918 -0.1837  2.9683
 1421TIP3   OH2 4226   3.752   4.423   4.023  0.1565  0.1119  0.1482
 1421TIP3    H1 4227   3.845   4.437   4.002  0.1491 -0.7057 -0.4736
 1421TIP3    H2 4228   3.706   4.489   3.972  0.2842 -0.5880 -0.8986
 1422TIP3   OH2 4229   4.661   5.914   4.942  0.0238 -0.3265  0.0822
 1422TIP3    H1 4230   4.606   5.961   4.879  0.1748 -0.1168  0.1071
 1422TIP3    H2 4231   4.711   5.982   4.986 -0.9417 -0.3611  1.2880
 1423TIP3   OH2 4232   2.277   2.249   3.776 -0.0955 -0.3560  0.1285
 1423TIP3    H1 4233   2.346   2.189   3.805  0.0470 -0.6847 -0.8505
 1423TIP3    H2 4234   2.317   2.299   3.704 -0.6365 -0.0170  0.0536
 1424TIP3   OH2 4235   6.136   3.421   0.083  0.2463 -0.2577 -0.1239
 1424TIP3    H1 4236   6.137   3.513   0.055 -1.4708 -0.2307 -0.2212
 1424TIP3    H2 4237   6.223   3.388   0.060  1.1944  1.5460  0.6685
 1425TIP3   OH2 4238   0.970   4.012   2.284 -0.5394  0.2373  0.1111
 1425TIP3    H1 4239   1.036   4.047   2.224  0.9441 -0.4650  1.2769
 1425TIP3    H2 4240   0.915   3.957   2.229 -0.2051  0.8896 -0.9024
 1426TIP3   OH2 4241   0.381   2.784   0.951  0.0934 -0.6334  0.0733
 1426TIP3    H1 4242   0.289   2.801   0.969  0.2090  0.2659 -0.1238
 1426TIP3    H2 4243   0.422   2.870   0.949  0.4181 -0.7724 -2.6180
 1427TIP3   OH2 4244   6.071   2.249   0.509  0.4108  0.0960 -0.6997
 1427TIP3    H1 4245   6.116   2.280   0.588 -1.9987  0.5588  0.5783
 1427TIP3    H2 4246   6.063   2.155   0.521 -2.0336  0.4336  0.8400
 1428TIP3   OH2 4247   0.522   2.056   2.945 -0.1192  0.0363 -0.1376
 1428TIP3    H1 4248   0.514   2.131   3.004  2.0436 -0.1549  0.4815
 1428TIP3    H2 4249   0.554   2.094   2.863 -1.8435  0.1236 -0.8136
 1429TIP3   OH2 4250   0.178   4.801   2.580  0.6853  0.3390  0.0495
 1429TIP3    H1 4251   0.125   4.797   2.501  1.6202 -0.6033 -0.5601
 1429TIP3    H2 4252   0.268   4.811   2.549  0.8451  2.8116  1.0786
 1430TIP3   OH2 4253   7.145   2.071   0.078  0.4161  0.8781 -0.5898
 1430TIP3    H1 4254   7.121   1.980   0.060  0.5317  0.6431  0.3477
 1430TIP3    H2 4255   7.222   2.087   0.024  0.9423  0.1115 -0.1007
 1431TIP3   OH2 4256   0.857   1.895   0.241  0.0375  0.2044  0.5227
 1431TIP3    H1 4257   0.899   1.977   0.217  1.3027 -0.8936 -1.2998
 1431TIP3    H2 4258   0.875   1.884   0.334  0.0805  1.8268  0.7311
 1432TIP3   OH2 4259   0.787   1.627   4.460  0.3273 -0.3303 -0.9917
 1432TIP3    H1 4260   0.866   1.678   4.476 -1.2278  1.9675 -0.1066
 1432TIP3    H2 4261   0.715   1.689   4.473 -1.6292 -2.1728 -2.3219
 1433TIP3   OH2 4262   4.672   1.637   2.038 -0.1013 -0.3436  0.2070
 1433TIP3    H1 4263   4.634   1.595   1.961  0.9190 -0.6060 -0.1751
 1433TIP3    H2 4264   4.703   1.565   2.092 -0.8272 -0.1586  0.8828
 1434TIP3   OH2 4265   3.985   3.904   2.996 -0.1285  0.5268 -0.0319
 1434TIP3    H1 4266   3.974   3.843   3.070 -1.0810  0.7987  0.0699
 1434TIP3    H2 4267   4.077   3.896   2.972  0.0627  0.0026  0.8145
 1435TIP3   OH2 4268   3.815   4.988   3.048  0.5124  0.5089 -0.5652
 1435TIP3    H1 4269   3.805   5.083   3.047  0.1987  0.4876  0.2309
 1435TIP3    H2 4270   3.883   4.971   2.982  1.1569  1.3581 -0.1500
 1436TIP3   OH2 4271   2.785   4.695   2.616  0.0425 -0.0238  0.2772
 1436TIP3    H1 4272   2.820   4.607   2.605 -1.1006 -0.5604  0.8120
 1436TIP3    H2 4273   2.847   4.739   2.673  0.8087 -0.3553 -0.2834
 1437TIP3   OH2 4274   6.166   2.991   2.547 -0.4751 -0.0797 -0.2790
 1437TIP3    H1 4275   6.159   2.902   2.581  0.7777 -1.0050 -2.2577
 1437TIP3    H2 4276   6.212   3.039   2.615 -1.9209 -0.6811  1.1882
 1438TIP3   OH2 4277   0.592   5.405   3.929  0.5120  0.3856  0.0096
 1438TIP3    H1 4278   0.620   5.419   3.839 -0.3053 -0.9198 -0.4764
 1438TIP3    H2 4279   0.554   5.317   3.929  0.2481  0.4730  1.5660
 1439TIP3   OH2 4280   4.627   2.190   4.103  0.1725  0.2754  0.0931
 1439TIP3    H1 4281   4.712   2.231   4.116  0.0422  1.5730 -2.5335
 1439TIP3    H2 4282   4.646   2.096   4.097  1.1808  0.4129  0.9279
 1440TIP3   OH2 4283   1.169   3.940   1.665 -0.5408 -0.6596  0.0595
 1440TIP3    H1 4284   1.165   3.850   1.695  0.0180 -0.6746  0.0887
 1440TIP3    H2 4285   1.082   3.975   1.683 -1.4360 -1.7693 -1.7834
 1441TIP3   OH2 4286   1.798   6.079   4.230  0.5768  0.9486  0.2792
 1441TIP3    H1 4287   1.893   6.088   4.216  0.5236  0.1671 -0.7026
 1441TIP3    H2 4288   1.788   6.078   4.325  1.6407  0.3840  0.4022
 1442TIP3   OH2 4289   4.248   3.019   0.728  0.3803 -0.0804 -0.2051
 1442TIP3    H1 4290   4.220   3.083   0.793 -2.1002 -0.3886 -0.8461
 1442TIP3    H2 4291   4.337   3.043   0.706 -1.1341  4.8328 -2.2539
 1443TIP3   OH2 4292   1.723   6.743   2.932 -0.2328 -0.4471 -0.1460
 1443TIP3    H1 4293   1.695   6.792   3.009 -0.1748 -0.0719 -0.3649
 1443TIP3    H2 4294   1.699   6.652   2.952  1.1502 -0.6171  0.9909
 1444TIP3   OH2 4295   6.816   1.390   4.354  0.1034  0.2377  0.7628
 1444TIP3    H1 4296   6.767   1.337   4.417  0.5827  2.1082  2.8120
 1444TIP3    H2 4297   6.894   1.418   4.401  0.7123  1.3748 -0.8242
 1445TIP3   OH2 4298   6.703   6.268   0.382 -0.1790  0.3768  0.2052
 1445TIP3    H1 4299   6.619   6.229   0.407 -0.1011 -0.8158 -1.2169
 1445TIP3    H2 4300   6.763   6.243   0.451 -0.9177  1.0598  1.1327
 1446TIP3   OH2 4301   1.304   6.493   4.829 -0.1586  0.5139 -0.1915
 1446TIP3    H1 4302   1.329   6.419   4.775 -0.1169  0.8864 -0.6944
 1446TIP3    H2 4303   1.327   6.570   4.776 -1.0984  0.8731 -0.0879
 1447TIP3   OH2 4304   3.473   1.233   5.123  0.6003  0.2545 -0.1628
 1447TIP3    H1 4305   3.520   1.163   5.169  2.9566  1.6819 -0.2153
 1447TIP3    H2 4306   3.478   1.209   5.030 -1.5544 -1.1219  0.0100
 1448TIP3   OH2 4307   6.423   0.225   0.887  0.2796  0.0517 -0.1660
 1448TIP3    H1 4308   6.426   0.152   0.950 -1.1790 -0.4772 -0.6644
 1448TIP3    H2 4309   6.501   0.213   0.833  0.5674 -0.5713  0.3709
 1449TIP3   OH2 4310   5.249   5.714   0.340  0.1200  0.2519  0.0652
 1449TIP3    H1 4311   5.327   5.669   0.371 -0.7590 -0.6286  1.1174
 1449TIP3    H2 4312   5.230   5.674   0.255  0.1607 -0.3858  0.3481
 1450TIP3   OH2 4313   3.627   3.303   2.105  0.4311 -0.5500 -0.7043
 1450TIP3    H1 4314   3.646   3.365   2.034  0.2234 -0.6432 -0.8420
 1450TIP3    H2 4315   3.624   3.218   2.062  0.9734 -0.6912 -0.4717
 1451TIP3   OH2 4316   6.914   6.396   4.947 -0.4401  0.0693 -0.1953
 1451TIP3    H1 4317   6.886   6.307   4.929 -2.6360  0.6467  0.0602
 1451TIP3    H2 4318   6.835   6.440   4.978  0.7613  1.9104  0.4113
 1452TIP3   OH2 4319   0.015   3.638   5.572  0.4510  0.0973  0.4003
 1452TIP3    H1 4320  -0.049   3.581   5.530  0.1106  1.1705 -0.5881
 1452TIP3    H2 4321   0.087   3.644   5.510  1.0658 -0.2586  1.0547
 1453TIP3   OH2 4322   3.481   0.951   3.646 -0.7136 -0.6895  0.0459
 1453TIP3    H1 4323   3.500   0.928   3.555 -2.3516 -1.2124 -0.1999
 1453TIP3    H2 4324   3.515   0.877   3.697 -0.3990 -0.7160 -0.1980
 1454TIP3   OH2 4325   0.136   3.126   3.642 -0.8495  0.6886  0.4872
 1454TIP3    H1 4326   0.108   3.069   3.713  0.2055 -2.1495 -1.2257
 1454TIP3    H2 4327   0.174   3.202   3.686 -1.0506 -0.5300  2.9258
 1455TIP3   OH2 4328   1.327   4.783   5.118 -0.0681 -0.7272 -0.3242
 1455TIP3    H1 4329   1.410   4.784   5.070 -0.6383  0.1352 -1.3496
 1455TIP3    H2 4330   1.260   4.788   5.050 -1.0578 -3.0651  0.3782
 1456TIP3   OH2 4331   0.622   4.226   0.436  0.5998  0.0999  0.1603
 1456TIP3    H1 4332   0.688   4.175   0.389  0.8965  0.3142  0.3436
 1456TIP3    H2 4333   0.623   4.192   0.525 -0.2724 -0.6035 -0.0919
 1457TIP3   OH2 4334   1.913   3.363   1.995 -0.3857  0.6532  0.8160
 1457TIP3    H1 4335   1.885   3.435   1.939  0.3617 -1.3307 -2.3667
 1457TIP3    H2 4336   2.009   3.368   1.995 -0.1647 -1.5019 -1.3932
 1458TIP3   OH2 4337   6.562   0.968   4.221 -0.3917  0.6263  0.1687
 1458TIP3    H1 4338   6.488   1.022   4.193 -0.6320  0.7553  1.0226
 1458TIP3    H2 4339   6.637   1.002   4.172 -0.7550  0.9705 -0.1588
 1459TIP3   OH2 4340   4.857   2.096   4.619 -0.0414 -0.4530 -0.8994
 1459TIP3    H1 4341   4.839   2.075   4.527 -1.5106  0.0324 -0.7447
 1459TIP3    H2 4342   4.909   2.022   4.650  0.7378 -0.4894 -2.1891
 1460TIP3   OH2 4343   4.920   3.934   2.354  0.0681  0.4876 -0.0140
 1460TIP3    H1 4344   4.861   3.900   2.287  1.3382 -0.0207 -0.9182
 1460TIP3    H2 4345   4.989   3.868   2.361  1.0585  1.5201  0.2691
 1461TIP3   OH2 4346   0.031   2.120   0.816  0.7758 -0.4881 -0.3356
 1461TIP3    H1 4347  -0.054   2.108   0.858  0.2244 -0.0225 -1.2847
 1461TIP3    H2 4348   0.027   2.065   0.738  0.1824  1.7340 -1.9810
 1462TIP3   OH2 4349   1.257   5.244   5.647  0.3200  0.3428  0.0222
 1462TIP3    H1 4350   1.274   5.169   5.704  1.3924  0.9677  0.5646
 1462TIP3    H2 4351   1.219   5.206   5.567  1.3323 -0.8325  0.0704
 1463TIP3   OH2 4352   1.472   0.784   4.594 -0.0284 -0.3046 -0.0382
 1463TIP3    H1 4353   1.503   0.696   4.572  0.1336 -0.5861  1.2400
 1463TIP3    H2 4354   1.377   0.779   4.581  0.1441 -0.1439 -1.6188
 1464TIP3   OH2 4355   1.828   5.328   0.886  0.0218 -0.0477 -0.0679
 1464TIP3    H1 4356   1.853   5.311   0.977  2.3466 -3.2975 -1.1132
 1464TIP3    H2 4357   1.907   5.308   0.836 -1.5412  0.4406 -2.9076
 1465TIP3   OH2 4358   2.333   1.872   0.219  0.0555 -0.5253 -0.2409
 1465TIP3    H1 4359   2.388   1.949   0.233 -0.6059  0.0187 -0.5404
 1465TIP3    H2 4360   2.383   1.799   0.255 -0.2328  0.3379  2.0906
 1466TIP3   OH2 4361   5.293   0.442   0.441 -0.1262 -0.0953 -0.0786
 1466TIP3    H1 4362   5.278   0.446   0.347 -1.6340 -1.7194  0.0380
 1466TIP3    H2 4363   5.210   0.473   0.480 -0.0152 -0.7488  0.6931
 1467TIP3   OH2 4364   5.466   6.293   2.124 -0.4748  0.2694  0.4933
 1467TIP3    H1 4365   5.384   6.339   2.139 -0.9353 -0.7650  1.2645
 1467TIP3    H2 4366   5.440   6.209   2.085  0.4095  1.0761 -2.0787
 1468TIP3   OH2 4367   4.787   2.742   2.016 -0.3559 -0.5615  0.1529
 1468TIP3    H1 4368   4.787   2.730   2.111 -0.4125 -2.0742 -0.0093
 1468TIP3    H2 4369   4.863   2.691   1.985 -1.0426 -1.1056 -0.7062
 1469TIP3   OH2 4370   5.976   2.267   3.637 -0.1186  0.2724 -0.6007
 1469TIP3    H1 4371   6.011   2.222   3.560  2.3269 -2.1329  1.7087
 1469TIP3    H2 4372   6.038   2.338   3.654 -0.1378  0.2152 -0.2883
 1470TIP3   OH2 4373   5.368   0.560   3.158  0.0721  0.8100 -0.5336
 1470TIP3    H1 4374   5.273   0.573   3.161 -0.1846 -0.9661  0.1338
 1470TIP3    H2 4375   5.404   0.648   3.142 -1.5598  1.8979  1.3135
 1471TIP3   OH2 4376   6.889   3.712   3.369  0.7153 -0.2442 -0.3116
 1471TIP3    H1 4377   6.873   3.759   3.287 -1.6806 -0.0907  0.1708
 1471TIP3    H2 4378   6.932   3.777   3.425 -0.6667  0.7589 -0.3511
 1472TIP3   OH2 4379   3.601   5.698   2.051  0.1028  0.1548 -0.3017
 1472TIP3    H1 4380   3.594   5.794   2.052  1.0315  0.2604 -1.3442
 1472TIP3    H2 4381   3.631   5.678   1.962  3.0417 -0.8615  0.8292
 1473TIP3   OH2 4382   3.175   5.386   0.010  0.0609 -0.4415  0.3872
 1473TIP3    H1 4383   3.125   5.468   0.003 -0.2945 -0.7061 -0.3075
 1473TIP3    H2 4384   3.220   5.392   0.094 -1.3518 -0.3198  1.1646
 1474TIP3   OH2 4385   5.422   5.129   0.073 -1.0468  0.1967  0.2438
 1474TIP3    H1 4386   5.343   5.084   0.104 -0.0359 -0.2882  2.2742
 1474TIP3    H2 4387   5.474   5.061   0.031 -1.8905  0.6299 -1.6497
 1475TIP3   OH2 4388   2.728   2.335   0.491  0.2905  0.1142 -0.0530
 1475TIP3    H1 4389   2.712   2.400   0.559  0.7150  0.1168  0.0476
 1475TIP3    H2 4390   2.718   2.251   0.536  0.3757  0.1147 -0.0330
 1476TIP3   OH2 4391   0.658   1.110   1.711  0.8325 -0.2142 -0.0185
 1476TIP3    H1 4392   0.632   1.024   1.742  1.4625  0.3256  2.2573
 1476TIP3    H2 4393   0.749   1.119   1.741  0.1735  1.9524  1.6503
 1477TIP3   OH2 4394   6.523   4.743   3.877  0.0705 -0.3352  0.3958
 1477TIP3    H1 4395   6.530   4.838   3.867 -1.8874 -0.1319  0.4589
 1477TIP3    H2 4396   6.432   4.724   3.854  0.3720 -2.1805  0.5854
 1478TIP3   OH2 4397   3.440   1.355   3.612  0.4665 -0.5140  0.0184
 1478TIP3    H1 4398   3.534   1.364   3.628  0.1737  0.2938  1.4347
 1478TIP3    H2 4399   3.429   1.379   3.520  1.1955  3.2803  0.7557
 1479TIP3   OH2 4400   3.142   6.594   5.750 -0.3775  0.0137 -0.2310
 1479TIP3    H1 4401   3.059   6.557   5.720 -1.0734 -0.0545  1.6361
 1479TIP3    H2 4402   3.126   6.618   5.841  2.0912 -1.3423  0.6462
 1480TIP3   OH2 4403   3.268   3.970   4.473 -0.0212  0.3977  0.1268
 1480TIP3    H1 4404   3.234   4.038   4.415 -0.2313  2.7307  2.7783
 1480TIP3    H2 4405   3.362   3.988   4.478 -0.0710  0.4721  0.8204
 1481TIP3   OH2 4406   7.053   5.126   2.655  0.3912 -0.0156 -0.0145
 1481TIP3    H1 4407   7.072   5.046   2.704  0.2711 -0.1437 -0.1731
 1481TIP3    H2 4408   6.957   5.127   2.649  0.4392 -0.4424 -0.9702
 1482TIP3   OH2 4409   4.329   2.243   4.566 -0.0494 -0.5432 -0.3519
 1482TIP3    H1 4410   4.396   2.247   4.498  1.2886  0.4992  0.9647
 1482TIP3    H2 4411   4.306   2.151   4.572  0.0271 -0.6944 -1.9897
 1483TIP3   OH2 4412   5.749   6.214   0.595  0.2510  0.8627  0.4112
 1483TIP3    H1 4413   5.755   6.305   0.625  1.8840  0.7113  0.6621
 1483TIP3    H2 4414   5.803   6.211   0.517 -0.6656  0.3270 -0.2160
 1484TIP3   OH2 4415   4.454   0.321   4.106  0.3745  0.2038  0.7950
 1484TIP3    H1 4416   4.519   0.369   4.157  0.7543 -0.2034  0.6944
 1484TIP3    H2 4417   4.505   0.265   4.047 -0.0518 -0.6560  1.2163
 1485TIP3   OH2 4418   5.035   3.211   5.713  0.0745  0.3871 -0.4814
 1485TIP3    H1 4419   5.011   3.119   5.699 -0.1995  0.3238  0.3714
 1485TIP3    H2 4420   5.094   3.232   5.641  1.5921 -0.9852  0.3110
 1486TIP3   OH2 4421   6.350   2.444   2.477 -0.4650 -0.3071 -0.5072
 1486TIP3    H1 4422   6.378   2.530   2.507  0.4167 -1.0626  0.9226
 1486TIP3    H2 4423   6.275   2.462   2.419 -0.2245  1.4018 -0.3282
 1487TIP3   OH2 4424   6.447   2.901   2.649  0.4541  0.0237 -0.1038
 1487TIP3    H1 4425   6.502   2.914   2.726 -0.1618 -0.1232  0.3661
 1487TIP3    H2 4426   6.445   2.986   2.606  0.4264  0.2239  0.2928
 1488TIP3   OH2 4427   6.954   1.758   2.580  0.1798 -0.0412 -0.0080
 1488TIP3    H1 4428   7.023   1.694   2.601 -0.0226 -0.6894 -1.2140
 1488TIP3    H2 4429   6.877   1.727   2.627  0.2555 -0.3352 -0.0720
 1489TIP3   OH2 4430   0.729   2.287   5.808  0.3215 -0.5940 -0.2672
 1489TIP3    H1 4431   0.792   2.268   5.877 -1.5837 -0.8356  1.5174
 1489TIP3    H2 4432   0.735   2.382   5.795  1.4132 -0.6912 -0.5141
 1490TIP3   OH2 4433   5.710   1.570   4.621  0.0128  0.1128 -0.0206
 1490TIP3    H1 4434   5.757   1.540   4.698  2.0978  1.5668 -0.6602
 1490TIP3    H2 4435   5.635   1.620   4.656  1.3865  1.4630  1.1220
 1491TIP3   OH2 4436   1.152   4.717   0.052  0.2703  0.1897  0.1558
 1491TIP3    H1 4437   1.066   4.680   0.071  0.6923 -0.3946  0.9770
 1491TIP3    H2 4438   1.173   4.684  -0.035  0.0145 -0.3154  0.2839
 1492TIP3   OH2 4439   4.282   4.796   1.127  0.2559  0.0798  0.2240
 1492TIP3    H1 4440   4.187   4.795   1.113 -0.1998 -0.4664  2.8285
 1492TIP3    H2 4441   4.299   4.719   1.181  1.8461  1.3082  1.5933
 1493TIP3   OH2 4442   6.958   6.732   5.820  0.2344 -0.0017  0.1343
 1493TIP3    H1 4443   6.922   6.815   5.790 -0.6507 -0.2496  0.4815
 1493TIP3    H2 4444   6.894   6.666   5.794  0.8485 -0.5650  0.0073
 1494TIP3   OH2 4445   0.194   4.231   4.831  0.1553 -0.1334  0.3216
 1494TIP3    H1 4446   0.156   4.295   4.771  0.6375 -1.1108 -1.0708
 1494TIP3    H2 4447   0.123   4.212   4.893 -0.2606  1.0973  0.2712
 1495TIP3   OH2 4448   1.771   6.087   5.383  0.2936  0.1593 -0.4803
 1495TIP3    H1 4449   1.785   5.992   5.377  0.6307 -0.2353  3.6618
 1495TIP3    H2 4450   1.676   6.096   5.392  0.4125 -0.1038  1.4806
 1496TIP3   OH2 4451   2.261   0.550   2.833 -0.2342 -0.7551  0.1088
 1496TIP3    H1 4452   2.215   0.623   2.873 -1.0300 -1.6527  0.9018
 1496TIP3    H2 4453   2.344   0.545   2.879  0.2695  0.2800 -0.6656
 1497TIP3   OH2 4454   0.212   5.992   0.433  0.1486  0.0178 -0.6881
 1497TIP3    H1 4455   0.231   5.957   0.520 -1.0392  1.8269  0.3659
 1497TIP3    H2 4456   0.129   6.038   0.443  0.8626  1.8072 -2.3096
 1498TIP3   OH2 4457   3.490   6.304   1.263 -0.0307  0.3536 -0.3249
 1498TIP3    H1 4458   3.568   6.311   1.208  0.3664  0.4854  0.2396
 1498TIP3    H2 4459   3.464   6.395   1.279 -0.1392  0.3165 -0.2904
 1499TIP3   OH2 4460   0.976   3.741   0.758 -0.2438 -0.0063 -0.4151
 1499TIP3    H1 4461   0.931   3.735   0.674 -1.0889 -0.5707  0.0616
 1499TIP3    H2 4462   1.036   3.666   0.759  0.4226  0.5115 -0.8790
 1500TIP3   OH2 4463   0.674   2.824   4.434  0.6695 -0.4525 -0.8491
 1500TIP3    H1 4464   0.726   2.838   4.513  0.6923  1.1683 -1.1266
 1500TIP3    H2 4465   0.647   2.911   4.407 -1.6422 -1.1802 -1.0999
 1501TIP3   OH2 4466   3.561   0.204   3.607  0.2971 -0.4187  0.1926
 1501TIP3    H1 4467   3.515   0.249   3.536  3.5372  0.6838 -1.4396
 1501TIP3    H2 4468   3.638   0.165   3.565  2.2255 -0.0101  3.0190
 1502TIP3   OH2 4469   5.034   2.858   2.188  0.0379  0.4511 -0.2497
 1502TIP3    H1 4470   5.068   2.858   2.277  0.3963 -0.2374 -0.3812
 1502TIP3    H2 4471   5.101   2.813   2.136 -2.4591 -4.1551  0.0508
 1503TIP3   OH2 4472   4.772   4.555   2.830  0.1310 -0.5047 -0.4310
 1503TIP3    H1 4473   4.847   4.511   2.869  0.4452 -0.2532 -0.7489
 1503TIP3    H2 4474   4.804   4.642   2.807 -1.0954  0.8031  2.3411
 1504TIP3   OH2 4475   1.179   3.912   2.654  0.6320  0.3641  0.1779
 1504TIP3    H1 4476   1.121   3.839   2.636  1.7944 -0.3317 -0.9830
 1504TIP3    H2 4477   1.223   3.889   2.736 -0.3628  0.6692  0.8033
 1505TIP3   OH2 4478   5.175   6.179   5.106  0.0663 -0.8534  0.0432
 1505TIP3    H1 4479   5.102   6.159   5.048 -0.0729 -1.1847  0.3280
 1505TIP3    H2 4480   5.148   6.257   5.155  0.4435 -0.1887 -0.7824
 1506TIP3   OH2 4481   0.447   6.203   2.899  0.0467  0.3929  0.3187
 1506TIP3    H1 4482   0.523   6.160   2.939  0.8177  0.9021 -0.5391
 1506TIP3    H2 4483   0.422   6.272   2.961  0.2884  0.2224  0.6054
 1507TIP3   OH2 4484   1.114   5.653   2.984 -0.2522  0.1241  0.1861
 1507TIP3    H1 4485   1.026   5.655   2.948 -0.0481 -1.2855 -0.4498
 1507TIP3    H2 4486   1.102   5.641   3.078 -0.7423 -1.5267 -0.0594
 1508TIP3   OH2 4487   4.151   6.805   4.452  0.4818  0.5077  0.3813
 1508TIP3    H1 4488   4.221   6.802   4.518  0.4898 -1.9753  0.3506
 1508TIP3    H2 4489   4.077   6.762   4.494  1.1703 -3.2939 -1.8451
 1509TIP3   OH2 4490   0.221   0.024   2.628  0.1144  0.3294  0.3017
 1509TIP3    H1 4491   0.303   0.049   2.586  1.0865  0.8365  2.3717
 1509TIP3    H2 4492   0.188   0.105   2.666 -1.3276  0.1097 -0.4181
 1510TIP3   OH2 4493   4.452   3.127   2.779 -0.2015 -0.1616 -0.7103
 1510TIP3    H1 4494   4.536   3.099   2.743  0.3336  1.0518 -0.4252
 1510TIP3    H2 4495   4.460   3.111   2.873 -2.2680 -5.1519 -1.0305
 1511TIP3   OH2 4496   0.816   2.375   1.318 -0.3867 -0.4951 -0.0541
 1511TIP3    H1 4497   0.819   2.310   1.247  0.2170 -0.4383 -0.0820
 1511TIP3    H2 4498   0.881   2.345   1.381 -1.7090 -1.1686  1.0355
 1512TIP3   OH2 4499   1.692   4.449   4.859  0.1946  0.4160 -0.2146
 1512TIP3    H1 4500   1.603   4.428   4.888  0.5650 -1.1923 -0.1734
 1512TIP3    H2 4501   1.747   4.384   4.901  1.1387  0.0256 -1.9578
 1513TIP3   OH2 4502   0.735   3.373   4.514 -0.9187  0.1738 -0.2743
 1513TIP3    H1 4503   0.829   3.384   4.522 -0.8989 -0.3782  0.3500
 1513TIP3    H2 4504   0.702   3.460   4.493 -0.0131 -0.1020 -3.2371
 1514TIP3   OH2 4505   3.459   0.137   5.294  0.5179  0.0511 -0.6426
 1514TIP3    H1 4506   3.542   0.135   5.246  0.8580  2.0016 -0.2212
 1514TIP3    H2 4507   3.392   0.150   5.227  0.8550  1.3021 -0.7643
 1515TIP3   OH2 4508   2.513   3.725   0.907 -0.3115 -0.0922 -0.5295
 1515TIP3    H1 4509   2.483   3.740   0.817  1.0877  0.7399 -0.8840
 1515TIP3    H2 4510   2.461   3.786   0.960  0.0414  0.6546 -1.0148
 1516TIP3   OH2 4511   3.832   6.309   5.428 -0.1281 -0.0444  0.4037
 1516TIP3    H1 4512   3.842   6.227   5.380  0.1999  0.9486 -1.3283
 1516TIP3    H2 4513   3.747   6.302   5.471  0.7595 -2.0719  1.9798
 1517TIP3   OH2 4514   5.961  -0.004   2.930 -0.5509  0.3157  0.7265
 1517TIP3    H1 4515   5.969   0.023   3.021 -3.0113  1.1236  0.7933
 1517TIP3    H2 4516   5.919   0.071   2.887 -0.4497 -0.4749 -0.8357
 1518TIP3   OH2 4517   2.858   0.652   2.871  0.4005 -0.4091  0.2153
 1518TIP3    H1 4518   2.866   0.557   2.869  2.1958 -0.2931 -1.6545
 1518TIP3    H2 4519   2.934   0.682   2.921  1.8646  0.1009 -2.1575
 1519TIP3   OH2 4520   4.120   3.314   4.604  0.4939  0.8850 -0.3610
 1519TIP3    H1 4521   4.190   3.347   4.661  0.4026 -0.6941  0.7354
 1519TIP3    H2 4522   4.069   3.392   4.582  1.2250  1.7276  0.7521
 1520TIP3   OH2 4523   6.705   0.635   1.248  0.5617  0.7113 -1.0550
 1520TIP3    H1 4524   6.670   0.578   1.180  1.1101  0.6477 -1.2895
 1520TIP3    H2 4525   6.675   0.594   1.330 -1.2051  1.5077 -1.2520
 1521TIP3   OH2 4526   2.169   2.397   0.703  0.1646 -0.5857  0.9218
 1521TIP3    H1 4527   2.219   2.403   0.785  0.0755  0.2385  0.9187
 1521TIP3    H2 4528   2.102   2.465   0.710 -1.7488 -2.4050  1.4409
 1522TIP3   OH2 4529   5.948   3.268   3.641  0.0974 -0.2851  0.0182
 1522TIP3    H1 4530   5.946   3.269   3.546 -2.4666  0.5373  0.0043
 1522TIP3    H2 4531   5.970   3.177   3.663 -1.0172 -0.9366 -1.3821
 1523TIP3   OH2 4532   1.806   2.070   3.686  0.0920  0.8717  0.0534
 1523TIP3    H1 4533   1.781   2.078   3.594  1.6099  0.0496 -0.4758
 1523TIP3    H2 4534   1.891   2.114   3.691  0.5997 -0.1468  0.7677
 1524TIP3   OH2 4535   5.283   6.625   1.342  0.4032 -0.0660 -0.3636
 1524TIP3    H1 4536   5.237   6.562   1.286 -1.9600  1.8793 -0.7491
 1524TIP3    H2 4537   5.252   6.605   1.430  0.1056  0.1853 -0.4114
 1525TIP3   OH2 4538   2.663   6.411   2.483 -0.5098  0.0555  0.3339
 1525TIP3    H1 4539   2.640   6.332   2.531 -1.7596  1.2177  1.7441
 1525TIP3    H2 4540   2.732   6.452   2.535 -0.5841  0.4057  0.1649
 1526TIP3   OH2 4541   1.083   3.316   1.622 -0.2488  0.1405  0.4687
 1526TIP3    H1 4542   1.087   3.382   1.691 -1.6715  1.5150 -0.7000
 1526TIP3    H2 4543   1.056   3.364   1.544  0.7864 -1.4689 -0.9545
 1527TIP3   OH2 4544   6.509   5.574   4.283  0.1033  0.1706 -0.5760
 1527TIP3    H1 4545   6.530   5.581   4.189  1.7279 -0.4335 -0.2948
 1527TIP3    H2 4546   6.592   5.593   4.327 -0.0105 -1.9051  0.6650
 1528TIP3   OH2 4547   0.168   6.423   3.825  0.7167 -0.5554  0.3517
 1528TIP3    H1 4548   0.151   6.441   3.918 -2.0045 -4.0621  0.7715
 1528TIP3    H2 4549   0.256   6.385   3.825  1.5907  1.3524  1.1137
 1529TIP3   OH2 4550   3.713   0.187   5.166  0.4676 -0.3407  0.1912
 1529TIP3    H1 4551   3.735   0.104   5.123  1.9318 -0.3225  0.8700
 1529TIP3    H2 4552   3.694   0.247   5.094 -1.8120 -1.5169 -0.3221
 1530TIP3   OH2 4553   1.537   3.836   0.631 -0.2739 -0.2799 -0.1959
 1530TIP3    H1 4554   1.491   3.889   0.566 -1.3079 -0.4995  0.3317
 1530TIP3    H2 4555   1.472   3.821   0.700  1.3393  1.7220  1.9544
 1531TIP3   OH2 4556   5.786   5.710   2.006 -0.2005  1.0000 -0.7468
 1531TIP3    H1 4557   5.753   5.643   1.946 -3.3817 -1.1089  2.8999
 1531TIP3    H2 4558   5.711   5.766   2.024  0.8778  2.1147  0.5943
 1532TIP3   OH2 4559   4.221   6.625   0.477 -0.2419 -0.4497 -0.1040
 1532TIP3    H1 4560   4.128   6.639   0.457 -0.2740 -1.2443 -0.5406
 1532TIP3    H2 4561   4.268   6.666   0.404 -0.0990  2.5242  1.4842
 1533TIP3   OH2 4562   1.214   1.325   3.215  0.0848  0.4196 -0.0326
 1533TIP3    H1 4563   1.139   1.286   3.170 -0.0824  0.8447 -0.1284
 1533TIP3    H2 4564   1.250   1.254   3.269 -0.2855  0.1709 -0.1121
 1534TIP3   OH2 4565   6.756   2.772   0.045  0.1530 -0.0129 -0.1784
 1534TIP3    H1 4566   6.826   2.837   0.044  0.7067 -0.5364  1.0827
 1534TIP3    H2 4567   6.728   2.765  -0.046 -1.9130  4.0192 -0.0451
 1535TIP3   OH2 4568   0.983   4.979   5.143  0.4030 -0.2386  0.0309
 1535TIP3    H1 4569   0.906   5.021   5.104  0.3759  1.0633  1.3859
 1535TIP3    H2 4570   1.023   4.929   5.072 -0.7546  0.4254 -1.1107
 1536TIP3   OH2 4571   6.141   5.601   3.128 -0.3454 -0.5178 -0.6752
 1536TIP3    H1 4572   6.100   5.686   3.111 -0.2993 -0.4430 -0.4228
 1536TIP3    H2 4573   6.074   5.551   3.175 -1.1170 -1.3480 -2.5358
 1537TIP3   OH2 4574   5.465   6.052   5.829  0.4746  0.3728  0.4829
 1537TIP3    H1 4575   5.378   6.077   5.797  0.3389  0.0254  0.5756
 1537TIP3    H2 4576   5.482   6.112   5.902  1.3114  2.0002 -0.9611
 1538TIP3   OH2 4577   4.052   2.159   1.938 -0.6287  0.4449  0.4901
 1538TIP3    H1 4578   3.993   2.177   1.864  0.4769  0.3638 -0.4405
 1538TIP3    H2 4579   3.996   2.116   2.003 -1.6131  0.4296 -0.3368
 1539TIP3   OH2 4580   3.975   3.440   1.796 -0.3460 -0.6315  0.1478
 1539TIP3    H1 4581   4.029   3.379   1.746 -0.5223 -0.7719  0.1305
 1539TIP3    H2 4582   3.963   3.514   1.736  0.3186 -0.3356  0.3641
 1540TIP3   OH2 4583   1.145   6.387   4.195 -0.0994  0.1509  0.2087
 1540TIP3    H1 4584   1.067   6.349   4.235  0.4052 -0.7162  0.3938
 1540TIP3    H2 4585   1.114   6.426   4.114 -0.6269 -0.7032 -0.0066
 1541TIP3   OH2 4586   2.149   3.754   4.415 -0.0320  0.1971  0.1098
 1541TIP3    H1 4587   2.129   3.830   4.470 -0.9818 -0.8197  1.2393
 1541TIP3    H2 4588   2.114   3.776   4.329 -1.0758  0.6896  0.6453
 1542TIP3   OH2 4589   5.766   0.705   2.236 -0.4107  0.9271  0.3858
 1542TIP3    H1 4590   5.719   0.622   2.232  1.5058 -0.1993 -0.9047
 1542TIP3    H2 4591   5.850   0.682   2.277  1.2544  1.5209 -2.3702
 1543TIP3   OH2 4592   7.028   4.458   0.668  0.1783  0.0249  0.3232
 1543TIP3    H1 4593   6.937   4.465   0.699  0.2466 -0.8640  0.7596
 1543TIP3    H2 4594   7.027   4.502   0.583 -0.3986  1.0201  0.8282
 1544TIP3   OH2 4595   1.679   4.107   0.635 -0.1017  0.4895 -0.5356
 1544TIP3    H1 4596   1.651   4.181   0.689 -0.2666 -1.1141  1.7321
 1544TIP3    H2 4597   1.602   4.050   0.631  1.1349 -1.4657  1.3176
 1545TIP3   OH2 4598   1.010   3.931   5.289  0.2295 -0.2843 -0.3285
 1545TIP3    H1 4599   0.925   3.953   5.252 -0.5128  1.4836  2.1638
 1545TIP3    H2 4600   1.071   3.993   5.250 -0.0744  0.0115 -0.3282
 1546TIP3   OH2 4601   6.403   4.520   3.052  0.5792  0.0235 -0.1923
 1546TIP3    H1 4602   6.448   4.594   3.092 -0.0740  0.2586  0.1281
 1546TIP3    H2 4603   6.382   4.462   3.126 -2.4215  1.3997  0.1939
 1547TIP3   OH2 4604   5.988   0.831   5.096  0.3696 -0.3471 -0.5012
 1547TIP3    H1 4605   6.030   0.880   5.167 -0.3570  0.8283 -0.8448
 1547TIP3    H2 4606   5.906   0.800   5.134 -0.4200  0.9954 -1.0169
 1548TIP3   OH2 4607   1.122   3.690   5.793 -0.3470  0.8991  0.1640
 1548TIP3    H1 4608   1.189   3.652   5.851 -0.2027  0.8858 -0.0089
 1548TIP3    H2 4609   1.171   3.717   5.715 -0.2569  2.4486  0.7212
 1549TIP3   OH2 4610   2.044   6.756   2.048  0.4084  0.3019 -0.1349
 1549TIP3    H1 4611   2.131   6.729   2.017  0.0491  0.8015 -1.6604
 1549TIP3    H2 4612   2.058   6.844   2.082  0.5036  0.3966 -0.4110
 1550TIP3   OH2 4613   6.572   3.218   1.580 -0.4398 -0.2755 -0.0795
 1550TIP3    H1 4614   6.657   3.190   1.547 -0.0219 -0.4601  1.1003
 1550TIP3    H2 4615   6.533   3.139   1.616 -1.4312 -0.3371 -1.2532
 1551TIP3   OH2 4616   2.722   6.165   5.341  0.2476 -0.6780  0.8071
 1551TIP3    H1 4617   2.735   6.175   5.247  2.3308 -0.8945  1.0155
 1551TIP3    H2 4618   2.655   6.230   5.364  1.7208  1.3863 -0.3999
 1552TIP3   OH2 4619   5.568   3.871   4.717  0.0290 -0.6224  0.5843
 1552TIP3    H1 4620   5.614   3.807   4.663  0.9714 -0.6029  1.3525
 1552TIP3    H2 4621   5.475   3.852   4.702  0.2761 -2.3922  1.0729
 1553TIP3   OH2 4622   5.498   5.859   4.594  0.0451  0.0905  0.0969
 1553TIP3    H1 4623   5.467   5.771   4.618  1.5182 -0.1999  1.0076
 1553TIP3    H2 4624   5.538   5.893   4.673 -0.4957  1.6164 -0.2500
 1554TIP3   OH2 4625   3.350   6.498   1.946 -0.5987  0.0976 -0.2589
 1554TIP3    H1 4626   3.352   6.552   1.867 -1.3156 -1.7575 -1.6126
 1554TIP3    H2 4627   3.275   6.531   1.995 -0.9209  0.4462 -0.9671
 1555TIP3   OH2 4628   0.279   4.243   1.560  0.4106 -0.2188  0.1871
 1555TIP3    H1 4629   0.205   4.303   1.565  0.7794  0.1569  1.2555
 1555TIP3    H2 4630   0.322   4.265   1.477 -0.6984 -0.4909 -0.4796
 1556TIP3   OH2 4631   6.400   0.295   1.240 -0.1266 -0.1892  0.6711
 1556TIP3    H1 4632   6.425   0.222   1.183  1.4519  0.5967  0.2847
 1556TIP3    H2 4633   6.317   0.326   1.205  0.5747 -0.0389 -0.9532
 1557TIP3   OH2 4634   0.739   4.596   5.569 -0.4711 -0.0133 -0.3259
 1557TIP3    H1 4635   0.676   4.646   5.519 -2.3425 -0.5247  1.3908
 1557TIP3    H2 4636   0.722   4.505   5.547 -1.1047 -0.2235  0.9498
 1558TIP3   OH2 4637   2.598   2.618   1.247 -0.2889 -0.1757 -0.2178
 1558TIP3    H1 4638   2.621   2.706   1.217 -0.2351 -0.4958 -1.1548
 1558TIP3    H2 4639   2.658   2.601   1.320 -0.4807  0.6592  0.1401
 1559TIP3   OH2 4640   5.778   0.811   1.957 -0.4349  0.0523  0.1054
 1559TIP3    H1 4641   5.802   0.793   2.047  0.0305 -1.9098 -0.3779
 1559TIP3    H2 4642   5.691   0.773   1.947  0.3213 -1.5406 -0.7772
 1560TIP3   OH2 4643   2.573   0.039   5.328 -0.4838  0.3867  0.2243
 1560TIP3    H1 4644   2.523  -0.040   5.308  1.9179 -0.7216 -1.9725
 1560TIP3    H2 4645   2.647   0.036   5.268  1.0882  3.0216  1.8496
 1561TIP3   OH2 4646   3.575   1.335   3.124  0.1544  0.1825  0.2137
 1561TIP3    H1 4647   3.578   1.431   3.134 -0.3950  0.3339 -0.9647
 1561TIP3    H2 4648   3.644   1.316   3.061 -0.1749 -0.1148 -0.0623
 1562TIP3   OH2 4649   0.091   3.325   1.870 -0.0324  0.0617 -0.6165
 1562TIP3    H1 4650   0.098   3.241   1.915 -0.0476  0.4270  0.0832
 1562TIP3    H2 4651   0.033   3.308   1.796 -1.5460 -0.1407  0.5619
 1563TIP3   OH2 4652   4.389   5.287   1.481  0.2559  0.1555 -0.6041
 1563TIP3    H1 4653   4.483   5.298   1.493  0.2018 -1.3830  2.1525
 1563TIP3    H2 4654   4.377   5.194   1.467 -0.8682  0.3145 -0.8145
 1564TIP3   OH2 4655   3.011   5.960   5.253 -1.0098  0.2868 -0.3487
 1564TIP3    H1 4656   2.934   5.965   5.309 -0.5609 -1.6206  0.5298
 1564TIP3    H2 4657   3.010   5.871   5.217  0.1882  0.5758 -1.2003
 1565TIP3   OH2 4658   4.253   5.862   1.347 -0.3313 -0.4409 -0.0991
 1565TIP3    H1 4659   4.231   5.932   1.287  0.5477  0.3666  0.5018
 1565TIP3    H2 4660   4.347   5.870   1.362 -0.6831  0.1541  2.2891
 1566TIP3   OH2 4661   5.154   5.042   4.844  0.0088  0.4441  0.3238
 1566TIP3    H1 4662   5.202   5.125   4.842  0.7334  0.0221 -0.7007
 1566TIP3    H2 4663   5.204   4.984   4.786 -0.5167 -0.6946  0.9742
 1567TIP3   OH2 4664   3.968   3.062   3.026  0.1704  0.6546 -0.1475
 1567TIP3    H1 4665   4.039   3.050   2.963  1.5819  1.4029  1.2383
 1567TIP3    H2 4666   3.911   3.128   2.986  0.5980  0.5349 -0.9747
 1568TIP3   OH2 4667   4.818   5.039   3.100 -0.0822 -0.6247 -0.2502
 1568TIP3    H1 4668   4.895   4.987   3.077  0.3007 -0.2558  0.1789
 1568TIP3    H2 4669   4.834   5.125   3.059 -0.2315 -0.5260 -0.1007
 1569TIP3   OH2 4670   7.147   5.338   5.186 -0.2757  0.2177 -0.0103
 1569TIP3    H1 4671   7.216   5.386   5.231  0.2705 -1.1087  0.6048
 1569TIP3    H2 4672   7.083   5.405   5.163  1.3387  1.5523 -0.8866
 1570TIP3   OH2 4673   5.418   5.956   4.275 -0.1574  0.3013 -0.3756
 1570TIP3    H1 4674   5.372   5.875   4.252 -0.1179  0.1224  0.1484
 1570TIP3    H2 4675   5.444   5.994   4.192 -2.5077  1.1387 -0.8003
 1571TIP3   OH2 4676   1.735   5.665   1.913 -0.2297 -0.0536  0.2504
 1571TIP3    H1 4677   1.644   5.658   1.883 -0.5860  0.6213  1.1300
 1571TIP3    H2 4678   1.748   5.759   1.927 -0.1301 -0.3280  2.2942
 1572TIP3   OH2 4679   1.876   1.716   0.444  0.3502  0.6410  0.6632
 1572TIP3    H1 4680   1.927   1.744   0.368  1.1640 -0.6480  0.7020
 1572TIP3    H2 4681   1.911   1.768   0.517  0.4150  1.0000  0.3766
 1573TIP3   OH2 4682   5.936   1.175   0.061  0.4140  0.4956  0.2116
 1573TIP3    H1 4683   5.949   1.126  -0.020  0.5327  0.7079  0.0991
 1573TIP3    H2 4684   6.018   1.165   0.109  0.3337  0.3472  0.3199
 1574TIP3   OH2 4685   0.804   4.755   1.644  0.6807  0.5214 -0.0732
 1574TIP3    H1 4686   0.838   4.796   1.724 -2.5480  0.8519  1.2589
 1574TIP3    H2 4687   0.734   4.697   1.674  1.0515 -1.3380 -2.4857
 1575TIP3   OH2 4688   5.793   5.076   5.485 -0.1902 -0.3343 -0.1339
 1575TIP3    H1 4689   5.748   5.126   5.552  0.0473  1.7756 -1.4279
 1575TIP3    H2 4690   5.849   5.015   5.533  0.2328  1.3263  1.6108
 1576TIP3   OH2 4691   4.305   0.086   4.328  0.2512  0.2026  0.6446
 1576TIP3    H1 4692   4.315   0.165   4.274  0.2242 -0.8175 -0.9137
 1576TIP3    H2 4693   4.313   0.117   4.418  2.3163  1.6869  0.0140
 1577TIP3   OH2 4694   6.159   5.944   3.093  0.0607 -0.0303 -0.2077
 1577TIP3    H1 4695   6.131   6.035   3.099  0.8661  0.2414 -0.4324
 1577TIP3    H2 4696   6.255   5.948   3.093  0.1196 -0.9321  0.6955
 1578TIP3   OH2 4697   6.747   0.853   5.716 -0.2876  0.2028 -0.1126
 1578TIP3    H1 4698   6.657   0.827   5.735  0.1618 -1.2391  0.1985
 1578TIP3    H2 4699   6.750   0.863   5.621 -0.6207 -0.3595 -0.1852
 1579TIP3   OH2 4700   0.667   3.909   1.653 -0.2333  0.5701  0.1324
 1579TIP3    H1 4701   0.598   3.857   1.612 -0.6145  1.6415 -0.6059
 1579TIP3    H2 4702   0.708   3.957   1.581 -0.3936  1.8925  0.8859
 1580TIP3   OH2 4703   3.281   6.324   3.762  0.2252  0.3155  0.2040
 1580TIP3    H1 4704   3.234   6.326   3.679  0.3909  0.5874  0.1168
 1580TIP3    H2 4705   3.237   6.389   3.816  1.5259  1.8142 -0.4391
 1581TIP3   OH2 4706   6.796   2.893   4.724  0.2637 -0.5514  0.2767
 1581TIP3    H1 4707   6.803   2.942   4.642 -1.3327 -0.6768  0.0321
 1581TIP3    H2 4708   6.765   2.958   4.788  0.7751 -0.6298  0.6132
 1582TIP3   OH2 4709   3.222   1.360   0.655 -0.6507 -0.2594 -0.2645
 1582TIP3    H1 4710   3.157   1.412   0.702 -0.9602  1.1295 -2.0871
 1582TIP3    H2 4711   3.209   1.383   0.563  1.4174 -1.1065 -0.8392
 1583TIP3   OH2 4712   0.216   1.141   5.558 -0.4062 -0.1540 -0.2546
 1583TIP3    H1 4713   0.130   1.118   5.523  0.1927 -3.7551  0.2193
 1583TIP3    H2 4714   0.200   1.166   5.649 -1.0279  0.0238 -0.4118
 1584TIP3   OH2 4715   2.898   5.152   2.858  0.1493  0.4251 -0.1428
 1584TIP3    H1 4716   2.831   5.138   2.791  0.9991 -2.4737 -0.5248
 1584TIP3    H2 4717   2.854   5.128   2.940 -0.1389  1.4928  0.0276
 1585TIP3   OH2 4718   2.585   3.216   0.879 -0.8259  0.1077  0.5977
 1585TIP3    H1 4719   2.557   3.237   0.790  1.6689 -1.2175 -0.6063
 1585TIP3    H2 4720   2.641   3.290   0.905 -1.5472  0.4908  1.0950
 1586TIP3   OH2 4721   5.628   5.838   1.567 -0.0424 -0.3784 -0.3328
 1586TIP3    H1 4722   5.547   5.795   1.540  0.8302 -2.8551  0.6700
 1586TIP3    H2 4723   5.625   5.924   1.525 -2.4064 -0.9971 -1.6246
 1587TIP3   OH2 4724   1.986   1.477   3.063  0.3743 -0.3972 -0.5312
 1587TIP3    H1 4725   2.000   1.498   3.155  2.1923 -1.8937 -0.4086
 1587TIP3    H2 4726   2.049   1.532   3.016  0.2412 -0.4690 -0.7956
 1588TIP3   OH2 4727   6.284   4.290   3.672  0.4619  0.1651  0.2000
 1588TIP3    H1 4728   6.270   4.202   3.636 -0.0368  0.6624 -0.8731
 1588TIP3    H2 4729   6.343   4.276   3.746  1.1304 -0.9680 -0.5023
 1589TIP3   OH2 4730   1.676   0.142   0.394 -0.0966  0.1991  0.7819
 1589TIP3    H1 4731   1.585   0.116   0.382  0.7962 -2.3996 -1.1803
 1589TIP3    H2 4732   1.707   0.086   0.466  0.7052 -1.2289 -0.6180
 1590TIP3   OH2 4733   0.779   0.025   3.648 -0.0535  0.2245  0.0351
 1590TIP3    H1 4734   0.823   0.074   3.578 -0.2851 -0.0370 -0.2953
 1590TIP3    H2 4735   0.783  -0.066   3.620  0.9764 -0.0380  0.9775
 1591TIP3   OH2 4736   4.420   1.402   2.663  0.2768  0.4115 -0.0287
 1591TIP3    H1 4737   4.396   1.478   2.716 -0.2271  0.1214  0.1609
 1591TIP3    H2 4738   4.494   1.363   2.708  2.0267  2.0805 -1.3183
 1592TIP3   OH2 4739   0.715   6.326   4.015  0.0102  0.3293 -0.0833
 1592TIP3    H1 4740   0.766   6.395   3.973  0.3724  1.0373  1.4469
 1592TIP3    H2 4741   0.659   6.372   4.077  0.5539 -0.7563  1.2545
 1593TIP3   OH2 4742   3.903   2.594   3.934  0.1088 -0.0956 -0.1526
 1593TIP3    H1 4743   3.809   2.603   3.945  0.3083  1.1280  0.8370
 1593TIP3    H2 4744   3.933   2.683   3.912  1.1168 -0.2936  0.3341
 1594TIP3   OH2 4745   3.717   5.748   4.016  0.1760 -0.2938 -0.1889
 1594TIP3    H1 4746   3.654   5.703   4.073  0.1438 -1.0365 -0.7892
 1594TIP3    H2 4747   3.670   5.762   3.934 -0.7898  3.3967  0.7980
 1595TIP3   OH2 4748   2.050   2.182   4.273 -0.0403 -0.9050 -0.2451
 1595TIP3    H1 4749   2.005   2.256   4.313 -0.9684 -1.8696  0.5435
 1595TIP3    H2 4750   2.039   2.195   4.179 -0.6733 -0.3420 -0.1018
 1596TIP3   OH2 4751   5.856   4.215   2.694  0.0559 -0.0820  0.4741
 1596TIP3    H1 4752   5.810   4.299   2.688  0.6524  0.1413 -1.5717
 1596TIP3    H2 4753   5.787   4.152   2.718 -1.1601  0.4043 -1.5496
 1597TIP3   OH2 4754   3.410   1.363   5.597 -0.3732 -0.3373 -0.5812
 1597TIP3    H1 4755   3.448   1.290   5.549 -0.7260 -0.2914 -0.9386
 1597TIP3    H2 4756   3.326   1.380   5.553 -0.7614 -0.3730  0.1313
 1598TIP3   OH2 4757   2.119   0.733   0.587  0.7012  0.0209 -0.5388
 1598TIP3    H1 4758   2.126   0.789   0.664 -1.0694  1.0895 -1.1005
 1598TIP3    H2 4759   2.142   0.791   0.514 -0.3510 -0.1972 -1.0569
 1599TIP3   OH2 4760   0.383   4.728   1.527 -0.3983  0.0048 -0.0276
 1599TIP3    H1 4761   0.375   4.803   1.469  1.4792  1.4807  1.4715
 1599TIP3    H2 4762   0.296   4.715   1.563 -0.7401  1.5272 -0.2626
 1600TIP3   OH2 4763   4.402   3.408   0.563 -0.0567  0.7472 -0.1522
 1600TIP3    H1 4764   4.378   3.423   0.472 -1.8570 -1.0165 -0.0145
 1600TIP3    H2 4765   4.391   3.494   0.605 -2.7833  0.8242 -0.8626
 1601TIP3   OH2 4766   4.494   2.980   2.057  0.0967 -0.4618 -0.2219
 1601TIP3    H1 4767   4.576   3.030   2.058  0.4525 -1.0097  1.3064
 1601TIP3    H2 4768   4.426   3.045   2.074  0.1139  0.0919 -2.0546
 1602TIP3   OH2 4769   7.110   4.076   0.790  0.1940  0.4283  0.0168
 1602TIP3    H1 4770   7.143   3.997   0.834  0.2180 -0.3646 -1.3377
 1602TIP3    H2 4771   7.038   4.106   0.845  0.8411  0.0501  1.0951
 1603TIP3   OH2 4772   4.684   5.922   1.154  0.2004  0.2056  0.2675
 1603TIP3    H1 4773   4.613   5.865   1.125  1.1351 -1.3706  0.9443
 1603TIP3    H2 4774   4.711   5.885   1.238  3.2006 -0.5437 -0.9194
 1604TIP3   OH2 4775   0.187   3.112   4.042  0.3073  0.2931  0.7381
 1604TIP3    H1 4776   0.102   3.129   4.002  0.3840 -0.6301  0.1407
 1604TIP3    H2 4777   0.175   3.031   4.091  1.3866 -1.1554 -1.2263
 1605TIP3   OH2 4778   5.332   3.742   4.490  0.4230 -0.2141 -0.0097
 1605TIP3    H1 4779   5.420   3.712   4.516  0.9948  1.1718 -0.2829
 1605TIP3    H2 4780   5.277   3.665   4.501  1.8216 -1.3416 -0.5995
 1606TIP3   OH2 4781   2.522   6.348   5.408  0.9478  0.2565 -0.0306
 1606TIP3    H1 4782   2.499   6.440   5.401 -0.6647 -0.0601  0.5033
 1606TIP3    H2 4783   2.465   6.304   5.344 -0.8055 -0.6813  2.0322
 1607TIP3   OH2 4784   6.337   1.150   4.973 -0.1272 -0.2394 -0.4758
 1607TIP3    H1 4785   6.259   1.099   4.949  0.0235  0.0649 -1.7032
 1607TIP3    H2 4786   6.341   1.220   4.908  0.1443  0.8585  0.6925
 1608TIP3   OH2 4787   2.756   3.674   0.106  0.5642  0.2203  0.4236
 1608TIP3    H1 4788   2.746   3.697   0.198  1.2181 -1.6327  0.9958
 1608TIP3    H2 4789   2.849   3.684   0.088  0.5874 -0.3076  0.2214
 1609TIP3   OH2 4790   3.885   4.695   2.001 -0.4601  0.1789 -0.4288
 1609TIP3    H1 4791   3.865   4.755   2.073 -0.4488 -1.4914  1.0251
 1609TIP3    H2 4792   3.932   4.750   1.937  0.3804  1.5032  1.2402
 1610TIP3   OH2 4793   1.908   3.954   3.479  0.2545 -0.4987 -0.0223
 1610TIP3    H1 4794   1.929   4.002   3.399 -1.1147 -0.5900 -0.4603
 1610TIP3    H2 4795   1.894   3.864   3.450 -1.7783 -0.2520  0.0322
 1611TIP3   OH2 4796   5.757   0.978   3.826 -0.2405  0.2953  0.6158
 1611TIP3    H1 4797   5.759   1.031   3.906 -2.0407 -0.3240  1.1327
 1611TIP3    H2 4798   5.842   0.991   3.786  0.1335  1.8795  1.8310
 1612TIP3   OH2 4799   5.099   0.604   0.527 -0.1317 -0.1112  0.6247
 1612TIP3    H1 4800   5.118   0.689   0.568  2.2957 -0.6674  0.8122
 1612TIP3    H2 4801   5.005   0.590   0.543 -0.2697  1.8427  1.8695
 1613TIP3   OH2 4802   0.667   3.854   0.406 -0.3932  0.5855 -0.1832
 1613TIP3    H1 4803   0.691   3.936   0.365 -0.4094  0.3113 -0.7512
 1613TIP3    H2 4804   0.601   3.878   0.471 -1.5213  0.8404 -1.3927
 1614TIP3   OH2 4805   2.600   5.076   1.685  0.6351  0.5050 -0.7027
 1614TIP3    H1 4806   2.595   5.059   1.779  1.7291  1.0240 -0.5375
 1614TIP3    H2 4807   2.607   5.171   1.679 -0.9094  0.6112 -1.3958
 1615TIP3   OH2 4808   2.592   1.027   0.256  0.6565  0.0152 -0.1993
 1615TIP3    H1 4809   2.596   0.995   0.346  1.0314 -0.8354 -0.5109
 1615TIP3    H2 4810   2.597   1.122   0.265 -0.0844 -0.0113  0.7204
 1616TIP3   OH2 4811   0.778   6.553   5.686 -0.1301  0.0597 -0.3599
 1616TIP3    H1 4812   0.837   6.491   5.728 -0.0594  0.1786 -0.2807
 1616TIP3    H2 4813   0.817   6.570   5.600 -0.2993 -0.2184 -0.4905
 1617TIP3   OH2 4814   0.186   1.118   4.252  0.3809 -0.5585  0.1943
 1617TIP3    H1 4815   0.145   1.069   4.181 -0.2231  0.8751 -0.4790
 1617TIP3    H2 4816   0.122   1.112   4.324  0.4559 -0.9936  0.2329
 1618TIP3   OH2 4817   6.762   4.449   3.019  0.2459 -0.0580  0.1780
 1618TIP3    H1 4818   6.721   4.532   3.043 -0.3837 -0.5584  0.9146
 1618TIP3    H2 4819   6.777   4.405   3.103 -0.0063 -0.9525 -0.2346
 1619TIP3   OH2 4820   6.281   0.837   4.099  0.0872 -0.9579  0.0729
 1619TIP3    H1 4821   6.297   0.785   4.177  0.5594 -0.8974  0.0191
 1619TIP3    H2 4822   6.188   0.858   4.103  0.2399 -0.3924  0.9620
 1620TIP3   OH2 4823   5.063   5.759   5.704 -0.5159  0.4074 -0.8412
 1620TIP3    H1 4824   5.023   5.775   5.618 -0.4043  0.1190 -0.9443
 1620TIP3    H2 4825   5.081   5.666   5.706  1.4107  0.7334 -1.3289
 1621TIP3   OH2 4826   6.762   4.068   3.388  0.2038 -0.4221  0.6170
 1621TIP3    H1 4827   6.825   4.014   3.437  1.0596 -0.4013 -0.4140
 1621TIP3    H2 4828   6.801   4.076   3.301 -0.7479  0.4513  0.2561
 1622TIP3   OH2 4829   6.316   4.310   1.068 -0.1669 -0.4949 -0.3929
 1622TIP3    H1 4830   6.293   4.286   1.157  1.4484 -0.8570 -0.0467
 1622TIP3    H2 4831   6.312   4.406   1.067  0.6468 -0.4450  0.3246
 1623TIP3   OH2 4832   6.821   4.507   1.054  0.4423 -0.0753 -0.3432
 1623TIP3    H1 4833   6.851   4.494   0.964 -1.2558  0.7930 -1.0623
 1623TIP3    H2 4834   6.803   4.601   1.060 -1.2624 -0.4253  0.3108
 1624TIP3   OH2 4835   4.146   1.886   4.787  0.2788  0.5232  0.1694
 1624TIP3    H1 4836   4.151   1.855   4.878  1.3944  0.6596  0.1666
 1624TIP3    H2 4837   4.132   1.980   4.795  0.7071  0.5843  0.2028
 1625TIP3   OH2 4838   0.425   4.903   3.709  0.0011  0.6344 -0.1460
 1625TIP3    H1 4839   0.348   4.890   3.765 -1.4580  0.3550 -2.1144
 1625TIP3    H2 4840   0.399   4.973   3.649  0.7435 -0.3908 -1.7325
 1626TIP3   OH2 4841   2.689   1.975   2.154  0.2019  0.5429  0.3477
 1626TIP3    H1 4842   2.700   1.995   2.061 -0.1743  2.9323  0.7641
 1626TIP3    H2 4843   2.594   1.973   2.167  0.2558  0.7090  0.7740
 1627TIP3   OH2 4844   3.471   1.952   5.041  0.0660 -0.3944  0.1903
 1627TIP3    H1 4845   3.482   1.868   5.086 -2.0177 -0.7865  0.0745
 1627TIP3    H2 4846   3.535   1.950   4.970  0.3710 -1.6831  0.4710
 1628TIP3   OH2 4847   0.649   4.823   3.250  0.0679 -0.1182 -0.2323
 1628TIP3    H1 4848   0.633   4.912   3.283  1.5093 -0.1983  0.7446
 1628TIP3    H2 4849   0.575   4.772   3.285 -1.2106  0.8049 -1.4538
 1629TIP3   OH2 4850   3.160   0.113   3.488 -0.3166  0.0627  0.0915
 1629TIP3    H1 4851   3.231   0.153   3.437 -0.0614  0.3161  0.6321
 1629TIP3    H2 4852   3.082   0.163   3.464  0.0886  1.2762  1.1588
 1630TIP3   OH2 4853   1.315   6.441   1.118 -0.3000  0.2574  0.1098
 1630TIP3    H1 4854   1.375   6.509   1.146 -1.4363  1.0631  0.6429
 1630TIP3    H2 4855   1.230   6.466   1.154 -1.5434  0.5630 -2.7580
 1631TIP3   OH2 4856   6.188   6.075   0.465  0.2198  0.9293  0.2092
 1631TIP3    H1 4857   6.201   6.029   0.548  0.4542  2.1277  0.8690
 1631TIP3    H2 4858   6.163   6.007   0.403 -1.2927  0.1770  1.5740
 1632TIP3   OH2 4859   3.837   3.860   4.805  0.5094 -0.6893 -0.1897
 1632TIP3    H1 4860   3.743   3.852   4.821  0.4553  0.9773  0.4984
 1632TIP3    H2 4861   3.865   3.770   4.786 -1.0649 -1.3513  0.4024
 1633TIP3   OH2 4862   2.137   4.500   5.199  0.1719 -0.2015  0.0356
 1633TIP3    H1 4863   2.157   4.426   5.257  0.6378  0.3453  0.5918
 1633TIP3    H2 4864   2.212   4.504   5.139 -0.1487 -0.5575 -0.3946
 1634TIP3   OH2 4865   0.413   5.195   5.039  0.2424  0.3691  0.0979
 1634TIP3    H1 4866   0.456   5.214   4.955 -0.4794  1.3412 -0.0764
 1634TIP3    H2 4867   0.380   5.280   5.068  0.3044  0.0065  1.2773
 1635TIP3   OH2 4868   2.274   6.506   0.425  0.7974  0.0701  0.5314
 1635TIP3    H1 4869   2.201   6.454   0.457  0.7399  0.5286  1.1649
 1635TIP3    H2 4870   2.294   6.469   0.339  1.1366 -1.3616  1.2003
 1636TIP3   OH2 4871   0.683   1.088   2.401  0.1852  0.0777 -0.2132
 1636TIP3    H1 4872   0.628   1.113   2.476  0.9740 -0.2212  0.4774
 1636TIP3    H2 4873   0.772   1.102   2.431  0.4925  1.4205 -1.6379
 1637TIP3   OH2 4874   1.357   3.069   2.331  0.7203 -0.8183  0.4728
 1637TIP3    H1 4875   1.419   3.062   2.258 -0.1030  0.6130 -0.4075
 1637TIP3    H2 4876   1.364   3.160   2.359 -1.4378 -0.4415 -0.0876
 1638TIP3   OH2 4877   0.580   0.537   0.320  0.1425  0.2381  0.2564
 1638TIP3    H1 4878   0.505   0.574   0.273 -0.2491  0.9150  1.3687
 1638TIP3    H2 4879   0.543   0.464   0.371 -0.1672  1.6359  2.1608
 1639TIP3   OH2 4880   4.960   4.778   3.047 -0.0097  0.4078  0.4710
 1639TIP3    H1 4881   4.869   4.763   3.069  0.0221  0.1657  0.4376
 1639TIP3    H2 4882   4.961   4.786   2.952  0.2480 -1.3656  0.2938
 1640TIP3   OH2 4883   6.832   0.229   1.944  0.1225  0.4487  0.5188
 1640TIP3    H1 4884   6.833   0.321   1.968 -1.2158  0.0816  2.1948
 1640TIP3    H2 4885   6.846   0.182   2.026 -0.9946 -0.8598  0.0042
 1641TIP3   OH2 4886   5.955   3.024   5.629  0.0099 -0.2259 -0.3731
 1641TIP3    H1 4887   6.047   3.008   5.650 -0.5293 -0.2077  2.4016
 1641TIP3    H2 4888   5.957   3.090   5.559  2.0854 -0.3233 -0.4538
 1642TIP3   OH2 4889   0.721   2.836   4.764 -0.0391  0.3538 -0.2080
 1642TIP3    H1 4890   0.767   2.912   4.728  0.0902 -0.4085 -1.7604
 1642TIP3    H2 4891   0.636   2.871   4.793 -0.0364  1.0731 -1.0161
 1643TIP3   OH2 4892   3.751   2.914   4.632 -0.7873 -0.0666  0.3275
 1643TIP3    H1 4893   3.735   3.009   4.630 -0.1919  0.0324 -0.5265
 1643TIP3    H2 4894   3.806   2.900   4.709  1.0881  0.6357 -0.8286
 1644TIP3   OH2 4895   1.646   0.206   5.294 -0.0615 -0.4008 -0.0365
 1644TIP3    H1 4896   1.565   0.176   5.253  0.0483 -0.8187  0.0432
 1644TIP3    H2 4897   1.694   0.125   5.315  0.7576 -0.1383 -0.8486
 1645TIP3   OH2 4898   4.308   0.221   5.449 -0.3757 -0.1024  0.5810
 1645TIP3    H1 4899   4.275   0.149   5.502  1.0953 -1.0345  0.3163
 1645TIP3    H2 4900   4.286   0.196   5.359 -1.6225  0.7891  0.6064
 1646TIP3   OH2 4901   5.128   5.393   0.182 -0.3018 -0.4493  0.2704
 1646TIP3    H1 4902   5.179   5.346   0.248  0.0262 -0.0774  0.2834
 1646TIP3    H2 4903   5.037   5.378   0.208 -0.2267 -1.5593 -0.0556
 1647TIP3   OH2 4904   1.965   6.471   2.081 -0.0682  0.0676  0.5739
 1647TIP3    H1 4905   1.931   6.540   2.138 -0.9519  0.5062 -0.4354
 1647TIP3    H2 4906   2.019   6.519   2.017 -1.6590  0.0562 -0.8842
 1648TIP3   OH2 4907   6.451   5.885   2.388  0.6719  0.1333 -0.3257
 1648TIP3    H1 4908   6.383   5.857   2.328  1.4761 -0.6641 -0.8952
 1648TIP3    H2 4909   6.509   5.809   2.396  0.0127 -0.1809  2.3254
 1649TIP3   OH2 4910   6.235   6.255   2.305  0.1768  0.4621  0.7129
 1649TIP3    H1 4911   6.330   6.256   2.298  0.1963 -0.7152  0.6152
 1649TIP3    H2 4912   6.204   6.291   2.222  0.5337  1.8952  1.1864
 1650TIP3   OH2 4913   5.954   4.708   1.090 -0.1800 -0.2773  0.2171
 1650TIP3    H1 4914   5.983   4.630   1.044 -0.4875 -0.7188  0.7612
 1650TIP3    H2 4915   5.916   4.764   1.022 -0.6191 -0.9190 -0.0696
 1651TIP3   OH2 4916   3.434   2.066   1.245 -0.1199 -0.2650  0.5239
 1651TIP3    H1 4917   3.415   2.158   1.227 -1.2976 -0.4302  0.9042
 1651TIP3    H2 4918   3.350   2.022   1.239  0.1602 -1.0555  2.0318
 1652TIP3   OH2 4919   0.266   1.881   5.439  0.4150  0.4395 -0.2253
 1652TIP3    H1 4920   0.242   1.929   5.359 -0.4455 -2.0855 -1.5763
 1652TIP3    H2 4921   0.361   1.866   5.430  0.2536 -0.1761 -1.0027
 1653TIP3   OH2 4922   5.128   3.940   0.191  0.6479 -0.1128 -0.1288
 1653TIP3    H1 4923   5.179   3.985   0.258 -0.2626 -1.2139  1.3904
 1653TIP3    H2 4924   5.047   3.991   0.185  0.9960  0.3576 -0.8873
 1654TIP3   OH2 4925   6.438   3.014   1.698  0.1173 -0.4019  0.4446
 1654TIP3    H1 4926   6.373   3.004   1.768  0.0694 -1.4646  0.2687
 1654TIP3    H2 4927   6.477   2.927   1.689 -0.5816 -0.5779 -1.5135
 1655TIP3   OH2 4928   1.088   6.636   4.623  0.3514  0.0900 -0.7198
 1655TIP3    H1 4929   1.032   6.559   4.623  1.4739 -0.8872  2.4047
 1655TIP3    H2 4930   1.163   6.612   4.569  0.2756 -0.6694 -0.4962
 1656TIP3   OH2 4931   3.753   1.577   4.478  0.0292 -0.3129 -0.4205
 1656TIP3    H1 4932   3.697   1.573   4.401 -0.1534 -1.3621 -0.2593
 1656TIP3    H2 4933   3.746   1.489   4.517 -1.4249  0.7279  1.8880
 1657TIP3   OH2 4934   5.320   6.666   4.966 -0.5320 -0.0218 -0.0016
 1657TIP3    H1 4935   5.234   6.701   4.943 -0.3253  0.0764 -0.6522
 1657TIP3    H2 4936   5.307   6.572   4.973 -1.1136  0.1549  1.8540
 1658TIP3   OH2 4937   4.029   4.000   3.755  0.2103  0.2781  0.1486
 1658TIP3    H1 4938   3.995   3.996   3.844 -2.0118 -1.7821 -0.6838
 1658TIP3    H2 4939   4.041   3.909   3.729 -2.9631  0.5242 -2.9094
 1659TIP3   OH2 4940   0.316   5.861   4.534 -0.1963 -0.0806  0.1716
 1659TIP3    H1 4941   0.307   5.862   4.439  1.7046  1.8958 -0.0774
 1659TIP3    H2 4942   0.227   5.847   4.566 -1.2854  1.3797 -1.9022
 1660TIP3   OH2 4943   3.338   1.562   2.130  0.4386 -0.1107  0.1040
 1660TIP3    H1 4944   3.251   1.587   2.099 -0.0468 -0.7972  0.8571
 1660TIP3    H2 4945   3.398   1.619   2.083 -0.5349  1.6923  0.9722
 1661TIP3   OH2 4946   0.784   5.107   4.138  0.2368  0.1349  0.8037
 1661TIP3    H1 4947   0.737   5.167   4.196  1.0335 -0.5056  2.1731
 1661TIP3    H2 4948   0.733   5.026   4.140  0.8661 -0.2605  1.5591
 1662TIP3   OH2 4949   4.681   4.912   3.534  0.4080  0.2580  0.1932
 1662TIP3    H1 4950   4.652   4.826   3.503  1.7848 -0.7718  1.5779
 1662TIP3    H2 4951   4.685   4.966   3.455  0.9231 -1.3904 -0.9652
 1663TIP3   OH2 4952   7.150   6.331   3.715 -0.2266  0.4636 -0.2068
 1663TIP3    H1 4953   7.229   6.362   3.759  1.2737  0.3490 -2.6773
 1663TIP3    H2 4954   7.089   6.404   3.722 -0.0839  0.4418  2.0014
 1664TIP3   OH2 4955   2.203   1.107   0.171  0.1658  0.2054 -0.0809
 1664TIP3    H1 4956   2.196   1.047   0.246  0.4920  0.2955  0.0231
 1664TIP3    H2 4957   2.227   1.051   0.097  2.5469  0.4577  0.4279
 1665TIP3   OH2 4958   0.034   1.376   3.233 -0.2008 -0.4881  0.2400
 1665TIP3    H1 4959  -0.004   1.290   3.214  0.5895 -0.9050  0.4786
 1665TIP3    H2 4960   0.099   1.358   3.302 -0.0479  0.3028  0.3041
 1666TIP3   OH2 4961   0.958   5.523   0.959  0.3212 -0.6334 -0.3417
 1666TIP3    H1 4962   1.050   5.533   0.981  0.6416 -0.1807 -1.7878
 1666TIP3    H2 4963   0.928   5.449   1.013  1.8199 -1.5458 -0.7084
 1667TIP3   OH2 4964   5.295   2.343   0.159 -0.3124 -0.3604 -0.2088
 1667TIP3    H1 4965   5.218   2.330   0.104 -0.8726  1.8549 -0.0512
 1667TIP3    H2 4966   5.368   2.342   0.098 -0.6906 -0.3401 -0.6704
 1668TIP3   OH2 4967   4.266   0.374   2.411 -0.4242 -0.6004 -0.1219
 1668TIP3    H1 4968   4.251   0.389   2.318  0.6933  1.6304 -0.0250
 1668TIP3    H2 4969   4.216   0.443   2.455 -0.6471 -1.4010  0.9287
 1669TIP3   OH2 4970   5.858   6.540   1.141  0.2624  0.1254  0.4064
 1669TIP3    H1 4971   5.795   6.483   1.097  2.1568 -1.0653 -0.8813
 1669TIP3    H2 4972   5.934   6.542   1.083  1.3322  1.7347  1.7729
 1670TIP3   OH2 4973   4.532   2.257   1.102  0.0034  0.1619  0.1089
 1670TIP3    H1 4974   4.517   2.248   1.196 -0.5360  0.2019  0.0300
 1670TIP3    H2 4975   4.503   2.346   1.081  0.9251  0.4603  0.0514
 1671TIP3   OH2 4976   0.713   2.045   4.416  0.2342  0.4766  0.3549
 1671TIP3    H1 4977   0.797   2.089   4.421 -0.7706  2.4149  1.2219
 1671TIP3    H2 4978   0.648   2.116   4.414 -1.5816 -0.8801  3.5872
 1672TIP3   OH2 4979   5.261   4.391   2.693 -0.3356 -1.1535 -0.0126
 1672TIP3    H1 4980   5.351   4.414   2.667 -0.3984 -2.3683 -1.4799
 1672TIP3    H2 4981   5.250   4.432   2.779  1.7963 -1.3955  0.4469
 1673TIP3   OH2 4982   2.723   1.605   2.031 -0.0198 -0.6322 -0.3076
 1673TIP3    H1 4983   2.765   1.520   2.043 -1.5738 -1.3727  0.1781
 1673TIP3    H2 4984   2.758   1.659   2.103  0.6043 -0.9979 -0.3303
 1674TIP3   OH2 4985   0.262   2.557   0.426  0.4047  0.2302 -0.2626
 1674TIP3    H1 4986   0.236   2.465   0.423  0.3008  0.1961  0.9614
 1674TIP3    H2 4987   0.358   2.556   0.422  0.4105  0.0512 -0.0884
 1675TIP3   OH2 4988   1.927   0.503   4.461 -0.5721 -0.6846  0.2084
 1675TIP3    H1 4989   1.992   0.530   4.397  0.9154  0.6861  2.1930
 1675TIP3    H2 4990   1.961   0.421   4.498 -0.6965 -0.7112  0.2663
 1676TIP3   OH2 4991   3.996   5.618   0.197 -0.4413 -0.7388  0.2231
 1676TIP3    H1 4992   3.956   5.611   0.284 -0.1624 -0.9810  0.3339
 1676TIP3    H2 4993   3.957   5.697   0.159 -1.0023 -0.9522  0.3399
 1677TIP3   OH2 4994   5.568   2.750   2.205 -0.3865 -0.1903 -0.2901
 1677TIP3    H1 4995   5.591   2.658   2.200  2.6600  0.4720 -0.3335
 1677TIP3    H2 4996   5.598   2.778   2.292 -0.8630  0.8472 -0.4385
 1678TIP3   OH2 4997   1.609   2.185   0.105 -1.3012  0.2859  0.0829
 1678TIP3    H1 4998   1.523   2.223   0.087 -1.1208  1.1458  0.9405
 1678TIP3    H2 4999   1.628   2.130   0.029 -2.3554  0.5376 -0.3760
 1679TIP3   OH2 5000   3.584   5.758   5.788 -0.3975  0.3416  0.4196
 1679TIP3    H1 5001   3.601   5.681   5.734 -2.3203 -0.0457  0.2920
 1679TIP3    H2 5002   3.489   5.766   5.789 -0.3211  1.5871  2.0380
 1680TIP3   OH2 5003   3.617   1.880   0.139  0.1525  0.3210  0.1887
 1680TIP3    H1 5004   3.576   1.950   0.088 -1.2682 -0.5301  0.1155
 1680TIP3    H2 5005   3.691   1.852   0.085 -0.1915  0.7241 -0.5126
 1681TIP3   OH2 5006   1.343   4.328   0.093  0.4746 -0.5711 -0.1075
 1681TIP3    H1 5007   1.307   4.262   0.034 -1.1482  1.5419 -1.6123
 1681TIP3    H2 5008   1.304   4.308   0.178 -1.3014 -0.6141 -0.8903
 1682TIP3   OH2 5009   4.144   6.253   2.059  0.2696  0.0398  0.4349
 1682TIP3    H1 5010   4.195   6.315   2.111  1.1049 -0.5126  0.3068
 1682TIP3    H2 5011   4.065   6.301   2.034 -0.5629  0.0549  2.9072
 1683TIP3   OH2 5012   2.238   2.329   4.819  0.5366 -0.7120  0.2431
 1683TIP3    H1 5013   2.272   2.240   4.808  2.9138  0.3028 -1.4001
 1683TIP3    H2 5014   2.288   2.382   4.757 -1.2197  1.7061  0.7410
 1684TIP3   OH2 5015   5.821   1.587   0.808  1.1840 -0.2528  0.6148
 1684TIP3    H1 5016   5.792   1.601   0.898  0.3694 -1.2293  0.5164
 1684TIP3    H2 5017   5.847   1.674   0.778  0.3852  0.2855  1.4251
 1685TIP3   OH2 5018   2.124   0.396   5.604 -0.3570  0.3330  0.3962
 1685TIP3    H1 5019   2.152   0.425   5.517 -0.2924  1.2835  0.7170
 1685TIP3    H2 5020   2.045   0.447   5.622 -0.3537  0.1643  0.9116
 1686TIP3   OH2 5021   6.269   0.327   4.469 -0.2070  0.3633 -0.5945
 1686TIP3    H1 5022   6.186   0.285   4.445 -0.5453  0.6146  0.0990
 1686TIP3    H2 5023   6.304   0.360   4.386 -0.2162 -0.7721 -1.0631
 1687TIP3   OH2 5024   0.314   3.818   3.704 -0.3652 -0.0819  0.5372
 1687TIP3    H1 5025   0.258   3.896   3.709 -2.9286 -1.5254 -2.3217
 1687TIP3    H2 5026   0.275   3.756   3.765  0.5259  0.1691  1.3929
 1688TIP3   OH2 5027   3.045   5.323   3.402  0.9575  0.1975 -0.0026
 1688TIP3    H1 5028   3.030   5.234   3.433  0.3650  0.0832 -0.5841
 1688TIP3    H2 5029   3.024   5.379   3.477  0.7039 -0.1260  0.1665
 1689TIP3   OH2 5030   1.701   1.177   0.194 -0.1501 -0.3744  0.0015
 1689TIP3    H1 5031   1.759   1.251   0.212  0.6881 -1.2879  1.1230
 1689TIP3    H2 5032   1.759   1.105   0.169 -0.9872 -0.5551 -1.5935
 1690TIP3   OH2 5033   1.579   3.353   2.227  0.1901  0.1905  0.5248
 1690TIP3    H1 5034   1.513   3.421   2.244 -1.1906 -0.3821 -2.0022
 1690TIP3    H2 5035   1.596   3.359   2.133  1.0341 -2.0592  0.4694
 1691TIP3   OH2 5036   0.196   4.195   2.712 -0.3439 -0.1557  0.1494
 1691TIP3    H1 5037   0.268   4.201   2.775  0.5042  0.7088 -0.8623
 1691TIP3    H2 5038   0.119   4.227   2.759  0.2062  0.1434  0.8516
 1692TIP3   OH2 5039   6.481   3.094   2.967 -0.1184  0.1058  0.1283
 1692TIP3    H1 5040   6.519   3.044   3.039 -0.3300 -0.3925 -0.1024
 1692TIP3    H2 5041   6.441   3.171   3.010  0.7492  0.4117  0.4167
 1693TIP3   OH2 5042   3.615   2.030   0.882  0.2713 -0.0233  0.0060
 1693TIP3    H1 5043   3.667   2.088   0.826  0.2652  1.7522  1.7171
 1693TIP3    H2 5044   3.529   2.071   0.885 -0.1842 -0.9637  0.0903
 1694TIP3   OH2 5045   2.404   5.995   3.158  0.2719  0.0154  0.6420
 1694TIP3    H1 5046   2.393   6.049   3.080 -1.3770  0.5236  1.1986
 1694TIP3    H2 5047   2.387   6.054   3.231  1.7802 -0.4585  1.4222
 1695TIP3   OH2 5048   6.707   3.808   1.349 -0.2280  0.6588  0.0708
 1695TIP3    H1 5049   6.772   3.788   1.416  0.6221  1.7968 -0.3737
 1695TIP3    H2 5050   6.704   3.904   1.347 -0.2389  0.6470 -1.4971
 1696TIP3   OH2 5051   2.232   4.433   4.800 -0.2783  0.1853 -0.0040
 1696TIP3    H1 5052   2.143   4.420   4.767 -0.6230  2.0410  0.0841
 1696TIP3    H2 5053   2.249   4.526   4.786  1.4489 -0.0230  0.4984
 1697TIP3   OH2 5054   0.999   0.551   1.902 -0.0847  0.2905  0.4197
 1697TIP3    H1 5055   1.038   0.501   1.831  1.2180  0.4475  0.9971
 1697TIP3    H2 5056   1.038   0.638   1.895  1.1296 -0.0733  2.1240
 1698TIP3   OH2 5057   7.056   0.370   3.202 -0.1255  0.2348  0.2040
 1698TIP3    H1 5058   7.106   0.416   3.270  1.5203  0.4056 -1.0585
 1698TIP3    H2 5059   6.965   0.390   3.222  0.4375  2.4247  0.8860
 1699TIP3   OH2 5060   3.388   0.107   4.661 -0.1147 -0.7443 -0.3418
 1699TIP3    H1 5061   3.327   0.085   4.732 -1.1771  2.0568 -0.2528
 1699TIP3    H2 5062   3.448   0.033   4.657  0.0293 -1.0418  3.5412
 1700TIP3   OH2 5063   4.747   2.260   0.697  0.5348 -0.2839 -0.1714
 1700TIP3    H1 5064   4.828   2.228   0.736 -0.0845 -0.9346  0.5999
 1700TIP3    H2 5065   4.771   2.277   0.605  1.6502 -0.0268  0.1427
 1701TIP3   OH2 5066   6.462   6.030   0.226  0.0157 -0.0434 -0.0234
 1701TIP3    H1 5067   6.410   5.954   0.202  0.2657  0.0820 -0.9902
 1701TIP3    H2 5068   6.548   6.014   0.188 -0.0565  0.9174 -0.6172
 1702TIP3   OH2 5069   4.187   0.634   2.225  0.1349 -0.3813 -0.0934
 1702TIP3    H1 5070   4.134   0.604   2.299 -1.0503  0.3539 -0.6185
 1702TIP3    H2 5071   4.203   0.727   2.243  0.7783 -0.4626 -0.2263
 1703TIP3   OH2 5072   5.195   6.037   1.461  0.6328 -0.4837  0.1024
 1703TIP3    H1 5073   5.214   6.001   1.547 -0.7823 -2.7583 -0.4370
 1703TIP3    H2 5074   5.106   6.073   1.468  0.4769 -0.7482 -0.4006
 1704TIP3   OH2 5075   5.433   3.300   3.178  0.2600 -0.4963 -0.3800
 1704TIP3    H1 5076   5.474   3.380   3.145 -0.1218 -0.8545 -1.7734
 1704TIP3    H2 5077   5.468   3.230   3.122 -2.7860 -0.7157 -2.2113
 1705TIP3   OH2 5078   1.750   0.766   1.884  0.0729  0.6902 -0.0461
 1705TIP3    H1 5079   1.819   0.831   1.872 -1.0555  1.8090 -0.8443
 1705TIP3    H2 5080   1.680   0.814   1.929 -0.4027 -0.2530  0.2493
 1706TIP3   OH2 5081   3.960   6.691   0.832 -0.3271 -0.3589  0.2590
 1706TIP3    H1 5082   4.056   6.691   0.835 -0.2873  0.9611 -0.0330
 1706TIP3    H2 5083   3.938   6.661   0.744 -0.2290 -1.5892  0.6378
 1707TIP3   OH2 5084   2.122   0.411   4.650  0.2924 -0.3456  0.0954
 1707TIP3    H1 5085   2.119   0.333   4.706  2.1970 -0.7386 -0.2788
 1707TIP3    H2 5086   2.169   0.476   4.702 -0.3028  0.1876 -0.0244
 1708TIP3   OH2 5087   5.927   4.342   1.257  0.0817  0.5171  0.1734
 1708TIP3    H1 5088   5.912   4.388   1.340  0.8391 -1.8791  1.7547
 1708TIP3    H2 5089   5.843   4.344   1.213 -0.2617  2.1364  0.8194
 1709TIP3   OH2 5090   3.327   5.416   3.347 -0.0498 -0.1854 -0.1940
 1709TIP3    H1 5091   3.235   5.392   3.331 -0.6204  1.9410 -0.3447
 1709TIP3    H2 5092   3.349   5.371   3.429 -1.4792 -0.0895  0.2663
 1710TIP3   OH2 5093   4.504   1.964   1.679  0.0962 -0.0194  0.4433
 1710TIP3    H1 5094   4.464   1.996   1.760  1.0468 -0.8912  1.2689
 1710TIP3    H2 5095   4.440   1.986   1.611 -0.4310  1.2915  1.3286
 1711TIP3   OH2 5096   0.358   4.378   3.361  0.6152 -0.5635  0.4935
 1711TIP3    H1 5097   0.433   4.323   3.339 -0.1508 -1.7116  0.6411
 1711TIP3    H2 5098   0.389   4.433   3.434  0.9100 -2.0296  1.5265
 1712TIP3   OH2 5099   2.708   5.317   0.474 -0.2196 -0.2501 -0.0152
 1712TIP3    H1 5100   2.762   5.260   0.529  0.0051 -0.9511 -0.9345
 1712TIP3    H2 5101   2.621   5.278   0.478 -0.0688 -0.6674 -0.6334
 1713TIP3   OH2 5102   5.555   4.656   0.973  0.6397 -0.1274 -0.0294
 1713TIP3    H1 5103   5.575   4.733   1.026  0.2864 -1.0785  1.5398
 1713TIP3    H2 5104   5.461   4.643   0.983  0.7482 -0.9488 -0.0093
 1714TIP3   OH2 5105   1.900   3.201   1.591  0.6276 -0.1968 -0.2799
 1714TIP3    H1 5106   1.811   3.169   1.602  0.6658 -1.7355 -3.3715
 1714TIP3    H2 5107   1.892   3.297   1.595 -0.9871 -0.3281  0.4018
 1715TIP3   OH2 5108   6.908   2.482   3.224  0.2499  0.0060 -0.1475
 1715TIP3    H1 5109   6.978   2.489   3.288 -0.4543 -0.0831  0.6497
 1715TIP3    H2 5110   6.887   2.573   3.201 -0.3328  0.0965  0.6958
 1716TIP3   OH2 5111   0.167   1.612   2.386  0.3290  0.2821 -0.0184
 1716TIP3    H1 5112   0.233   1.552   2.420  1.8251  1.5236 -0.6308
 1716TIP3    H2 5113   0.159   1.679   2.454 -0.6366 -0.0588  0.2310
 1717TIP3   OH2 5114   2.277   5.515   0.839 -0.6626  0.0560  0.3827
 1717TIP3    H1 5115   2.206   5.535   0.900 -0.1344 -0.1958  1.0929
 1717TIP3    H2 5116   2.356   5.549   0.882 -0.1447 -1.0138  0.3060
 1718TIP3   OH2 5117   0.887   6.692   5.113 -0.0617 -0.1149 -0.0341
 1718TIP3    H1 5118   0.917   6.683   5.023  1.1029  1.8009  0.0858
 1718TIP3    H2 5119   0.948   6.756   5.152 -0.4735 -0.9450  2.1329
 1719TIP3   OH2 5120   5.525   2.329   0.798 -0.0005  0.4373  1.2201
 1719TIP3    H1 5121   5.554   2.301   0.711  1.7472  2.4083  1.1028
 1719TIP3    H2 5122   5.499   2.421   0.786  0.4795  0.8004  2.8164
 1720TIP3   OH2 5123   6.529   5.965   3.628  0.2290 -0.3457  0.3778
 1720TIP3    H1 5124   6.599   5.986   3.566  0.2610 -0.8727  0.2327
 1720TIP3    H2 5125   6.537   6.032   3.696  0.0349  0.3987 -0.3133
 1721TIP3   OH2 5126   2.709   3.005   5.631 -0.2760 -0.1530  0.1357
 1721TIP3    H1 5127   2.687   2.930   5.574  0.1517  1.3624 -2.1734
 1721TIP3    H2 5128   2.804   2.998   5.644  0.1888  1.1450 -2.0224
 1722TIP3   OH2 5129   2.572   0.579   1.972 -0.3453 -0.3775 -0.7696
 1722TIP3    H1 5130   2.618   0.514   1.918  0.7167  1.1064 -1.7496
 1722TIP3    H2 5131   2.629   0.592   2.048  0.5346  0.8628 -1.5876
 1723TIP3   OH2 5132   5.223   6.448   5.214 -0.0165 -0.7243 -0.0303
 1723TIP3    H1 5133   5.289   6.488   5.271 -0.5142 -0.1520  0.1566
 1723TIP3    H2 5134   5.160   6.410   5.275 -0.3231 -0.4968 -0.2060
 1724TIP3   OH2 5135   3.962   0.116   1.278  0.1927  0.8983  0.3350
 1724TIP3    H1 5136   4.020   0.187   1.303 -0.7389  1.5047  0.8446
 1724TIP3    H2 5137   3.909   0.152   1.207  0.4053  0.3597 -0.1078
 1725TIP3   OH2 5138   6.213   4.543   0.818  0.1026  0.1052  0.3310
 1725TIP3    H1 5139   6.151   4.512   0.883 -1.2511  0.7649 -0.6128
 1725TIP3    H2 5140   6.173   4.520   0.734  0.5987  1.5269 -0.3153
 1726TIP3   OH2 5141   4.314   0.853   2.401  0.2106 -0.3178  0.3759
 1726TIP3    H1 5142   4.235   0.906   2.391 -0.2349 -0.7681  1.4244
 1726TIP3    H2 5143   4.299   0.800   2.479  1.3536 -0.7611  0.3247
 1727TIP3   OH2 5144   0.671   5.839   1.199  0.0903  0.1798  0.2228
 1727TIP3    H1 5145   0.709   5.785   1.130 -0.3268 -1.9309  1.5354
 1727TIP3    H2 5146   0.742   5.897   1.226  0.5498  0.3564 -1.2712
 1728TIP3   OH2 5147   4.016   2.960   0.301  0.3621 -0.1654  0.0977
 1728TIP3    H1 5148   3.930   2.982   0.337  0.5999  0.4151  0.3255
 1728TIP3    H2 5149   4.013   2.866   0.287 -0.3437 -0.1338  0.0247
 1729TIP3   OH2 5150   0.192   1.737   2.667 -0.6551  0.3557 -0.2169
 1729TIP3    H1 5151   0.261   1.804   2.662 -0.2438  0.1152  1.6232
 1729TIP3    H2 5152   0.222   1.677   2.736 -2.3203 -0.2066  0.0495
 1730TIP3   OH2 5153   5.145   5.500   2.863  0.8901  0.1223 -0.5604
 1730TIP3    H1 5154   5.222   5.502   2.919  0.1257  0.3585  0.5017
 1730TIP3    H2 5155   5.072   5.521   2.921  0.1899  1.3485 -1.8263
 1731TIP3   OH2 5156   2.227   1.253   1.224 -0.3027 -0.4241  1.2089
 1731TIP3    H1 5157   2.305   1.227   1.175 -0.4018 -1.3104  1.5050
 1731TIP3    H2 5158   2.162   1.275   1.157  0.3006  0.6816  0.9570
 1732TIP3   OH2 5159   5.862   0.074   4.791 -0.2354 -0.0335 -0.5957
 1732TIP3    H1 5160   5.882   0.037   4.878  1.3717 -0.0940 -0.9591
 1732TIP3    H2 5161   5.782   0.028   4.764 -0.5635 -0.2725  0.6934
 1733TIP3   OH2 5162   5.819   0.657   5.275 -0.2856 -0.2415  0.3934
 1733TIP3    H1 5163   5.886   0.593   5.297 -1.3764 -1.0329  1.5972
 1733TIP3    H2 5164   5.747   0.605   5.238 -0.8413  0.3741  0.5876
 1734TIP3   OH2 5165   5.100   2.979   5.200 -0.4803  0.3260 -0.5190
 1734TIP3    H1 5166   5.044   3.008   5.128 -1.0783  1.3883  0.3370
 1734TIP3    H2 5167   5.039   2.954   5.269  0.0530 -2.0865 -0.8565
 1735TIP3   OH2 5168   4.624   0.486   1.043 -0.1771 -0.1686 -0.0407
 1735TIP3    H1 5169   4.609   0.398   1.009 -1.0687  0.0077 -0.1302
 1735TIP3    H2 5170   4.566   0.493   1.118  0.0079  0.2914  0.0654
 1736TIP3   OH2 5171   0.099   1.347   0.999 -0.4962 -0.9701 -0.0451
 1736TIP3    H1 5172   0.089   1.253   0.985 -3.8977 -0.7016 -0.1105
 1736TIP3    H2 5173   0.065   1.388   0.919  3.8724  0.4578 -1.4522
 1737TIP3   OH2 5174   4.533   3.827   0.324 -0.0224 -0.2315 -0.2995
 1737TIP3    H1 5175   4.561   3.918   0.329  1.2629 -0.6583  0.8133
 1737TIP3    H2 5176   4.611   3.779   0.296 -0.3812 -1.1097  0.1605
 1738TIP3   OH2 5177   1.533   2.749   3.245 -0.6835 -0.9557 -0.2881
 1738TIP3    H1 5178   1.490   2.783   3.324 -1.6758 -1.4362 -0.6154
 1738TIP3    H2 5179   1.509   2.656   3.243 -0.1499 -1.0868 -0.8278
 1739TIP3   OH2 5180   2.353   1.515   5.214  0.0284 -0.0771  0.2439
 1739TIP3    H1 5181   2.325   1.484   5.127 -1.9439  0.7480  0.5402
 1739TIP3    H2 5182   2.272   1.535   5.260  1.0917  0.9844  1.7524
 1740TIP3   OH2 5183   1.741   5.921   5.847 -0.5469  0.1755 -0.2075
 1740TIP3    H1 5184   1.681   5.995   5.854  1.5504  1.7977  2.7258
 1740TIP3    H2 5185   1.815   5.954   5.796 -0.7949 -0.8710 -1.3027
 1741TIP3   OH2 5186   4.877   5.537   2.991  0.9599  0.0526 -0.0060
 1741TIP3    H1 5187   4.832   5.562   3.071  0.3412  0.9861 -0.6160
 1741TIP3    H2 5188   4.876   5.442   2.990 -1.8602  0.0116 -0.4356
 1742TIP3   OH2 5189   1.126   1.475   3.446  0.1892 -0.5144  0.1263
 1742TIP3    H1 5190   1.175   1.553   3.421  1.0463 -0.9824  0.3107
 1742TIP3    H2 5191   1.125   1.420   3.368  0.9407 -0.9953  0.4421
 1743TIP3   OH2 5192   1.275   1.668   0.295 -0.0510 -0.0334  0.0031
 1743TIP3    H1 5193   1.242   1.710   0.375 -0.8148  0.9971 -0.8292
 1743TIP3    H2 5194   1.328   1.735   0.253  0.6644 -0.7004 -0.1709
 1744TIP3   OH2 5195   6.146   2.316   4.007 -0.1770 -0.4628 -0.2400
 1744TIP3    H1 5196   6.088   2.342   3.935 -2.4474 -0.0487  1.6072
 1744TIP3    H2 5197   6.185   2.398   4.038 -0.7279 -0.3603  0.2049
 1745TIP3   OH2 5198   7.150   2.558   3.857  0.0493  0.4355 -0.1199
 1745TIP3    H1 5199   7.217   2.510   3.809  0.2466  0.1200  0.4604
 1745TIP3    H2 5200   7.194   2.636   3.891 -0.3061  1.1152 -1.1822
 1746TIP3   OH2 5201   3.261   1.361   0.368  0.1047 -0.5965 -0.0869
 1746TIP3    H1 5202   3.332   1.408   0.325 -0.7978 -0.2865 -1.3081
 1746TIP3    H2 5203   3.269   1.271   0.337 -0.4503 -0.4063 -0.8238
 1747TIP3   OH2 5204   1.503   2.173   1.690 -0.2139 -0.6087 -0.0263
 1747TIP3    H1 5205   1.539   2.251   1.733 -0.5780  0.3899 -1.4454
 1747TIP3    H2 5206   1.580   2.122   1.664  0.1579  0.5439 -1.3014
 1748TIP3   OH2 5207   4.971   2.293   5.332 -0.2294 -0.3540  0.1243
 1748TIP3    H1 5208   4.957   2.360   5.265 -0.9026  1.8283  2.3171
 1748TIP3    H2 5209   5.054   2.317   5.374 -1.0404 -0.1475  1.6959
 1749TIP3   OH2 5210   3.462   2.638   0.391 -0.3662  0.6930 -0.3935
 1749TIP3    H1 5211   3.388   2.685   0.353 -1.0445 -1.2263 -1.6138
 1749TIP3    H2 5212   3.426   2.551   0.411  1.8297 -0.7540 -2.2412
 1750TIP3   OH2 5213   5.138   0.205   4.245 -0.0073 -0.5168  0.5980
 1750TIP3    H1 5214   5.135   0.300   4.256  1.4142 -0.1958 -1.2236
 1750TIP3    H2 5215   5.065   0.185   4.187  0.8106 -0.2255 -0.5739
 1751TIP3   OH2 5216   1.693   0.930   4.715 -0.0858 -0.1664 -0.0538
 1751TIP3    H1 5217   1.731   0.843   4.730  2.0185  0.7254  0.0877
 1751TIP3    H2 5218   1.601   0.912   4.695 -0.2665 -2.2736  2.1517
 1752TIP3   OH2 5219   2.275   4.745   4.482  0.1227 -0.0349  0.3451
 1752TIP3    H1 5220   2.347   4.683   4.493  0.1133 -0.1405 -0.1542
 1752TIP3    H2 5221   2.315   4.822   4.442  0.2175  0.4631  1.3876
 1753TIP3   OH2 5222   0.535   1.173   1.439 -0.6419 -0.6841  0.7751
 1753TIP3    H1 5223   0.578   1.259   1.435 -0.4313 -0.8209 -0.0922
 1753TIP3    H2 5224   0.559   1.139   1.525  0.7237 -0.6080  0.4512
 1754TIP3   OH2 5225   2.689   1.980   0.449  0.1124 -0.2347  0.1934
 1754TIP3    H1 5226   2.693   1.991   0.354 -0.6673  0.3108  0.2187
 1754TIP3    H2 5227   2.778   1.999   0.479  0.2311  0.1094 -0.3686
 1755TIP3   OH2 5228   7.179   6.393   2.053 -0.6382 -0.7792  0.5354
 1755TIP3    H1 5229   7.102   6.375   1.999  0.0103 -0.2031 -0.6288
 1755TIP3    H2 5230   7.202   6.484   2.033 -0.9330 -0.2087  2.5204
 1756TIP3   OH2 5231   4.449   3.959   2.422 -0.5546 -0.1156  0.0152
 1756TIP3    H1 5232   4.443   3.920   2.335  1.1190  0.2043 -0.2716
 1756TIP3    H2 5233   4.395   3.902   2.477  0.2160 -1.6894 -0.7855
 1757TIP3   OH2 5234   2.096   0.770   3.583  0.5431 -0.2071  0.0816
 1757TIP3    H1 5235   2.054   0.836   3.638  0.0207 -1.0404  0.6913
 1757TIP3    H2 5236   2.171   0.816   3.545 -0.2990  0.9988 -0.1983
 1758TIP3   OH2 5237   3.713   0.707   0.798 -0.6068 -0.5543 -0.2019
 1758TIP3    H1 5238   3.702   0.802   0.804  1.7881 -0.2723  1.5106
 1758TIP3    H2 5239   3.718   0.689   0.704 -2.6179  0.7571 -0.6085
 1759TIP3   OH2 5240   1.163   3.169   2.653  1.0300 -0.4238 -0.3477
 1759TIP3    H1 5241   1.082   3.138   2.612  1.6712  0.0125 -2.0261
 1759TIP3    H2 5242   1.149   3.156   2.747 -2.1443  2.3093 -0.2613
 1760TIP3   OH2 5243   0.968   1.341   5.461 -0.0357  0.1850 -0.2674
 1760TIP3    H1 5244   0.985   1.418   5.407  0.9549 -0.7684 -1.3687
 1760TIP3    H2 5245   1.038   1.280   5.439  0.2544 -0.3598  1.9417
 1761TIP3   OH2 5246   0.903   5.809   1.561  0.0166 -0.0408  0.3800
 1761TIP3    H1 5247   0.918   5.841   1.471 -2.1182  0.0784  0.0142
 1761TIP3    H2 5248   0.911   5.714   1.554 -2.3020 -0.2477 -0.4956
 1762TIP3   OH2 5249   2.690   5.678   2.037 -0.2729  0.0282  0.1795
 1762TIP3    H1 5250   2.600   5.683   2.005 -0.5974 -1.3689  0.7700
 1762TIP3    H2 5251   2.730   5.608   1.985  0.8080  1.2928 -0.7688
 1763TIP3   OH2 5252   6.967   5.107   3.977  0.3994  0.7398 -0.4930
 1763TIP3    H1 5253   6.989   5.017   3.952  0.4880  0.8287 -0.7333
 1763TIP3    H2 5254   6.974   5.157   3.896 -1.5179  0.6198 -0.7891
 1764TIP3   OH2 5255   6.243   3.315   2.496  0.1222 -0.6997  0.1466
 1764TIP3    H1 5256   6.335   3.338   2.507 -0.1654 -0.9301  4.8642
 1764TIP3    H2 5257   6.244   3.223   2.471  1.1358 -0.4867 -0.6587
 1765TIP3   OH2 5258   5.326   4.167   5.044  0.2568  0.3609  0.1251
 1765TIP3    H1 5259   5.263   4.233   5.073  0.3448  0.5175 -0.0393
 1765TIP3    H2 5260   5.275   4.086   5.042  0.1828  0.3969  0.4597
 1766TIP3   OH2 5261   0.052   5.098   4.501 -0.6033 -0.0299 -0.0984
 1766TIP3    H1 5262  -0.007   5.024   4.493 -1.8744  0.8535  0.7805
 1766TIP3    H2 5263   0.098   5.084   4.584  0.9637 -1.0508 -1.0829
 1767TIP3   OH2 5264   1.586   2.449   3.554  0.3016  0.4061 -0.3349
 1767TIP3    H1 5265   1.533   2.373   3.577 -0.7057  1.1494 -0.1286
 1767TIP3    H2 5266   1.548   2.482   3.473  0.4072  0.9811 -0.1571
 1768TIP3   OH2 5267   4.866   5.352   0.226 -0.5312  0.9242 -0.0502
 1768TIP3    H1 5268   4.776   5.383   0.211 -1.0902 -0.4546  0.2753
 1768TIP3    H2 5269   4.862   5.310   0.313 -0.5777 -2.4896 -1.5481
 1769TIP3   OH2 5270   5.069   2.931   3.442 -0.0507  0.6346  0.4468
 1769TIP3    H1 5271   4.982   2.947   3.405  0.1560  1.2988  0.2305
 1769TIP3    H2 5272   5.054   2.922   3.536 -0.0910  3.1897  0.7577
 1770TIP3   OH2 5273   3.508   0.946   5.118 -0.1848 -0.5262  0.2503
 1770TIP3    H1 5274   3.521   0.938   5.023  0.7465 -1.0897  0.4096
 1770TIP3    H2 5275   3.434   0.888   5.137 -1.1758  0.5360 -0.2973
 1771TIP3   OH2 5276   4.810   1.220   4.577  0.3216 -0.1960 -0.4966
 1771TIP3    H1 5277   4.726   1.258   4.604 -0.0178 -0.0860 -1.6788
 1771TIP3    H2 5278   4.872   1.252   4.643 -0.3391  0.6991 -0.2855
 1772TIP3   OH2 5279   3.773   4.981   1.047 -0.4133 -0.6107 -0.9436
 1772TIP3    H1 5280   3.728   4.902   1.019 -1.6297 -0.1407 -0.3815
 1772TIP3    H2 5281   3.729   5.053   1.001 -1.7715  0.0685  1.2351
 1773TIP3   OH2 5282   4.722   1.917   4.092 -0.2418 -0.0599  0.2144
 1773TIP3    H1 5283   4.732   1.826   4.064 -0.9904  0.0547 -0.4456
 1773TIP3    H2 5284   4.810   1.955   4.083  0.7266 -1.3392  2.9083
 1774TIP3   OH2 5285   5.569   3.806   0.679  0.3727  0.3473  0.2255
 1774TIP3    H1 5286   5.571   3.713   0.655  0.1834  0.0969  1.1637
 1774TIP3    H2 5287   5.477   3.830   0.673  0.2839  0.2062  0.9762
 1775TIP3   OH2 5288   2.083   3.076   2.584 -0.0641 -0.0120 -0.2140
 1775TIP3    H1 5289   2.010   3.039   2.634 -0.3531 -0.0963 -0.6967
 1775TIP3    H2 5290   2.148   3.100   2.651 -0.2883 -0.4725  0.1745
 1776TIP3   OH2 5291   0.329   0.566   0.208  0.6521 -0.2466 -0.0266
 1776TIP3    H1 5292   0.345   0.472   0.205 -2.2419 -0.8436  0.1552
 1776TIP3    H2 5293   0.294   0.587   0.121  1.1775  0.6709 -0.0340
 1777TIP3   OH2 5294   6.202   1.950   3.588 -0.2944  0.0645  0.6478
 1777TIP3    H1 5295   6.219   1.975   3.679  0.6014 -0.3183  0.5959
 1777TIP3    H2 5296   6.250   2.014   3.536  0.1957 -0.4365  0.4718
 1778TIP3   OH2 5297   1.291   0.287   0.964 -0.0746 -0.3199  0.1824
 1778TIP3    H1 5298   1.372   0.268   1.011 -0.7702 -1.2655  1.0248
 1778TIP3    H2 5299   1.252   0.202   0.947 -1.0700  0.1396  0.0696
 1779TIP3   OH2 5300   1.043   2.152   5.235 -0.2580  0.2965 -0.1922
 1779TIP3    H1 5301   1.099   2.128   5.309 -0.9016 -1.1833 -0.1623
 1779TIP3    H2 5302   1.092   2.222   5.191  1.1945 -0.3189  0.3561
 1780TIP3   OH2 5303   0.182   4.935   5.471  0.1286  0.0406 -0.2102
 1780TIP3    H1 5304   0.094   4.906   5.495 -0.0430 -0.5856 -1.5161
 1780TIP3    H2 5305   0.186   5.027   5.499 -0.0978 -0.5766  1.9731
 1781TIP3   OH2 5306   3.366   0.059   2.747 -0.6502 -0.3199  0.1747
 1781TIP3    H1 5307   3.395   0.148   2.769  2.1139 -0.4591 -2.2456
 1781TIP3    H2 5308   3.428   0.002   2.792 -1.2903 -0.9793  0.2374
 1782TIP3   OH2 5309   0.763   0.273   0.997 -0.3553  0.1098 -0.4915
 1782TIP3    H1 5310   0.741   0.324   0.919  1.7895  0.4763 -0.9170
 1782TIP3    H2 5311   0.779   0.338   1.065  0.2114 -0.0724 -0.4408
 1783TIP3   OH2 5312   5.300   1.950   5.890 -0.0169 -0.0300  0.5867
 1783TIP3    H1 5313   5.337   1.958   5.802 -0.7357 -0.9735  0.1741
 1783TIP3    H2 5314   5.315   1.858   5.915  0.2587  0.2480  1.4836
 1784TIP3   OH2 5315   7.003   6.416   1.842 -0.0019 -0.1696 -0.2638
 1784TIP3    H1 5316   7.016   6.483   1.775 -0.4020  0.9366  0.7245
 1784TIP3    H2 5317   6.954   6.347   1.797  0.6360  0.0695 -1.3710
 1785TIP3   OH2 5318   4.447   3.887   1.443 -0.2122 -0.2473 -0.1957
 1785TIP3    H1 5319   4.361   3.923   1.423  1.0949  3.3926  0.0847
 1785TIP3    H2 5320   4.478   3.851   1.360 -1.4028 -0.3364 -0.6241
 1786TIP3   OH2 5321   1.969   4.636   2.934  0.3532  0.1435  0.1262
 1786TIP3    H1 5322   1.980   4.632   3.029  0.4266  1.2522  0.1797
 1786TIP3    H2 5323   2.042   4.690   2.903 -0.2107  0.6103 -0.4359
 1787TIP3   OH2 5324   5.533   3.156   0.157 -0.0847  0.3785  0.5936
 1787TIP3    H1 5325   5.596   3.167   0.086 -1.5791 -0.8953 -1.0493
 1787TIP3    H2 5326   5.499   3.067   0.145 -0.1300 -0.0217  3.1764
 1788TIP3   OH2 5327   5.109   0.620   3.183  0.3939 -0.0185 -0.4867
 1788TIP3    H1 5328   5.024   0.664   3.186  1.2436  1.8661 -2.1892
 1788TIP3    H2 5329   5.091   0.531   3.216 -1.6204  1.1567  1.9525
 1789TIP3   OH2 5330   5.853   4.639   3.283  0.2882 -0.2137  0.1445
 1789TIP3    H1 5331   5.860   4.697   3.206 -0.1582 -0.0685  0.2052
 1789TIP3    H2 5332   5.925   4.665   3.340 -0.7967  1.3558  0.8693
 1790TIP3   OH2 5333   4.742   6.513   3.653 -0.3084 -0.0309  0.2612
 1790TIP3    H1 5334   4.686   6.546   3.583  0.5949 -0.5290 -0.7200
 1790TIP3    H2 5335   4.710   6.424   3.669 -0.6317  0.1471  0.6139
 1791TIP3   OH2 5336   4.249   6.015   1.110 -0.3620  0.0031  0.4970
 1791TIP3    H1 5337   4.165   6.059   1.097  0.0566  0.6939  0.0517
 1791TIP3    H2 5338   4.290   6.016   1.023  0.4787  0.4515  0.8858
 1792TIP3   OH2 5339   3.521   5.872   2.320  0.6878  0.3691  0.2726
 1792TIP3    H1 5340   3.583   5.807   2.288 -0.5050  0.2189 -2.0333
 1792TIP3    H2 5341   3.438   5.824   2.328  0.1740  1.2033  0.1744
 1793TIP3   OH2 5342   1.499   0.639   0.520 -0.1995 -0.4513 -0.1575
 1793TIP3    H1 5343   1.483   0.705   0.588 -2.3926 -1.4257  0.3700
 1793TIP3    H2 5344   1.434   0.571   0.537  0.1197 -1.4036 -2.4075
 1794TIP3   OH2 5345   3.353   4.325   0.943  0.4324  0.5580 -0.5729
 1794TIP3    H1 5346   3.336   4.304   0.851  0.9830  1.8649 -1.0017
 1794TIP3    H2 5347   3.286   4.277   0.992 -0.8006  0.9908 -1.7687
 1795TIP3   OH2 5348   4.682   0.721   4.669 -0.1714 -0.0695  0.4591
 1795TIP3    H1 5349   4.621   0.660   4.630  1.1149 -1.2874  0.2735
 1795TIP3    H2 5350   4.739   0.748   4.597 -0.1027  0.5799  0.7439
 1796TIP3   OH2 5351   6.234   1.711   5.630  0.4669 -0.2106 -0.1456
 1796TIP3    H1 5352   6.302   1.777   5.643  0.8188 -0.7669  0.9000
 1796TIP3    H2 5353   6.263   1.636   5.680 -0.0874 -1.0675 -1.0760
 1797TIP3   OH2 5354   0.477   5.164   3.953 -0.5567 -0.3250 -0.0459
 1797TIP3    H1 5355   0.477   5.120   4.038 -1.1590  0.4125  0.3377
 1797TIP3    H2 5356   0.386   5.165   3.926 -0.7485  1.7419  0.5118
 1798TIP3   OH2 5357   2.444   4.210   3.814 -0.1459  0.1796  0.6733
 1798TIP3    H1 5358   2.432   4.115   3.805  0.0341  0.1899  0.3304
 1798TIP3    H2 5359   2.481   4.238   3.730 -2.1667  0.8832 -0.0480
 1799TIP3   OH2 5360   2.709   4.233   4.585  0.2496  0.3832  0.5474
 1799TIP3    H1 5361   2.765   4.244   4.662  0.0218 -1.7321  1.0807
 1799TIP3    H2 5362   2.628   4.278   4.607  0.5971  0.7499  1.0920
 1800TIP3   OH2 5363   4.494   0.383   2.572  0.1442 -0.4853  0.2422
 1800TIP3    H1 5364   4.584   0.400   2.545 -0.1650 -0.9405 -1.1405
 1800TIP3    H2 5365   4.443   0.391   2.492 -0.9251 -1.1373  0.8362
 1801TIP3   OH2 5366   6.660   0.077   2.845 -0.0635  0.3030  0.2480
 1801TIP3    H1 5367   6.565   0.065   2.837 -0.4060  1.1012  2.4970
 1801TIP3    H2 5368   6.671   0.131   2.923  2.2673  0.1473  0.0910
 1802TIP3   OH2 5369   4.345   1.779   0.489  0.1188  0.8754  0.0444
 1802TIP3    H1 5370   4.267   1.829   0.465 -0.9796 -0.9079 -0.3071
 1802TIP3    H2 5371   4.354   1.791   0.583  0.6636  2.7315 -0.1989
 1803TIP3   OH2 5372   2.180   5.830   3.119 -0.3996 -0.1283  0.2536
 1803TIP3    H1 5373   2.199   5.764   3.185  1.1719 -0.2628 -0.2930
 1803TIP3    H2 5374   2.249   5.895   3.129 -0.1858 -0.0979 -1.1852
 1804TIP3   OH2 5375   6.201   6.723   0.348 -0.1808 -0.5761  0.4777
 1804TIP3    H1 5376   6.277   6.732   0.406  0.4118  0.9907 -0.4666
 1804TIP3    H2 5377   6.132   6.772   0.393 -0.5814 -1.7582  1.1965
 1805TIP3   OH2 5378   5.292   3.943   1.864 -0.2800  0.2451  0.1835
 1805TIP3    H1 5379   5.375   3.991   1.871  0.0099 -0.3128  0.6426
 1805TIP3    H2 5380   5.284   3.923   1.771 -0.8511  1.9444 -0.1670
 1806TIP3   OH2 5381   1.715   1.684   3.275  0.0231  0.0232 -0.8809
 1806TIP3    H1 5382   1.645   1.647   3.329  0.8845 -0.0790  0.2093
 1806TIP3    H2 5383   1.689   1.775   3.260 -0.6231 -0.1780 -0.9913
 1807TIP3   OH2 5384   4.797   1.603   5.119  0.1027  0.4445 -0.3722
 1807TIP3    H1 5385   4.710   1.585   5.085 -0.1200 -0.8466  0.7563
 1807TIP3    H2 5386   4.856   1.550   5.065  0.0656  0.5388 -0.5030
 1808TIP3   OH2 5387   3.679   5.416   5.474  0.1991  0.4584  0.2745
 1808TIP3    H1 5388   3.600   5.379   5.435  0.1307 -0.9074  1.5620
 1808TIP3    H2 5389   3.696   5.496   5.425  0.0103 -0.9928 -2.3412
 1809TIP3   OH2 5390   0.534   5.128   5.677  0.1624  0.7245  0.2689
 1809TIP3    H1 5391   0.578   5.207   5.708 -0.1248  1.1158 -0.2865
 1809TIP3    H2 5392   0.489   5.156   5.597  0.5820 -0.1534 -0.2982
 1810TIP3   OH2 5393   2.700   5.297   2.325 -0.0918 -0.3113 -0.1806
 1810TIP3    H1 5394   2.737   5.277   2.239  2.2340 -1.9660  1.0937
 1810TIP3    H2 5395   2.776   5.320   2.379 -1.1454 -1.5969  1.9980
 1811TIP3   OH2 5396   1.312   2.876   0.742 -0.9168 -0.2759 -0.5352
 1811TIP3    H1 5397   1.369   2.867   0.666  1.5418  1.7960  0.8969
 1811TIP3    H2 5398   1.336   2.804   0.799 -0.2324  0.1636 -0.2580
 1812TIP3   OH2 5399   6.421   4.194   4.235  0.0517  1.2086  0.3664
 1812TIP3    H1 5400   6.429   4.116   4.289  2.5614  0.3735 -1.0084
 1812TIP3    H2 5401   6.346   4.177   4.178  0.4784 -0.1943  0.1807
 1813TIP3   OH2 5402   7.176   4.197   4.981 -0.1375  0.4510  0.4824
 1813TIP3    H1 5403   7.128   4.266   4.934 -1.0572  0.3330  1.2202
 1813TIP3    H2 5404   7.109   4.133   5.004  0.9771 -1.8674 -2.0866
 1814TIP3   OH2 5405   5.172   5.394   2.238  0.2128 -0.2752  0.7220
 1814TIP3    H1 5406   5.162   5.476   2.190  1.7042 -0.7147 -0.4062
 1814TIP3    H2 5407   5.264   5.371   2.228 -0.0233 -1.7507  1.5898
 1815TIP3   OH2 5408   2.495   3.577   4.632  0.2311  0.0652  0.6930
 1815TIP3    H1 5409   2.456   3.638   4.694  0.6659  0.8560  0.1983
 1815TIP3    H2 5410   2.458   3.602   4.548 -1.4091 -1.8624  0.7677
 1816TIP3   OH2 5411   1.726   1.775   2.356 -0.0102 -0.3878  0.5340
 1816TIP3    H1 5412   1.810   1.779   2.401 -0.5196  0.1430  1.4631
 1816TIP3    H2 5413   1.662   1.808   2.420 -1.0188 -1.3719  0.0690
 1817TIP3   OH2 5414   1.887   1.906   0.872 -0.6503 -0.3515 -0.5650
 1817TIP3    H1 5415   1.953   1.923   0.939  0.5745 -1.4456 -1.4444
 1817TIP3    H2 5416   1.804   1.924   0.916  0.2100  1.1904  0.5280
 1818TIP3   OH2 5417   4.964   4.167   0.434  0.2212  0.2865 -0.1237
 1818TIP3    H1 5418   5.025   4.157   0.507  0.1151  0.7463  0.0345
 1818TIP3    H2 5419   4.927   4.080   0.421 -1.0278  0.5209  1.5070
 1819TIP3   OH2 5420   1.504   6.018   4.503 -1.1395  0.0472 -0.1809
 1819TIP3    H1 5421   1.588   6.009   4.458 -0.1746  1.7574  1.1765
 1819TIP3    H2 5422   1.514   5.965   4.583 -0.8526  1.2744  0.6140
 1820TIP3   OH2 5423   3.786   1.108   1.078  0.0669  0.5551 -0.5358
 1820TIP3    H1 5424   3.713   1.064   1.122 -0.1964  0.9950 -0.5343
 1820TIP3    H2 5425   3.852   1.039   1.067  0.1852  0.4600  0.6502
 1821TIP3   OH2 5426   0.860   4.504   0.263  0.5887  0.1257  0.1526
 1821TIP3    H1 5427   0.859   4.579   0.203 -1.5935 -0.8759 -1.2156
 1821TIP3    H2 5428   0.796   4.526   0.330 -0.3482 -0.6025 -0.4659
 1822TIP3   OH2 5429   2.893   0.048   4.493  0.0198  0.2102 -0.4573
 1822TIP3    H1 5430   2.916   0.043   4.586  3.3702  1.1226 -1.1041
 1822TIP3    H2 5431   2.824  -0.018   4.482  1.2214 -1.6826  2.2188
 1823TIP3   OH2 5432   4.638   3.864   3.013 -0.0846  0.1171 -0.1706
 1823TIP3    H1 5433   4.644   3.770   2.998 -1.1346 -0.3212  1.7684
 1823TIP3    H2 5434   4.555   3.875   3.060 -1.1290  2.3099 -2.3170
 1824TIP3   OH2 5435   3.202   2.711   3.317 -0.5677 -0.1119 -0.1567
 1824TIP3    H1 5436   3.217   2.750   3.231  0.2105 -1.2693 -0.5760
 1824TIP3    H2 5437   3.220   2.781   3.379  1.4709  0.0461 -0.8570
 1825TIP3   OH2 5438   7.010   0.582   4.193 -0.3277  0.4834 -0.1348
 1825TIP3    H1 5439   6.992   0.669   4.228 -0.4674  0.4678 -0.1684
 1825TIP3    H2 5440   6.959   0.522   4.247 -2.1029  0.6280 -1.5616
 1826TIP3   OH2 5441   3.940   6.540   5.155  0.5144 -0.3562 -0.6702
 1826TIP3    H1 5442   3.939   6.606   5.225 -0.6927 -1.0548  0.0026
 1826TIP3    H2 5443   3.949   6.456   5.201 -2.3029 -1.0068 -1.1229
 1827TIP3   OH2 5444   3.768   4.051   3.362  0.0080  0.4871  0.2554
 1827TIP3    H1 5445   3.806   4.109   3.296 -0.7588  1.3480  0.5570
 1827TIP3    H2 5446   3.737   3.975   3.313  1.8093 -0.0974 -0.0374
 1828TIP3   OH2 5447   6.665   4.750   0.874  0.5045  0.3294 -0.1938
 1828TIP3    H1 5448   6.715   4.818   0.828  0.6052  0.8767  0.7031
 1828TIP3    H2 5449   6.574   4.775   0.862  0.5297  0.4391 -0.1659
 1829TIP3   OH2 5450   2.068   4.998   0.328  0.6748  0.0593 -0.4305
 1829TIP3    H1 5451   2.103   5.057   0.395  0.6118 -0.3153 -0.0649
 1829TIP3    H2 5452   1.973   5.008   0.335  0.6757  0.7590 -1.1391
 1830TIP3   OH2 5453   2.496   6.381   3.719  0.2770  0.1022  0.2628
 1830TIP3    H1 5454   2.459   6.296   3.694 -0.9271  0.8294 -0.5372
 1830TIP3    H2 5455   2.562   6.360   3.785 -0.9143 -1.3371  1.0387
 1831TIP3   OH2 5456   5.066   6.239   0.818 -0.3997 -0.3755  0.2025
 1831TIP3    H1 5457   5.085   6.255   0.726  0.6815  0.6656  0.5741
 1831TIP3    H2 5458   5.021   6.319   0.847 -3.4541 -1.8696 -0.1007
 1832TIP3   OH2 5459   2.807   6.614   1.422  0.0454  0.3805 -0.2589
 1832TIP3    H1 5460   2.885   6.577   1.381 -0.5209 -0.7118 -0.4006
 1832TIP3    H2 5461   2.734   6.573   1.375 -0.6088  0.6114  0.5353
 1833TIP3   OH2 5462   2.406   0.235   5.193  0.2544 -0.0730  0.1335
 1833TIP3    H1 5463   2.421   0.150   5.236 -3.3230 -1.9826 -1.9083
 1833TIP3    H2 5464   2.419   0.217   5.100 -2.3111  1.0485 -0.5261
 1834TIP3   OH2 5465   4.095   3.599   2.076  0.8434  0.3384  0.3354
 1834TIP3    H1 5466   4.086   3.503   2.076  1.8490  0.2295  0.3947
 1834TIP3    H2 5467   4.029   3.630   2.137 -0.9441 -0.1568 -1.2698
 1835TIP3   OH2 5468   1.516   3.335   3.387  0.0068 -0.3931 -0.2332
 1835TIP3    H1 5469   1.514   3.243   3.361  2.1735 -1.0307  1.5508
 1835TIP3    H2 5470   1.432   3.349   3.432 -0.8680 -1.0869 -1.5679
 1836TIP3   OH2 5471   5.014   1.840   1.420  0.1648 -0.6270 -0.1997
 1836TIP3    H1 5472   5.090   1.893   1.396 -1.0078  1.3502  0.1567
 1836TIP3    H2 5473   5.049   1.771   1.476  1.5886  1.0023  1.0534
 1837TIP3   OH2 5474   2.476   2.064   3.742 -0.1110 -0.8236 -0.3165
 1837TIP3    H1 5475   2.559   2.089   3.701  0.5551 -0.0801  1.4021
 1837TIP3    H2 5476   2.460   1.975   3.710  1.2179 -0.8908 -0.8726
 1838TIP3   OH2 5477   6.409   1.496   5.385 -0.0425  0.7470 -0.3964
 1838TIP3    H1 5478   6.377   1.427   5.443 -2.9070  1.4534 -0.9606
 1838TIP3    H2 5479   6.463   1.450   5.321 -0.7924 -0.7695  0.0096
 1839TIP3   OH2 5480   3.175   5.419   2.016  0.5050  0.0031  0.0586
 1839TIP3    H1 5481   3.230   5.436   1.939  0.4941  1.3715  0.3236
 1839TIP3    H2 5482   3.111   5.491   2.016 -0.5657 -0.9212  0.4089
 1840TIP3   OH2 5483   5.517   6.507   5.683 -0.0753  0.0059  0.7133
 1840TIP3    H1 5484   5.582   6.576   5.692 -0.7551  0.7182  0.2548
 1840TIP3    H2 5485   5.568   6.427   5.673  0.7268  0.5432  0.4399
 1841TIP3   OH2 5486   6.198   2.033   1.374 -0.7111 -0.3434  0.5445
 1841TIP3    H1 5487   6.124   2.094   1.377 -1.4015 -1.1278 -0.1576
 1841TIP3    H2 5488   6.195   1.986   1.457 -0.6550  0.0183  0.7527
 1842TIP3   OH2 5489   2.899   4.164   3.765 -0.1358 -0.2683 -0.6744
 1842TIP3    H1 5490   2.820   4.123   3.729  0.1540 -0.4461 -1.1260
 1842TIP3    H2 5491   2.900   4.251   3.726 -0.5478  0.0342 -0.0163
 1843TIP3   OH2 5492   0.629   0.678   1.251  0.2036  0.1657 -0.2725
 1843TIP3    H1 5493   0.550   0.713   1.210 -0.6196 -1.1173  0.1752
 1843TIP3    H2 5494   0.636   0.724   1.334 -0.8609 -0.6740  0.3048
 1844TIP3   OH2 5495   4.359   2.137   5.211  0.3775 -0.5601 -0.0867
 1844TIP3    H1 5496   4.319   2.075   5.271  1.7452  0.6739  2.2421
 1844TIP3    H2 5497   4.439   2.094   5.180  0.9693 -0.2627  0.9886
 1845TIP3   OH2 5498   0.356   4.009   3.347  0.4616  0.2265  0.5425
 1845TIP3    H1 5499   0.418   4.078   3.323 -0.9576  1.4639  0.3094
 1845TIP3    H2 5500   0.406   3.951   3.404  1.9174  1.0210  0.1222
 1846TIP3   OH2 5501   1.011   2.416   4.659  0.2893  0.1408 -0.2643
 1846TIP3    H1 5502   0.967   2.464   4.729  0.5323  0.4274 -0.3080
 1846TIP3    H2 5503   1.077   2.477   4.625  0.4059 -0.1196 -0.5106
 1847TIP3   OH2 5504   0.820   0.962   1.487  0.2447  0.2839  0.1167
 1847TIP3    H1 5505   0.840   0.951   1.394 -1.5493 -2.7253 -0.0600
 1847TIP3    H2 5506   0.741   1.015   1.489  0.7204  1.0047 -0.0075
 1848TIP3   OH2 5507   0.132   0.429   1.728 -0.6957  0.3285 -0.0302
 1848TIP3    H1 5508   0.060   0.492   1.737 -1.2000 -0.1063 -0.9202
 1848TIP3    H2 5509   0.130   0.403   1.636  0.9022  0.6526 -0.1891
 1849TIP3   OH2 5510   3.596   5.106   3.475  0.4385 -0.3612  0.3568
 1849TIP3    H1 5511   3.503   5.087   3.467  0.2184  0.8744 -0.3653
 1849TIP3    H2 5512   3.640   5.026   3.449 -0.4084 -1.4105  2.0013
 1850TIP3   OH2 5513   2.931   4.302   1.356 -0.4422  0.0948 -0.5662
 1850TIP3    H1 5514   2.922   4.396   1.371  0.1566  0.0836 -0.0723
 1850TIP3    H2 5515   2.864   4.263   1.412 -1.0952  0.2446 -1.2250
 1851TIP3   OH2 5516   7.169   6.762   3.194 -0.1826 -0.2684  0.4725
 1851TIP3    H1 5517   7.119   6.763   3.276  3.6148 -0.3041  2.9978
 1851TIP3    H2 5518   7.222   6.841   3.198 -0.1140 -0.1103 -2.1983
 1852TIP3   OH2 5519   0.423   6.572   0.995  0.3498  0.2672 -0.6424
 1852TIP3    H1 5520   0.487   6.640   0.973  1.2589 -0.3933 -0.0999
 1852TIP3    H2 5521   0.376   6.606   1.071 -1.7261  1.8648 -2.4733
 1853TIP3   OH2 5522   1.889   2.093   1.654 -0.1133  0.0658  0.5650
 1853TIP3    H1 5523   1.844   2.015   1.622 -1.3300  0.8460  0.3380
 1853TIP3    H2 5524   1.894   2.081   1.749  1.1263 -1.0012  0.3997
 1854TIP3   OH2 5525   0.797   0.402   1.476  0.1980 -0.5072  0.6672
 1854TIP3    H1 5526   0.756   0.487   1.495  1.9682  0.8278 -1.0388
 1854TIP3    H2 5527   0.726   0.339   1.482 -1.3241  1.1856  1.3424
 1855TIP3   OH2 5528   4.178   0.991   4.311 -0.3187 -0.2517 -0.3999
 1855TIP3    H1 5529   4.269   1.010   4.287 -0.0125 -2.2099 -0.9487
 1855TIP3    H2 5530   4.185   0.932   4.387 -1.2229  1.9317  1.5102
 1856TIP3   OH2 5531   6.564   1.597   2.289  0.4582 -0.2990  0.1133
 1856TIP3    H1 5532   6.515   1.679   2.285  1.0208  0.0631  0.3643
 1856TIP3    H2 5533   6.506   1.531   2.251  0.0726  0.2547 -0.2689
 1857TIP3   OH2 5534   1.098   0.001   5.154 -0.4177 -0.0579  0.3959
 1857TIP3    H1 5535   1.057   0.053   5.224 -0.3033 -0.1689  0.5445
 1857TIP3    H2 5536   1.027  -0.014   5.091 -0.5062  0.0917  0.4595
 1858TIP3   OH2 5537   0.856   5.892   4.728  0.8150  0.1257 -0.4605
 1858TIP3    H1 5538   0.774   5.892   4.679  0.1266 -2.0481  0.5644
 1858TIP3    H2 5539   0.852   5.972   4.782  0.2101  0.9361 -1.6661
 1859TIP3   OH2 5540   1.114  -0.018   3.868  0.2539  0.4491  0.0324
 1859TIP3    H1 5541   1.170   0.058   3.886  1.3215 -0.3833  0.3713
 1859TIP3    H2 5542   1.080  -0.003   3.780  1.5753  0.6829 -0.4649
 1860TIP3   OH2 5543   2.999   1.694   3.270 -0.3102  0.0264  0.4152
 1860TIP3    H1 5544   3.059   1.639   3.320  0.7842  2.2304  1.7260
 1860TIP3    H2 5545   2.940   1.731   3.337  0.1379  1.7742 -0.1094
 1861TIP3   OH2 5546   4.789   2.496   2.356 -0.1103 -0.2196  0.3817
 1861TIP3    H1 5547   4.862   2.556   2.372 -0.8027  0.5643  0.6812
 1861TIP3    H2 5548   4.787   2.485   2.261  0.6850 -0.6179  0.4101
 1862TIP3   OH2 5549   6.891   5.197   5.721 -0.2233 -0.2449  0.4236
 1862TIP3    H1 5550   6.828   5.259   5.758 -0.0110  0.3857 -0.2412
 1862TIP3    H2 5551   6.911   5.233   5.634  0.5001 -0.8303  0.3413
 1863TIP3   OH2 5552   4.756   5.977   3.563  0.0022  0.1142 -0.2532
 1863TIP3    H1 5553   4.787   5.921   3.634  1.8783  2.3546  0.8179
 1863TIP3    H2 5554   4.828   5.980   3.500  0.3475  2.0129  0.1736
 1864TIP3   OH2 5555   3.286   3.113   1.794  0.3488 -0.4131  0.2125
 1864TIP3    H1 5556   3.273   3.081   1.705 -0.5211 -1.6189  0.7458
 1864TIP3    H2 5557   3.379   3.101   1.811  0.3888 -0.8380 -0.2903
 1865TIP3   OH2 5558   6.709   4.979   1.805  0.9150 -0.4165  0.0222
 1865TIP3    H1 5559   6.743   5.055   1.756 -1.4007  0.4580 -0.3911
 1865TIP3    H2 5560   6.684   4.917   1.737  0.2364 -0.3607  0.2136
 1866TIP3   OH2 5561   0.978   2.757   3.967 -0.6897 -0.3303  0.2761
 1866TIP3    H1 5562   1.027   2.801   4.037 -2.5820  0.5680  1.0876
 1866TIP3    H2 5563   0.951   2.827   3.908  0.0675 -0.9728 -0.8716
 1867TIP3   OH2 5564   1.768   3.159   3.564 -0.2165 -0.6368 -0.0234
 1867TIP3    H1 5565   1.766   3.251   3.590 -0.6415 -0.6293 -0.0842
 1867TIP3    H2 5566   1.858   3.144   3.536  0.2477 -0.6288  1.3797
 1868TIP3   OH2 5567   2.306   1.446   5.767  0.0510 -0.0661 -0.2498
 1868TIP3    H1 5568   2.236   1.380   5.768  0.3892 -0.4342 -0.3926
 1868TIP3    H2 5569   2.374   1.408   5.822  1.4497 -1.1903 -2.5776
 1869TIP3   OH2 5570   5.628   4.002   4.965  0.0585  0.3589  0.1162
 1869TIP3    H1 5571   5.559   3.993   5.031  0.2070  0.1299  0.2411
 1869TIP3    H2 5572   5.599   3.945   4.893  1.3722 -1.8099  1.2184
 1870TIP3   OH2 5573   0.409   4.744   4.975  0.0176 -0.1037 -0.2263
 1870TIP3    H1 5574   0.331   4.795   4.955 -0.0641  0.9465  2.3943
 1870TIP3    H2 5575   0.399   4.719   5.066  3.6353  1.8597  0.9138
 1871TIP3   OH2 5576   3.832   3.394   4.494  0.7315  0.1042 -0.6474
 1871TIP3    H1 5577   3.774   3.446   4.438 -0.5604 -0.7894 -0.1967
 1871TIP3    H2 5578   3.850   3.315   4.443  0.6396 -0.1167 -0.3396
 1872TIP3   OH2 5579   0.103   4.629   2.375  0.1139  0.6421  0.4216
 1872TIP3    H1 5580   0.027   4.587   2.335 -0.0317  0.4734  0.8690
 1872TIP3    H2 5581   0.116   4.581   2.457  1.1961  0.1294 -0.0265
 1873TIP3   OH2 5582   5.071   6.253   2.598 -0.1595  0.3319 -0.1296
 1873TIP3    H1 5583   5.094   6.181   2.540 -1.3589  0.8082 -1.2357
 1873TIP3    H2 5584   5.126   6.326   2.570  0.8453 -0.0369  0.8022
 1874TIP3   OH2 5585   1.919   2.393   1.832 -0.8050 -0.3932  0.0768
 1874TIP3    H1 5586   1.936   2.308   1.871  1.0667 -0.0342  0.1382
 1874TIP3    H2 5587   1.919   2.378   1.738 -0.0636 -0.4149  0.0739
 1875TIP3   OH2 5588   4.251   1.395   1.898 -0.1384  0.3644 -0.1830
 1875TIP3    H1 5589   4.217   1.419   1.984  1.2039 -0.2923  0.5605
 1875TIP3    H2 5590   4.190   1.435   1.836 -2.0946 -0.5691  1.0616
 1876TIP3   OH2 5591   4.145   5.670   5.217 -0.5189 -0.5506 -0.2916
 1876TIP3    H1 5592   4.067   5.623   5.247 -0.3448  0.5319  2.0890
 1876TIP3    H2 5593   4.148   5.748   5.272  1.3913  0.2346 -1.4300
 1877TIP3   OH2 5594   0.759   0.745   4.583 -0.5663 -0.1561  0.2369
 1877TIP3    H1 5595   0.725   0.833   4.567 -1.6342 -0.3312  1.3685
 1877TIP3    H2 5596   0.731   0.725   4.673  1.7228 -0.7015  0.9041
 1878TIP3   OH2 5597   0.389   2.912   1.214  0.3493 -0.3662 -0.6678
 1878TIP3    H1 5598   0.294   2.911   1.200 -0.0008  0.8401  1.1915
 1878TIP3    H2 5599   0.417   2.823   1.192 -1.7425 -1.7692  1.6825
 1879TIP3   OH2 5600   1.960   4.973   3.330 -0.4628 -0.8239  0.1387
 1879TIP3    H1 5601   1.933   5.021   3.408 -1.2794 -0.4055 -0.3814
 1879TIP3    H2 5602   1.933   4.883   3.346 -2.5830 -0.3634 -0.4942
 1880TIP3   OH2 5603   5.448   2.916   0.382  0.4931  0.4022  0.6484
 1880TIP3    H1 5604   5.397   2.941   0.304 -0.4639  0.7514  1.3645
 1880TIP3    H2 5605   5.384   2.878   0.441  1.3826 -0.7422  0.9031
 1881TIP3   OH2 5606   5.867   4.246   3.123  0.0233  0.2995 -0.0172
 1881TIP3    H1 5607   5.850   4.243   3.217  1.0566  2.2356  0.2868
 1881TIP3    H2 5608   5.815   4.320   3.092  0.3735  0.2269 -0.8060
 1882TIP3   OH2 5609   6.158   6.039   3.557  0.2142 -0.4497 -0.1129
 1882TIP3    H1 5610   6.234   6.082   3.518  0.4577  0.7585  1.5944
 1882TIP3    H2 5611   6.083   6.079   3.513  0.5297 -0.7084 -0.8948
 1883TIP3   OH2 5612   4.750   5.101   0.707  0.1944 -0.3749  0.4799
 1883TIP3    H1 5613   4.777   5.136   0.792  1.8596  0.1647 -0.2259
 1883TIP3    H2 5614   4.797   5.018   0.700  0.1323 -0.3753  0.0451
 1884TIP3   OH2 5615   3.704   2.933   0.021  0.2255 -0.0310 -0.2643
 1884TIP3    H1 5616   3.705   2.838   0.033 -0.3332 -0.1064 -0.7816
 1884TIP3    H2 5617   3.767   2.948  -0.050 -0.8537 -0.1819 -1.2752
 1885TIP3   OH2 5618   3.477   2.460   0.825 -0.0172 -0.2196  0.2088
 1885TIP3    H1 5619   3.435   2.523   0.767  0.0264  0.5608  0.9930
 1885TIP3    H2 5620   3.566   2.450   0.791  0.3102  0.9659  0.6765
 1886TIP3   OH2 5621   4.110   1.281   3.887  0.2420  0.0595  0.1589
 1886TIP3    H1 5622   4.139   1.366   3.920  2.3811  0.4507 -2.4295
 1886TIP3    H2 5623   4.188   1.226   3.892 -1.0482 -1.7830  1.5826
 1887TIP3   OH2 5624   5.093   6.706   1.521  0.1634 -0.1924 -0.0911
 1887TIP3    H1 5625   5.168   6.728   1.576 -1.1000 -0.4127  1.7960
 1887TIP3    H2 5626   5.017   6.727   1.574 -1.1187 -2.7472 -0.7599
 1888TIP3   OH2 5627   0.962   5.953   2.566  0.1016 -0.3573 -0.0726
 1888TIP3    H1 5628   1.017   5.875   2.555 -0.6842 -1.1369  1.1515
 1888TIP3    H2 5629   0.928   5.945   2.656 -0.1099  1.3348  0.0265
 1889TIP3   OH2 5630   5.171   2.309   4.276  0.0811 -0.0431 -0.6674
 1889TIP3    H1 5631   5.161   2.277   4.365 -0.3016 -1.6585 -1.2583
 1889TIP3    H2 5632   5.183   2.403   4.285  0.1580 -0.2004  1.0850
 1890TIP3   OH2 5633   2.405   0.806   5.752 -0.0818 -0.0912  0.3778
 1890TIP3    H1 5634   2.453   0.788   5.833  0.7635  0.7870  0.0986
 1890TIP3    H2 5635   2.313   0.793   5.775 -0.3892  4.4820  2.8400
 1891TIP3   OH2 5636   4.619   2.257   5.790  0.1251  0.3346 -0.0692
 1891TIP3    H1 5637   4.582   2.250   5.702  2.6466 -0.7417 -1.1347
 1891TIP3    H2 5638   4.712   2.275   5.776  0.8929 -1.2459  2.3135
 1892TIP3   OH2 5639   0.426   4.128   0.248 -0.3848 -0.1079 -0.3911
 1892TIP3    H1 5640   0.344   4.138   0.297  0.4316  2.5757  0.6052
 1892TIP3    H2 5641   0.494   4.160   0.307  1.0407  0.3093 -2.1703
 1893TIP3   OH2 5642   3.050   2.907   4.108  0.4249  0.4825  0.4113
 1893TIP3    H1 5643   3.011   2.821   4.095 -0.8262  0.6084  2.7495
 1893TIP3    H2 5644   3.109   2.919   4.033 -0.7546 -1.5929 -0.9297
 1894TIP3   OH2 5645   5.804   4.269   3.389 -0.1157 -1.0829  0.4258
 1894TIP3    H1 5646   5.858   4.207   3.438 -1.3307 -2.5358 -0.0005
 1894TIP3    H2 5647   5.795   4.345   3.447 -1.6890 -2.8225  2.6261
 1895TIP3   OH2 5648   5.643   3.130   0.665 -0.2273 -0.2960 -0.4152
 1895TIP3    H1 5649   5.583   3.195   0.629 -2.0899 -2.4041 -1.3869
 1895TIP3    H2 5650   5.641   3.145   0.759  0.6178  1.9682 -0.6995
 1896TIP3   OH2 5651   6.009   5.072   1.870  0.5537  0.5087 -0.0820
 1896TIP3    H1 5652   5.945   5.001   1.881 -1.2717  2.0548 -0.1379
 1896TIP3    H2 5653   6.033   5.067   1.777  2.7428 -1.7959  0.4936
 1897TIP3   OH2 5654   1.769   3.766   5.529  0.3330  0.6686  0.4702
 1897TIP3    H1 5655   1.725   3.691   5.489  0.3797  0.9132 -0.0414
 1897TIP3    H2 5656   1.857   3.734   5.550  0.2603  0.4955  0.5132
 1898TIP3   OH2 5657   5.285   2.480   0.557  0.1060 -0.0846  0.4223
 1898TIP3    H1 5658   5.339   2.508   0.483 -1.3393 -0.2448 -0.7399
 1898TIP3    H2 5659   5.229   2.412   0.521  0.7517 -1.6444  2.1943
 1899TIP3   OH2 5660   1.745   1.689   4.287  0.3628  0.2161 -0.6490
 1899TIP3    H1 5661   1.780   1.703   4.199 -3.9959  0.4350 -2.5981
 1899TIP3    H2 5662   1.774   1.765   4.336  2.2302  0.5264 -2.1084
 1900TIP3   OH2 5663   3.201   0.576   2.784  0.1980 -0.4819  1.0362
 1900TIP3    H1 5664   3.176   0.617   2.867 -0.2937  0.1463  0.5909
 1900TIP3    H2 5665   3.236   0.649   2.732 -2.2909 -0.1997 -0.4275
 1901TIP3   OH2 5666   0.627   6.215   3.458  0.6289 -0.2449 -0.2204
 1901TIP3    H1 5667   0.713   6.251   3.479  0.8880  0.1508 -1.7659
 1901TIP3    H2 5668   0.611   6.148   3.523  2.4842 -0.8897 -0.3862
 1902TIP3   OH2 5669   7.194   3.036   5.613 -0.5890  0.2378  0.3342
 1902TIP3    H1 5670   7.272   3.026   5.667 -0.2882 -0.1274 -0.1727
 1902TIP3    H2 5671   7.133   2.970   5.647  0.2782 -1.2973 -0.9857
 1903TIP3   OH2 5672   1.353   1.092   1.944  0.3487  0.0774  0.4342
 1903TIP3    H1 5673   1.362   1.098   2.040 -1.5187 -2.7178  0.8978
 1903TIP3    H2 5674   1.268   1.132   1.926  0.1045 -0.5715  0.1345
 1904TIP3   OH2 5675   0.099   5.853   4.039 -0.4712  0.2395  0.5021
 1904TIP3    H1 5676   0.010   5.828   4.065 -0.5627 -1.0036 -0.8851
 1904TIP3    H2 5677   0.139   5.884   4.120 -0.5269 -3.9809  2.4373
 1905TIP3   OH2 5678   5.672   6.662   1.900 -0.2886  0.0763  0.3226
 1905TIP3    H1 5679   5.602   6.693   1.957  0.9716  1.3098  1.2571
 1905TIP3    H2 5680   5.752   6.702   1.934  0.8888 -1.1881 -0.7721
 1906TIP3   OH2 5681   4.147   5.811   5.865 -0.2197  0.5708 -0.0841
 1906TIP3    H1 5682   4.157   5.903   5.889  0.1353  0.4147  0.4101
 1906TIP3    H2 5683   4.060   5.787   5.897 -1.0457  1.1721 -1.7596
 1907TIP3   OH2 5684   3.237   6.316   5.687 -0.4625 -0.0718  0.3650
 1907TIP3    H1 5685   3.214   6.409   5.691  1.5538  0.5282 -0.6416
 1907TIP3    H2 5686   3.296   6.302   5.762 -0.6344 -0.4969  0.4237
 1908TIP3   OH2 5687   2.073   6.692   0.031  1.1302  0.4431 -0.2607
 1908TIP3    H1 5688   2.025   6.671   0.111  1.0055  1.0074 -0.1847
 1908TIP3    H2 5689   2.154   6.732   0.062  1.5798 -0.3479 -0.3939
 1909TIP3   OH2 5690   5.213   1.228   0.344  0.9780  0.2348  0.7135
 1909TIP3    H1 5691   5.231   1.232   0.250  0.3973 -0.8087  0.5477
 1909TIP3    H2 5692   5.255   1.307   0.379  1.2695  0.6002 -0.4016
 1910TIP3   OH2 5693   6.654   4.792   1.626  0.2304 -0.2669  0.4611
 1910TIP3    H1 5694   6.724   4.731   1.604  0.8512  0.4188  0.4937
 1910TIP3    H2 5695   6.577   4.737   1.638  0.5388 -0.9436 -0.5337
 1911TIP3   OH2 5696   7.246   0.013   1.582  0.7984 -0.4879 -0.1046
 1911TIP3    H1 5697   7.189  -0.058   1.552  2.8695 -2.3193  0.0795
 1911TIP3    H2 5698   7.186   0.074   1.626 -1.2529 -1.3539 -1.5383
 1912TIP3   OH2 5699   4.177   6.797   3.713 -0.2281  0.4955 -0.4658
 1912TIP3    H1 5700   4.162   6.703   3.701  0.1720  0.2069  1.0229
 1912TIP3    H2 5701   4.105   6.826   3.769  0.2660  0.8328  0.0088
 1913TIP3   OH2 5702   0.690   3.261   0.102 -0.1848  0.5691  0.1620
 1913TIP3    H1 5703   0.659   3.171   0.109  0.4369  0.3832  0.5920
 1913TIP3    H2 5704   0.704   3.289   0.193 -1.6299  1.5539  0.1211
 1914TIP3   OH2 5705   7.014   5.513   3.138  0.0143 -0.3868  0.0191
 1914TIP3    H1 5706   7.096   5.485   3.098  0.3269  3.3417 -2.4230
 1914TIP3    H2 5707   7.040   5.556   3.220  0.2785 -0.6364  0.0683
 1915TIP3   OH2 5708   1.608   4.779   1.444  0.2737  0.3040 -0.0048
 1915TIP3    H1 5709   1.580   4.690   1.466 -0.0720  0.3130 -0.3944
 1915TIP3    H2 5710   1.635   4.817   1.527 -3.5191  1.2657  1.0028
 1916TIP3   OH2 5711   3.137   5.057   4.439 -0.4623 -0.5040  0.5540
 1916TIP3    H1 5712   3.094   5.061   4.353  0.6277 -1.0379 -0.0514
 1916TIP3    H2 5713   3.210   5.118   4.432  0.6626 -1.7946  0.4610
 1917TIP3   OH2 5714   7.017   6.621   5.461 -0.0593  0.1595  0.0107
 1917TIP3    H1 5715   6.931   6.635   5.499 -0.1412 -0.4352  0.0586
 1917TIP3    H2 5716   7.036   6.702   5.413 -0.3026  0.5978  0.6431
 1918TIP3   OH2 5717   5.866   5.919   3.387  0.3850 -0.5520 -0.1128
 1918TIP3    H1 5718   5.861   5.935   3.293  0.8436  1.4033  0.1502
 1918TIP3    H2 5719   5.856   6.006   3.427  1.0148 -1.2238  1.6112
 1919TIP3   OH2 5720   6.596   4.284   4.509  0.2149  0.0393 -0.3002
 1919TIP3    H1 5721   6.610   4.377   4.494  2.4783 -0.4786 -2.0371
 1919TIP3    H2 5722   6.549   4.254   4.431  1.4749 -0.6230 -0.8343
 1920TIP3   OH2 5723   1.354   2.821   4.324 -0.6304  0.5641 -0.1590
 1920TIP3    H1 5724   1.374   2.755   4.258  0.8207  1.0274 -0.2204
 1920TIP3    H2 5725   1.282   2.872   4.286 -0.5845  0.1066 -0.8698
 1921TIP3   OH2 5726   3.353   5.134   2.529  0.6542 -0.1902 -0.7035
 1921TIP3    H1 5727   3.425   5.197   2.531  0.1414  0.3868 -0.3190
 1921TIP3    H2 5728   3.371   5.081   2.451  1.4381  0.0103 -0.6689
 1922TIP3   OH2 5729   0.562   6.685   0.657  0.2509  0.0646  0.0694
 1922TIP3    H1 5730   0.633   6.727   0.705 -0.3451 -1.5229  2.5190
 1922TIP3    H2 5731   0.575   6.591   0.672 -0.9630 -0.4104 -1.5222
 1923TIP3   OH2 5732   1.965   3.566   0.044 -0.0382  0.6738 -0.3554
 1923TIP3    H1 5733   2.033   3.557   0.111  0.8142  1.1799 -1.1152
 1923TIP3    H2 5734   1.936   3.657   0.052  0.7585  1.0339 -1.2733
 1924TIP3   OH2 5735   2.158   4.703   4.745 -0.1381  0.2955  0.4250
 1924TIP3    H1 5736   2.089   4.763   4.773 -0.9186 -0.6535  0.6015
 1924TIP3    H2 5737   2.187   4.738   4.661  0.2982  1.6107  1.1028
 1925TIP3   OH2 5738   3.167   0.533   5.285  0.6231  0.5175 -0.0215
 1925TIP3    H1 5739   3.126   0.576   5.360 -0.4922 -3.3614  1.8924
 1925TIP3    H2 5740   3.094   0.492   5.239  1.5364  1.0353 -2.0138
 1926TIP3   OH2 5741   2.516   3.866   3.174  0.5195  0.0812  0.2948
 1926TIP3    H1 5742   2.444   3.803   3.165 -1.0280  1.7707  0.1077
 1926TIP3    H2 5743   2.592   3.813   3.198 -0.8246 -1.7624  0.7079
 1927TIP3   OH2 5744   6.997   0.068   3.307  0.7921 -0.2257  0.1120
 1927TIP3    H1 5745   7.031   0.039   3.222  0.5799  3.1003 -1.2702
 1927TIP3    H2 5746   6.905   0.041   3.306  0.4411  0.8940 -1.3558
 1928TIP3   OH2 5747   0.618   2.608   2.515  0.4108  0.8607 -0.6436
 1928TIP3    H1 5748   0.700   2.586   2.560  0.2156  1.5064  0.0589
 1928TIP3    H2 5749   0.642   2.619   2.424  0.9860  0.3814 -0.5552
 1929TIP3   OH2 5750   4.537   1.411   3.235  0.1167 -0.2770  0.1546
 1929TIP3    H1 5751   4.624   1.431   3.268 -0.1794  2.0338 -0.2905
 1929TIP3    H2 5752   4.491   1.373   3.311  1.1572 -0.4995  0.6978
 1930TIP3   OH2 5753   6.336   3.500   5.764 -0.1017  0.4813  0.1020
 1930TIP3    H1 5754   6.366   3.509   5.673 -0.4199 -0.1664 -0.0730
 1930TIP3    H2 5755   6.416   3.487   5.815  0.2888  2.8963  0.2154
 1931TIP3   OH2 5756   1.046   6.694   2.001  0.4068  0.1742 -0.3873
 1931TIP3    H1 5757   1.101   6.751   2.055  1.3180 -1.1199  0.0963
 1931TIP3    H2 5758   0.962   6.740   1.996  0.6220  0.8287  1.2802
 1932TIP3   OH2 5759   6.537   5.671   5.562 -0.5829 -0.3780 -0.2608
 1932TIP3    H1 5760   6.477   5.597   5.557 -0.2865 -0.6265 -0.1143
 1932TIP3    H2 5761   6.566   5.673   5.653 -0.0110 -0.5378 -0.4351
 1933TIP3   OH2 5762   3.075   0.436   5.737 -0.1078  0.1715 -0.0770
 1933TIP3    H1 5763   3.040   0.409   5.822  1.5353  2.4008  1.4347
 1933TIP3    H2 5764   3.159   0.390   5.730  0.9474  1.8525  0.7762
 1934TIP3   OH2 5765   0.398   1.792   1.083  0.1671 -0.1694  0.4503
 1934TIP3    H1 5766   0.334   1.847   1.037  1.5975  0.8094 -0.4686
 1934TIP3    H2 5767   0.347   1.718   1.116 -1.3693  0.3909 -0.5419
 1935TIP3   OH2 5768   1.267   3.209   2.087 -0.0999 -0.3330  0.0054
 1935TIP3    H1 5769   1.337   3.264   2.051 -1.4727 -0.5336 -3.4199
 1935TIP3    H2 5770   1.232   3.260   2.160  1.0649  1.6050 -0.6951
 1936TIP3   OH2 5771   2.811   5.836   1.830 -1.0045  0.3210  0.3754
 1936TIP3    H1 5772   2.721   5.868   1.839 -1.0534  0.1443  0.5285
 1936TIP3    H2 5773   2.864   5.897   1.880 -1.2182 -0.3914  1.5003
 1937TIP3   OH2 5774   4.372   3.573   3.675 -0.3583  0.0282  0.2119
 1937TIP3    H1 5775   4.332   3.660   3.682 -0.8904 -0.2112  0.1907
 1937TIP3    H2 5776   4.404   3.554   3.763 -1.3998 -0.2991  0.5349
 1938TIP3   OH2 5777   6.619   4.180   5.840 -0.4748  0.1581 -0.1301
 1938TIP3    H1 5778   6.563   4.161   5.765  1.7884 -0.0405 -1.8844
 1938TIP3    H2 5779   6.679   4.106   5.845 -0.9501 -0.1555  2.3473
 1939TIP3   OH2 5780   1.033   4.695   5.580 -0.0625  0.5030 -0.9581
 1939TIP3    H1 5781   0.956   4.638   5.579  0.1285  0.0909  1.3400
 1939TIP3    H2 5782   1.055   4.708   5.488 -2.1428 -0.3608 -1.6287
 1940TIP3   OH2 5783   6.373   4.985   5.428 -0.2122 -0.0418 -0.1766
 1940TIP3    H1 5784   6.345   5.042   5.356  1.0757 -0.3597 -0.9663
 1940TIP3    H2 5785   6.460   4.953   5.401  0.8901  0.8197  2.0686
 1941TIP3   OH2 5786   6.365   1.159   4.201 -0.0308 -0.0111  0.1260
 1941TIP3    H1 5787   6.287   1.139   4.150 -0.8576  0.0479  1.3328
 1941TIP3    H2 5788   6.374   1.254   4.195  0.8176 -0.1456 -1.2074
 1942TIP3   OH2 5789   0.732   0.352   4.871 -0.5246 -0.5038  0.1812
 1942TIP3    H1 5790   0.814   0.319   4.906 -0.6895  0.9792  2.1151
 1942TIP3    H2 5791   0.745   0.447   4.863 -1.5587 -0.4190 -0.9346
 1943TIP3   OH2 5792   3.392   3.542   0.204 -0.1103 -0.2464 -0.1869
 1943TIP3    H1 5793   3.350   3.625   0.179  0.1494 -0.5404 -1.6677
 1943TIP3    H2 5794   3.485   3.562   0.207 -0.1732 -0.0400  1.3507
 1944TIP3   OH2 5795   0.173   1.679   4.753  0.4440  0.2554 -0.0878
 1944TIP3    H1 5796   0.107   1.619   4.786  1.3587 -0.7975 -0.1121
 1944TIP3    H2 5797   0.169   1.670   4.658  1.5568 -0.9021 -0.0589
 1945TIP3   OH2 5798   6.112   6.228   1.915 -0.5517  0.1919  0.4788
 1945TIP3    H1 5799   6.071   6.221   2.000  1.6548  0.3123  1.6271
 1945TIP3    H2 5800   6.070   6.304   1.874 -2.8324 -0.8882  0.6910
 1946TIP3   OH2 5801   0.707   1.300   2.730 -0.5344 -0.3040  0.2916
 1946TIP3    H1 5802   0.727   1.332   2.642  0.7770  2.0618  1.3578
 1946TIP3    H2 5803   0.633   1.240   2.718 -1.4126  1.1658 -2.2121
 1947TIP3   OH2 5804   6.570   2.255   1.478  0.2069 -0.2640 -0.1898
 1947TIP3    H1 5805   6.637   2.261   1.547  0.1268  0.4513 -0.1592
 1947TIP3    H2 5806   6.497   2.210   1.520  0.6278 -0.9572 -0.1912
 1948TIP3   OH2 5807   3.105   5.138   0.335 -0.1405  0.6249 -0.4560
 1948TIP3    H1 5808   3.097   5.044   0.316 -1.9823  0.6159  0.1339
 1948TIP3    H2 5809   3.040   5.179   0.277  1.9504  1.7981 -2.1231
 1949TIP3   OH2 5810   2.789   5.512   4.908 -0.1620  0.0806  0.0909
 1949TIP3    H1 5811   2.834   5.429   4.894  0.2688  0.2593  0.4337
 1949TIP3    H2 5812   2.818   5.568   4.836  2.4169  1.1557  1.8054
 1950TIP3   OH2 5813   4.541   2.409   2.437 -0.2858 -0.1551 -0.4991
 1950TIP3    H1 5814   4.538   2.326   2.388  0.1936 -0.5169  0.0635
 1950TIP3    H2 5815   4.622   2.450   2.409  1.7614 -1.8952  2.3278
 1951TIP3   OH2 5816   4.311   1.922   2.463  0.2334  0.1425  0.0297
 1951TIP3    H1 5817   4.367   1.862   2.413  0.9034  0.5324  0.2976
 1951TIP3    H2 5818   4.358   1.935   2.545 -0.0719  0.7753  0.1072
 1952TIP3   OH2 5819   1.064   2.460   4.205 -0.4286  0.5373 -0.0589
 1952TIP3    H1 5820   1.011   2.520   4.258 -0.1948 -0.4665  1.3724
 1952TIP3    H2 5821   1.002   2.392   4.178 -0.4473  0.8096 -0.7154
 1953TIP3   OH2 5822   1.571   0.531   4.596 -0.2950  0.0482  0.0435
 1953TIP3    H1 5823   1.535   0.450   4.561  0.1640  0.2265 -0.8740
 1953TIP3    H2 5824   1.637   0.503   4.660  0.1442 -0.3171 -0.5584
 1954TIP3   OH2 5825   6.846   3.554   4.463 -0.1030  0.4318  0.3722
 1954TIP3    H1 5826   6.867   3.590   4.377  1.1101  1.8684  1.2182
 1954TIP3    H2 5827   6.791   3.621   4.504 -1.3955 -0.6246  0.4211
 1955TIP3   OH2 5828   6.013   0.739   3.852  0.6806 -0.6153 -0.1783
 1955TIP3    H1 5829   5.932   0.704   3.890  1.4034 -0.4221  1.5940
 1955TIP3    H2 5830   6.002   0.834   3.855  0.0560 -0.5747 -2.0723
 1956TIP3   OH2 5831   5.969   4.597   1.538  0.0490 -0.0475 -0.2588
 1956TIP3    H1 5832   5.950   4.673   1.594  1.5814 -0.6868  1.2185
 1956TIP3    H2 5833   5.900   4.599   1.472 -1.5813  1.0514  1.3560
 1957TIP3   OH2 5834   7.046   4.323   1.425  0.0916  0.1844  1.1715
 1957TIP3    H1 5835   6.967   4.323   1.477 -2.7752  2.3628 -2.6214
 1957TIP3    H2 5836   7.093   4.402   1.452 -2.1120  2.1270 -0.2560
 1958TIP3   OH2 5837   0.735   6.337   4.809 -0.0890 -0.2345 -0.2157
 1958TIP3    H1 5838   0.803   6.367   4.749  0.9096 -1.9486 -0.0114
 1958TIP3    H2 5839   0.676   6.285   4.754  1.4373 -2.7516  0.3675
 1959TIP3   OH2 5840   5.682   0.775   3.643  0.2735  0.3777  0.5214
 1959TIP3    H1 5841   5.742   0.701   3.648  0.4442  0.5094  0.4141
 1959TIP3    H2 5842   5.716   0.838   3.707 -0.4422 -0.0479  1.3555
 1960TIP3   OH2 5843   4.198   4.187   2.428 -0.6171  0.1626  0.5128
 1960TIP3    H1 5844   4.282   4.173   2.470 -0.1424  0.3295 -0.3590
 1960TIP3    H2 5845   4.158   4.100   2.424 -0.2333 -0.0106  0.4050
 1961TIP3   OH2 5846   4.510   4.563   4.307  0.4353 -0.0176  0.0204
 1961TIP3    H1 5847   4.591   4.604   4.277  0.1189  0.4909 -0.1484
 1961TIP3    H2 5848   4.502   4.590   4.398  0.1025  0.4933 -0.1602
 1962TIP3   OH2 5849   6.680   2.401   3.034  0.0726  0.4072 -0.2140
 1962TIP3    H1 5850   6.686   2.463   3.107  0.7726 -0.5352  0.5507
 1962TIP3    H2 5851   6.619   2.334   3.064  0.5695 -0.1272 -0.3894
 1963TIP3   OH2 5852   5.925   6.186   4.623 -0.1589 -0.2124 -0.2490
 1963TIP3    H1 5853   5.838   6.213   4.653 -0.7396 -1.3468 -0.8534
 1963TIP3    H2 5854   5.918   6.183   4.528 -0.1332 -2.3732 -0.2310
 1964TIP3   OH2 5855   2.408   2.405   1.220  0.1007 -0.1097  0.3438
 1964TIP3    H1 5856   2.322   2.432   1.253 -0.0713 -0.8866  0.5432
 1964TIP3    H2 5857   2.467   2.475   1.249 -0.1792 -0.3855  1.6519
 1965TIP3   OH2 5858   5.813   3.812   0.570 -0.0669  0.4547  0.2167
 1965TIP3    H1 5859   5.729   3.858   0.572 -0.2617  0.1298 -0.2508
 1965TIP3    H2 5860   5.878   3.881   0.584 -0.3472  0.8932 -0.5766
 1966TIP3   OH2 5861   0.382   5.477   5.164 -0.0894 -0.2059 -0.6091
 1966TIP3    H1 5862   0.306   5.455   5.220  0.0374  2.7251  0.9025
 1966TIP3    H2 5863   0.346   5.478   5.075 -0.8234 -2.7761 -0.4381
 1967TIP3   OH2 5864   0.082   2.646   0.619 -0.6074  0.1358  0.1912
 1967TIP3    H1 5865   0.146   2.628   0.551 -1.5407  0.8889 -0.9433
 1967TIP3    H2 5866   0.109   2.593   0.693  1.6052  0.8136 -0.0598
 1968TIP3   OH2 5867   5.429   4.655   1.799  0.3351 -0.0453  0.0000
 1968TIP3    H1 5868   5.436   4.565   1.830 -0.3039 -0.3233 -0.6418
 1968TIP3    H2 5869   5.480   4.657   1.718 -3.0471 -0.9901 -2.3693
 1969TIP3   OH2 5870   0.841   5.747   5.072  0.5123  0.2452  0.1710
 1969TIP3    H1 5871   0.747   5.755   5.086  0.4713 -0.7753  0.5475
 1969TIP3    H2 5872   0.850   5.712   4.984  0.5308  0.0104  0.2670
 1970TIP3   OH2 5873   0.605   0.853   1.786  0.1222  0.2974  0.9749
 1970TIP3    H1 5874   0.552   0.775   1.805  0.7010  0.3061  2.8153
 1970TIP3    H2 5875   0.692   0.818   1.768  0.5862  0.5260  2.6334
 1971TIP3   OH2 5876   5.580   2.348   0.460 -0.7442  0.5452 -0.3174
 1971TIP3    H1 5877   5.514   2.280   0.472 -0.7913  0.5514 -0.5408
 1971TIP3    H2 5878   5.534   2.417   0.412 -0.9372  1.0897  0.6281
 1972TIP3   OH2 5879   3.378   6.149   0.758  0.1346 -0.6378  0.2582
 1972TIP3    H1 5880   3.302   6.090   0.763  0.4569 -0.9513  2.7499
 1972TIP3    H2 5881   3.454   6.091   0.753  0.3700 -0.4546  1.3303
 1973TIP3   OH2 5882   3.676   2.376   0.658 -0.6945 -0.0975 -0.0626
 1973TIP3    H1 5883   3.605   2.352   0.598 -0.9088 -1.2168  0.6147
 1973TIP3    H2 5884   3.755   2.339   0.618 -1.0141 -1.9460  0.9421
 1974TIP3   OH2 5885   4.008   5.909   5.062  0.2060  0.0885 -0.1991
 1974TIP3    H1 5886   3.995   5.816   5.080  1.5228  0.2157  1.6723
 1974TIP3    H2 5887   3.973   5.922   4.974 -1.5863 -1.8125  0.1653
 1975TIP3   OH2 5888   1.555   1.924   3.332 -0.3946 -0.1474 -0.5865
 1975TIP3    H1 5889   1.460   1.940   3.334 -0.3399  0.1266  0.3947
 1975TIP3    H2 5890   1.589   1.978   3.404  0.4012 -0.9413 -0.3612
 1976TIP3   OH2 5891   7.160   1.586   2.604  0.2986 -0.4142  0.2036
 1976TIP3    H1 5892   7.192   1.501   2.573  0.8088  0.2421 -1.1660
 1976TIP3    H2 5893   7.238   1.632   2.634  0.3269  0.2447 -0.8024
 1977TIP3   OH2 5894   2.408   2.197   5.748 -0.0368  0.5098  0.0379
 1977TIP3    H1 5895   2.344   2.167   5.683 -0.0994  1.1393 -0.1959
 1977TIP3    H2 5896   2.447   2.116   5.782 -0.8977  0.1179  0.1258
 1978TIP3   OH2 5897   4.541   4.838   4.603 -0.4425  0.2777  0.7116
 1978TIP3    H1 5898   4.635   4.825   4.597 -0.5269 -0.7233  1.2765
 1978TIP3    H2 5899   4.518   4.811   4.692 -1.4328 -0.7463  0.1777
 1979TIP3   OH2 5900   0.113   2.373   2.325  0.5409  0.0851  0.5421
 1979TIP3    H1 5901   0.112   2.467   2.310  2.5267 -0.0062 -0.6124
 1979TIP3    H2 5902   0.024   2.351   2.352  0.3520  2.4653  2.0842
 1980TIP3   OH2 5903   3.725   4.471   4.354  0.2415 -0.1652 -0.1312
 1980TIP3    H1 5904   3.768   4.528   4.418  0.3042 -0.6913  0.3153
 1980TIP3    H2 5905   3.701   4.393   4.405 -1.5138  0.2265 -0.2975
 1981TIP3   OH2 5906   1.814   6.035   4.496 -0.2084  0.0661  0.0016
 1981TIP3    H1 5907   1.867   5.959   4.472 -1.9153 -0.8303 -1.1332
 1981TIP3    H2 5908   1.837   6.052   4.587  1.1019 -1.0629 -0.0877
 1982TIP3   OH2 5909   4.885   0.490   1.370  0.1014  0.5903  0.6653
 1982TIP3    H1 5910   4.791   0.475   1.366 -0.1638  2.3440 -0.8861
 1982TIP3    H2 5911   4.895   0.585   1.359  2.0175  0.5377  1.5105
 1983TIP3   OH2 5912   4.875   4.490   0.110  0.6346 -0.2916  0.4244
 1983TIP3    H1 5913   4.832   4.478   0.025 -0.4274 -0.8976  1.0232
 1983TIP3    H2 5914   4.964   4.457   0.096  1.1057  1.3828 -0.9566
 1984TIP3   OH2 5915   0.929   2.795   3.542  0.0807  0.1071  0.1437
 1984TIP3    H1 5916   0.912   2.844   3.622 -2.4967  1.6582 -1.1856
 1984TIP3    H2 5917   0.979   2.855   3.487 -0.1838 -0.0145 -0.2392
 1985TIP3   OH2 5918   0.827   3.462   0.879 -0.5551 -0.1383 -0.2095
 1985TIP3    H1 5919   0.859   3.372   0.886 -2.1082 -0.6189  1.4905
 1985TIP3    H2 5920   0.904   3.513   0.854  0.3840 -1.9092 -1.0713
 1986TIP3   OH2 5921   2.413   2.018   1.811  0.2454  0.1445  0.3994
 1986TIP3    H1 5922   2.401   2.059   1.725 -1.8252  0.0902  0.6202
 1986TIP3    H2 5923   2.372   2.079   1.872 -0.2107 -0.8304  1.0807
 1987TIP3   OH2 5924   3.452   1.367   1.315 -0.4849  0.2273 -0.2819
 1987TIP3    H1 5925   3.418   1.417   1.389  0.8143  0.5113  0.1616
 1987TIP3    H2 5926   3.503   1.297   1.356 -0.1146  0.1339 -0.8995
 1988TIP3   OH2 5927   1.412   5.990   5.436 -0.4804 -0.0505  0.1615
 1988TIP3    H1 5928   1.449   5.991   5.524 -0.2912  2.3959  0.1270
 1988TIP3    H2 5929   1.321   5.961   5.449 -0.2562 -0.3724  1.0670
 1989TIP3   OH2 5930   5.265   0.731   4.618 -0.0567  0.0934 -0.9547
 1989TIP3    H1 5931   5.310   0.674   4.680  1.3082 -0.3122 -2.2370
 1989TIP3    H2 5932   5.174   0.732   4.647  0.4895 -0.2856  0.8666
 1990TIP3   OH2 5933   5.122   3.303   3.617 -0.0849 -0.1066  0.1692
 1990TIP3    H1 5934   5.163   3.278   3.534 -0.1262 -0.4211  0.2430
 1990TIP3    H2 5935   5.035   3.336   3.592  1.1179  3.0025 -0.2600
 1991TIP3   OH2 5936   2.934   4.322   0.725 -0.1154  0.2932 -0.3089
 1991TIP3    H1 5937   3.015   4.371   0.707  0.5715 -1.0104 -0.8460
 1991TIP3    H2 5938   2.889   4.317   0.641  0.8326 -1.7523 -0.7504
 1992TIP3   OH2 5939   4.219   5.347   2.034  0.3203 -0.1589 -0.5924
 1992TIP3    H1 5940   4.269   5.289   1.977 -1.4961 -0.6139 -1.8068
 1992TIP3    H2 5941   4.150   5.383   1.978 -0.5039  0.7140  0.9051
 1993TIP3   OH2 5942   1.805   6.618   1.104  0.4731  0.3187 -0.2134
 1993TIP3    H1 5943   1.860   6.541   1.113  0.1715  0.1769  0.4893
 1993TIP3    H2 5944   1.851   6.687   1.152 -1.1332 -0.4323  2.6100
 1994TIP3   OH2 5945   3.285   3.933   4.860  0.4931  0.0701 -0.2114
 1994TIP3    H1 5946   3.229   3.883   4.919  0.0004  1.5939  0.6539
 1994TIP3    H2 5947   3.225   3.983   4.805  0.9732 -0.4913 -1.2804
 1995TIP3   OH2 5948   4.946   4.437   1.142 -0.1574 -0.2011 -0.6860
 1995TIP3    H1 5949   5.041   4.441   1.153 -0.1394 -0.8813 -0.5154
 1995TIP3    H2 5950   4.911   4.451   1.230 -0.2889  1.6869 -1.0017
 1996TIP3   OH2 5951   5.096   0.541   5.658  0.3547 -0.3072 -0.1713
 1996TIP3    H1 5952   5.112   0.600   5.731 -0.1219  0.4856 -0.6941
 1996TIP3    H2 5953   5.122   0.455   5.691  1.9295  0.3131  0.3126
 1997TIP3   OH2 5954   5.641   6.620   2.465 -0.0157 -0.1845  0.4258
 1997TIP3    H1 5955   5.720   6.655   2.424  0.0030  0.0425  0.6469
 1997TIP3    H2 5956   5.620   6.542   2.415  1.0955 -0.9880  1.1486
 1998TIP3   OH2 5957   1.071   0.489   5.679  0.1322 -0.1223  0.1462
 1998TIP3    H1 5958   1.032   0.575   5.662  1.5093  0.2686 -1.2774
 1998TIP3    H2 5959   1.026   0.430   5.618  2.3291  0.5249 -2.2610
 1999TIP3   OH2 5960   3.470   3.741   1.605 -0.4856 -0.0288  0.3126
 1999TIP3    H1 5961   3.454   3.805   1.536  0.0512 -0.6067 -0.3664
 1999TIP3    H2 5962   3.535   3.783   1.662  1.2618 -0.6415 -1.1410
 2000TIP3   OH2 5963   5.046   5.355   0.667  0.1956  0.4027  0.7785
 2000TIP3    H1 5964   5.100   5.382   0.741 -1.6572  1.9504  1.6164
 2000TIP3    H2 5965   4.959   5.388   0.686 -0.7904 -0.8437 -1.1915
 2001TIP3   OH2 5966   0.022   6.691   5.149  0.8376 -0.0073  0.5169
 2001TIP3    H1 5967  -0.035   6.759   5.112 -0.1926 -1.3569 -0.4581
 2001TIP3    H2 5968   0.036   6.630   5.077  1.0544 -1.2666  1.5911
 2002TIP3   OH2 5969   3.686   0.555   4.719  0.0048  0.3579  0.3476
 2002TIP3    H1 5970   3.594   0.580   4.715 -0.3020 -0.4105  1.8920
 2002TIP3    H2 5971   3.718   0.594   4.801  0.5330 -0.9313  0.7891
 2003TIP3   OH2 5972   3.224   0.858   0.650  0.0481  0.4091  0.0468
 2003TIP3    H1 5973   3.208   0.921   0.580  0.7341 -0.8136 -1.2372
 2003TIP3    H2 5974   3.278   0.907   0.713 -0.7628  1.5861 -0.1359
 2004TIP3   OH2 5975   2.397   1.120   5.738  0.0843 -0.0676  0.0393
 2004TIP3    H1 5976   2.424   1.204   5.701  0.1261  0.6877  1.6664
 2004TIP3    H2 5977   2.331   1.086   5.677  1.4169  0.2086 -1.6376
 2005TIP3   OH2 5978   2.398   0.206   0.064 -0.4214  0.4474  0.2573
 2005TIP3    H1 5979   2.390   0.210   0.159  0.8036 -1.6039  0.5062
 2005TIP3    H2 5980   2.491   0.192   0.047 -0.8668 -1.4705 -1.0710
 2006TIP3   OH2 5981   0.564   5.586   3.225 -0.2156 -0.3304  0.0082
 2006TIP3    H1 5982   0.582   5.633   3.306  2.0353 -0.5793 -0.2873
 2006TIP3    H2 5983   0.537   5.498   3.254 -1.2350  0.1172  0.4809
 2007TIP3   OH2 5984   0.055   3.358   5.353 -0.2959 -0.0637  0.7452
 2007TIP3    H1 5985  -0.002   3.420   5.307 -1.0956 -1.0390  0.3845
 2007TIP3    H2 5986   0.023   3.358   5.443 -0.4273 -0.1017  0.6987
 2008TIP3   OH2 5987   0.466   0.645   3.142 -0.5750  0.5924  0.0705
 2008TIP3    H1 5988   0.374   0.633   3.120 -0.3152 -1.2609 -0.1990
 2008TIP3    H2 5989   0.504   0.687   3.064 -1.1910  1.4360  0.2155
 2009TIP3   OH2 5990   3.869   3.166   2.251  0.0139 -0.3003  0.2161
 2009TIP3    H1 5991   3.868   3.170   2.155 -1.2498 -1.7293  0.1270
 2009TIP3    H2 5992   3.875   3.257   2.279 -0.7783  0.2268 -1.2251
 2010TIP3   OH2 5993   6.414   3.432   5.470 -0.5769  0.6156 -0.7692
 2010TIP3    H1 5994   6.384   3.342   5.459  1.3086 -0.0069 -1.2520
 2010TIP3    H2 5995   6.429   3.463   5.381 -1.3884  1.5020 -0.6160
 2011TIP3   OH2 5996   0.696   0.079   1.200  0.1133  0.5004  0.4772
 2011TIP3    H1 5997   0.680   0.139   1.127 -2.7771 -0.9267 -0.2135
 2011TIP3    H2 5998   0.696  -0.008   1.160  2.0263 -0.1441  1.7436
 2012TIP3   OH2 5999   2.362   1.762   0.480  0.0918 -0.4343  0.0676
 2012TIP3    H1 6000   2.269   1.740   0.492 -0.4550  1.6188  0.0893
 2012TIP3    H2 6001   2.403   1.680   0.454 -1.4625 -1.7181  1.4158
 2013TIP3   OH2 6002   4.849   6.424   1.527 -0.6640 -0.1450  0.1028
 2013TIP3    H1 6003   4.843   6.416   1.622  0.8259  0.2060  0.2496
 2013TIP3    H2 6004   4.809   6.509   1.508  1.1205  0.8656  0.6939
 2014TIP3   OH2 6005   2.908   6.781   2.881 -0.1299  0.0328  0.0581
 2014TIP3    H1 6006   2.904   6.740   2.794 -1.1519  1.9367 -0.8471
 2014TIP3    H2 6007   2.988   6.833   2.879 -1.3088  1.9127 -0.6627
 2015TIP3   OH2 6008   4.745   1.161   5.347 -0.3183  0.4770  0.0147
 2015TIP3    H1 6009   4.718   1.069   5.346 -0.1292  0.3701  1.7222
 2015TIP3    H2 6010   4.797   1.172   5.267  0.2765 -1.0815  0.1587
 2016TIP3   OH2 6011   6.128   3.705   0.844  0.4692 -0.2999 -0.2034
 2016TIP3    H1 6012   6.050   3.662   0.808 -0.7907  1.6006  0.0918
 2016TIP3    H2 6013   6.192   3.705   0.773  0.3955 -2.2696 -0.3211
 2017TIP3   OH2 6014   4.890   2.415   4.809  0.2308 -0.2263 -0.4710
 2017TIP3    H1 6015   4.971   2.460   4.786  1.3696 -1.8759  0.1458
 2017TIP3    H2 6016   4.917   2.326   4.829 -1.5464 -0.4897  1.0333
 2018TIP3   OH2 6017   2.558   0.473   3.200 -0.1404  0.4809 -0.2800
 2018TIP3    H1 6018   2.499   0.463   3.125 -2.4238 -0.1383  1.4684
 2018TIP3    H2 6019   2.511   0.530   3.261  0.0988 -1.6050  2.0365
 2019TIP3   OH2 6020   2.991   3.144   2.555 -0.0145 -0.1478 -0.4660
 2019TIP3    H1 6021   3.074   3.154   2.603 -0.7347  3.1116  0.3413
 2019TIP3    H2 6022   3.015   3.157   2.463  0.5539 -0.5219 -0.3760
 2020TIP3   OH2 6023   1.760   3.995   2.259 -0.3099 -0.3502  0.8366
 2020TIP3    H1 6024   1.714   3.913   2.248 -1.3276  0.1413  1.3208
 2020TIP3    H2 6025   1.817   3.981   2.334  1.1852 -1.3067 -0.4007
 2021TIP3   OH2 6026   5.489   3.328   5.209  0.0556 -0.3018  0.2673
 2021TIP3    H1 6027   5.519   3.280   5.286 -0.0653 -1.3976 -0.3461
 2021TIP3    H2 6028   5.442   3.262   5.157 -2.1724  1.0031  0.4951
 2022TIP3   OH2 6029   6.370   3.961   1.363 -0.0729  0.5008  0.1160
 2022TIP3    H1 6030   6.448   4.010   1.390  0.2058 -0.5516  1.3420
 2022TIP3    H2 6031   6.364   3.890   1.427 -0.7308 -0.7816 -1.3265
 2023TIP3   OH2 6032   3.290   4.707   4.918  0.1127 -0.6690 -0.1702
 2023TIP3    H1 6033   3.241   4.752   4.848  1.9111  1.3652 -0.2326
 2023TIP3    H2 6034   3.350   4.648   4.872  1.6298  1.0138 -0.4758
 2024TIP3   OH2 6035   0.557   4.178   3.289 -0.1281 -0.2332  0.2703
 2024TIP3    H1 6036   0.626   4.225   3.336  0.4218  0.3953 -1.1089
 2024TIP3    H2 6037   0.602   4.102   3.251 -0.1431  0.2598 -0.7577
 2025TIP3   OH2 6038   2.513   5.555   4.820  0.2836 -0.4942  0.3357
 2025TIP3    H1 6039   2.589   5.511   4.857  0.0612 -1.5611 -0.4276
 2025TIP3    H2 6040   2.515   5.533   4.727 -1.5725 -1.5399  0.4810
 2026TIP3   OH2 6041   1.609   5.977   3.520  0.1533  0.2014 -0.0722
 2026TIP3    H1 6042   1.590   5.905   3.459 -0.7634  0.8735 -0.5987
 2026TIP3    H2 6043   1.592   6.056   3.470 -1.3124  0.7725  1.2584
 2027TIP3   OH2 6044   4.292   2.563   5.254 -0.5192  0.9113 -0.4201
 2027TIP3    H1 6045   4.344   2.634   5.292  0.2836  0.2882 -0.3022
 2027TIP3    H2 6046   4.333   2.547   5.169 -0.8481  0.7612 -0.5489
 2028TIP3   OH2 6047   0.249   3.781   0.981 -0.0873  0.0562 -0.0938
 2028TIP3    H1 6048   0.213   3.703   0.939  2.8617 -2.2942  1.3394
 2028TIP3    H2 6049   0.226   3.770   1.073 -1.6713  2.2280 -0.1638
 2029TIP3   OH2 6050   5.480   6.652   2.103  0.0058  0.0033 -0.5160
 2029TIP3    H1 6051   5.394   6.614   2.086 -0.2068  0.6484 -0.9484
 2029TIP3    H2 6052   5.463   6.725   2.162  0.3446 -0.2754 -0.0722
 2030TIP3   OH2 6053   0.694   3.707   2.601 -0.9337  0.1991  0.0559
 2030TIP3    H1 6054   0.638   3.784   2.611 -0.2099  0.5357  2.0382
 2030TIP3    H2 6055   0.780   3.742   2.577 -0.2514  0.2118  2.2636
 2031TIP3   OH2 6056   5.834   0.875   5.416 -0.8527  0.4652  0.4607
 2031TIP3    H1 6057   5.927   0.895   5.424 -1.2597  3.2812 -0.7373
 2031TIP3    H2 6058   5.830   0.797   5.361  0.7811  0.5214  0.2332
 2032TIP3   OH2 6059   6.300   1.412   1.235  0.3994  0.0077 -0.2224
 2032TIP3    H1 6060   6.372   1.352   1.214  1.2888  0.3999  1.4585
 2032TIP3    H2 6061   6.253   1.424   1.153  1.3208 -1.5082 -1.0149
 2033TIP3   OH2 6062   2.267   3.013   1.342 -0.3146 -0.2035 -0.2631
 2033TIP3    H1 6063   2.194   3.051   1.294 -1.1777 -0.5366  0.7374
 2033TIP3    H2 6064   2.285   3.076   1.413  0.6110  0.0472 -0.7070
 2034TIP3   OH2 6065   4.123   6.533   3.658  0.1604  0.1054  0.1905
 2034TIP3    H1 6066   4.081   6.537   3.572 -0.9042  1.0398  0.7332
 2034TIP3    H2 6067   4.056   6.499   3.717  0.5838  0.3314  0.8223
 2035TIP3   OH2 6068   6.943   1.384   3.042  0.3629 -0.4220 -0.0905
 2035TIP3    H1 6069   6.943   1.385   2.946  0.0549  0.7244 -0.0958
 2035TIP3    H2 6070   7.002   1.313   3.065  3.6649  1.7328 -1.1350
 2036TIP3   OH2 6071   3.392   0.026   0.176  0.3562 -1.0028 -0.0762
 2036TIP3    H1 6072   3.312  -0.011   0.138 -0.1250  0.8349 -0.9631
 2036TIP3    H2 6073   3.373   0.035   0.269 -0.7371 -0.0214 -0.3729
 2037TIP3   OH2 6074   2.136   2.361   1.315 -0.2522 -0.1956 -0.1297
 2037TIP3    H1 6075   2.136   2.334   1.407 -0.4900 -0.5072 -0.2184
 2037TIP3    H2 6076   2.055   2.411   1.305 -2.4680 -3.5764 -1.1220
 2038TIP3   OH2 6077   2.962   2.682   5.163 -0.3448  0.0868  0.5599
 2038TIP3    H1 6078   2.952   2.626   5.240 -0.0989  0.1474  0.6380
 2038TIP3    H2 6079   3.037   2.644   5.116 -0.7068 -0.1540  0.1732
 2039TIP3   OH2 6080   3.210   2.072   0.566  0.4264  0.1975 -0.0941
 2039TIP3    H1 6081   3.263   2.005   0.610 -1.5996 -1.6073 -0.2363
 2039TIP3    H2 6082   3.235   2.067   0.474 -0.7999 -1.5549 -0.3803
 2040TIP3   OH2 6083   3.664   6.068   5.465 -0.7507 -0.2161 -0.0632
 2040TIP3    H1 6084   3.590   6.007   5.473  0.5846 -2.1364 -1.4562
 2040TIP3    H2 6085   3.697   6.078   5.555 -1.8012 -0.4877  0.3691
 2041TIP3   OH2 6086   6.159   5.832   4.853 -0.5784 -0.5490 -0.1290
 2041TIP3    H1 6087   6.082   5.886   4.832 -0.4151  0.6423  2.0184
 2041TIP3    H2 6088   6.167   5.772   4.779 -2.1865  0.8283 -1.5121
 2042TIP3   OH2 6089   3.396   2.161   5.727  0.2050 -0.5059  0.4112
 2042TIP3    H1 6090   3.418   2.130   5.640 -1.6162 -1.3150  0.1830
 2042TIP3    H2 6091   3.325   2.224   5.713  0.1464 -0.3640  1.2755
 2043TIP3   OH2 6092   0.085   3.485   2.267  0.9115  0.4804  0.2003
 2043TIP3    H1 6093   0.000   3.515   2.236 -0.0920 -2.9189 -0.7939
 2043TIP3    H2 6094   0.081   3.495   2.363 -1.6157 -1.6578  0.4245
 2044TIP3   OH2 6095   0.418   6.296   5.370 -0.6664 -0.1760 -0.1224
 2044TIP3    H1 6096   0.492   6.347   5.335 -0.3781 -0.3386  0.2470
 2044TIP3    H2 6097   0.419   6.215   5.320  0.2578 -0.7606  0.8140
 2045TIP3   OH2 6098   6.281   4.702   4.313  0.5582 -0.0906  0.2104
 2045TIP3    H1 6099   6.313   4.613   4.332  1.3431  0.4263  1.4545
 2045TIP3    H2 6100   6.358   4.758   4.327 -0.0448  0.8327 -0.1138
 2046TIP3   OH2 6101   5.758   6.476   0.755  0.3989 -0.0500  0.0506
 2046TIP3    H1 6102   5.706   6.554   0.737  0.7934  0.1567 -0.2181
 2046TIP3    H2 6103   5.849   6.505   0.747  0.5495 -0.5700 -0.2025
 2047TIP3   OH2 6104   1.644   2.529   4.789  0.1973 -0.0313 -0.2052
 2047TIP3    H1 6105   1.734   2.509   4.766  0.4067  0.9720 -0.3150
 2047TIP3    H2 6106   1.642   2.625   4.797 -0.9204 -0.0127 -0.5174
 2048TIP3   OH2 6107   0.435   0.839   4.828  0.4876  0.8058  0.2588
 2048TIP3    H1 6108   0.453   0.894   4.905  0.5352  1.0214  0.0957
 2048TIP3    H2 6109   0.469   0.890   4.754  3.3137 -0.7500  0.3640
 2049TIP3   OH2 6110   0.858   2.916   0.831  0.5148  0.5209 -0.3207
 2049TIP3    H1 6111   0.802   2.916   0.908 -0.3913  0.9452 -0.9651
 2049TIP3    H2 6112   0.817   2.852   0.772  0.0476  1.6347 -1.2467
 2050TIP3   OH2 6113   5.690   4.200   2.361  0.0872  0.0007  0.1504
 2050TIP3    H1 6114   5.698   4.142   2.437  0.6163 -0.8895 -0.5704
 2050TIP3    H2 6115   5.759   4.171   2.301  1.1827  2.1701  0.2746
 2051TIP3   OH2 6116   2.504   1.472   2.335 -0.0975  0.2768  0.0291
 2051TIP3    H1 6117   2.519   1.423   2.254  0.9203 -1.4880  1.2079
 2051TIP3    H2 6118   2.410   1.468   2.349 -0.1213 -0.6113 -0.3568
 2052TIP3   OH2 6119   1.873   3.438   2.296  0.4496  0.0514 -1.3565
 2052TIP3    H1 6120   1.878   3.395   2.210  2.7317  0.6302 -1.5882
 2052TIP3    H2 6121   1.954   3.411   2.340 -0.0764  0.7962  0.1118
 2053TIP3   OH2 6122   6.879   1.073   2.875 -0.9478 -0.7227 -0.0393
 2053TIP3    H1 6123   6.943   1.100   2.942 -0.7752  1.4905 -0.9972
 2053TIP3    H2 6124   6.802   1.127   2.893 -1.9706 -2.1948  0.1057
 2054TIP3   OH2 6125   0.066   0.711   5.125 -0.5705 -0.6216  0.9896
 2054TIP3    H1 6126   0.115   0.759   5.192 -0.0110  0.9621 -0.4790
 2054TIP3    H2 6127  -0.025   0.739   5.137 -0.2878  0.6469  0.3207
 2055TIP3   OH2 6128   0.670   2.376   1.903  0.0234 -0.5711  0.0066
 2055TIP3    H1 6129   0.697   2.465   1.884  1.0442 -0.8104  0.2866
 2055TIP3    H2 6130   0.692   2.326   1.824 -1.0887 -0.4794 -0.3807
 2056TIP3   OH2 6131   3.977   5.047   5.433  0.2130  0.2134  0.2860
 2056TIP3    H1 6132   3.940   5.133   5.452  0.1391  0.2054  0.1787
 2056TIP3    H2 6133   4.071   5.058   5.448  0.3403  0.5935 -0.7063
 2057TIP3   OH2 6134   4.161   1.462   4.079  0.1882 -0.3583 -0.0074
 2057TIP3    H1 6135   4.121   1.390   4.128  1.6439 -1.4618 -0.3540
 2057TIP3    H2 6136   4.183   1.527   4.145  0.1834 -0.8834  0.5193
 2058TIP3   OH2 6137   3.746   5.412   1.336 -0.1070  0.1902 -0.1488
 2058TIP3    H1 6138   3.833   5.383   1.308  0.4003  1.9210 -0.4843
 2058TIP3    H2 6139   3.688   5.387   1.264  0.3735  0.3444 -0.5940
 2059TIP3   OH2 6140   2.126   1.621   3.905  0.5052 -0.1441 -0.4017
 2059TIP3    H1 6141   2.152   1.581   3.989  0.1111 -3.3389 -1.6608
 2059TIP3    H2 6142   2.037   1.590   3.891  0.3359  0.8734 -1.7271
 2060TIP3   OH2 6143   5.219   4.144   5.522 -0.4355 -0.4703 -0.1121
 2060TIP3    H1 6144   5.263   4.096   5.592  0.1612  0.6622  0.3091
 2060TIP3    H2 6145   5.126   4.129   5.537 -0.2687 -1.2246  0.1970
 2061TIP3   OH2 6146   4.403   5.185   3.907 -0.6130 -0.7102 -0.5191
 2061TIP3    H1 6147   4.469   5.116   3.899  1.0409  0.5441  1.2594
 2061TIP3    H2 6148   4.444   5.262   3.866 -0.5836  0.2806  1.2559
 2062TIP3   OH2 6149   7.093   2.464   0.486 -0.0944  0.7480 -0.4657
 2062TIP3    H1 6150   7.118   2.485   0.396  3.8361  0.3405  0.3518
 2062TIP3    H2 6151   7.061   2.374   0.481  0.2089  0.6775 -1.4391
 2063TIP3   OH2 6152   4.869   4.801   4.931 -0.2557  0.3306 -0.1718
 2063TIP3    H1 6153   4.871   4.736   5.001  0.3112  0.2599 -0.2542
 2063TIP3    H2 6154   4.950   4.851   4.942 -1.3142  1.9414  0.7657
 2064TIP3   OH2 6155   3.557   3.406   0.799  0.6223  0.0058 -0.7705
 2064TIP3    H1 6156   3.490   3.469   0.825 -0.1501 -1.4833  1.0243
 2064TIP3    H2 6157   3.576   3.356   0.878  0.5552 -2.5972 -2.2788
 2065TIP3   OH2 6158   7.194   3.901   2.150  0.7110  0.7622 -0.2006
 2065TIP3    H1 6159   7.152   3.975   2.106 -0.8780 -0.3979 -0.7546
 2065TIP3    H2 6160   7.220   3.843   2.079 -0.2200 -0.2878  0.2853
 2066TIP3   OH2 6161   6.230   2.800   4.614  0.1835  0.0148  0.0461
 2066TIP3    H1 6162   6.254   2.746   4.690 -1.1706  0.0246  0.5112
 2066TIP3    H2 6163   6.199   2.882   4.652  1.2402  0.7313 -0.6145
 2067TIP3   OH2 6164   4.745   0.376   1.658 -0.0751  0.1210 -0.2581
 2067TIP3    H1 6165   4.730   0.406   1.748  1.0377  2.4770 -0.7693
 2067TIP3    H2 6166   4.834   0.341   1.659 -0.3569 -0.6225 -0.2990
 2068TIP3   OH2 6167   3.333   1.152   3.971  0.2386 -0.0742  0.0080
 2068TIP3    H1 6168   3.305   1.168   4.061 -0.6771  2.0751 -0.5815
 2068TIP3    H2 6169   3.261   1.104   3.932 -0.6092  1.3494 -0.2514
 2069TIP3   OH2 6170   1.894   0.783   0.288 -0.8606  0.0803 -0.7487
 2069TIP3    H1 6171   1.824   0.784   0.353  1.2086  0.4808  1.6098
 2069TIP3    H2 6172   1.917   0.691   0.279  1.2588  0.2446  1.9687
 2070TIP3   OH2 6173   5.818   3.610   5.752 -0.2779  0.4133  0.0213
 2070TIP3    H1 6174   5.900   3.567   5.777 -0.9684 -1.8067 -1.1862
 2070TIP3    H2 6175   5.789   3.655   5.830  1.7597  0.6934  0.6648
 2071TIP3   OH2 6176   6.812   2.154   1.886 -0.0992 -0.4865 -0.1436
 2071TIP3    H1 6177   6.849   2.076   1.844 -0.9103 -0.7873 -0.3061
 2071TIP3    H2 6178   6.810   2.131   1.979 -1.9701 -1.3818 -0.3527
 2072TIP3   OH2 6179   5.144   1.936   0.902  0.6038 -0.6941 -0.3036
 2072TIP3    H1 6180   5.068   1.879   0.899  1.1139 -1.3615 -0.9133
 2072TIP3    H2 6181   5.183   1.920   0.988 -0.9391  1.0127  0.7798
 2073TIP3   OH2 6182   0.965   2.627   5.326 -0.1375  0.1662 -0.3248
 2073TIP3    H1 6183   0.957   2.720   5.309  1.2129  0.5563  0.9343
 2073TIP3    H2 6184   1.043   2.600   5.278 -1.7555 -0.8557 -2.5237
 2074TIP3   OH2 6185   6.548   1.823   3.014  0.2276 -0.1436  0.4138
 2074TIP3    H1 6186   6.533   1.887   2.945  0.4668  1.6854  1.9941
 2074TIP3    H2 6187   6.633   1.785   2.993  0.6405  0.9230  0.1049
 2075TIP3   OH2 6188   4.530   0.497   4.548 -0.0338  0.0949  0.3528
 2075TIP3    H1 6189   4.578   0.489   4.465  0.7207 -0.4138  0.8232
 2075TIP3    H2 6190   4.452   0.547   4.526  0.0587 -0.2048 -0.7064
 2076TIP3   OH2 6191   6.796   3.233   5.001 -0.3628 -0.0351 -0.2336
 2076TIP3    H1 6192   6.868   3.198   5.053 -0.0436 -2.1683 -1.9784
 2076TIP3    H2 6193   6.725   3.247   5.064 -0.0069 -2.5137  0.8191
 2077TIP3   OH2 6194   6.976   3.963   4.125 -0.0415  0.7872  0.2182
 2077TIP3    H1 6195   7.040   4.032   4.143 -1.4158  2.3104 -0.4145
 2077TIP3    H2 6196   6.927   3.954   4.206  1.2005 -0.6907  0.8448
 2078TIP3   OH2 6197   3.479   3.782   3.692  0.1224 -0.0261  0.1453
 2078TIP3    H1 6198   3.384   3.785   3.684  0.2283  0.7627 -1.0591
 2078TIP3    H2 6199   3.496   3.791   3.786 -0.9414  1.8417  0.2065
 2079TIP3   OH2 6200   4.735   1.602   0.228 -0.1605 -0.2596  0.3140
 2079TIP3    H1 6201   4.691   1.523   0.197 -0.1049 -0.5812  1.0411
 2079TIP3    H2 6202   4.729   1.597   0.323  2.6377 -1.0046  0.5211
 2080TIP3   OH2 6203   5.482   5.179   2.411 -0.8289  0.1677 -0.1133
 2080TIP3    H1 6204   5.509   5.216   2.327 -1.1984 -0.8041 -0.6803
 2080TIP3    H2 6205   5.448   5.093   2.389  0.1415 -0.5881  1.1754
 2081TIP3   OH2 6206   3.430   2.623   5.788  0.0434  0.7102  0.1455
 2081TIP3    H1 6207   3.491   2.590   5.723  0.9949  1.3230  0.7090
 2081TIP3    H2 6208   3.356   2.656   5.737 -0.7973 -1.8605 -0.4735
 2082TIP3   OH2 6209   5.646   0.910   2.374 -0.2728 -0.2647 -0.0046
 2082TIP3    H1 6210   5.700   0.846   2.327  1.7933 -0.2077  2.0495
 2082TIP3    H2 6211   5.665   0.994   2.332 -1.0921 -0.6441 -1.1641
 2083TIP3   OH2 6212   4.053   0.108   0.661  0.0460  0.9400  0.4182
 2083TIP3    H1 6213   4.062   0.070   0.749 -0.6466 -1.3000 -0.4013
 2083TIP3    H2 6214   3.985   0.175   0.671 -0.6203  0.1513  1.4644
 2084TIP3   OH2 6215   4.222   6.027   0.570  0.3551 -0.2176  0.3231
 2084TIP3    H1 6216   4.181   5.943   0.548  1.2876 -0.8236  0.8215
 2084TIP3    H2 6217   4.308   6.024   0.528  0.8806 -0.0453  1.3513
 2085TIP3   OH2 6218   5.812   1.096   3.424  0.1591  0.0561  0.1785
 2085TIP3    H1 6219   5.893   1.146   3.434  0.3099  0.1163 -1.1929
 2085TIP3    H2 6220   5.840   1.013   3.384 -0.5813  0.5601 -1.4465
 2086TIP3   OH2 6221   2.289   5.418   2.147  0.0289 -0.6156 -0.3861
 2086TIP3    H1 6222   2.347   5.363   2.200 -0.7368 -2.3366 -1.2644
 2086TIP3    H2 6223   2.223   5.450   2.209  0.8340 -0.1321  0.2506
 2087TIP3   OH2 6224   6.491   2.026   1.006  0.3388 -0.1515  0.4174
 2087TIP3    H1 6225   6.560   2.092   0.999  1.1870 -0.7899  2.0054
 2087TIP3    H2 6226   6.412   2.075   1.027  0.5302  0.5166 -0.4104
 2088TIP3   OH2 6227   7.004   0.945   3.405 -0.0928  0.5525  0.0035
 2088TIP3    H1 6228   7.078   0.967   3.462 -0.3411  0.3791  0.3967
 2088TIP3    H2 6229   7.032   0.973   3.317  1.1345 -1.0465 -0.1620
 2089TIP3   OH2 6230   6.692   0.867   4.453 -0.7654  0.4998  0.5396
 2089TIP3    H1 6231   6.741   0.899   4.528  0.9063 -0.4039 -0.1228
 2089TIP3    H2 6232   6.666   0.946   4.406 -0.1753  1.0082  1.0457
 2090TIP3   OH2 6233   3.832   5.875   1.499  0.3119 -0.5573  0.4326
 2090TIP3    H1 6234   3.749   5.923   1.507 -0.8944 -1.8615 -2.6835
 2090TIP3    H2 6235   3.864   5.868   1.589 -1.7593  2.0062  1.5059
 2091TIP3   OH2 6236   6.783   1.777   4.606  0.1308 -0.6364 -0.0973
 2091TIP3    H1 6237   6.833   1.852   4.638  0.0385  0.0198 -1.4145
 2091TIP3    H2 6238   6.812   1.703   4.660  0.4151  0.2892  1.0445
 2092TIP3   OH2 6239   0.980   5.379   4.335 -0.1232  0.0538  0.4418
 2092TIP3    H1 6240   1.005   5.300   4.288  0.0270  0.4992 -0.2469
 2092TIP3    H2 6241   0.987   5.449   4.269 -1.1184  0.5040  0.7971
 2093TIP3   OH2 6242   0.148   3.682   3.301  0.0912 -0.0425 -0.7462
 2093TIP3    H1 6243   0.121   3.747   3.366  1.9589  1.2143 -1.1271
 2093TIP3    H2 6244   0.165   3.733   3.222 -0.8002 -1.3602 -1.8393
 2094TIP3   OH2 6245   3.083   1.411   4.945  0.2199 -0.1384  0.2383
 2094TIP3    H1 6246   3.108   1.448   5.029  0.3924 -1.0012  0.5782
 2094TIP3    H2 6247   3.151   1.443   4.884  1.3511 -1.2736  0.8673
 2095TIP3   OH2 6248   0.071   0.586   2.375 -0.5444  0.4656  0.3363
 2095TIP3    H1 6249   0.006   0.656   2.378 -0.2383  0.7745 -0.1326
 2095TIP3    H2 6250   0.141   0.620   2.319 -0.6376 -0.4225 -0.3468
 2096TIP3   OH2 6251   4.067   5.830   0.463 -0.1774 -0.1078  0.1148
 2096TIP3    H1 6252   3.982   5.845   0.421 -0.3517 -0.8884  0.1750
 2096TIP3    H2 6253   4.045   5.806   0.553  0.2061  1.9200  0.8135
 2097TIP3   OH2 6254   0.799   2.003   3.084 -0.2979  0.0032  0.6419
 2097TIP3    H1 6255   0.818   1.911   3.104  1.6580  0.4138  0.8988
 2097TIP3    H2 6256   0.734   2.029   3.150 -1.1304 -1.2583  0.3589
 2098TIP3   OH2 6257   4.389   1.993   1.045  0.2707 -0.6193  0.1477
 2098TIP3    H1 6258   4.398   2.087   1.035 -2.0346 -0.4516 -1.0079
 2098TIP3    H2 6259   4.340   1.982   1.127 -1.1518 -0.6408 -0.6638
 2099TIP3   OH2 6260   1.108   3.943   0.617  0.6588 -0.6809  0.4515
 2099TIP3    H1 6261   1.060   3.890   0.681  0.9029 -0.9970  0.3778
 2099TIP3    H2 6262   1.200   3.918   0.630  0.6298 -1.4910 -0.6907
 2100TIP3   OH2 6263   2.876   1.536   3.615  0.7473  0.7028 -0.4102
 2100TIP3    H1 6264   2.849   1.483   3.691  2.2590  0.3713 -0.0661
 2100TIP3    H2 6265   2.821   1.505   3.544 -0.1737  0.4729  0.3763
 2101TIP3   OH2 6266   2.911   3.776   0.405  0.0318  0.3988 -0.3199
 2101TIP3    H1 6267   2.907   3.859   0.357 -1.0244  0.8622  0.5151
 2101TIP3    H2 6268   2.877   3.798   0.492 -0.0609 -0.8747 -0.0234
 2102TIP3   OH2 6269   2.207   0.388   1.859  0.2655  0.9589  0.4017
 2102TIP3    H1 6270   2.240   0.324   1.795 -0.7939  2.0546 -1.3405
 2102TIP3    H2 6271   2.118   0.359   1.877 -1.5693  3.6386 -3.1119
 2103TIP3   OH2 6272   2.244   2.865   4.865  0.2585 -0.1593 -0.3725
 2103TIP3    H1 6273   2.190   2.911   4.929  0.6210 -1.3715  0.8335
 2103TIP3    H2 6274   2.323   2.841   4.912  0.0371 -2.1103 -0.9034
 2104TIP3   OH2 6275   1.046   4.894   5.759 -0.7101 -0.3127 -0.2675
 2104TIP3    H1 6276   0.952   4.902   5.774 -0.5301 -1.3227  1.6971
 2104TIP3    H2 6277   1.055   4.818   5.701 -1.0624 -1.0625  0.6358
 2105TIP3   OH2 6278   5.490   6.581   3.579 -0.4656 -0.0824  0.1418
 2105TIP3    H1 6279   5.418   6.526   3.610 -0.3647 -1.2882 -1.5820
 2105TIP3    H2 6280   5.489   6.569   3.484  1.5357  0.4678  0.0084
 2106TIP3   OH2 6281   5.843   0.225   2.843  0.1761 -0.4717  0.2790
 2106TIP3    H1 6282   5.807   0.296   2.896  0.3884 -0.9334  1.0720
 2106TIP3    H2 6283   5.800   0.233   2.758 -0.5539 -0.0124  0.6851
 2107TIP3   OH2 6284   3.317   4.180   0.700  0.1285 -0.1181 -0.3690
 2107TIP3    H1 6285   3.362   4.096   0.705  0.9475  0.1514 -2.1942
 2107TIP3    H2 6286   3.227   4.158   0.677  0.0640 -0.5262  0.2417
 2108TIP3   OH2 6287   4.001   4.680   5.315 -0.4923 -0.1862  0.5950
 2108TIP3    H1 6288   3.957   4.704   5.397  0.2001 -1.1835  1.2788
 2108TIP3    H2 6289   4.083   4.729   5.317 -0.4087 -0.3249  0.5647
 2109TIP3   OH2 6290   5.190   2.441   3.937 -0.8502 -0.2818 -0.0093
 2109TIP3    H1 6291   5.098   2.447   3.960 -1.1534 -1.5204 -0.8163
 2109TIP3    H2 6292   5.207   2.346   3.932  0.0603 -0.0663 -1.4237
 2110TIP3   OH2 6293   1.829   3.393   4.948 -0.3449 -0.0200  0.1150
 2110TIP3    H1 6294   1.907   3.428   4.903 -0.2739  0.3817  0.5442
 2110TIP3    H2 6295   1.805   3.461   5.011 -1.7903  0.4090 -0.8593
 2111TIP3   OH2 6296   0.938   2.220   3.824  0.0848  0.0750 -0.0688
 2111TIP3    H1 6297   0.937   2.315   3.825 -0.5266  0.0923 -1.0007
 2111TIP3    H2 6298   1.005   2.195   3.888 -1.2959  1.0855  1.8542
 2112TIP3   OH2 6299   3.461   4.198   3.282 -0.6858 -0.4456 -0.1146
 2112TIP3    H1 6300   3.507   4.141   3.220  0.1469 -0.0644  0.1418
 2112TIP3    H2 6301   3.448   4.143   3.359  0.3834 -0.2166  0.2436
 2113TIP3   OH2 6302   6.434   0.064   1.115 -0.6226 -0.2349  0.0269
 2113TIP3    H1 6303   6.526   0.038   1.109 -0.4667  0.1910  0.4745
 2113TIP3    H2 6304   6.398   0.011   1.186 -0.4271  0.3962  0.6136
 2114TIP3   OH2 6305   1.854   2.374   5.836  0.6671  0.6549 -0.1229
 2114TIP3    H1 6306   1.843   2.325   5.917 -0.9242  0.5302 -0.3797
 2114TIP3    H2 6307   1.899   2.454   5.863  0.9138  0.2396  0.7389
 2115TIP3   OH2 6308   3.465   0.677   4.681  0.3726  0.0143 -0.0324
 2115TIP3    H1 6309   3.381   0.714   4.708  0.9791  1.3947  0.0478
 2115TIP3    H2 6310   3.462   0.677   4.586 -0.2244 -1.2040 -0.0366
 2116TIP3   OH2 6311   6.343   5.073   0.229  0.0713  0.0829 -0.1654
 2116TIP3    H1 6312   6.351   4.990   0.181 -0.8509 -0.6712  0.9454
 2116TIP3    H2 6313   6.278   5.055   0.297 -0.6908  1.9465 -0.3632
 2117TIP3   OH2 6314   3.326   5.862   0.127 -0.1700 -0.5608  0.2603
 2117TIP3    H1 6315   3.390   5.930   0.149 -0.0310 -1.0822  1.6369
 2117TIP3    H2 6316   3.243   5.895   0.161 -0.5906 -0.0454 -1.2038
 2118TIP3   OH2 6317   4.840   1.864   5.180  0.3898  0.5952 -0.0684
 2118TIP3    H1 6318   4.846   1.859   5.085 -0.4367 -1.3939 -0.0547
 2118TIP3    H2 6319   4.838   1.773   5.209 -0.9263  1.1498  1.7325
 2119TIP3   OH2 6320   5.125   4.733   3.724 -0.6040 -0.0421  0.7893
 2119TIP3    H1 6321   5.035   4.703   3.706 -0.4448 -1.2151  1.8506
 2119TIP3    H2 6322   5.139   4.805   3.661 -1.7752 -0.7794 -0.3709
 2120TIP3   OH2 6323   6.069   3.150   1.092 -0.6350  0.0646  0.1636
 2120TIP3    H1 6324   6.104   3.062   1.081 -1.7787 -0.6720  1.9372
 2120TIP3    H2 6325   6.084   3.193   1.008  0.2575 -1.6986 -0.6285
 2121TIP3   OH2 6326   4.407   1.114   4.756  0.6684  0.1111 -0.4200
 2121TIP3    H1 6327   4.369   1.126   4.669  0.6068 -0.1413 -0.4279
 2121TIP3    H2 6328   4.500   1.099   4.739  0.5877 -0.3515 -0.4706
 2122TIP3   OH2 6329   3.965   3.502   3.574  0.7270 -0.0744  0.0040
 2122TIP3    H1 6330   4.016   3.488   3.494  3.1672  0.1862  1.4134
 2122TIP3    H2 6331   3.993   3.433   3.633 -2.1155 -1.1640  0.2408
 2123TIP3   OH2 6332   1.491   4.012   3.815 -0.0792  0.2698 -0.3149
 2123TIP3    H1 6333   1.516   4.102   3.836 -0.3767  0.5646 -1.1945
 2123TIP3    H2 6334   1.571   3.972   3.781 -0.1767  0.4917 -0.8200
 2124TIP3   OH2 6335   3.981   0.230   4.969  0.3985  0.3805 -0.5607
 2124TIP3    H1 6336   4.046   0.294   4.940  0.4845  0.9852  0.8951
 2124TIP3    H2 6337   4.026   0.146   4.963  1.2534  0.7600  0.1511
 2125TIP3   OH2 6338   3.739   1.535   1.742 -0.2617  0.1626  0.1055
 2125TIP3    H1 6339   3.783   1.600   1.797  0.2688  0.9473 -1.2083
 2125TIP3    H2 6340   3.739   1.455   1.796 -1.3675  1.3277  1.9498
 2126TIP3   OH2 6341   2.297   6.281   0.836  0.7293 -0.2907  0.2813
 2126TIP3    H1 6342   2.304   6.219   0.909  0.4569 -0.4120  0.2075
 2126TIP3    H2 6343   2.239   6.350   0.869 -2.9977 -2.4355 -1.1881
 2127TIP3   OH2 6344   2.318   6.079   1.027  0.3496  0.0069  0.5644
 2127TIP3    H1 6345   2.238   6.099   1.076  0.6006  1.9592  0.2574
 2127TIP3    H2 6346   2.388   6.091   1.091  0.5269  0.2641  0.3220
 2128TIP3   OH2 6347   2.350   6.083   3.810 -0.1040 -0.5795  0.4986
 2128TIP3    H1 6348   2.421   6.131   3.854  0.2246 -0.9030  0.3332
 2128TIP3    H2 6349   2.275   6.141   3.815  1.0175  1.3450 -2.3559
 2129TIP3   OH2 6350   5.994   3.051   5.200  0.3199  0.0270 -0.2930
 2129TIP3    H1 6351   6.002   3.031   5.107  2.0000 -0.1797 -0.1381
 2129TIP3    H2 6352   5.973   2.967   5.241 -2.1040  0.4117 -0.6212
 2130TIP3   OH2 6353   5.323   1.145   2.556  0.2536 -0.0955 -0.1299
 2130TIP3    H1 6354   5.344   1.237   2.574 -1.7863  0.2578  0.7637
 2130TIP3    H2 6355   5.398   1.097   2.592 -0.1760  1.0573  2.6134
 2131TIP3   OH2 6356   2.267   6.647   2.623  0.1557  0.2445  0.1939
 2131TIP3    H1 6357   2.295   6.627   2.533  0.2405  2.2263 -0.2896
 2131TIP3    H2 6358   2.266   6.743   2.626 -0.7908  0.2186  2.0354
 2132TIP3   OH2 6359   1.849   2.441   3.615  0.6742 -0.0169 -0.5694
 2132TIP3    H1 6360   1.754   2.449   3.601  0.4685  1.1089  1.1964
 2132TIP3    H2 6361   1.871   2.356   3.575 -0.9536 -0.0507 -1.5133
 2133TIP3   OH2 6362   5.506   2.012   0.176 -0.6146 -0.2835 -0.0214
 2133TIP3    H1 6363   5.458   2.092   0.155  0.6345  0.0008 -2.0785
 2133TIP3    H2 6364   5.575   2.040   0.237 -0.6847  0.0419 -0.0909
 2134TIP3   OH2 6365   4.380   2.584   1.036 -0.5546  0.1347  0.1837
 2134TIP3    H1 6366   4.304   2.528   1.045 -1.6906  1.5245 -0.4234
 2134TIP3    H2 6367   4.384   2.605   0.943 -0.2785  1.2080  0.4235
 2135TIP3   OH2 6368   0.081   4.370   5.166 -0.5114 -0.0474 -0.1048
 2135TIP3    H1 6369   0.037   4.306   5.110  0.6403  0.4447 -1.6453
 2135TIP3    H2 6370   0.172   4.368   5.138  0.0868  0.3456  1.6803
 2136TIP3   OH2 6371   4.830   5.598   3.514 -0.0874 -0.6801 -0.3593
 2136TIP3    H1 6372   4.879   5.612   3.432 -0.9170  0.1946 -0.7289
 2136TIP3    H2 6373   4.895   5.610   3.583  0.2216  0.6110 -0.8334
 2137TIP3   OH2 6374   2.335   2.998   3.329 -0.2829 -0.2878 -0.2885
 2137TIP3    H1 6375   2.248   2.986   3.366 -0.5603  0.6118 -0.6377
 2137TIP3    H2 6376   2.370   2.909   3.323 -1.5977 -0.7706 -1.1751
 2138TIP3   OH2 6377   2.934   6.236   5.496 -0.0695  0.3442  0.0024
 2138TIP3    H1 6378   2.982   6.296   5.439 -0.6341  0.7220 -0.0932
 2138TIP3    H2 6379   2.865   6.201   5.439  0.9348 -1.2732 -0.2618
 2139TIP3   OH2 6380   6.919   1.417   2.451 -0.2662 -0.0005 -0.1547
 2139TIP3    H1 6381   7.013   1.418   2.431  0.2679 -0.1272  2.0571
 2139TIP3    H2 6382   6.879   1.463   2.377  1.4425 -0.5533 -1.5017
 2140TIP3   OH2 6383   6.900   0.953   4.641  0.4285  0.2139  0.5839
 2140TIP3    H1 6384   6.857   0.877   4.682 -0.7335 -0.1134 -1.1301
 2140TIP3    H2 6385   6.872   1.028   4.694  0.6211 -0.4115  1.5888
 2141TIP3   OH2 6386   1.707   1.786   2.856  0.2587 -0.8467  0.1110
 2141TIP3    H1 6387   1.631   1.833   2.889 -0.2394 -1.4164 -0.2175
 2141TIP3    H2 6388   1.704   1.701   2.899  1.3412 -0.4851  0.9520
 2142TIP3   OH2 6389   3.754   5.972   3.540 -0.4209  0.2906  0.9281
 2142TIP3    H1 6390   3.834   5.923   3.559  0.3075  1.2225  0.3348
 2142TIP3    H2 6391   3.696   5.908   3.498  0.1616 -0.2929  1.0062
 2143TIP3   OH2 6392   3.234   6.369   2.780  0.1431  0.4422  0.0697
 2143TIP3    H1 6393   3.211   6.337   2.693 -0.7480  0.8062  0.1570
 2143TIP3    H2 6394   3.166   6.334   2.838  1.0935 -0.3303  0.7341
 2144TIP3   OH2 6395   6.703   5.145   2.143 -0.1168  0.0329  0.1916
 2144TIP3    H1 6396   6.659   5.077   2.092  0.2291  0.7632 -1.1208
 2144TIP3    H2 6397   6.712   5.219   2.083  1.2109  0.5773  1.0125
 2145TIP3   OH2 6398   3.464   6.743   0.016 -0.2988  0.6119 -0.1353
 2145TIP3    H1 6399   3.437   6.653  -0.002 -0.2494  0.4896  0.3824
 2145TIP3    H2 6400   3.385   6.795  -0.001 -1.1191  0.1888  1.9891
 2146TIP3   OH2 6401   4.789   2.137   3.416 -0.1189  0.4070  0.7888
 2146TIP3    H1 6402   4.813   2.175   3.332 -0.7809  0.2245  0.5120
 2146TIP3    H2 6403   4.872   2.103   3.451  0.0578 -0.0924 -0.0803
 2147TIP3   OH2 6404   6.844   6.522   4.321  0.3033 -0.4012 -0.2187
 2147TIP3    H1 6405   6.760   6.485   4.348  0.5442 -0.7368  0.0792
 2147TIP3    H2 6406   6.870   6.579   4.394  0.6691 -0.8462  0.0068
 2148TIP3   OH2 6407   6.763   6.758   1.580  0.1257  0.2496 -0.0201
 2148TIP3    H1 6408   6.727   6.797   1.500  0.9840  0.1179 -0.4859
 2148TIP3    H2 6409   6.697   6.695   1.608 -0.1325  0.2117 -0.7011
 2149TIP3   OH2 6410   0.070   3.119   4.780 -0.4279 -0.2966  0.1167
 2149TIP3    H1 6411   0.084   3.054   4.849 -1.0780  0.2784  0.8176
 2149TIP3    H2 6412   0.099   3.201   4.820  2.4726 -0.4083 -1.4921
 2150TIP3   OH2 6413   1.868   0.098   3.286  0.3070 -0.1618 -0.4329
 2150TIP3    H1 6414   1.795   0.038   3.274  0.3273 -0.0105 -1.3558
 2150TIP3    H2 6415   1.904   0.111   3.198 -0.1599  1.7953 -0.3698
 2151TIP3   OH2 6416   0.167   1.228   3.807 -0.0761  0.1200  0.1212
 2151TIP3    H1 6417   0.182   1.316   3.842 -1.7188  0.1470  0.8597
 2151TIP3    H2 6418   0.228   1.221   3.733  0.7425  1.5202  0.6192
 2152TIP3   OH2 6419   6.685   5.684   5.805 -0.2188 -0.3077  0.1658
 2152TIP3    H1 6420   6.729   5.672   5.890  1.3533 -2.0317 -0.8194
 2152TIP3    H2 6421   6.694   5.778   5.787  0.1818 -0.0638  1.4996
 2153TIP3   OH2 6422   6.013   6.168   3.040  0.0205  0.0863 -0.0509
 2153TIP3    H1 6423   5.949   6.197   2.975 -0.4865 -0.1014  0.3610
 2153TIP3    H2 6424   6.039   6.249   3.085 -1.6335 -0.1022  1.3129
 2154TIP3   OH2 6425   6.852   4.391   4.099  0.5153  0.1712  0.3836
 2154TIP3    H1 6426   6.891   4.333   4.034  1.8103 -1.1207  2.2130
 2154TIP3    H2 6427   6.769   4.350   4.123  1.7055 -1.3664  2.1173
 2155TIP3   OH2 6428   0.480   3.832   5.459 -0.2134 -0.1623 -0.0568
 2155TIP3    H1 6429   0.533   3.775   5.515  0.0147 -0.2689 -0.3792
 2155TIP3    H2 6430   0.521   3.918   5.467 -1.4327  0.3195  1.6043
 2156TIP3   OH2 6431   0.236   6.726   4.507 -0.1015 -0.4945  0.2841
 2156TIP3    H1 6432   0.197   6.748   4.423  0.4696  0.2904  0.2218
 2156TIP3    H2 6433   0.161   6.712   4.565 -0.5005  1.2574  0.2393
 2157TIP3   OH2 6434   4.521   1.049   1.511 -0.5890 -1.1213  0.2864
 2157TIP3    H1 6435   4.483   1.116   1.569 -0.4043 -1.2296  0.5324
 2157TIP3    H2 6436   4.485   0.967   1.544 -0.5804 -1.1703  0.1695
 2158TIP3   OH2 6437   1.077   4.997   2.795  0.2640 -0.0103  0.5156
 2158TIP3    H1 6438   1.131   5.073   2.819 -0.2494  0.9566 -1.2482
 2158TIP3    H2 6439   1.102   4.930   2.858  2.8631  0.6858  0.3334
 2159TIP3   OH2 6440   5.521   1.332   4.214 -0.0113  0.1177  0.1009
 2159TIP3    H1 6441   5.520   1.255   4.270  0.3950  0.1978  0.2262
 2159TIP3    H2 6442   5.476   1.305   4.134 -0.3632 -0.0767  0.3596
 2160TIP3   OH2 6443   3.654   2.534  -0.026  0.0157 -0.4739  0.2068
 2160TIP3    H1 6444   3.732   2.584  -0.000 -0.6955  0.8164 -0.0463
 2160TIP3    H2 6445   3.634   2.479   0.049 -0.0894  0.7830  1.1187
 2161TIP3   OH2 6446   4.111   4.977   5.069 -0.4779  0.0074  0.0276
 2161TIP3    H1 6447   4.050   4.904   5.077  0.6519 -0.8012  1.5168
 2161TIP3    H2 6448   4.197   4.940   5.087  0.1293  1.6991  0.8713
 2162TIP3   OH2 6449   6.967   0.559   0.006  0.0961 -0.4468  0.0999
 2162TIP3    H1 6450   6.874   0.552  -0.014  0.1192  1.5116 -0.8875
 2162TIP3    H2 6451   6.982   0.653   0.018  1.5932 -0.8670  2.1329
 2163TIP3   OH2 6452   2.637   1.576   3.840  0.2646 -0.6188 -0.0710
 2163TIP3    H1 6453   2.648   1.547   3.749 -0.4277  0.7430 -0.6175
 2163TIP3    H2 6454   2.546   1.555   3.860  0.1560 -0.1120 -0.0123
 2164TIP3   OH2 6455   3.093   4.740   5.625 -0.5952 -0.0738  0.1426
 2164TIP3    H1 6456   3.128   4.706   5.542 -2.6483 -0.2554 -0.7129
 2164TIP3    H2 6457   3.121   4.832   5.627 -1.6282  0.3122 -1.4478
 2165TIP3   OH2 6458   2.017   3.811   0.198  0.1705  0.2456 -0.1979
 2165TIP3    H1 6459   2.087   3.857   0.152  0.6969 -0.6573 -0.3285
 2165TIP3    H2 6460   2.006   3.859   0.280  0.1997  1.0297 -0.6492
 2166TIP3   OH2 6461   2.733   1.784   3.105  0.2096 -0.0167  0.4113
 2166TIP3    H1 6462   2.667   1.749   3.165 -0.3605  0.9694  0.3897
 2166TIP3    H2 6463   2.817   1.764   3.147 -0.1915  1.3474  1.9597
 2167TIP3   OH2 6464   1.946   5.039   4.110 -0.1571 -0.3146 -0.3777
 2167TIP3    H1 6465   1.868   4.997   4.146 -0.2257  0.3393  0.2662
 2167TIP3    H2 6466   2.002   5.055   4.186  0.0013  0.4515 -0.6440
 2168TIP3   OH2 6467   0.767   6.642   1.528  0.4220 -0.1839 -0.0048
 2168TIP3    H1 6468   0.821   6.672   1.601 -0.6278 -0.4475  0.9105
 2168TIP3    H2 6469   0.708   6.714   1.510 -1.1213 -1.0607  1.2319
 2169TIP3   OH2 6470   1.896   4.192   0.199  0.3216 -0.1058  0.5041
 2169TIP3    H1 6471   1.871   4.110   0.242 -1.7752  1.2284  1.9898
 2169TIP3    H2 6472   1.815   4.224   0.159  0.7387  1.8579  1.0987
 2170TIP3   OH2 6473   1.716   4.756   0.007 -0.2165 -0.2323  0.3789
 2170TIP3    H1 6474   1.645   4.713   0.054 -0.8826 -0.2158 -0.5922
 2170TIP3    H2 6475   1.787   4.762   0.071 -0.9205 -0.6771  1.2147
 2171TIP3   OH2 6476   2.323   5.220   3.475 -0.3656  0.3751 -0.1398
 2171TIP3    H1 6477   2.271   5.202   3.553 -1.5429  1.7986 -0.5393
 2171TIP3    H2 6478   2.348   5.134   3.442  0.1507 -0.2602  1.7764
 2172TIP3   OH2 6479   6.692   2.224   4.362  0.1876  0.1943  0.0464
 2172TIP3    H1 6480   6.769   2.281   4.361  0.0269  0.4536 -1.5207
 2172TIP3    H2 6481   6.618   2.284   4.350 -0.0874 -0.2196 -0.3490
 2173TIP3   OH2 6482   2.043   4.676   0.197  0.1290 -0.0262  0.2399
 2173TIP3    H1 6483   2.060   4.698   0.106 -1.5169  0.9645  0.1236
 2173TIP3    H2 6484   2.127   4.687   0.241  0.4326  1.9122 -0.7147
 2174TIP3   OH2 6485   6.085   2.969   2.276 -0.1408  0.2902  0.2966
 2174TIP3    H1 6486   5.990   2.976   2.284 -0.1910  0.5081 -0.4318
 2174TIP3    H2 6487   6.117   2.979   2.365 -0.9051 -1.6283  0.8507
 2175TIP3   OH2 6488   4.112   4.722   4.818  0.2584  0.2960 -0.0965
 2175TIP3    H1 6489   4.072   4.644   4.779  0.2747  0.2072  0.0630
 2175TIP3    H2 6490   4.101   4.710   4.912 -0.6419  0.9797 -0.1039
 2176TIP3   OH2 6491   1.230   0.846   0.413 -0.4255  0.1919 -0.2145
 2176TIP3    H1 6492   1.179   0.878   0.488 -0.6933 -0.3230 -0.1728
 2176TIP3    H2 6493   1.314   0.821   0.451  1.3241  4.3741 -0.7693
 2177TIP3   OH2 6494   1.996   3.030   2.117  0.0505  0.3032  0.0741
 2177TIP3    H1 6495   1.928   3.050   2.181 -0.0582  1.8621 -0.4865
 2177TIP3    H2 6496   1.983   2.937   2.098 -2.0461  0.5708 -0.1197
 2178TIP3   OH2 6497   2.511   1.090   3.250 -0.0591 -0.4772  0.8385
 2178TIP3    H1 6498   2.437   1.116   3.305  0.0739  0.0103  0.7884
 2178TIP3    H2 6499   2.580   1.153   3.271 -1.1116  2.0335 -2.4630
 2179TIP3   OH2 6500   0.197   3.750   4.838 -0.1156 -0.4606  0.0787
 2179TIP3    H1 6501   0.281   3.738   4.793  0.2100 -0.0391  0.5485
 2179TIP3    H2 6502   0.201   3.840   4.872 -0.6200 -0.5464  0.3823
 2180TIP3   OH2 6503   2.712   0.316   5.075 -0.4311 -0.1954 -0.8171
 2180TIP3    H1 6504   2.729   0.340   4.984 -0.8054 -1.6219 -1.2930
 2180TIP3    H2 6505   2.660   0.389   5.110 -1.0291 -0.0280 -2.0005
 2181TIP3   OH2 6506   5.983   2.261   1.372 -0.1417  0.2003 -0.6971
 2181TIP3    H1 6507   5.929   2.240   1.449 -2.6793  1.8317 -1.8953
 2181TIP3    H2 6508   6.042   2.330   1.401 -0.5684  0.2795 -0.0033
 2182TIP3   OH2 6509   6.284   6.288   3.751  0.2185 -0.4371  0.0743
 2182TIP3    H1 6510   6.332   6.209   3.728  0.2866 -0.8167  1.4614
 2182TIP3    H2 6511   6.335   6.328   3.822 -0.6477  0.0042  0.4711
 2183TIP3   OH2 6512   4.693   4.343   5.343  0.3666 -0.1515  0.7784
 2183TIP3    H1 6513   4.762   4.399   5.379 -0.6171  0.4402  1.7942
 2183TIP3    H2 6514   4.629   4.403   5.306  0.9600 -0.7227 -1.3522
 2184TIP3   OH2 6515   4.380   3.730   2.612 -0.0460 -0.9815 -0.1227
 2184TIP3    H1 6516   4.426   3.688   2.540 -1.3030 -0.0764 -1.5066
 2184TIP3    H2 6517   4.290   3.698   2.606 -0.9256  1.3502 -0.9112
 2185TIP3   OH2 6518   4.579   1.919   4.417  0.1821  0.2345  0.3751
 2185TIP3    H1 6519   4.581   2.012   4.393 -0.3953  0.0823 -0.2922
 2185TIP3    H2 6520   4.562   1.919   4.511  0.3680  0.8093  0.4143
 2186TIP3   OH2 6521   3.572   5.580   0.240 -0.1455 -0.1323 -0.4929
 2186TIP3    H1 6522   3.480   5.577   0.214 -0.4403  2.1520  0.0090
 2186TIP3    H2 6523   3.618   5.604   0.160  0.0507 -1.4000 -0.7729
 2187TIP3   OH2 6524   3.371   6.332   4.920 -0.3395  0.1001  0.7362
 2187TIP3    H1 6525   3.442   6.359   4.862 -0.5747  1.2893  0.9698
 2187TIP3    H2 6526   3.400   6.249   4.957  0.5587  0.1594  0.1911
 2188TIP3   OH2 6527   4.878   3.009   0.125  0.2543 -0.0485 -0.4541
 2188TIP3    H1 6528   4.794   3.029   0.082  0.7895 -0.0368 -1.5360
 2188TIP3    H2 6529   4.898   2.920   0.095  0.4751 -0.1796  0.0754
 2189TIP3   OH2 6530   2.504   0.301   1.238  0.3065  0.0266 -0.5444
 2189TIP3    H1 6531   2.504   0.372   1.303  1.4321  0.9536 -1.5010
 2189TIP3    H2 6532   2.469   0.225   1.285 -0.5597  1.0994  0.6315
 2190TIP3   OH2 6533   2.538   5.641   0.967  0.1363  0.7801  0.3813
 2190TIP3    H1 6534   2.477   5.705   1.003 -1.5758  1.5163 -3.3203
 2190TIP3    H2 6535   2.620   5.690   0.956 -0.2900  1.4877  0.3131
 2191TIP3   OH2 6536   1.887   1.491   3.906 -0.5430  0.1549 -0.2119
 2191TIP3    H1 6537   1.808   1.542   3.921 -0.4188  0.1512  0.5145
 2191TIP3    H2 6538   1.870   1.407   3.948 -0.3033  0.0129 -0.3906
 2192TIP3   OH2 6539   7.002   6.112   3.459 -0.3104 -0.2508  0.5038
 2192TIP3    H1 6540   7.066   6.131   3.390 -1.6728  0.1357 -0.6967
 2192TIP3    H2 6541   6.983   6.197   3.499 -0.8455 -0.1964  0.1454
 2193TIP3   OH2 6542   3.485   2.991   5.632  0.0544 -0.1851 -0.4043
 2193TIP3    H1 6543   3.485   3.087   5.641 -1.5847 -0.1369 -0.5170
 2193TIP3    H2 6544   3.551   2.961   5.694  1.7294  1.0763 -1.4818
 2194TIP3   OH2 6545   3.504   6.100   0.148  0.0046 -0.1539  0.2356
 2194TIP3    H1 6546   3.471   6.137   0.229 -0.8747  2.2428 -1.1278
 2194TIP3    H2 6547   3.597   6.122   0.148  0.0551 -0.3447  0.6484
 2195TIP3   OH2 6548   0.321   0.097   3.054  0.3725  0.5625 -0.3381
 2195TIP3    H1 6549   0.339   0.120   2.963 -0.5096  0.8338 -0.4510
 2195TIP3    H2 6550   0.289   0.177   3.094  0.7252  0.4357  0.2081
 2196TIP3   OH2 6551   0.016   0.656   1.158  0.7585  0.0453 -0.6995
 2196TIP3    H1 6552   0.066   0.592   1.209  1.4779 -1.6258 -3.2945
 2196TIP3    H2 6553  -0.067   0.664   1.205  1.9970 -0.0104  1.6500
 2197TIP3   OH2 6554   5.834   4.203   1.606  0.4249  0.0630 -0.0282
 2197TIP3    H1 6555   5.797   4.128   1.558 -0.7099  1.1480 -0.9208
 2197TIP3    H2 6556   5.787   4.203   1.690  0.8778 -0.5835  0.2306
 2198TIP3   OH2 6557   3.982   5.303   1.244 -0.1701  0.0969  0.0687
 2198TIP3    H1 6558   4.026   5.375   1.289  1.0673 -1.7718  2.1023
 2198TIP3    H2 6559   4.049   5.235   1.238 -0.9376 -0.5374 -2.8517
 2199TIP3   OH2 6560   2.891   1.827   3.695 -0.5669  0.0392  0.5073
 2199TIP3    H1 6561   2.858   1.833   3.784 -2.6356 -0.5268 -0.1755
 2199TIP3    H2 6562   2.881   1.735   3.671  0.5220  0.0690 -0.1313
 2200TIP3   OH2 6563   0.060   6.535   4.755  0.4006  0.8684 -0.0339
 2200TIP3    H1 6564   0.141   6.585   4.764 -0.3402  1.7697  2.1896
 2200TIP3    H2 6565   0.058   6.478   4.832 -1.5214  1.5580  0.4837
 2201TIP3   OH2 6566   4.059   2.500   2.021  0.2854 -0.4564  0.1664
 2201TIP3    H1 6567   4.027   2.587   2.000 -1.0575 -0.9655  0.0554
 2201TIP3    H2 6568   3.987   2.441   2.000  1.3243 -1.6558 -0.2143
 2202TIP3   OH2 6569   2.599   0.032   2.438  0.4529 -0.0552 -0.2149
 2202TIP3    H1 6570   2.649   0.054   2.516  1.1317 -0.8665 -0.4151
 2202TIP3    H2 6571   2.562   0.116   2.409  0.9000  0.3895  0.4818
 2203TIP3   OH2 6572   1.753   4.021   4.460  0.6406  0.3392  0.2567
 2203TIP3    H1 6573   1.737   4.114   4.480  0.9620 -0.0195  2.3574
 2203TIP3    H2 6574   1.794   4.023   4.373 -1.7772  1.9343 -0.9893
 2204TIP3   OH2 6575   0.577   0.208   3.576 -0.2226 -0.1487 -0.2508
 2204TIP3    H1 6576   0.625   0.126   3.579 -0.1795 -0.2032 -1.5431
 2204TIP3    H2 6577   0.507   0.198   3.640 -0.3944 -1.3271 -0.6009
 2205TIP3   OH2 6578   3.019   4.054   3.524 -0.5137 -0.9951  0.4428
 2205TIP3    H1 6579   3.015   4.149   3.535  1.3849 -0.6386 -1.3823
 2205TIP3    H2 6580   2.932   4.023   3.549 -1.1968  1.2086  0.9982
 2206TIP3   OH2 6581   0.273   0.200   1.832 -0.6347 -0.0875  0.1377
 2206TIP3    H1 6582   0.286   0.201   1.926  1.8671 -0.1212 -0.1369
 2206TIP3    H2 6583   0.219   0.277   1.814  0.6410  1.1793  1.4362
 2207TIP3   OH2 6584   2.034   4.558   2.016  0.1984 -0.5084 -0.4540
 2207TIP3    H1 6585   1.964   4.530   1.958 -0.6657 -2.7976  1.5331
 2207TIP3    H2 6586   2.016   4.651   2.031 -0.5689 -0.3022 -2.3988
 2208TIP3   OH2 6587   5.690   0.823   0.661  0.2562  0.2303  0.0773
 2208TIP3    H1 6588   5.695   0.916   0.683  1.7977  0.3790 -0.7416
 2208TIP3    H2 6589   5.604   0.812   0.621 -0.5283  0.9759  1.4710
 2209TIP3   OH2 6590   1.412   4.907   4.592  0.2663  0.5604 -0.6754
 2209TIP3    H1 6591   1.501   4.919   4.626  0.1115  0.9154 -0.3789
 2209TIP3    H2 6592   1.357   4.953   4.656 -0.0382  1.2030 -1.3896
 2210TIP3   OH2 6593   1.367   4.252   0.968  0.1142 -0.1290  0.0955
 2210TIP3    H1 6594   1.382   4.265   1.062 -2.1613 -0.1834  0.5281
 2210TIP3    H2 6595   1.332   4.335   0.938 -0.0904 -0.4246 -0.4875
 2211TIP3   OH2 6596   5.913   0.557   1.642 -0.1232 -0.4490 -0.1435
 2211TIP3    H1 6597   5.934   0.506   1.720 -1.7446 -1.0715 -0.0785
 2211TIP3    H2 6598   5.939   0.647   1.664 -0.4096 -0.6430  1.0629
 2212TIP3   OH2 6599   1.313   5.734   4.734  0.1804 -0.1718  0.0433
 2212TIP3    H1 6600   1.316   5.731   4.639  1.2395  1.1151  0.0102
 2212TIP3    H2 6601   1.241   5.794   4.754 -1.1016 -1.6690  0.1186
 2213TIP3   OH2 6602   1.183   4.334   4.768 -0.9469 -0.5776 -0.6886
 2213TIP3    H1 6603   1.099   4.343   4.814 -1.4564 -0.7086 -1.5692
 2213TIP3    H2 6604   1.196   4.419   4.726 -0.6304 -0.5587 -0.5536
 2214TIP3   OH2 6605   7.159   3.889   1.867 -0.0559 -0.1276  0.1228
 2214TIP3    H1 6606   7.193   3.969   1.828 -0.9552  1.1781  1.8870
 2214TIP3    H2 6607   7.078   3.871   1.821  0.2819 -0.1924 -0.4543
 2215TIP3   OH2 6608   6.370   1.931   2.229 -0.0488  0.2781 -0.4410
 2215TIP3    H1 6609   6.382   1.871   2.155 -0.4612 -0.6121  0.1870
 2215TIP3    H2 6610   6.282   1.912   2.262  0.5922 -0.2947  1.0776
 2216TIP3   OH2 6611   6.815   2.263   1.629 -0.5425 -0.1660  0.0360
 2216TIP3    H1 6612   6.809   2.237   1.721  0.4607  1.5063  0.6260
 2216TIP3    H2 6613   6.908   2.284   1.616 -0.5031 -1.1799 -1.6177
 2217TIP3   OH2 6614   4.413   1.505   0.417 -0.2960 -0.2669 -0.1866
 2217TIP3    H1 6615   4.482   1.493   0.482 -1.1963 -0.7846  0.7009
 2217TIP3    H2 6616   4.386   1.596   0.427 -0.4856 -0.3673  0.2241
 2218TIP3   OH2 6617   4.679   3.054   0.333 -0.6265  0.1772 -0.1765
 2218TIP3    H1 6618   4.691   3.006   0.251 -0.5514  1.5297 -0.9943
 2218TIP3    H2 6619   4.612   3.120   0.313 -0.9048  0.2696  0.9728
 2219TIP3   OH2 6620   1.697   2.538   0.322  0.1453 -0.1381  0.1011
 2219TIP3    H1 6621   1.602   2.551   0.315  0.2257  1.6060  1.5910
 2219TIP3    H2 6622   1.733   2.582   0.245 -0.2663 -1.5139 -0.9135
 2220TIP3   OH2 6623   5.043   5.992   5.848 -0.3347  0.1303 -0.3447
 2220TIP3    H1 6624   5.007   5.924   5.791 -1.6906  0.7615 -0.2818
 2220TIP3    H2 6625   5.091   5.944   5.915  2.0528 -0.6062 -2.4263
 2221TIP3   OH2 6626   0.231   5.803   1.836 -0.0713 -1.0245  0.6818
 2221TIP3    H1 6627   0.305   5.744   1.821 -0.2610 -0.6607 -2.2600
 2221TIP3    H2 6628   0.263   5.865   1.903  2.9805  0.1030 -1.5828
 2222TIP3   OH2 6629   7.199   5.423   4.591 -0.5487 -0.1612  0.3432
 2222TIP3    H1 6630   7.175   5.398   4.502 -0.5823  0.4810  0.1703
 2222TIP3    H2 6631   7.192   5.341   4.641 -2.0005 -0.2250  0.0681
 2223TIP3   OH2 6632   5.207   5.449   1.363  0.1269 -0.0534  0.0468
 2223TIP3    H1 6633   5.119   5.420   1.341  0.4839 -1.3541  0.2439
 2223TIP3    H2 6634   5.224   5.523   1.305 -0.3977 -0.9692 -1.3170
 2224TIP3   OH2 6635   6.199   5.755   0.486  0.6425 -0.1427 -0.0078
 2224TIP3    H1 6636   6.162   5.668   0.502 -1.1431  0.4143 -0.7928
 2224TIP3    H2 6637   6.162   5.810   0.554 -2.2223  0.9653 -2.2307
 2225TIP3   OH2 6638   2.046   0.181   5.792 -0.1525 -0.4694 -0.2819
 2225TIP3    H1 6639   2.127   0.221   5.759  0.1545 -0.4299  0.4990
 2225TIP3    H2 6640   1.984   0.253   5.798 -0.7965 -0.7642 -2.4557
 2226TIP3   OH2 6641   1.856   4.030   1.269  0.4448  0.1033  0.2261
 2226TIP3    H1 6642   1.802   4.061   1.341  0.2892 -2.2442  1.1957
 2226TIP3    H2 6643   1.808   4.055   1.190  0.4791  2.4558  0.8574
 2227TIP3   OH2 6644   2.787   3.604   1.846  0.1268  0.5593  0.2040
 2227TIP3    H1 6645   2.717   3.555   1.890  0.3694  1.5876  1.8212
 2227TIP3    H2 6646   2.769   3.592   1.753 -0.2045 -2.0075  0.5266
 2228TIP3   OH2 6647   7.099   5.653   2.806  0.1032  0.0849  0.3553
 2228TIP3    H1 6648   7.108   5.592   2.733  1.4349 -0.6544  1.0911
 2228TIP3    H2 6649   7.014   5.632   2.844 -0.2138 -0.1155 -0.4424
 2229TIP3   OH2 6650   1.354   0.109   5.440  0.3795 -0.1006 -0.1247
 2229TIP3    H1 6651   1.356   0.122   5.345 -0.3641  0.4220 -0.0799
 2229TIP3    H2 6652   1.331   0.017   5.452  1.9141 -0.5491 -0.4468
 2230TIP3   OH2 6653   7.071   0.049   5.785 -0.6842  0.4135 -0.1772
 2230TIP3    H1 6654   7.098  -0.035   5.820  0.6004  1.5007  1.6205
 2230TIP3    H2 6655   6.975   0.046   5.783 -0.6574 -0.9585  0.1421
 2231TIP3   OH2 6656   1.825   5.387   4.777  0.3979  0.0778  0.3917
 2231TIP3    H1 6657   1.884   5.416   4.847 -2.0732  0.9915  2.2609
 2231TIP3    H2 6658   1.834   5.454   4.709 -0.7206  2.0154  2.0317
 2232TIP3   OH2 6659   0.269   2.844   3.269  0.0372 -0.2848 -0.4949
 2232TIP3    H1 6660   0.354   2.807   3.247 -0.6716 -1.6163 -1.1574
 2232TIP3    H2 6661   0.278   2.875   3.359  0.9943 -1.1344 -0.2804
 2233TIP3   OH2 6662   6.811   6.289   0.113  0.0510  0.6001  0.3365
 2233TIP3    H1 6663   6.743   6.285   0.180 -0.4844 -1.8450 -0.2674
 2233TIP3    H2 6664   6.891   6.261   0.159 -0.2543 -0.7706  0.0762
 2234TIP3   OH2 6665   5.603   0.951   5.679 -0.0074 -0.2484  0.3796
 2234TIP3    H1 6666   5.563   0.905   5.753 -0.6392 -1.2552 -0.5389
 2234TIP3    H2 6667   5.559   0.913   5.602  0.6472  0.7435 -0.5046
 2235TIP3   OH2 6668   1.976   5.392   5.467  0.7331  0.2429  0.1200
 2235TIP3    H1 6669   1.968   5.323   5.533 -0.8181  1.4995  1.3006
 2235TIP3    H2 6670   1.926   5.465   5.502 -1.4497  0.4734 -3.0639
 2236TIP3   OH2 6671   3.746   2.732   1.214  0.3137 -0.5056 -0.3601
 2236TIP3    H1 6672   3.709   2.766   1.132 -0.6602 -0.3691  0.1169
 2236TIP3    H2 6673   3.721   2.639   1.215  1.2914 -0.7857 -0.7362
 2237TIP3   OH2 6674   0.647   3.213   0.648 -0.5446  0.2400 -0.2173
 2237TIP3    H1 6675   0.690   3.134   0.615  0.4950 -0.1879  1.9798
 2237TIP3    H2 6676   0.611   3.255   0.570 -0.9927 -2.3060 -1.4856
 2238TIP3   OH2 6677   2.186   4.245   3.543 -0.3459 -0.0795  0.2546
 2238TIP3    H1 6678   2.160   4.161   3.581 -0.3247 -0.8179 -1.2778
 2238TIP3    H2 6679   2.214   4.298   3.618  2.2816 -2.3780  1.0786
 2239TIP3   OH2 6680   5.034   2.024   5.291  0.4963  0.0494  0.0190
 2239TIP3    H1 6681   4.988   2.093   5.338  1.6453  0.5150  0.5067
 2239TIP3    H2 6682   4.965   1.974   5.248 -0.3549  1.5489 -0.4267
 2240TIP3   OH2 6683   2.154   0.059   4.605  0.1472  0.6057 -0.2662
 2240TIP3    H1 6684   2.180   0.115   4.532  0.2140  1.1201  0.1454
 2240TIP3    H2 6685   2.086   0.109   4.650  0.7362  0.6923  0.5490
 2241TIP3   OH2 6686   2.736   1.627   1.528  0.3275  0.5553  0.1831
 2241TIP3    H1 6687   2.827   1.641   1.553  1.1972 -1.5354 -1.5244
 2241TIP3    H2 6688   2.689   1.618   1.611  2.0800 -0.5329  1.1114
 2242TIP3   OH2 6689   4.162   2.104   2.674  0.0571 -0.3405  0.4526
 2242TIP3    H1 6690   4.188   2.017   2.705  0.8704 -0.3038 -0.0917
 2242TIP3    H2 6691   4.144   2.092   2.581 -0.7912 -0.1244  0.5859
 2243TIP3   OH2 6692   4.049   5.894   3.340 -0.2369  0.0608 -0.1122
 2243TIP3    H1 6693   4.086   5.843   3.412 -2.4898 -0.2385  0.9376
 2243TIP3    H2 6694   4.041   5.832   3.268  0.4891 -0.0772 -0.0765
 2244TIP3   OH2 6695   0.515   5.545   5.406  0.1055 -0.4172  0.0326
 2244TIP3    H1 6696   0.454   5.539   5.480 -0.3528 -0.5030 -0.3480
 2244TIP3    H2 6697   0.471   5.497   5.336 -0.4481  1.4720 -0.9694
 2245TIP3   OH2 6698   2.907   2.624   0.460  0.0792  0.5871  0.4757
 2245TIP3    H1 6699   2.916   2.536   0.496  0.1382  0.6693  0.6664
 2245TIP3    H2 6700   2.868   2.675   0.531 -0.0043  0.7024  0.3475
 2246TIP3   OH2 6701   0.994   2.915   0.024 -0.0424  0.0876  0.5151
 2246TIP3    H1 6702   1.037   2.995  -0.007 -3.3279  1.9455  0.3654
 2246TIP3    H2 6703   0.973   2.932   0.116 -0.0793 -0.9620  0.7200
 2247TIP3   OH2 6704   4.266   5.765   0.226  0.2148 -0.2375 -0.0154
 2247TIP3    H1 6705   4.349   5.721   0.245 -0.3782 -1.0940  0.6864
 2247TIP3    H2 6706   4.275   5.851   0.265  1.2353  0.1414 -1.0295
 2248TIP3   OH2 6707   3.427   1.714   5.879 -0.3440  0.1387 -0.1305
 2248TIP3    H1 6708   3.365   1.645   5.859 -0.5627  0.5755 -1.0224
 2248TIP3    H2 6709   3.513   1.674   5.864 -0.4643 -0.0056 -0.4460
 2249TIP3   OH2 6710   6.679   3.554   3.389  0.2267 -0.0355 -0.2983
 2249TIP3    H1 6711   6.757   3.604   3.364  0.0756  0.3638  0.0233
 2249TIP3    H2 6712   6.615   3.620   3.414  0.1926 -0.4066  0.6292
 2250TIP3   OH2 6713   4.199   3.255   0.112  0.4463  0.1087  0.2740
 2250TIP3    H1 6714   4.210   3.250   0.207 -1.3131 -0.7245  0.4818
 2250TIP3    H2 6715   4.169   3.345   0.096  2.9617  1.0012  0.1835
 2251TIP3   OH2 6716   2.553   0.386   5.838  0.1217 -0.0046 -0.5458
 2251TIP3    H1 6717   2.533   0.367   5.929 -0.4890 -0.3269 -0.7429
 2251TIP3    H2 6718   2.628   0.331   5.818  1.7260  1.7186  0.3943
 2252TIP3   OH2 6719   5.443   0.872   4.880  0.3668  0.0244 -0.1051
 2252TIP3    H1 6720   5.395   0.917   4.950  1.0883 -0.5837  0.8164
 2252TIP3    H2 6721   5.535   0.893   4.896  0.6576 -1.1640 -0.0744
 2253TIP3   OH2 6722   0.198   3.648   3.869 -0.6834 -0.0820  0.0414
 2253TIP3    H1 6723   0.139   3.594   3.816  0.6845 -1.9372  0.3084
 2253TIP3    H2 6724   0.152   3.659   3.953 -0.6518 -1.5546  0.2696
 2254TIP3   OH2 6725   4.949   6.594   1.302 -1.0857  0.2121  0.0622
 2254TIP3    H1 6726   5.003   6.524   1.265 -0.8891  0.2007  0.3717
 2254TIP3    H2 6727   5.000   6.628   1.375 -2.3216 -1.1130  1.6335
 2255TIP3   OH2 6728   3.837   5.325   0.141  0.4559 -0.7398 -0.5355
 2255TIP3    H1 6729   3.902   5.361   0.202 -0.3549  0.4361 -0.3204
 2255TIP3    H2 6730   3.853   5.373   0.059 -1.2149  0.8671  0.0043
 2256TIP3   OH2 6731   0.922   0.811   3.003  0.3693 -0.1015 -0.4593
 2256TIP3    H1 6732   0.886   0.833   3.089  0.1932 -1.0132 -0.2938
 2256TIP3    H2 6733   0.859   0.846   2.940  0.6514  0.8440 -0.2389
 2257TIP3   OH2 6734   3.573   1.088   3.879  0.8987 -0.2817 -0.2860
 2257TIP3    H1 6735   3.490   1.109   3.922  0.9098 -0.5792 -0.1162
 2257TIP3    H2 6736   3.550   1.024   3.812  0.7617  0.7288 -1.2427
 2258TIP3   OH2 6737   4.818   0.558   0.518 -0.1841  0.4191 -0.3253
 2258TIP3    H1 6738   4.723   0.560   0.528 -0.2790 -0.4033 -0.9841
 2258TIP3    H2 6739   4.833   0.594   0.430  0.0686 -0.0657 -0.4806
 2259TIP3   OH2 6740   6.670   2.745   3.529  0.1900 -0.2226 -0.5856
 2259TIP3    H1 6741   6.766   2.753   3.527  0.2075  0.1579  0.6196
 2259TIP3    H2 6742   6.653   2.654   3.504  0.8881 -0.3912 -0.4882
 2260TIP3   OH2 6743   6.853   6.589   1.228 -0.2213 -0.0500 -0.0543
 2260TIP3    H1 6744   6.867   6.566   1.136 -2.2148 -1.4218 -0.0627
 2260TIP3    H2 6745   6.763   6.619   1.232  0.5018  2.1901  1.1063
 2261TIP3   OH2 6746   2.429   3.294   2.362 -0.2393  0.2344  0.4935
 2261TIP3    H1 6747   2.375   3.331   2.292  0.1666  0.4079  0.2739
 2261TIP3    H2 6748   2.405   3.345   2.440 -0.4100  0.2945  0.4018
 2262TIP3   OH2 6749   3.388   0.476   4.036  0.2838  0.6858 -0.5609
 2262TIP3    H1 6750   3.340   0.556   4.018  0.4957  0.7204 -0.9840
 2262TIP3    H2 6751   3.320   0.409   4.048  0.0680  1.1097  0.7581
 2263TIP3   OH2 6752   0.886   3.573   1.713 -0.1694  0.4525  0.0102
 2263TIP3    H1 6753   0.877   3.627   1.634  2.6799 -0.6101 -1.1697
 2263TIP3    H2 6754   0.973   3.595   1.747  0.2369 -1.8935  0.6414
 2264TIP3   OH2 6755   6.074   5.438   4.380  0.3091  0.2453  0.5481
 2264TIP3    H1 6756   6.019   5.360   4.378  0.0674  0.4291 -0.3672
 2264TIP3    H2 6757   6.145   5.416   4.440  1.6673 -1.6514 -1.5698
 2265TIP3   OH2 6758   3.991   3.283   1.476  0.3344  0.0389  0.4386
 2265TIP3    H1 6759   4.022   3.215   1.536 -3.6968 -1.2896  1.3258
 2265TIP3    H2 6760   3.938   3.235   1.412 -0.6162  2.1180 -0.3970
 2266TIP3   OH2 6761   3.623   2.781   3.634  0.2638 -0.0288  0.7021
 2266TIP3    H1 6762   3.615   2.782   3.539 -2.3977  2.4976  0.8241
 2266TIP3    H2 6763   3.713   2.809   3.651  0.7302 -0.3680 -1.0317
 2267TIP3   OH2 6764   2.096   6.019   2.690 -0.2879 -0.0818  0.4660
 2267TIP3    H1 6765   2.030   6.052   2.628 -0.4452 -0.4336  0.4454
 2267TIP3    H2 6766   2.064   6.049   2.775  0.3306  1.0684  0.3170
 2268TIP3   OH2 6767   3.694   1.261   3.713 -0.2967 -0.1412 -0.4221
 2268TIP3    H1 6768   3.634   1.201   3.756 -0.2217  0.3855  0.4460
 2268TIP3    H2 6769   3.740   1.305   3.784  0.2752  0.3133 -1.0509
 2269TIP3   OH2 6770   6.860   2.750   3.097  0.0622  0.3800  0.3327
 2269TIP3    H1 6771   6.799   2.778   3.166 -1.1225  0.5570 -0.7531
 2269TIP3    H2 6772   6.811   2.761   3.016  0.8160 -1.4433 -0.4291
 2270TIP3   OH2 6773   5.574   3.777   4.229 -0.3824 -0.0587  0.0707
 2270TIP3    H1 6774   5.525   3.816   4.156  0.0168  0.5728  0.1284
 2270TIP3    H2 6775   5.516   3.785   4.304 -0.3219  0.4144  0.0748
 2271TIP3   OH2 6776   1.414   5.413   0.362  0.2515  0.0977 -0.0483
 2271TIP3    H1 6777   1.431   5.336   0.417 -1.2702 -0.9041 -0.9204
 2271TIP3    H2 6778   1.369   5.474   0.421  1.3939  0.3373  0.6240
 2272TIP3   OH2 6779   6.653   4.065   2.979 -0.0107 -0.3228 -0.1348
 2272TIP3    H1 6780   6.725   4.128   2.976 -0.8781  0.6731 -1.2616
 2272TIP3    H2 6781   6.683   3.992   2.925 -0.3043  0.6636 -1.7250
 2273TIP3   OH2 6782   2.457   3.020   2.491  0.4407 -0.0100 -0.2951
 2273TIP3    H1 6783   2.435   3.080   2.420  0.2957 -2.5242 -2.4980
 2273TIP3    H2 6784   2.552   3.022   2.496  0.3962  1.5422  0.7843
 2274TIP3   OH2 6785   6.295   3.158   2.731  0.1071 -0.4788  0.6096
 2274TIP3    H1 6786   6.342   3.220   2.674 -0.0635  0.0504  1.0450
 2274TIP3    H2 6787   6.358   3.136   2.799  1.1121 -2.7988 -0.9154
 2275TIP3   OH2 6788   3.032   1.670   5.120  0.2213  0.2760 -0.1989
 2275TIP3    H1 6789   2.943   1.706   5.118  0.7071  1.6720  1.3534
 2275TIP3    H2 6790   3.089   1.747   5.125  1.3506 -0.6387  2.9244
 2276TIP3   OH2 6791   3.730   4.916   5.017 -0.4170 -0.2555  0.1075
 2276TIP3    H1 6792   3.653   4.874   5.055 -0.7854 -0.8596 -1.2350
 2276TIP3    H2 6793   3.794   4.846   5.007  1.8000  0.7948  4.4757
 2277TIP3   OH2 6794   6.967   3.920   2.551 -0.0234 -0.0281 -0.1896
 2277TIP3    H1 6795   7.034   3.979   2.586  0.7230  1.0006 -3.0496
 2277TIP3    H2 6796   7.014   3.840   2.529  0.2039  0.4372 -1.5345
 2278TIP3   OH2 6797   6.265   2.752   4.158 -0.5141 -0.1323  0.0667
 2278TIP3    H1 6798   6.172   2.774   4.157 -0.0659  1.9602  0.3299
 2278TIP3    H2 6799   6.304   2.809   4.092  0.7510 -0.1560  0.7627
 2279TIP3   OH2 6800   4.184   1.445   3.556 -0.6441  0.0100  0.5409
 2279TIP3    H1 6801   4.262   1.499   3.544 -0.1928 -0.5421  0.9646
 2279TIP3    H2 6802   4.195   1.404   3.642 -1.1658 -0.4581  0.3956
 2280TIP3   OH2 6803   2.537   6.614   5.345  0.4246  0.3106  0.3181
 2280TIP3    H1 6804   2.607   6.582   5.403  0.6377 -0.8970 -0.5557
 2280TIP3    H2 6805   2.583   6.666   5.279  0.5421 -0.5496 -0.3033
 2281TIP3   OH2 6806   6.366   4.463   2.398 -0.1527 -0.2876 -0.0016
 2281TIP3    H1 6807   6.430   4.517   2.352 -0.0738 -0.7876 -0.4988
 2281TIP3    H2 6808   6.399   4.374   2.389 -0.8079 -0.5306 -0.0811
 2282TIP3   OH2 6809   5.508   6.038   2.554 -0.4830  0.5345  0.0710
 2282TIP3    H1 6810   5.465   5.961   2.592  1.7971 -1.2282 -0.7041
 2282TIP3    H2 6811   5.511   6.020   2.460  3.5287 -0.4167  0.2355
 2283TIP3   OH2 6812   1.931   4.705   3.394 -0.2116  0.6760  0.0181
 2283TIP3    H1 6813   1.950   4.680   3.304 -0.4414  2.0725 -0.4262
 2283TIP3    H2 6814   1.891   4.626   3.432  0.8473 -0.2712 -0.7744
 2284TIP3   OH2 6815   3.434   1.704   1.908 -0.1412  0.5387  0.7488
 2284TIP3    H1 6816   3.441   1.703   1.813  3.0507 -1.3387  0.8734
 2284TIP3    H2 6817   3.394   1.789   1.928  0.0478  1.4360 -2.1971
 2285TIP3   OH2 6818   6.416   0.378   5.354  0.2637 -0.4464 -0.1713
 2285TIP3    H1 6819   6.358   0.307   5.325  1.2672 -0.4819 -2.3197
 2285TIP3    H2 6820   6.419   0.438   5.279  0.8576  0.9477  0.9336
 2286TIP3   OH2 6821   6.075   6.782   4.898 -0.2563  0.1191 -0.0354
 2286TIP3    H1 6822   5.985   6.765   4.924 -0.2007  1.2084  0.9579
 2286TIP3    H2 6823   6.127   6.724   4.954 -0.2374  1.0973  0.9808
 2287TIP3   OH2 6824   4.687   3.786   3.841 -0.2972 -0.4812 -0.1174
 2287TIP3    H1 6825   4.677   3.864   3.896 -1.0012  0.4440 -1.4803
 2287TIP3    H2 6826   4.623   3.724   3.877 -0.0733 -0.2563  0.6907
 2288TIP3   OH2 6827   6.476   3.396   0.285  0.2760 -0.1267 -0.1285
 2288TIP3    H1 6828   6.410   3.460   0.309  2.0591  2.1402 -0.9677
 2288TIP3    H2 6829   6.548   3.411   0.346  0.4125 -1.9515  0.2140
 2289TIP3   OH2 6830   0.529   4.900   2.761 -0.2371  0.8614 -0.0019
 2289TIP3    H1 6831   0.556   4.827   2.706 -0.9731  0.4520  0.1630
 2289TIP3    H2 6832   0.557   4.875   2.849 -0.1558  0.9492 -0.0029
 2290TIP3   OH2 6833   0.506   4.070   4.542 -0.2658 -0.0379 -0.1466
 2290TIP3    H1 6834   0.580   4.009   4.537 -0.2588  0.0509 -1.4789
 2290TIP3    H2 6835   0.525   4.125   4.618  0.5530 -0.6313  0.0916
 2291TIP3   OH2 6836   1.650   4.262   0.112 -0.0745  0.2950  0.2871
 2291TIP3    H1 6837   1.655   4.236   0.020  0.4860 -1.7713  0.8608
 2291TIP3    H2 6838   1.576   4.323   0.116 -1.5494 -1.3082 -1.1652
 2292TIP3   OH2 6839   7.079   5.601   1.447  0.0559  0.9457  0.4959
 2292TIP3    H1 6840   7.142   5.563   1.509 -0.4474  1.8341  1.5821
 2292TIP3    H2 6841   7.072   5.693   1.473  0.6678  1.6385 -1.5854
 2293TIP3   OH2 6842   7.102   3.211   1.123  0.4291 -0.4515  0.0171
 2293TIP3    H1 6843   7.014   3.226   1.089  0.4622  2.8213  1.0362
 2293TIP3    H2 6844   7.160   3.255   1.061  1.1581 -0.7528  0.4627
 2294TIP3   OH2 6845   0.980   4.040   0.986 -0.3131  0.5058  0.0416
 2294TIP3    H1 6846   0.975   4.089   1.069  1.0629  0.0389  0.4322
 2294TIP3    H2 6847   1.072   4.014   0.980 -1.1105 -2.8858  0.3609
 2295TIP3   OH2 6848   0.761   1.597   3.870  0.5528 -0.1319  0.3444
 2295TIP3    H1 6849   0.758   1.591   3.965  0.0036  0.3144  0.3675
 2295TIP3    H2 6850   0.745   1.690   3.852  0.4986 -0.2407 -0.1867
 2296TIP3   OH2 6851   6.622   4.063   2.134 -0.2249 -0.4766 -0.4692
 2296TIP3    H1 6852   6.600   3.970   2.144  2.4226 -1.5586 -3.3922
 2296TIP3    H2 6853   6.583   4.088   2.050  0.3220  0.6355 -0.4094
 2297TIP3   OH2 6854   3.821   5.430   5.810  0.6502 -1.1703  0.0223
 2297TIP3    H1 6855   3.883   5.358   5.798  0.5117 -1.0123 -1.8963
 2297TIP3    H2 6856   3.834   5.486   5.734 -0.1845  0.1574  0.8088
 2298TIP3   OH2 6857   6.713   0.965   2.581  0.1663 -0.0087  0.2788
 2298TIP3    H1 6858   6.643   1.030   2.587 -0.2817 -0.4731  0.1828
 2298TIP3    H2 6859   6.718   0.944   2.488  1.8863  1.5690 -0.0503
 2299TIP3   OH2 6860   0.866   2.564   2.591  0.4505  0.1497  0.1181
 2299TIP3    H1 6861   0.853   2.573   2.685 -1.2000  0.2360 -0.0862
 2299TIP3    H2 6862   0.945   2.615   2.573 -0.3954  1.9418  1.1625
 2300TIP3   OH2 6863   2.316   2.596   2.826  0.1723  0.2194  0.1529
 2300TIP3    H1 6864   2.276   2.644   2.753  0.0020  0.0667  0.1444
 2300TIP3    H2 6865   2.252   2.529   2.848 -0.0256  0.6171  0.8143
 2301TIP3   OH2 6866   1.819   0.752   4.168  0.6554  0.8146  0.2766
 2301TIP3    H1 6867   1.824   0.817   4.239  1.2478 -0.3030  1.2949
 2301TIP3    H2 6868   1.893   0.774   4.111  0.2668  1.6275  0.0617
 2302TIP3   OH2 6869   1.789   5.105   1.151  0.2418  0.3055  0.3418
 2302TIP3    H1 6870   1.778   5.178   1.212 -1.4404  1.3599 -1.1137
 2302TIP3    H2 6871   1.739   5.033   1.191 -0.0981  0.7033  0.6453
 2303TIP3   OH2 6872   3.778   5.430   4.110 -0.2265 -0.2680 -0.1704
 2303TIP3    H1 6873   3.818   5.362   4.055 -1.3583 -1.5462  0.5556
 2303TIP3    H2 6874   3.690   5.441   4.075  0.4666  2.1085 -1.3738
 2304TIP3   OH2 6875   4.520   0.266   5.029 -0.0362  0.2211  0.3375
 2304TIP3    H1 6876   4.447   0.314   4.989  0.5059  1.0820  0.3707
 2304TIP3    H2 6877   4.532   0.308   5.115 -0.6366 -1.0561  1.0761
 2305TIP3   OH2 6878   6.068   1.152   1.855  0.0083 -0.1352 -0.2831
 2305TIP3    H1 6879   6.020   1.192   1.782  1.4087  1.4834 -0.3725
 2305TIP3    H2 6880   6.107   1.073   1.818 -4.6513 -3.1346  0.4533
 2306TIP3   OH2 6881   6.335   1.061   3.054  0.4265 -0.1163 -0.2988
 2306TIP3    H1 6882   6.362   1.134   3.109 -2.6729  0.9622 -0.0271
 2306TIP3    H2 6883   6.258   1.025   3.098  1.7657 -3.5742 -0.4742
 2307TIP3   OH2 6884   2.602   3.567   2.242 -0.1687 -0.3321 -0.2207
 2307TIP3    H1 6885   2.638   3.650   2.212 -0.0859 -0.8289 -1.5679
 2307TIP3    H2 6886   2.625   3.563   2.335  0.7160  0.6771 -0.3751
 2308TIP3   OH2 6887   2.472   5.510   3.693 -0.2954 -0.0763 -0.0300
 2308TIP3    H1 6888   2.419   5.503   3.772  0.4336  0.8568  0.5624
 2308TIP3    H2 6889   2.427   5.574   3.639 -0.2505  0.0609  0.0927
 2309TIP3   OH2 6890   2.290   6.726   1.417 -1.0255 -0.0995 -0.2639
 2309TIP3    H1 6891   2.282   6.753   1.325 -0.6112 -2.4159 -1.0354
 2309TIP3    H2 6892   2.220   6.662   1.429 -1.3650  0.5205  1.2038
 2310TIP3   OH2 6893   3.457   3.598   2.495 -0.4354 -0.0101 -0.0650
 2310TIP3    H1 6894   3.539   3.614   2.542  0.0036  1.5611 -1.2900
 2310TIP3    H2 6895   3.393   3.581   2.563  1.0207 -1.9226  0.9000
 2311TIP3   OH2 6896   4.804   3.624   2.650  0.5693  0.4605  0.4147
 2311TIP3    H1 6897   4.782   3.531   2.665  2.7438 -0.1967 -0.2037
 2311TIP3    H2 6898   4.733   3.672   2.693 -1.0760 -1.4833  0.0124
 2312TIP3   OH2 6899   1.683   4.657   3.173 -0.0196  0.0806 -0.1569
 2312TIP3    H1 6900   1.675   4.601   3.096 -2.6289  1.1041 -0.7368
 2312TIP3    H2 6901   1.744   4.727   3.145  0.1849 -0.3316 -0.7727
 2313TIP3   OH2 6902   6.272   0.542   0.327  0.1799 -0.0237  0.3138
 2313TIP3    H1 6903   6.300   0.461   0.370 -1.2049 -0.2752  0.8110
 2313TIP3    H2 6904   6.329   0.550   0.251  0.2334 -1.5725  0.1482
 2314TIP3   OH2 6905   3.315   2.531   3.063 -0.4501 -0.7603  0.1932
 2314TIP3    H1 6906   3.265   2.613   3.069 -0.1095 -0.5984  0.9354
 2314TIP3    H2 6907   3.291   2.495   2.978 -1.1465 -0.2402  0.1548
 2315TIP3   OH2 6908   4.046   2.068   5.533  0.4582 -0.0402 -0.0503
 2315TIP3    H1 6909   4.011   2.129   5.598 -0.9843  0.3501 -1.1616
 2315TIP3    H2 6910   4.028   2.109   5.449  0.5459 -1.4385 -0.7754
 2316TIP3   OH2 6911   4.878   6.049   0.942 -0.2170  0.4303 -0.7175
 2316TIP3    H1 6912   4.918   6.101   0.873  2.0030 -1.0472 -0.6259
 2316TIP3    H2 6913   4.844   6.114   1.004  1.2413  1.7774 -1.2665
 2317TIP3   OH2 6914   7.025   1.166   0.783  0.3237 -0.1164  0.3547
 2317TIP3    H1 6915   6.941   1.143   0.822  0.3450  0.2585  0.6254
 2317TIP3    H2 6916   7.014   1.146   0.690  0.7519 -2.3463  0.7459
 2318TIP3   OH2 6917   5.159   5.859   4.565 -0.0408 -1.0006  0.2082
 2318TIP3    H1 6918   5.071   5.823   4.558 -0.1154 -0.6375 -1.2313
 2318TIP3    H2 6919   5.216   5.790   4.531  0.2619 -1.2951  1.2816
 2319TIP3   OH2 6920   1.432   6.479   5.288 -0.2404  0.4280  0.3073
 2319TIP3    H1 6921   1.429   6.384   5.294 -1.9576  0.4468  0.1316
 2319TIP3    H2 6922   1.521   6.498   5.256  0.9636 -0.9379  2.6111
 2320TIP3   OH2 6923   5.718   6.359   1.832  0.3512 -0.0710  0.2769
 2320TIP3    H1 6924   5.751   6.378   1.919  2.9773  0.6148 -0.7565
 2320TIP3    H2 6925   5.708   6.445   1.790  1.5277 -0.4377 -0.8433
 2321TIP3   OH2 6926   4.038   0.777   3.015  0.0565  0.2393  0.4513
 2321TIP3    H1 6927   3.967   0.840   2.997  1.2091  1.5502  0.3280
 2321TIP3    H2 6928   4.041   0.721   2.938 -1.2284 -0.2348  0.7173
 2322TIP3   OH2 6929   0.997   3.184   3.564 -0.5748  0.1166 -0.2330
 2322TIP3    H1 6930   0.953   3.248   3.620 -0.5657  0.1100 -0.2184
 2322TIP3    H2 6931   0.977   3.213   3.474 -0.5712  0.1392 -0.2263
 2323TIP3   OH2 6932   4.635   0.623   3.725  0.0110  0.0730  0.1243
 2323TIP3    H1 6933   4.725   0.657   3.724 -0.8007  2.4088  0.5734
 2323TIP3    H2 6934   4.581   0.699   3.706 -1.9712 -0.9628  1.3131
 2324TIP3   OH2 6935   1.885   2.817   5.213 -0.2242 -0.1754  0.4390
 2324TIP3    H1 6936   1.796   2.850   5.225 -0.7409 -1.6904  0.8923
 2324TIP3    H2 6937   1.874   2.728   5.180  1.1332 -0.3446  0.3720
 2325TIP3   OH2 6938   5.570   4.938   0.824 -0.4326 -0.9999 -0.2870
 2325TIP3    H1 6939   5.475   4.938   0.810 -0.3159 -2.3450 -1.3519
 2325TIP3    H2 6940   5.580   4.927   0.919 -1.3310 -0.2485 -0.0936
 2326TIP3   OH2 6941   0.173   0.308   2.325 -0.7553  0.1310  0.2324
 2326TIP3    H1 6942   0.257   0.281   2.362 -0.7526 -0.4987 -0.2136
 2326TIP3    H2 6943   0.173   0.404   2.334  0.1327  0.1707  0.0052
 2327TIP3   OH2 6944   0.648   2.088   3.325 -0.1084 -0.8199 -0.0466
 2327TIP3    H1 6945   0.686   2.176   3.317 -1.4153 -0.4088 -3.1114
 2327TIP3    H2 6946   0.586   2.096   3.398 -0.2659  0.8315 -0.3196
 2328TIP3   OH2 6947   3.381   5.013   0.080 -0.5133  0.2001 -0.4026
 2328TIP3    H1 6948   3.463   5.057   0.103 -0.7581 -0.1332  1.2240
 2328TIP3    H2 6949   3.315   5.083   0.083 -0.7746 -0.0639  1.4261
 2329TIP3   OH2 6950   7.077   5.777   4.824  0.1393 -0.4638 -0.4987
 2329TIP3    H1 6951   7.013   5.783   4.753 -0.4554  0.6942  0.0976
 2329TIP3    H2 6952   7.087   5.867   4.854 -0.0283 -0.9769  1.2287
 2330TIP3   OH2 6953   3.413   0.677   4.374  0.1399 -0.3823  0.7045
 2330TIP3    H1 6954   3.375   0.756   4.334  0.2868 -0.0755  1.1756
 2330TIP3    H2 6955   3.344   0.611   4.365  0.9397 -0.9918 -2.1026
 2331TIP3   OH2 6956   0.204   3.609   5.098  0.1473  0.2629  0.1086
 2331TIP3    H1 6957   0.215   3.656   5.015 -0.7833 -0.0468 -0.2041
 2331TIP3    H2 6958   0.174   3.522   5.073  0.6013 -0.0870  0.7467
 2332TIP3   OH2 6959   3.171   0.794   0.105  0.2511 -0.2316 -0.6537
 2332TIP3    H1 6960   3.154   0.779   0.012 -1.3138  0.5488 -0.5153
 2332TIP3    H2 6961   3.189   0.706   0.140  1.0545 -0.5082 -1.7070
 2333TIP3   OH2 6962   0.963   4.956   4.664 -0.0320 -0.6461 -0.0625
 2333TIP3    H1 6963   0.996   4.926   4.749 -2.7389 -0.5461  1.1234
 2333TIP3    H2 6964   0.910   5.033   4.685  0.0220 -0.0269 -1.9991
 2334TIP3   OH2 6965   5.032   0.475   2.634  0.3283  0.0365  0.0203
 2334TIP3    H1 6966   5.028   0.413   2.707 -1.3714  0.8988  0.7092
 2334TIP3    H2 6967   5.124   0.477   2.610  1.1332  0.4227  2.7835
 2335TIP3   OH2 6968   0.929   3.868   1.271  0.0031 -0.2479  0.2062
 2335TIP3    H1 6969   0.995   3.938   1.273  0.7812 -0.9842  1.4687
 2335TIP3    H2 6970   0.917   3.848   1.178  1.2473  0.1868 -0.0601
 2336TIP3   OH2 6971   5.070   5.122   5.312  0.7547 -0.0363  0.0779
 2336TIP3    H1 6972   5.160   5.140   5.287  0.4266 -0.9539 -1.9762
 2336TIP3    H2 6973   5.028   5.090   5.232 -1.2800 -0.0857  1.0781
 2337TIP3   OH2 6974   3.740   3.404   2.580 -0.2079 -0.4497 -0.7529
 2337TIP3    H1 6975   3.741   3.495   2.611 -1.3745 -0.0719 -1.7107
 2337TIP3    H2 6976   3.799   3.404   2.504 -1.8775  0.0866 -2.1190
 2338TIP3   OH2 6977   1.627   1.259   1.562  0.1691  0.1956  0.2532
 2338TIP3    H1 6978   1.604   1.207   1.640 -2.4705  0.3174 -0.3652
 2338TIP3    H2 6979   1.620   1.350   1.592  2.2172  0.2711  0.6366
 2339TIP3   OH2 6980   1.306   3.374   4.855  0.3964 -1.1610 -0.0898
 2339TIP3    H1 6981   1.355   3.367   4.937  0.1682 -1.3431  0.0340
 2339TIP3    H2 6982   1.356   3.436   4.802 -0.6953  0.8376  1.0883
 2340TIP3   OH2 6983   2.214   2.629   5.800 -0.1955  0.6646 -0.3197
 2340TIP3    H1 6984   2.222   2.711   5.752  1.2056  0.7634  0.0634
 2340TIP3    H2 6985   2.269   2.567   5.751 -1.0180  0.0108 -0.4448
 2341TIP3   OH2 6986   6.727   2.667   2.679  0.5563  0.4867 -0.2837
 2341TIP3    H1 6987   6.751   2.760   2.687  0.2432  0.6561 -1.1420
 2341TIP3    H2 6988   6.638   2.662   2.713  0.6199  0.4780 -0.1187
 2342TIP3   OH2 6989   3.309   0.023   2.244 -0.7347  0.0437 -0.0088
 2342TIP3    H1 6990   3.388   0.073   2.222  0.2040 -1.7103 -0.8604
 2342TIP3    H2 6991   3.328  -0.015   2.329 -0.6704 -0.3370 -0.1913
 2343TIP3   OH2 6992   2.362   3.642   3.094 -0.4571  0.4742 -0.0209
 2343TIP3    H1 6993   2.366   3.547   3.105  0.9987  0.3448 -1.3205
 2343TIP3    H2 6994   2.310   3.655   3.015 -1.5806  0.8521  0.7451
 2344TIP3   OH2 6995   1.742   0.388   5.078  0.1201 -0.2313 -0.0024
 2344TIP3    H1 6996   1.801   0.406   5.151 -1.8509  0.9681  1.3730
 2344TIP3    H2 6997   1.657   0.375   5.118 -1.2572  1.5281 -2.1287
 2345TIP3   OH2 6998   4.225   6.684   0.769  0.2237 -0.3271 -0.0191
 2345TIP3    H1 6999   4.265   6.619   0.827  0.6048  0.1439  0.2513
 2345TIP3    H2 7000   4.298   6.727   0.726  0.0595  0.8127  0.7772
 2346TIP3   OH2 7001   2.901   0.234   5.539 -0.2391 -0.2880 -0.3002
 2346TIP3    H1 7002   2.955   0.305   5.575 -0.4140 -0.2811 -0.0474
 2346TIP3    H2 7003   2.963   0.165   5.517  0.2652  0.8775 -2.9165
 2347TIP3   OH2 7004   1.702   3.612   4.072  0.4962  0.4942  0.0604
 2347TIP3    H1 7005   1.714   3.584   3.981 -0.5135 -2.1278  0.6598
 2347TIP3    H2 7006   1.666   3.700   4.065 -0.4998 -0.0137 -2.1285
 2348TIP3   OH2 7007   2.553   4.263   0.483  0.0903  0.1734 -0.4910
 2348TIP3    H1 7008   2.589   4.221   0.405 -0.2431 -0.3833 -0.3488
 2348TIP3    H2 7009   2.485   4.204   0.513  0.0183  0.5273  0.0603
 2349TIP3   OH2 7010   6.104   5.064   5.260 -0.5745  0.0203 -0.5741
 2349TIP3    H1 7011   6.186   5.111   5.246 -0.1122 -0.5538  0.1445
 2349TIP3    H2 7012   6.046   5.129   5.301 -0.0439  0.0558  0.1247
 2350TIP3   OH2 7013   2.621   0.537   5.575 -0.0776 -0.0238 -0.3171
 2350TIP3    H1 7014   2.590   0.562   5.662  0.2188  0.0080 -0.2193
 2350TIP3    H2 7015   2.620   0.442   5.575  1.8558 -0.0904  0.4442
 2351TIP3   OH2 7016   6.288   6.517   5.109  0.0479 -0.2422 -0.0319
 2351TIP3    H1 7017   6.250   6.470   5.035  0.4259  1.4428 -1.3483
 2351TIP3    H2 7018   6.212   6.547   5.159 -0.4149  1.5582 -1.6733
 2352TIP3   OH2 7019   6.460   1.876   0.373 -0.1783  0.2253 -0.4510
 2352TIP3    H1 7020   6.444   1.790   0.413  1.4019  0.0069 -0.2107
 2352TIP3    H2 7021   6.393   1.933   0.411  0.2521 -0.3569  1.3056
 2353TIP3   OH2 7022   5.306   6.575   0.870  0.1241 -0.0258 -0.6115
 2353TIP3    H1 7023   5.350   6.544   0.791  0.6191 -2.1519  0.4190
 2353TIP3    H2 7024   5.295   6.497   0.923  0.2194  1.4000  1.6404
 2354TIP3   OH2 7025   4.391   1.928   2.166  0.2484 -0.3076  0.0297
 2354TIP3    H1 7026   4.470   1.912   2.218 -1.9902  1.2871  4.4550
 2354TIP3    H2 7027   4.333   1.856   2.188 -0.3049 -0.3876 -1.5631
 2355TIP3   OH2 7028   6.513   3.417   0.859 -0.4566  0.4778  0.1921
 2355TIP3    H1 7029   6.419   3.406   0.868 -0.3673 -1.2075 -0.6220
 2355TIP3    H2 7030   6.534   3.376   0.775  1.0105  0.8231  0.3627
 2356TIP3   OH2 7031   1.202   4.038   5.783  0.0967 -0.3264  0.1613
 2356TIP3    H1 7032   1.191   4.053   5.689 -1.1337 -0.7607  0.2270
 2356TIP3    H2 7033   1.276   3.977   5.789  0.6847  0.3141 -0.4760
 2357TIP3   OH2 7034   0.362   3.232   1.244 -0.2584  0.1099  0.0341
 2357TIP3    H1 7035   0.355   3.146   1.285 -0.7376  1.0139  1.9239
 2357TIP3    H2 7036   0.312   3.290   1.301 -1.0097  1.4406 -1.8856
 2358TIP3   OH2 7037   0.492   2.261   3.130  0.0871 -0.0072  0.7634
 2358TIP3    H1 7038   0.546   2.303   3.197 -1.4741  2.3351  0.6387
 2358TIP3    H2 7039   0.405   2.299   3.141  0.0947  1.8843 -3.6446
 2359TIP3   OH2 7040   5.335   0.877   0.856  0.0718  0.2694 -0.9688
 2359TIP3    H1 7041   5.393   0.802   0.867  0.3044  0.2622 -2.1442
 2359TIP3    H2 7042   5.261   0.844   0.806 -0.7723  0.3844  0.1471
 2360TIP3   OH2 7043   3.167   3.092   4.382 -0.0401  0.0894  0.0185
 2360TIP3    H1 7044   3.100   3.044   4.431  0.5767 -0.1810  0.6147
 2360TIP3    H2 7045   3.147   3.184   4.398  0.1364  0.0046  0.7781
 2361TIP3   OH2 7046   1.504   6.581   3.883  0.0638 -0.1135  0.1329
 2361TIP3    H1 7047   1.583   6.629   3.909 -0.7253 -0.0721  2.6989
 2361TIP3    H2 7048   1.444   6.591   3.957 -3.7865  2.7514 -2.9365
 2362TIP3   OH2 7049   2.405   1.280   3.694  0.3319  0.2249  0.0035
 2362TIP3    H1 7050   2.412   1.324   3.778  1.2918 -1.2731  0.7461
 2362TIP3    H2 7051   2.400   1.187   3.715  0.1686 -0.1614 -1.5811
 2363TIP3   OH2 7052   0.611   6.152   4.630 -0.2830 -0.5319 -0.3460
 2363TIP3    H1 7053   0.608   6.069   4.582  1.5962 -1.0793  0.3969
 2363TIP3    H2 7054   0.592   6.218   4.564  1.2881 -1.3419 -1.6813
 2364TIP3   OH2 7055   0.615   0.177   1.443  0.6278 -0.5716  0.1015
 2364TIP3    H1 7056   0.640   0.153   1.354  0.5990 -0.0152 -0.0607
 2364TIP3    H2 7057   0.663   0.116   1.499 -0.8372 -2.2585 -0.3397
 2365TIP3   OH2 7058   4.542   3.457   1.226 -0.2468 -1.2917 -0.0142
 2365TIP3    H1 7059   4.526   3.406   1.146 -0.2136 -2.3953  0.6671
 2365TIP3    H2 7060   4.456   3.470   1.264 -0.1937 -1.3894  0.1398
 2366TIP3   OH2 7061   3.533   1.105   1.377 -0.4135  0.6847 -0.3624
 2366TIP3    H1 7062   3.568   1.023   1.342 -1.5334 -0.0696  0.2191
 2366TIP3    H2 7063   3.492   1.080   1.460 -0.7776  1.8317 -0.1832
 2367TIP3   OH2 7064   5.137   1.134   1.507 -0.4074 -0.3177  0.0583
 2367TIP3    H1 7065   5.151   1.137   1.413 -2.4630 -2.0357 -0.3912
 2367TIP3    H2 7066   5.112   1.224   1.531 -0.0468  0.0881 -1.0600
 2368TIP3   OH2 7067   3.777   5.470   0.954 -0.4402  0.0007 -0.4098
 2368TIP3    H1 7068   3.858   5.479   1.006 -1.0408  0.3958  0.4752
 2368TIP3    H2 7069   3.804   5.490   0.865  0.4599  0.0642 -0.1372
 2369TIP3   OH2 7070   6.041   1.028   3.850 -0.1289  1.1014 -0.5503
 2369TIP3    H1 7071   6.079   1.079   3.922 -1.2389  0.6637  0.3821
 2369TIP3    H2 7072   6.079   1.066   3.771  2.8383  0.1946  0.3090
 2370TIP3   OH2 7073   7.036   5.641   4.418 -0.3929 -0.4989  0.0367
 2370TIP3    H1 7074   7.123   5.642   4.457 -0.5571 -2.8323  0.6106
 2370TIP3    H2 7075   6.998   5.726   4.442  1.9555  0.9539 -0.9418
 2371TIP3   OH2 7076   0.639   4.620   2.238 -0.0762 -0.1084  0.2391
 2371TIP3    H1 7077   0.551   4.594   2.266 -0.1488 -0.0185  0.0921
 2371TIP3    H2 7078   0.627   4.651   2.149  0.0789  0.0634  0.2796
 2372TIP3   OH2 7079   2.021   6.332   3.611  0.3466 -0.0545  0.0110
 2372TIP3    H1 7080   1.943   6.338   3.665  0.1081  0.6071 -0.4000
 2372TIP3    H2 7081   2.005   6.393   3.538  0.5552 -1.0793 -0.9288
 2373TIP3   OH2 7082   6.883   0.485   2.069  0.5233 -0.7475  0.8486
 2373TIP3    H1 7083   6.813   0.547   2.091 -0.1688 -1.5595  0.9685
 2373TIP3    H2 7084   6.963   0.533   2.089  0.1911  1.4103 -2.1832
 2374TIP3   OH2 7085  -0.011   3.867   5.319 -0.0291  0.3128  0.2597
 2374TIP3    H1 7086  -0.040   3.856   5.228  0.3242 -1.4104  0.3119
 2374TIP3    H2 7087   0.084   3.865   5.314  0.0077 -1.6413  0.7957
 2375TIP3   OH2 7088   3.943   4.493   4.758 -0.4150  0.1671  0.0508
 2375TIP3    H1 7089   3.864   4.514   4.709 -1.0818 -1.3160  0.4226
 2375TIP3    H2 7090   3.998   4.446   4.696 -0.1685  0.5041  0.0136
 2376TIP3   OH2 7091   5.261   4.430   4.411 -0.2779  0.2202 -0.1370
 2376TIP3    H1 7092   5.239   4.355   4.466 -0.1220 -0.7705 -1.3837
 2376TIP3    H2 7093   5.347   4.409   4.375  0.0314  1.2819 -0.0547
 2377TIP3   OH2 7094   3.856   3.776   4.284 -0.1253 -0.3057  0.0008
 2377TIP3    H1 7095   3.869   3.870   4.271 -1.4267  0.0174  0.8807
 2377TIP3    H2 7096   3.923   3.751   4.348 -1.2777  0.5506  1.6140
 2378TIP3   OH2 7097   1.693   5.438   2.260 -0.1348 -0.3946 -0.8384
 2378TIP3    H1 7098   1.759   5.379   2.223 -0.6339 -0.8989 -0.9206
 2378TIP3    H2 7099   1.612   5.417   2.215 -0.3326  0.3362 -0.8461
 2379TIP3   OH2 7100   3.407   5.467   4.805 -0.0233 -0.2092  0.1905
 2379TIP3    H1 7101   3.485   5.451   4.859 -0.2635 -0.0488  0.5910
 2379TIP3    H2 7102   3.342   5.405   4.838 -0.1571 -0.1410  0.0538
 2380TIP3   OH2 7103   2.568   2.897   1.368 -0.0578 -0.4741 -0.1411
 2380TIP3    H1 7104   2.576   2.992   1.379  0.6206 -0.5337 -0.0337
 2380TIP3    H2 7105   2.501   2.886   1.301 -0.8684  0.0448  0.5588
 2381TIP3   OH2 7106   6.964   2.422   4.374  0.1761 -0.5042  0.9805
 2381TIP3    H1 7107   7.031   2.480   4.338 -0.0244 -0.5768  0.4872
 2381TIP3    H2 7108   6.887   2.479   4.387  0.0862 -0.5878  0.8145
 2382TIP3   OH2 7109   4.970   4.214   2.397  0.1891  0.1464 -0.1360
 2382TIP3    H1 7110   4.966   4.123   2.369  0.8496 -0.2985  1.1379
 2382TIP3    H2 7111   4.913   4.218   2.474 -1.5341  1.3162 -1.3970
 2383TIP3   OH2 7112   6.854   1.494   5.445  0.1035 -0.7322  0.4362
 2383TIP3    H1 7113   6.833   1.451   5.362 -0.9130 -0.4606  0.5474
 2383TIP3    H2 7114   6.948   1.479   5.456 -0.1288 -2.4634  0.2225
 2384TIP3   OH2 7115   6.031   3.668   1.973 -0.3362  0.3709  0.4997
 2384TIP3    H1 7116   6.086   3.705   1.904 -0.2514  1.3525  1.0671
 2384TIP3    H2 7117   6.086   3.672   2.051 -0.1024 -1.5690  0.4651
 2385TIP3   OH2 7118   4.741   1.249   0.668 -0.2465 -0.0501 -0.1768
 2385TIP3    H1 7119   4.823   1.290   0.697 -0.5048  0.2240  0.1769
 2385TIP3    H2 7120   4.673   1.310   0.695 -0.7503 -1.2702  1.4856
 2386TIP3   OH2 7121   4.999   3.010   2.929 -0.7757 -0.3129  0.0610
 2386TIP3    H1 7122   5.053   2.934   2.953 -1.6783 -1.9720 -2.8056
 2386TIP3    H2 7123   4.931   3.013   2.996  0.6302 -0.5061  1.5704
 2387TIP3   OH2 7124   3.464   0.795   2.794  0.3193  0.5507 -0.0812
 2387TIP3    H1 7125   3.437   0.766   2.707  0.0429  1.1816 -0.2152
 2387TIP3    H2 7126   3.383   0.829   2.834  0.2491 -0.5957  0.7799
 2388TIP3   OH2 7127   3.612   2.506   3.049 -0.2891 -0.1986  0.6853
 2388TIP3    H1 7128   3.614   2.497   2.954 -1.0513  0.7464  0.5718
 2388TIP3    H2 7129   3.520   2.497   3.073 -0.5878  2.7450  0.9715
 2389TIP3   OH2 7130   6.362   4.685   2.148 -0.1081  0.1004  0.0797
 2389TIP3    H1 7131   6.322   4.747   2.087  1.9503  0.5874 -0.8742
 2389TIP3    H2 7132   6.374   4.605   2.098  0.8204  0.2289  0.0696
 2390TIP3   OH2 7133   5.105   2.504   2.385  0.3748 -0.2083 -0.7860
 2390TIP3    H1 7134   5.201   2.506   2.387  0.3866 -0.7981 -0.1649
 2390TIP3    H2 7135   5.079   2.542   2.469  0.0476  0.3708 -1.1444
 2391TIP3   OH2 7136   5.800   1.080   1.915  0.2513 -0.0660 -0.1389
 2391TIP3    H1 7137   5.889   1.113   1.913  0.0226  0.6305  0.8687
 2391TIP3    H2 7138   5.809   0.986   1.928  0.8192  0.1145  0.7809
 2392TIP3   OH2 7139   5.164   6.140   4.652  0.4841  0.0358  0.3771
 2392TIP3    H1 7140   5.144   6.181   4.568  1.4645  0.9410  0.5594
 2392TIP3    H2 7141   5.188   6.050   4.630 -0.6290 -0.1493 -0.1478
 2393TIP3   OH2 7142   6.565   0.562   0.491 -0.0512  0.1248 -0.4754
 2393TIP3    H1 7143   6.592   0.470   0.489 -2.0012 -0.5406  0.8487
 2393TIP3    H2 7144   6.626   0.604   0.552  1.1922 -0.1378 -1.5058
 2394TIP3   OH2 7145   2.427   2.211   3.181  0.2177 -0.3539  0.3347
 2394TIP3    H1 7146   2.463   2.128   3.150 -0.6193 -0.9875  1.0011
 2394TIP3    H2 7147   2.502   2.255   3.222  1.3473  0.4946 -2.3984
 2395TIP3   OH2 7148   4.554   4.943   4.347  0.1415  0.1822 -0.2456
 2395TIP3    H1 7149   4.596   5.023   4.377 -1.3289  1.5224 -1.6055
 2395TIP3    H2 7150   4.538   4.892   4.427  0.4006  1.5917  0.7247
 2396TIP3   OH2 7151   2.677   1.846   4.337  0.2435 -0.1953 -0.1634
 2396TIP3    H1 7152   2.645   1.934   4.317 -0.9809 -0.6765 -0.3536
 2396TIP3    H2 7153   2.670   1.839   4.432 -0.8039 -0.5173 -0.2608
 2397TIP3   OH2 7154   5.663   0.875   4.525  0.3074 -0.1088  0.2625
 2397TIP3    H1 7155   5.719   0.832   4.460 -0.0967 -0.4572  0.1368
 2397TIP3    H2 7156   5.695   0.843   4.609 -0.0072 -0.6906  0.1685
 2398TIP3   OH2 7157   3.832   5.186   3.975  0.9205 -0.1151 -0.0094
 2398TIP3    H1 7158   3.906   5.148   3.929 -0.1957 -1.4710 -0.7777
 2398TIP3    H2 7159   3.789   5.111   4.017  1.3416  0.9461  2.4739
 2399TIP3   OH2 7160   5.298   4.342   5.366 -0.3077 -0.5838 -0.5815
 2399TIP3    H1 7161   5.324   4.304   5.450  0.8753  1.0245 -0.1741
 2399TIP3    H2 7162   5.233   4.280   5.331  0.8752 -2.4936  0.4175
 2400TIP3   OH2 7163   3.198   3.751   1.715 -0.3160  0.2963  0.3317
 2400TIP3    H1 7164   3.273   3.716   1.667 -0.0976  3.1245 -1.7128
 2400TIP3    H2 7165   3.225   3.752   1.806  1.1794 -0.9655 -0.0631
 2401TIP3   OH2 7166   2.245   0.291   1.052  0.7250 -1.0329 -0.2740
 2401TIP3    H1 7167   2.188   0.273   1.127  1.8720 -0.7895  0.6843
 2401TIP3    H2 7168   2.333   0.267   1.082  1.2838 -0.4389 -1.3588
 2402TIP3   OH2 7169   3.320   5.331   0.261 -0.3102 -0.0813  0.0232
 2402TIP3    H1 7170   3.404   5.286   0.263 -0.2340  0.0486 -0.2621
 2402TIP3    H2 7171   3.257   5.266   0.291 -0.3261 -0.6586 -1.2257
 2403TIP3   OH2 7172   2.276   4.218   1.646 -0.2246  0.4508  0.7933
 2403TIP3    H1 7173   2.222   4.268   1.584  0.2334 -1.0411 -0.8682
 2403TIP3    H2 7174   2.365   4.226   1.612  0.2510  0.6993  2.0378
 2404TIP3   OH2 7175   1.241   5.399   5.186 -0.2502  0.2480  0.7590
 2404TIP3    H1 7176   1.162   5.425   5.232 -0.7245  1.1611 -0.5103
 2404TIP3    H2 7177   1.236   5.304   5.180 -2.8499  0.3928 -1.9113
 2405TIP3   OH2 7178   5.302   0.705   4.001  0.0237  0.4424 -0.0297
 2405TIP3    H1 7179   5.375   0.735   3.947  0.1417 -0.6570 -0.5128
 2405TIP3    H2 7180   5.293   0.612   3.979  0.2187 -0.1110  1.9962
 2406TIP3   OH2 7181   1.780   1.254   0.865 -0.5049  0.3531 -0.0421
 2406TIP3    H1 7182   1.758   1.169   0.827 -0.2024  0.2328  0.0545
 2406TIP3    H2 7183   1.871   1.270   0.841 -0.5212  0.5925  0.0467
 2407TIP3   OH2 7184   2.827   4.977   1.511  0.5339  0.4021  0.0028
 2407TIP3    H1 7185   2.780   5.042   1.564  0.3579  1.2240 -1.1391
 2407TIP3    H2 7186   2.780   4.895   1.527  2.3013 -0.1429  3.5539
 2408TIP3   OH2 7187   1.153   1.806   3.869  0.0180  0.3690  0.7019
 2408TIP3    H1 7188   1.092   1.786   3.941 -0.5349  0.0882  0.1709
 2408TIP3    H2 7189   1.234   1.832   3.912 -0.5171  0.8728  1.4311
 2409TIP3   OH2 7190   2.346   6.693   5.809 -0.4391 -0.2723  0.0534
 2409TIP3    H1 7191   2.423   6.735   5.770  1.6499 -1.1251  2.9107
 2409TIP3    H2 7192   2.297   6.766   5.849 -0.2913  0.1053 -0.4370
 2410TIP3   OH2 7193   5.451   1.746   2.410  0.1004 -0.5837 -0.0891
 2410TIP3    H1 7194   5.524   1.808   2.409  1.7136 -2.3062  1.4462
 2410TIP3    H2 7195   5.401   1.769   2.488 -0.1163 -0.3499 -0.2963
 2411TIP3   OH2 7196   4.585   5.227   4.724  0.2034  0.1294  0.0346
 2411TIP3    H1 7197   4.618   5.139   4.743  2.5277  0.6642 -1.0431
 2411TIP3    H2 7198   4.603   5.239   4.631 -1.6630  1.1497 -0.2409
 2412TIP3   OH2 7199   4.958   5.334   2.710  0.0788  0.7549 -0.1749
 2412TIP3    H1 7200   4.977   5.313   2.618 -0.4122  1.4181 -0.4320
 2412TIP3    H2 7201   5.024   5.399   2.734  0.0564  0.7594 -0.1262
 2413TIP3   OH2 7202   4.280   0.390   0.305 -0.4357  0.0508  0.4568
 2413TIP3    H1 7203   4.237   0.317   0.349 -0.2122 -0.2925  0.1088
 2413TIP3    H2 7204   4.369   0.358   0.286 -0.6781  0.0103 -0.6859
 2414TIP3   OH2 7205   2.374   6.620   5.080 -0.1429  0.0721 -0.4853
 2414TIP3    H1 7206   2.341   6.681   5.015 -0.0559 -1.2644 -1.8440
 2414TIP3    H2 7207   2.427   6.673   5.138 -1.5000  1.5876 -0.5463
 2415TIP3   OH2 7208   4.898   3.324   4.145  0.1548  0.1025  0.6385
 2415TIP3    H1 7209   4.950   3.313   4.066 -1.7576 -0.4064 -0.6124
 2415TIP3    H2 7210   4.952   3.287   4.215  2.2926  1.4222 -0.1970
 2416TIP3   OH2 7211   5.309   5.065   2.703  0.0282  0.8264  0.3917
 2416TIP3    H1 7212   5.220   5.051   2.734  0.2600 -2.8642 -0.1756
 2416TIP3    H2 7213   5.301   5.070   2.608  0.4263 -0.3464  0.2737
 2417TIP3   OH2 7214   5.419   5.454   3.974  0.0879  0.3852 -0.4011
 2417TIP3    H1 7215   5.326   5.435   3.977 -0.3505  2.3991  0.3758
 2417TIP3    H2 7216   5.425   5.536   3.925  1.1876  1.4242  1.3380
 2418TIP3   OH2 7217   4.687   1.845   2.227  0.0494 -0.1841  0.1693
 2418TIP3    H1 7218   4.727   1.919   2.180  0.9689 -0.2868  0.7613
 2418TIP3    H2 7219   4.694   1.772   2.166  0.2831 -0.0765  0.0665
 2419TIP3   OH2 7220   2.399   5.015   1.320 -0.4571 -0.4301 -0.7824
 2419TIP3    H1 7221   2.346   4.937   1.306  0.3725 -1.1444 -0.0730
 2419TIP3    H2 7222   2.346   5.069   1.378 -0.7017 -0.8260 -0.6317
 2420TIP3   OH2 7223   3.697   5.143   2.448  0.6561 -0.2048 -0.2626
 2420TIP3    H1 7224   3.649   5.202   2.506  2.1816  0.4392  0.3915
 2420TIP3    H2 7225   3.643   5.064   2.444 -0.9236  0.8283 -0.3397
 2421TIP3   OH2 7226   1.967   4.033   4.716  0.1201 -0.2978 -0.1555
 2421TIP3    H1 7227   2.006   4.008   4.632 -0.2991 -0.4710 -0.3012
 2421TIP3    H2 7228   1.876   4.004   4.710  0.0883 -0.3145  0.3619
 2422TIP3   OH2 7229   3.001   3.431   4.082  0.6677 -0.2614  0.0342
 2422TIP3    H1 7230   3.052   3.367   4.132  1.1605 -0.0652 -0.2032
 2422TIP3    H2 7231   2.989   3.389   3.996  1.4430  0.1665 -0.2966
 2423TIP3   OH2 7232   0.693   0.095   4.740  0.2396 -0.0959  0.1356
 2423TIP3    H1 7233   0.700   0.183   4.776  2.7355 -0.0403 -0.3429
 2423TIP3    H2 7234   0.764   0.046   4.781  0.2633 -1.2857 -1.2396
 2424TIP3   OH2 7235   4.679   5.399   2.393  0.0356 -0.7107 -0.1618
 2424TIP3    H1 7236   4.705   5.322   2.341 -0.8562 -0.9254 -0.2993
 2424TIP3    H2 7237   4.585   5.407   2.379  0.0516  0.1682  0.1867
 2425TIP3   OH2 7238   3.721   2.207   0.077  0.7678 -0.0654  0.1663
 2425TIP3    H1 7239   3.787   2.174   0.139  1.3583  1.1978  0.2406
 2425TIP3    H2 7240   3.660   2.256   0.132  0.6033  0.0160 -0.0897
 2426TIP3   OH2 7241   1.391   2.534   3.345  0.1630  0.2537 -0.1027
 2426TIP3    H1 7242   1.393   2.439   3.355  0.5323  0.5159  4.2163
 2426TIP3    H2 7243   1.302   2.558   3.370  0.5171  1.0768  0.4110
 2427TIP3   OH2 7244   4.118   0.265   5.919  0.3204  0.1049  0.3571
 2427TIP3    H1 7245   4.068   0.200   5.871  0.3644  0.2947  0.0543
 2427TIP3    H2 7246   4.107   0.346   5.870  0.9371  0.1468  0.2757
 2428TIP3   OH2 7247   6.530   2.671   0.753 -0.3653  0.3658  0.4957
 2428TIP3    H1 7248   6.589   2.597   0.765  0.8252  1.2998  0.6146
 2428TIP3    H2 7249   6.532   2.717   0.837 -1.2613  0.4237  0.4937
 2429TIP3   OH2 7250   3.244   0.711   3.646 -0.6562  0.1322  0.3757
 2429TIP3    H1 7251   3.333   0.705   3.612  0.5109  2.4507  2.6076
 2429TIP3    H2 7252   3.200   0.771   3.586 -1.0420 -1.6560 -1.2072
 2430TIP3   OH2 7253   3.850   1.924   5.675  0.1864  0.0731 -0.2589
 2430TIP3    H1 7254   3.814   1.854   5.621  2.9809 -0.3335 -1.8279
 2430TIP3    H2 7255   3.915   1.966   5.619  1.4372  1.3269  1.9718
 2431TIP3   OH2 7256   0.329   3.684   0.386 -0.3476  0.0304 -0.1862
 2431TIP3    H1 7257   0.354   3.774   0.409  0.8307 -0.3657  0.1498
 2431TIP3    H2 7258   0.308   3.643   0.469  0.3250 -0.3533 -0.2021
 2432TIP3   OH2 7259   0.997   1.696   0.091  0.1367  0.1890 -0.4597
 2432TIP3    H1 7260   0.930   1.757   0.123 -0.0788 -0.1349 -0.2891
 2432TIP3    H2 7261   1.043   1.666   0.169  2.0832  2.2078 -0.7291
 2433TIP3   OH2 7262   1.784   6.111   3.708 -0.1867 -0.4122 -0.5411
 2433TIP3    H1 7263   1.760   6.197   3.742  0.7888  0.3962 -1.8187
 2433TIP3    H2 7264   1.722   6.094   3.637 -0.0864 -0.5557 -0.5966
 2434TIP3   OH2 7265   5.937   5.941   2.313 -0.5421 -0.0346  0.5369
 2434TIP3    H1 7266   5.850   5.965   2.281 -1.2388 -2.1314  0.7204
 2434TIP3    H2 7267   5.928   5.938   2.408 -0.2132 -0.0843  0.5691
 2435TIP3   OH2 7268   1.191   6.678   2.575 -0.0522 -0.4154  0.0291
 2435TIP3    H1 7269   1.207   6.585   2.563 -0.2558 -0.3609 -0.7201
 2435TIP3    H2 7270   1.232   6.719   2.500 -1.1028 -0.0156 -0.3502
 2436TIP3   OH2 7271   6.832   1.758   5.592  0.6375 -0.1366 -0.0109
 2436TIP3    H1 7272   6.763   1.770   5.657  0.4032 -0.2626 -0.2389
 2436TIP3    H2 7273   6.812   1.675   5.550  0.4369  0.2423 -0.6808
 2437TIP3   OH2 7274   3.885   0.588   2.124  0.3651 -0.4071 -0.6024
 2437TIP3    H1 7275   3.821   0.614   2.190 -0.1974 -2.4341 -0.2825
 2437TIP3    H2 7276   3.933   0.516   2.163 -0.6836 -2.3859 -2.7076
 2438TIP3   OH2 7277   4.090   5.672   4.319  0.0791  0.5439  0.2275
 2438TIP3    H1 7278   4.035   5.596   4.338 -0.3279  0.5327 -0.9064
 2438TIP3    H2 7279   4.062   5.700   4.232  1.4945  0.8853 -0.1421
 2439TIP3   OH2 7280   1.266   5.163   2.881  0.0180 -0.0476 -0.4517
 2439TIP3    H1 7281   1.350   5.165   2.928 -0.6729 -1.2984  0.9479
 2439TIP3    H2 7282   1.286   5.195   2.794  2.3015 -1.7133 -0.6465
 2440TIP3   OH2 7283   4.530   1.464   5.076 -0.2843 -0.2000 -0.1207
 2440TIP3    H1 7284   4.544   1.431   5.164 -0.2200  0.0055 -0.0534
 2440TIP3    H2 7285   4.442   1.502   5.078 -0.6148 -0.9344 -0.3721
 2441TIP3   OH2 7286   2.028   3.511   4.786 -0.2417  0.1609  0.8340
 2441TIP3    H1 7287   2.096   3.499   4.720  0.1709  1.3642  1.0160
 2441TIP3    H2 7288   1.949   3.531   4.736 -0.0707  0.4589  0.6814
 2442TIP3   OH2 7289   6.954   2.136   4.883  0.4895  0.0084  0.4766
 2442TIP3    H1 7290   6.906   2.193   4.823  0.7731 -0.1140  0.1268
 2442TIP3    H2 7291   6.958   2.052   4.838  0.6697 -0.0960  0.6859
 2443TIP3   OH2 7292   5.259   1.017   0.509  0.1769  0.7100 -0.4165
 2443TIP3    H1 7293   5.222   1.081   0.448 -0.8700 -0.3771 -0.9354
 2443TIP3    H2 7294   5.286   0.943   0.455  0.0043  0.0733  0.3433
 2444TIP3   OH2 7295   1.731   4.356   1.633  0.1998 -0.0997 -0.3915
 2444TIP3    H1 7296   1.713   4.365   1.539  0.6128 -0.3149 -0.4963
 2444TIP3    H2 7297   1.758   4.443   1.661  1.5731 -0.3650 -0.8139
 2445TIP3   OH2 7298   1.393   2.387   0.578 -0.1920  0.0253  0.4723
 2445TIP3    H1 7299   1.388   2.292   0.590  1.5290 -0.4165 -1.7838
 2445TIP3    H2 7300   1.358   2.403   0.491  1.0094  1.2675  0.1752
 2446TIP3   OH2 7301   6.183   3.297   5.122  0.1694 -0.3660  0.8486
 2446TIP3    H1 7302   6.104   3.323   5.076  0.1929 -1.4881  0.1403
 2446TIP3    H2 7303   6.254   3.343   5.077  0.2921 -2.1214 -0.8576
 2447TIP3   OH2 7304   0.144   0.836   1.621  0.1100 -0.0076  0.7717
 2447TIP3    H1 7305   0.058   0.794   1.618  0.7368 -1.3116  0.3819
 2447TIP3    H2 7306   0.205   0.767   1.597  1.1215  1.3482 -0.8005
 2448TIP3   OH2 7307   4.174   6.593   4.299 -0.0439 -0.2876 -0.4707
 2448TIP3    H1 7308   4.180   6.672   4.352 -1.0507 -0.9123  0.6021
 2448TIP3    H2 7309   4.205   6.523   4.356 -0.6974 -0.9039 -0.8559
 2449TIP3   OH2 7310   4.068   0.011   3.235 -0.5591 -0.3560 -0.3949
 2449TIP3    H1 7311   4.098   0.090   3.190  0.6838  0.7637  2.1873
 2449TIP3    H2 7312   3.973   0.023   3.243 -0.4712  0.5696 -0.6008
 2450TIP3   OH2 7313   1.941   6.146   2.496 -0.3149 -0.2464  0.6113
 2450TIP3    H1 7314   1.855   6.145   2.454 -0.6629  0.0003  1.3226
 2450TIP3    H2 7315   1.980   6.229   2.467 -0.0722 -0.6217 -0.1811
 2451TIP3   OH2 7316   1.730   1.550   3.024 -0.1533 -0.3229 -0.1488
 2451TIP3    H1 7317   1.709   1.614   3.092  0.3175  0.1482 -0.4360
 2451TIP3    H2 7318   1.814   1.513   3.051  0.4641  0.4749 -0.8815
 2452TIP3   OH2 7319   6.139   2.289   0.978 -0.0716 -0.2313  0.3160
 2452TIP3    H1 7320   6.204   2.258   1.041  0.2439  1.0736  0.6696
 2452TIP3    H2 7321   6.080   2.344   1.029 -0.8886 -0.6145 -0.1959
 2453TIP3   OH2 7322   6.740   3.136   1.010  0.1999  0.0909 -0.0314
 2453TIP3    H1 7323   6.826   3.138   0.968 -0.1143  0.2053 -0.6823
 2453TIP3    H2 7324   6.715   3.228   1.020  0.6464  0.0966  1.2149
 2454TIP3   OH2 7325   5.894   0.380   5.628  0.3311 -0.0772 -0.2935
 2454TIP3    H1 7326   5.914   0.294   5.664 -1.4922 -0.8669 -1.0784
 2454TIP3    H2 7327   5.815   0.408   5.673 -1.3131 -0.5648 -2.7057
 2455TIP3   OH2 7328   2.717   6.706   0.459  0.4760 -0.3231 -0.2567
 2455TIP3    H1 7329   2.720   6.692   0.553  2.5011  0.0961 -0.2294
 2455TIP3    H2 7330   2.631   6.746   0.443  0.3920  0.2371  1.4782
 2456TIP3   OH2 7331   0.007   0.726   3.247 -0.3135 -0.2426 -0.1391
 2456TIP3    H1 7332   0.041   0.636   3.253 -0.3779 -0.3128 -0.8171
 2456TIP3    H2 7333   0.014   0.759   3.337 -0.0901 -0.8515  0.0782
 2457TIP3   OH2 7334   3.834   0.804   4.662  0.2650 -0.7963  0.0843
 2457TIP3    H1 7335   3.759   0.748   4.643  0.6023 -1.0988 -0.3925
 2457TIP3    H2 7336   3.816   0.885   4.615  0.6088 -1.1673 -0.7187
 2458TIP3   OH2 7337   4.721   2.569   4.440  0.0187  0.6189 -0.1185
 2458TIP3    H1 7338   4.686   2.603   4.358 -0.5120 -0.3741 -0.3190
 2458TIP3    H2 7339   4.701   2.637   4.504 -0.3793  0.9976 -0.6324
 2459TIP3   OH2 7340   3.417   6.542   3.268 -0.7240  0.3667 -0.0235
 2459TIP3    H1 7341   3.501   6.514   3.305 -0.3749 -1.3267 -1.8854
 2459TIP3    H2 7342   3.422   6.637   3.267  0.8048  0.3350  0.7304
 2460TIP3   OH2 7343   4.413   3.818   2.161  0.2443 -0.6275  0.4111
 2460TIP3    H1 7344   4.409   3.830   2.066  0.7110 -0.6226  0.3905
 2460TIP3    H2 7345   4.391   3.726   2.174  0.0579 -0.5974  0.3049
 2461TIP3   OH2 7346   6.349   6.033   2.100 -0.4440  0.1922 -0.0155
 2461TIP3    H1 7347   6.321   5.984   2.022 -1.0248 -0.5890  0.6763
 2461TIP3    H2 7348   6.283   6.013   2.166  1.0325 -0.6575  1.2586
 2462TIP3   OH2 7349   4.684   5.950   0.636 -0.4487  0.5399  0.4828
 2462TIP3    H1 7350   4.705   5.897   0.712 -0.3879 -0.2926 -0.1021
 2462TIP3    H2 7351   4.768   5.962   0.591 -0.9912 -2.4938 -1.6692
 2463TIP3   OH2 7352   3.523   0.902   0.102  0.8309 -0.2936 -0.1429
 2463TIP3    H1 7353   3.559   0.874   0.186 -0.4126  0.3990  0.6434
 2463TIP3    H2 7354   3.534   0.827   0.045  1.6228 -0.8031  0.6581
 2464TIP3   OH2 7355   0.912   6.687   3.524 -0.3011 -0.5510 -0.3663
 2464TIP3    H1 7356   0.957   6.689   3.440  0.4220 -0.2518  0.0136
 2464TIP3    H2 7357   0.845   6.756   3.518  0.7192  0.4943 -0.1856
 2465TIP3   OH2 7358   0.499   6.595   4.182 -0.4094 -0.5685 -0.0314
 2465TIP3    H1 7359   0.464   6.677   4.216  0.6964 -1.1252  2.8080
 2465TIP3    H2 7360   0.563   6.620   4.115 -1.7278  0.7246 -0.8307
 2466TIP3   OH2 7361   6.048   4.016   3.750  0.1921  0.1281 -0.3152
 2466TIP3    H1 7362   6.106   4.017   3.674 -0.6032  2.4561 -0.9972
 2466TIP3    H2 7363   6.032   4.109   3.768 -1.4678 -0.4190  1.2878
 2467TIP3   OH2 7364   1.272   3.509   0.989 -0.3328  0.1179 -0.2902
 2467TIP3    H1 7365   1.258   3.587   1.043 -0.0929  0.1495 -0.2729
 2467TIP3    H2 7366   1.244   3.436   1.044  0.3571  0.1069  0.0598
 2468TIP3   OH2 7367   5.465   4.789   1.396 -0.3554  0.5478  0.1934
 2468TIP3    H1 7368   5.444   4.730   1.323  0.6751 -2.0956  1.8543
 2468TIP3    H2 7369   5.379   4.820   1.427 -0.7821  2.8612 -2.8268
 2469TIP3   OH2 7370   3.345   3.313   3.008  0.4211  0.4549  0.0023
 2469TIP3    H1 7371   3.265   3.265   2.986  1.0301 -1.4496  1.6512
 2469TIP3    H2 7372   3.397   3.251   3.060  3.4542  1.2522 -1.8516
 2470TIP3   OH2 7373   0.626   5.398   4.190 -0.0846 -0.5475 -0.1673
 2470TIP3    H1 7374   0.719   5.412   4.173 -0.0362 -0.0872  0.4308
 2470TIP3    H2 7375   0.588   5.378   4.105  0.3888  0.2461 -0.5711
 2471TIP3   OH2 7376   6.182   2.730   2.133 -0.3417  0.1008 -0.6967
 2471TIP3    H1 7377   6.143   2.697   2.052 -1.6383  0.3878 -0.2151
 2471TIP3    H2 7378   6.129   2.807   2.155  0.6000  0.5831 -0.0856
 2472TIP3   OH2 7379   1.637   6.712   1.446 -0.2419  0.3940  0.1312
 2472TIP3    H1 7380   1.568   6.723   1.512 -2.1115  0.5664 -1.7606
 2472TIP3    H2 7381   1.626   6.786   1.387  1.3965  0.2447 -0.4118
 2473TIP3   OH2 7382   5.951   2.288   2.368 -0.3190  0.0354  0.4339
 2473TIP3    H1 7383   6.018   2.225   2.342 -1.1203 -0.7204  0.1807
 2473TIP3    H2 7384   5.935   2.341   2.290  0.8998  1.0907  0.8540
 2474TIP3   OH2 7385   5.416   2.044   2.031 -0.4723  0.3631  0.0740
 2474TIP3    H1 7386   5.376   2.098   2.098  0.1532  0.2711  0.5301
 2474TIP3    H2 7387   5.418   1.956   2.068 -0.5821  0.2134 -0.2681
 2475TIP3   OH2 7388   4.178   3.309   2.061 -0.2123  0.3801  0.2595
 2475TIP3    H1 7389   4.238   3.262   2.118 -1.7860  0.1011  1.7436
 2475TIP3    H2 7390   4.185   3.264   1.977  0.1487 -0.9212  0.9652
 2476TIP3   OH2 7391   5.053   0.830   0.982  0.0739  0.0733  0.1249
 2476TIP3    H1 7392   5.013   0.901   0.933 -0.0512  2.3831  3.2296
 2476TIP3    H2 7393   4.981   0.771   1.002 -0.2984  0.2898 -0.5714
 2477TIP3   OH2 7394   7.003   0.779   4.456 -0.0002 -0.8559  0.0756
 2477TIP3    H1 7395   6.969   0.805   4.370 -0.9753 -3.0253 -0.2711
 2477TIP3    H2 7396   6.960   0.839   4.517  1.8143  1.6884 -0.9848
 2478TIP3   OH2 7397   2.407   0.665   0.704 -0.4763 -0.2767  0.0010
 2478TIP3    H1 7398   2.430   0.755   0.729  1.4624 -0.3867 -1.2412
 2478TIP3    H2 7399   2.380   0.672   0.613  4.0742 -1.4591 -1.6790
 2479TIP3   OH2 7400   1.237   4.290   1.861 -0.0580 -0.2582  0.1055
 2479TIP3    H1 7401   1.189   4.343   1.797 -0.7250 -0.1609  0.6743
 2479TIP3    H2 7402   1.310   4.346   1.889 -0.8566  0.4357  0.8272
 2480TIP3   OH2 7403   2.207   2.038   0.020 -0.2941  0.2375  0.5344
 2480TIP3    H1 7404   2.227   1.952   0.058 -0.0937  0.2240  0.3986
 2480TIP3    H2 7405   2.283   2.059  -0.034  0.0444  0.9046  1.2479
 2481TIP3   OH2 7406   2.751   5.156   4.417  0.5459 -0.2403  0.0918
 2481TIP3    H1 7407   2.841   5.123   4.422  0.8275  0.5851  4.0297
 2481TIP3    H2 7408   2.760   5.250   4.409  0.0472 -0.1538  0.4962
 2482TIP3   OH2 7409   6.709   1.144   4.455 -0.8605 -0.3891  0.2357
 2482TIP3    H1 7410   6.739   1.131   4.545  0.2476 -0.9698 -0.1987
 2482TIP3    H2 7411   6.614   1.133   4.460 -1.1360  1.9695  1.7361
 2483TIP3   OH2 7412   2.537   0.785   5.136 -0.5741 -0.0191 -0.4622
 2483TIP3    H1 7413   2.466   0.814   5.080 -0.7404  0.4933  0.0024
 2483TIP3    H2 7414   2.543   0.852   5.204  1.4764  0.8668 -1.4269
 2484TIP3   OH2 7415   2.750   3.165   2.740 -0.1713 -0.5188 -0.2657
 2484TIP3    H1 7416   2.841   3.171   2.712 -0.0957 -1.1426 -0.1738
 2484TIP3    H2 7417   2.735   3.071   2.753 -0.7958 -0.4133 -0.1799
 2485TIP3   OH2 7418   6.529   1.038   0.845  0.3610  0.0286 -0.1824
 2485TIP3    H1 7419   6.548   0.967   0.906 -0.0167  0.8647  0.9528
 2485TIP3    H2 7420   6.434   1.049   0.849  0.3432  0.1633 -0.8467
 2486TIP3   OH2 7421   2.733   3.581   1.589  0.4508 -0.4189 -0.3161
 2486TIP3    H1 7422   2.751   3.494   1.552  0.4765 -0.6810  0.2973
 2486TIP3    H2 7423   2.659   3.614   1.538 -0.4917 -1.4049  0.3803
 2487TIP3   OH2 7424   5.929   2.188   2.818  0.0654 -0.0630 -0.4225
 2487TIP3    H1 7425   5.855   2.243   2.842 -0.4758 -0.1990 -1.7121
 2487TIP3    H2 7426   5.976   2.239   2.752  0.8399 -0.2048  0.0039
 2488TIP3   OH2 7427   1.435   6.315   1.358 -0.1100  0.3304 -0.3496
 2488TIP3    H1 7428   1.343   6.314   1.331 -0.8717  2.6266  1.7944
 2488TIP3    H2 7429   1.469   6.397   1.324  1.1944 -0.5017 -1.1222
 2489TIP3   OH2 7430   0.065   4.759   3.302  0.0985 -0.7393  0.8233
 2489TIP3    H1 7431  -0.015   4.712   3.325  0.4295 -1.3756  0.6989
 2489TIP3    H2 7432   0.110   4.701   3.241 -0.7379  0.8766 -1.4732
 2490TIP3   OH2 7433   6.863   0.164   2.694 -0.6809 -0.0301  0.2509
 2490TIP3    H1 7434   6.803   0.124   2.757 -1.5794  0.7138 -0.1105
 2490TIP3    H2 7435   6.808   0.223   2.642  0.3082  0.4424 -0.2951
 2491TIP3   OH2 7436   3.060   4.100   4.802 -0.3705  0.0813 -0.3172
 2491TIP3    H1 7437   3.082   4.132   4.890  0.1875 -1.1456  0.0139
 2491TIP3    H2 7438   2.970   4.130   4.788 -0.7195 -0.2884  0.9666
 2492TIP3   OH2 7439   2.802   3.228   3.514  0.2625 -0.4348 -0.2367
 2492TIP3    H1 7440   2.716   3.239   3.472 -0.0620 -1.3759  0.1579
 2492TIP3    H2 7441   2.800   3.139   3.549  1.5309 -0.5885 -0.5145
 2493TIP3   OH2 7442   3.909   5.526   0.458 -0.1093 -0.1652  0.4528
 2493TIP3    H1 7443   3.950   5.440   0.447  2.5108  1.2187 -1.9796
 2493TIP3    H2 7444   3.941   5.557   0.542 -0.3817 -1.1972  0.9541
 2494TIP3   OH2 7445   4.629   3.256   1.378 -0.5243  0.6435  0.4139
 2494TIP3    H1 7446   4.557   3.316   1.358 -0.7244  1.3424  2.9712
 2494TIP3    H2 7447   4.672   3.293   1.455  1.2478 -0.9245  0.2669
 2495TIP3   OH2 7448   1.771   3.696   2.230  0.3842 -0.0575  0.0107
 2495TIP3    H1 7449   1.816   3.614   2.253  1.8947  0.9697  0.8569
 2495TIP3    H2 7450   1.840   3.752   2.196 -0.6839  0.8001 -0.8027
 2496TIP3   OH2 7451   4.911   6.171   2.247  0.5140  0.1770 -0.1193
 2496TIP3    H1 7452   4.874   6.175   2.335 -1.4991 -1.6523 -0.8160
 2496TIP3    H2 7453   4.943   6.260   2.230  0.1169  0.7826  2.0831
 2497TIP3   OH2 7454   6.350   4.781   2.833 -0.1359  0.8389 -0.3356
 2497TIP3    H1 7455   6.334   4.695   2.872  0.7172  1.2731  1.0621
 2497TIP3    H2 7456   6.417   4.765   2.767 -0.3564  0.3576 -0.4520
 2498TIP3   OH2 7457   6.078   4.312   2.561 -0.0540 -0.2846 -0.1700
 2498TIP3    H1 7458   6.005   4.313   2.623  1.0567  1.3285  1.1883
 2498TIP3    H2 7459   6.041   4.347   2.479 -0.4049  2.4922  1.0633
 2499TIP3   OH2 7460   5.648   6.253   4.704 -0.3522 -0.1532 -0.1782
 2499TIP3    H1 7461   5.632   6.211   4.788 -1.0472 -1.8326 -1.0844
 2499TIP3    H2 7462   5.580   6.321   4.697 -1.7379 -1.4863 -0.2861
 2500TIP3   OH2 7463   1.607   5.002   2.813 -0.2415 -0.2985 -0.6342
 2500TIP3    H1 7464   1.556   5.081   2.793  0.2385  0.8310  2.2178
 2500TIP3    H2 7465   1.540   4.937   2.834 -0.6222 -0.5815 -2.5121
 2501TIP3   OH2 7466   0.609   4.799   5.451 -0.3951 -0.1691 -0.7709
 2501TIP3    H1 7467   0.701   4.824   5.447 -1.0083  3.3621  1.8402
 2501TIP3    H2 7468   0.566   4.858   5.389 -1.2114  0.7076  0.5829
 2502TIP3   OH2 7469   4.440   3.120   3.552  0.1332  0.0754  0.1099
 2502TIP3    H1 7470   4.452   3.144   3.460 -1.3054  0.1452 -0.0832
 2502TIP3    H2 7471   4.520   3.149   3.595  1.0012 -0.3223 -1.1834
 2503TIP3   OH2 7472   6.659   1.777   5.126  0.2813  0.1681  0.3232
 2503TIP3    H1 7473   6.619   1.816   5.048 -0.9878  0.3789  1.0550
 2503TIP3    H2 7474   6.723   1.715   5.091 -1.1431 -0.6659 -0.9200
 2504TIP3   OH2 7475   5.822   5.613   5.328 -0.5071 -0.0027  0.5291
 2504TIP3    H1 7476   5.826   5.586   5.236 -1.3378  2.6483 -0.3787
 2504TIP3    H2 7477   5.848   5.535   5.377 -1.5059 -1.9713 -1.8519
 2505TIP3   OH2 7478   0.400   4.069   4.956 -0.4555  0.0219 -0.3602
 2505TIP3    H1 7479   0.439   4.027   5.032  0.4284  0.2136 -0.6952
 2505TIP3    H2 7480   0.308   4.043   4.959 -0.5709  0.5034  1.0880
 2506TIP3   OH2 7481   3.754   2.187   3.645 -0.6184 -0.2824  0.3372
 2506TIP3    H1 7482   3.691   2.221   3.581  1.1135  0.4573 -1.0865
 2506TIP3    H2 7483   3.752   2.250   3.716  0.7739  1.5763 -1.1655
 2507TIP3   OH2 7484   0.120   1.119   0.016  0.7590 -0.2221  0.4068
 2507TIP3    H1 7485   0.185   1.189   0.018  3.6536 -2.7334  0.1853
 2507TIP3    H2 7486   0.087   1.114   0.106  0.9177  1.0025  0.5451
 2508TIP3   OH2 7487   1.054   5.591   2.220  0.2242  0.5160 -0.2316
 2508TIP3    H1 7488   1.139   5.553   2.246  0.3677  1.8142  1.2964
 2508TIP3    H2 7489   1.055   5.586   2.125  1.1560 -1.3184 -0.1785
 2509TIP3   OH2 7490   3.539   3.985   4.155 -0.0884  0.4776  0.0963
 2509TIP3    H1 7491   3.466   4.044   4.136 -0.2114 -0.2431 -1.8348
 2509TIP3    H2 7492   3.609   4.011   4.095  0.2880 -0.5322  0.0731
 2510TIP3   OH2 7493   6.259   0.092   5.785 -0.7732  0.0997 -0.0961
 2510TIP3    H1 7494   6.260   0.062   5.876 -1.1076 -1.3296 -0.5393
 2510TIP3    H2 7495   6.295   0.181   5.789 -1.5326  0.3788  1.5303
 2511TIP3   OH2 7496   2.012   5.647   1.973  0.7335 -0.7929  0.2462
 2511TIP3    H1 7497   1.917   5.643   1.962  0.7216 -0.4096  0.1750
 2511TIP3    H2 7498   2.026   5.719   2.034  1.0175 -0.3241 -0.3593
 2512TIP3   OH2 7499   1.589   3.219   5.870  0.0054 -0.0475  0.1481
 2512TIP3    H1 7500   1.676   3.205   5.832  0.1088  0.6155  0.1306
 2512TIP3    H2 7501   1.600   3.296   5.926 -0.7750  0.5576 -0.5174
 2513TIP3   OH2 7502   6.352   0.408   4.199 -0.0529  0.7842 -0.1370
 2513TIP3    H1 7503   6.269   0.408   4.152 -0.9364  1.8521  1.3441
 2513TIP3    H2 7504   6.397   0.487   4.167  0.6855 -0.1082 -1.3750
 2514TIP3   OH2 7505   5.399   0.674   0.123  0.3228 -0.3700 -0.0414
 2514TIP3    H1 7506   5.336   0.710   0.186  1.4755 -0.7464  1.3986
 2514TIP3    H2 7507   5.445   0.750   0.089 -0.0474 -0.1867 -0.1348
 2515TIP3   OH2 7508   3.879   6.356   2.588  0.5595 -1.1992  0.2207
 2515TIP3    H1 7509   3.903   6.378   2.678 -0.3815 -1.3791  0.5306
 2515TIP3    H2 7510   3.906   6.264   2.579 -1.0271 -1.7758  0.9622
 2516TIP3   OH2 7511   4.204   4.161   3.487  0.3938 -0.7148  0.0302
 2516TIP3    H1 7512   4.158   4.077   3.490 -0.6366 -0.1736  0.0351
 2516TIP3    H2 7513   4.134   4.226   3.482  1.1462  0.1807  0.6838
 2517TIP3   OH2 7514   2.930   1.409   3.168  0.0771  0.2439 -0.5268
 2517TIP3    H1 7515   2.990   1.370   3.233  0.5933  1.0684 -0.5009
 2517TIP3    H2 7516   2.924   1.501   3.193 -1.0210  0.2249 -0.6801
 2518TIP3   OH2 7517   3.952   5.024   1.563  1.0025 -0.1371  0.3758
 2518TIP3    H1 7518   3.876   5.043   1.508  0.9780 -0.3347  0.3390
 2518TIP3    H2 7519   4.018   4.991   1.502  0.4818 -1.7671  0.6368
 2519TIP3   OH2 7520   3.429   2.107   3.172  0.6867 -0.2082 -0.0170
 2519TIP3    H1 7521   3.517   2.072   3.155  0.6808 -0.7893  1.0262
 2519TIP3    H2 7522   3.371   2.032   3.158  0.3927  0.0636 -0.2772
 2520TIP3   OH2 7523   5.908   1.654   4.131  0.0919 -0.3091  0.0141
 2520TIP3    H1 7524   5.969   1.670   4.058 -1.4536 -0.3554 -1.3494
 2520TIP3    H2 7525   5.947   1.582   4.180  0.8740 -0.6923 -1.1303
 2521TIP3   OH2 7526   3.296   4.167   1.809  0.2923 -0.8084  0.0435
 2521TIP3    H1 7527   3.231   4.208   1.754  1.1312 -0.3074 -0.6008
 2521TIP3    H2 7528   3.303   4.225   1.885 -1.5516 -1.9923  1.1946
 2522TIP3   OH2 7529   4.937   3.996   4.925  0.0466 -0.6018  0.4827
 2522TIP3    H1 7530   4.912   4.089   4.920 -0.7300 -0.8208  0.1841
 2522TIP3    H2 7531   5.016   3.996   4.979  1.7807  0.5683 -1.8400
 2523TIP3   OH2 7532   5.533   4.948   5.505 -0.4067  0.3531  0.3423
 2523TIP3    H1 7533   5.558   4.858   5.528  0.2621  0.2510 -0.7128
 2523TIP3    H2 7534   5.616   4.996   5.506 -0.5668  0.6575 -0.3962
 2524TIP3   OH2 7535   7.131   4.142   2.636 -0.8481 -0.3627  0.4505
 2524TIP3    H1 7536   7.210   4.107   2.676 -0.3125  1.3232  0.9650
 2524TIP3    H2 7537   7.077   4.171   2.709 -1.6065 -0.7734  0.0691
 2525TIP3   OH2 7538   2.098   5.028   5.748 -0.5173 -0.0126  0.1596
 2525TIP3    H1 7539   2.175   4.982   5.714 -0.5884 -0.0407  0.0335
 2525TIP3    H2 7540   2.092   5.001   5.839 -0.2225  0.1989  0.2440
 2526TIP3   OH2 7541   7.161   3.893   3.935 -0.1475  0.2627 -0.5485
 2526TIP3    H1 7542   7.083   3.924   3.982  1.6537  3.5296  0.5951
 2526TIP3    H2 7543   7.213   3.848   4.002  0.2812  0.7194 -0.5705
 2527TIP3   OH2 7544   2.163   0.335   4.998 -0.1525 -0.1805 -0.0173
 2527TIP3    H1 7545   2.225   0.265   4.974 -0.9677 -1.6173  1.8174
 2527TIP3    H2 7546   2.077   0.301   4.973 -0.6414 -0.1982  1.5719
 2528TIP3   OH2 7547   0.912   0.196   2.672  0.0920  0.0226  0.0278
 2528TIP3    H1 7548   0.851   0.123   2.683 -0.5738  0.6235  0.4342
 2528TIP3    H2 7549   0.998   0.155   2.674 -0.2620 -0.7479  0.3152
 2529TIP3   OH2 7550   3.937   0.583   1.843 -0.4863 -0.7301  0.0428
 2529TIP3    H1 7551   4.031   0.603   1.836 -0.4443 -0.2819  1.6310
 2529TIP3    H2 7552   3.917   0.590   1.936 -1.8998 -1.8099 -0.1349
 2530TIP3   OH2 7553   0.428   3.429   5.200 -0.7068 -0.0934 -0.3064
 2530TIP3    H1 7554   0.471   3.467   5.123  0.7291  0.3994  0.6998
 2530TIP3    H2 7555   0.491   3.440   5.271 -2.3840  0.3636  1.1938
 2531TIP3   OH2 7556   5.974   5.720   5.714  0.2837 -0.2520 -0.4732
 2531TIP3    H1 7557   6.016   5.778   5.778  0.1905 -0.9597  0.2399
 2531TIP3    H2 7558   6.047   5.676   5.670  0.3640  0.5493 -1.1732
 2532TIP3   OH2 7559   4.507   4.192   3.099 -0.4061  0.3684  0.8512
 2532TIP3    H1 7560   4.460   4.151   3.171 -1.9978  1.7338  0.6574
 2532TIP3    H2 7561   4.438   4.227   3.043  0.8358  2.1714  0.3775
 2533TIP3   OH2 7562   4.114   5.004   0.164 -0.1651  0.2651 -0.5397
 2533TIP3    H1 7563   4.139   5.078   0.109  2.2644  0.1061  0.2454
 2533TIP3    H2 7564   4.155   4.928   0.124  3.3252  0.3846  2.2970
 2534TIP3   OH2 7565   6.839   5.036   3.346  0.1456  0.4855 -0.1087
 2534TIP3    H1 7566   6.891   5.106   3.306  0.4801  0.1708 -0.2356
 2534TIP3    H2 7567   6.782   5.005   3.275  0.6665 -0.0037 -0.3248
 2535TIP3   OH2 7568   1.762   1.160   3.575  0.1081 -0.2253  0.2435
 2535TIP3    H1 7569   1.675   1.121   3.584 -0.3817  0.6053 -0.6582
 2535TIP3    H2 7570   1.796   1.125   3.492  0.4746 -0.2461  0.3984
 2536TIP3   OH2 7571   1.360   5.000   4.291 -0.1489 -0.2801  0.0264
 2536TIP3    H1 7572   1.378   5.060   4.220 -1.3198  0.5381  0.3937
 2536TIP3    H2 7573   1.338   5.056   4.366 -0.4271 -1.1405  0.6112
 2537TIP3   OH2 7574   1.797   2.858   1.556 -0.1933  0.4043 -0.2386
 2537TIP3    H1 7575   1.740   2.844   1.632 -2.1825  0.7800 -1.5622
 2537TIP3    H2 7576   1.882   2.881   1.594 -0.5506 -1.3793  1.8548
 2538TIP3   OH2 7577   6.113   1.543   0.611  0.1674 -0.6253  0.5540
 2538TIP3    H1 7578   6.056   1.564   0.685 -0.1866  0.9450 -0.1164
 2538TIP3    H2 7579   6.055   1.505   0.546 -0.2282  1.2633 -0.2502
 2539TIP3   OH2 7580   6.774   3.371   5.655  0.1712  0.4781 -0.7667
 2539TIP3    H1 7581   6.783   3.363   5.750  2.9149 -2.8863 -1.0954
 2539TIP3    H2 7582   6.699   3.316   5.633 -0.7979  1.6782 -0.5917
 2540TIP3   OH2 7583   2.175   4.549   4.325 -0.1707 -0.1612 -0.3286
 2540TIP3    H1 7584   2.191   4.634   4.366 -0.6614 -0.8060  1.2970
 2540TIP3    H2 7585   2.228   4.550   4.246 -0.3046  1.7212 -0.4395
 2541TIP3   OH2 7586   3.071   0.699   3.010  0.6329  0.7464  0.4538
 2541TIP3    H1 7587   3.051   0.635   3.078  0.4019  0.5893  0.2401
 2541TIP3    H2 7588   3.134   0.758   3.050  0.2969  0.8078  0.8957
 2542TIP3   OH2 7589   5.374   5.157   5.642  0.2320  0.3522  0.6471
 2542TIP3    H1 7590   5.406   5.073   5.609 -0.7711  0.1405  0.1696
 2542TIP3    H2 7591   5.348   5.205   5.563 -0.8151  0.4249  1.0242
 2543TIP3   OH2 7592   4.805   3.460   0.808  0.2346 -0.5277 -0.3916
 2543TIP3    H1 7593   4.899   3.458   0.829  0.4583  2.6638 -0.6178
 2543TIP3    H2 7594   4.798   3.420   0.722  1.9518  1.8682 -1.7732
 2544TIP3   OH2 7595   3.618   0.322   1.452 -0.1044  0.2902  0.4456
 2544TIP3    H1 7596   3.581   0.327   1.364  1.1315 -1.3727 -0.2345
 2544TIP3    H2 7597   3.604   0.409   1.490  1.3961  1.8395 -2.2460
 2545TIP3   OH2 7598   2.252   3.543   1.144 -0.7245  0.5567 -0.4357
 2545TIP3    H1 7599   2.260   3.635   1.172  1.0985  0.0134  0.9942
 2545TIP3    H2 7600   2.173   3.512   1.189  0.0516  0.7589  1.1152
 2546TIP3   OH2 7601   3.885   3.608   4.658 -0.2533 -0.1527  0.9296
 2546TIP3    H1 7602   3.842   3.526   4.634 -0.4416 -0.1299  1.1935
 2546TIP3    H2 7603   3.929   3.636   4.577 -1.2246  0.1260  0.4887
 2547TIP3   OH2 7604   4.016   4.883   1.827  0.8379  0.6294 -0.4015
 2547TIP3    H1 7605   4.108   4.897   1.806  0.4850 -0.7175 -3.3291
 2547TIP3    H2 7606   3.968   4.927   1.757 -0.7875  1.0273  0.8893
 2548TIP3   OH2 7607   7.154   3.950   1.305  0.1557 -0.2434 -1.1399
 2548TIP3    H1 7608   7.189   4.015   1.245  4.1997  1.5521  2.6354
 2548TIP3    H2 7609   7.077   3.992   1.344 -1.0353 -0.4669 -3.1045
 2549TIP3   OH2 7610   6.382   2.169   4.676 -0.8307  0.6759 -0.3798
 2549TIP3    H1 7611   6.338   2.238   4.626 -0.0318 -0.3965 -2.6979
 2549TIP3    H2 7612   6.414   2.108   4.609  0.3498 -0.8294  1.4747
 2550TIP3   OH2 7613   5.681   3.304   4.181  0.1604  0.1392 -0.2843
 2550TIP3    H1 7614   5.665   3.228   4.237 -0.0332  0.6222  0.3356
 2550TIP3    H2 7615   5.628   3.289   4.103 -0.4553 -0.0140  0.1557
 2551TIP3   OH2 7616   3.759   6.638   1.018  0.4808 -0.1624 -0.4770
 2551TIP3    H1 7617   3.841   6.649   0.971  0.2347 -0.2622 -0.9389
 2551TIP3    H2 7618   3.778   6.665   1.108  0.8759  0.3115 -0.7051
 2552TIP3   OH2 7619   3.668   1.989   3.130 -0.0789  0.1905 -0.1794
 2552TIP3    H1 7620   3.652   1.937   3.051  2.0279 -0.7375 -0.0564
 2552TIP3    H2 7621   3.739   2.049   3.106 -1.0941  1.6586  0.3045
 2553TIP3   OH2 7622   3.291   3.737   1.956  0.8445 -0.1744 -0.5002
 2553TIP3    H1 7623   3.224   3.701   2.015  1.7375  0.8349  1.1951
 2553TIP3    H2 7624   3.327   3.811   2.003  0.1497  2.0596 -3.2326
 2554TIP3   OH2 7625   1.600   0.256   2.126  0.1558 -0.3633  0.1402
 2554TIP3    H1 7626   1.624   0.179   2.178 -1.8615 -0.2447  1.3605
 2554TIP3    H2 7627   1.655   0.326   2.160 -0.4753 -0.4998  1.5299
 2555TIP3   OH2 7628   5.036   1.749   4.427  0.6732  0.1157  0.0033
 2555TIP3    H1 7629   5.090   1.747   4.506 -0.4397 -0.6248  0.7734
 2555TIP3    H2 7630   4.963   1.807   4.450 -0.4783 -1.3143  0.1140
 2556TIP3   OH2 7631   0.857   4.402   0.572  0.0027  0.0346 -0.0044
 2556TIP3    H1 7632   0.852   4.318   0.618  0.0697  0.4216  0.7162
 2556TIP3    H2 7633   0.772   4.443   0.588  0.1031  0.2649 -0.0526
 2557TIP3   OH2 7634   2.872   1.030   1.408  0.0571  0.1882  0.3454
 2557TIP3    H1 7635   2.909   1.058   1.491 -0.8392 -1.2538  1.2790
 2557TIP3    H2 7636   2.810   1.099   1.384  1.3257  1.2956  0.1252
 2558TIP3   OH2 7637   4.631   4.202   0.676  0.2486 -0.2116 -0.2510
 2558TIP3    H1 7638   4.635   4.296   0.693  1.4534 -0.2939 -0.0182
 2558TIP3    H2 7639   4.603   4.164   0.759  0.4382 -0.1132 -0.1417
 2559TIP3   OH2 7640   4.843   3.951   3.529  0.3121  0.0914 -0.2874
 2559TIP3    H1 7641   4.887   3.895   3.593 -0.3650 -0.7654 -0.5576
 2559TIP3    H2 7642   4.914   3.980   3.471  0.5051 -1.5402 -0.9164
 2560TIP3   OH2 7643   5.209   1.455   3.591 -0.3426  0.0849 -0.1289
 2560TIP3    H1 7644   5.130   1.483   3.544  0.4752 -0.2977 -1.7934
 2560TIP3    H2 7645   5.264   1.533   3.594 -0.8764  0.4337  1.2978
 2561TIP3   OH2 7646   5.900   6.583   0.441 -0.0244 -0.0282 -0.4737
 2561TIP3    H1 7647   5.983   6.544   0.412 -0.0427  0.4130 -1.1322
 2561TIP3    H2 7648   5.832   6.529   0.401 -0.0746 -0.7503  0.5420
 2562TIP3   OH2 7649   0.222   1.466   4.268  0.4077 -0.6507  0.4715
 2562TIP3    H1 7650   0.304   1.456   4.219  1.1088 -1.6792  1.8136
 2562TIP3    H2 7651   0.164   1.513   4.207  1.8881 -0.1243 -0.5993
 2563TIP3   OH2 7652   5.963   2.105   4.762 -0.4293  0.1902 -1.1771
 2563TIP3    H1 7653   5.868   2.110   4.751 -0.2893  1.8111 -1.9914
 2563TIP3    H2 7654   5.984   2.171   4.828 -0.1778 -2.7306  1.9589
 2564TIP3   OH2 7655   0.802   5.872   0.042 -0.1176 -0.4126  0.0787
 2564TIP3    H1 7656   0.711   5.852   0.064  0.2539 -0.4902  1.6203
 2564TIP3    H2 7657   0.853   5.809   0.092  0.8317  0.3681  0.1193
 2565TIP3   OH2 7658   3.031   5.308   0.920 -0.1814  0.0357  0.1782
 2565TIP3    H1 7659   2.968   5.331   0.852  0.4495 -0.7281 -0.6876
 2565TIP3    H2 7660   3.063   5.392   0.952  1.5795  0.4868 -2.4381
 2566TIP3   OH2 7661   5.461   1.497   2.732 -0.3342 -0.4213 -0.9514
 2566TIP3    H1 7662   5.518   1.550   2.677  0.5933 -2.2024 -1.8033
 2566TIP3    H2 7663   5.389   1.471   2.675 -0.4361 -0.6067 -0.7422
 2567TIP3   OH2 7664   2.204   0.218   4.345  0.1489 -0.0856 -0.0569
 2567TIP3    H1 7665   2.163   0.296   4.308  1.5178  0.8622  0.3584
 2567TIP3    H2 7666   2.159   0.145   4.302 -0.4209  0.9322 -1.2609
 2568TIP3   OH2 7667   2.718   0.200   5.763  0.1968  0.1063 -0.4583
 2568TIP3    H1 7668   2.797   0.222   5.713 -0.7260  1.9265 -1.2395
 2568TIP3    H2 7669   2.673   0.135   5.710  0.6325 -0.1100 -0.5640
 2569TIP3   OH2 7670   6.744   2.906   2.384  0.1058 -1.0582 -0.0704
 2569TIP3    H1 7671   6.757   3.001   2.382  0.2108 -1.0870 -0.8991
 2569TIP3    H2 7672   6.662   2.895   2.433  0.7808 -0.6334  1.2077
 2570TIP3   OH2 7673   6.133   2.891   0.811  0.3103  0.6520  0.3255
 2570TIP3    H1 7674   6.178   2.964   0.769  2.0767  0.2670  1.4660
 2570TIP3    H2 7675   6.144   2.818   0.750  1.3620  0.5324  0.6404
 2571TIP3   OH2 7676   4.175   6.459   1.585  0.0401 -0.2242 -0.1276
 2571TIP3    H1 7677   4.241   6.409   1.633  0.7763  0.4766 -0.3798
 2571TIP3    H2 7678   4.144   6.524   1.649 -1.7773 -1.6958  0.5812
 2572TIP3   OH2 7679   1.269   2.462   3.892 -0.2088  0.2147 -0.4187
 2572TIP3    H1 7680   1.228   2.473   3.977  2.1215  1.5875  0.6017
 2572TIP3    H2 7681   1.241   2.538   3.841 -0.1053  0.3745 -0.2359
 2573TIP3   OH2 7682   3.797   2.325   3.866 -0.1237  0.0374 -0.0022
 2573TIP3    H1 7683   3.853   2.395   3.899  0.4831 -0.8100  0.8061
 2573TIP3    H2 7684   3.834   2.245   3.903 -1.1769 -0.6546 -0.4006
 2574TIP3   OH2 7685   4.084   3.775   0.688 -0.1478  0.2521 -0.2302
 2574TIP3    H1 7686   4.136   3.698   0.708  1.0753  0.9015 -0.7812
 2574TIP3    H2 7687   3.993   3.744   0.686  0.2893 -1.0747 -0.0709
 2575TIP3   OH2 7688   7.030   3.515   2.184  0.2567 -0.0839 -0.5630
 2575TIP3    H1 7689   7.004   3.475   2.101 -0.9771  1.4905 -1.0087
 2575TIP3    H2 7690   6.949   3.518   2.235  1.1673 -1.8518  1.1289
 2576TIP3   OH2 7691   2.775   0.109   0.733  0.1594  0.2492 -0.3473
 2576TIP3    H1 7692   2.774   0.090   0.826  0.1295  0.7746 -0.2336
 2576TIP3    H2 7693   2.863   0.086   0.704  0.1632  0.0735 -0.1936
 2577TIP3   OH2 7694   0.618   6.101   3.215  0.2476  0.1674  0.3242
 2577TIP3    H1 7695   0.536   6.051   3.211 -0.0216  0.5130  1.2729
 2577TIP3    H2 7696   0.615   6.145   3.300  1.4547  0.1304  0.4023
 2578TIP3   OH2 7697   0.649   3.434   3.087 -0.3165  0.1398 -0.6229
 2578TIP3    H1 7698   0.586   3.377   3.044 -2.2807  2.4364 -0.9648
 2578TIP3    H2 7699   0.603   3.466   3.165  1.4350 -0.1866  0.6002
 2579TIP3   OH2 7700   3.463   2.544   3.615  0.2300  0.9540 -0.0661
 2579TIP3    H1 7701   3.484   2.630   3.578  0.4881  0.7867 -0.3118
 2579TIP3    H2 7702   3.465   2.485   3.540  0.5478  0.6469  0.1807
 2580TIP3   OH2 7703   0.713   4.641   0.485 -0.5991  0.4971 -0.3824
 2580TIP3    H1 7704   0.662   4.657   0.565  0.6038  1.4997  0.2259
 2580TIP3    H2 7705   0.804   4.655   0.511 -0.1165  0.1038 -1.7566
 2581TIP3   OH2 7706   2.367   2.781   3.020  0.1898  0.7405  0.3954
 2581TIP3    H1 7707   2.344   2.728   2.943  2.6342 -4.6932  2.8489
 2581TIP3    H2 7708   2.286   2.783   3.071 -0.3456  0.6114 -0.4207
 2582TIP3   OH2 7709   6.215   5.494   5.291  0.1719  0.0335  0.0620
 2582TIP3    H1 7710   6.143   5.452   5.245 -0.0730  1.0313 -0.4763
 2582TIP3    H2 7711   6.225   5.579   5.249  0.5179  0.6205  1.2751
 2583TIP3   OH2 7712   3.497   1.852   4.750 -0.1588  0.1694 -0.1819
 2583TIP3    H1 7713   3.453   1.768   4.753 -1.2282  0.7063 -0.2612
 2583TIP3    H2 7714   3.586   1.832   4.722 -0.1090 -1.0321  0.7676
 2584TIP3   OH2 7715   5.323   0.307   1.243 -0.1187 -0.1039 -0.3259
 2584TIP3    H1 7716   5.372   0.359   1.179  0.5766 -2.1806 -1.5705
 2584TIP3    H2 7717   5.261   0.257   1.190  0.2693 -1.6456  0.6278
 2585TIP3   OH2 7718   1.275   5.343   3.377 -0.4759  0.2508  0.2278
 2585TIP3    H1 7719   1.216   5.294   3.319  0.1973  0.1613 -0.3962
 2585TIP3    H2 7720   1.294   5.423   3.329  0.6000 -0.1098  0.0177
 2586TIP3   OH2 7721   3.034   3.917   5.514  0.7654 -0.1797  0.0419
 2586TIP3    H1 7722   2.973   3.985   5.544  0.6094 -0.6394  0.8139
 2586TIP3    H2 7723   3.098   3.909   5.585  0.6387 -0.9991  0.0749
 2587TIP3   OH2 7724   2.531   0.293   2.356  0.2157  0.6324  0.7374
 2587TIP3    H1 7725   2.562   0.316   2.443  1.9681  2.6705 -0.3352
 2587TIP3    H2 7726   2.446   0.337   2.349 -0.1097  0.1463  1.5270
 2588TIP3   OH2 7727   4.543   1.137   1.245  0.5104  0.5238  0.2470
 2588TIP3    H1 7728   4.536   1.113   1.338  1.0894 -2.3528 -0.3720
 2588TIP3    H2 7729   4.470   1.091   1.203  1.0558  0.6978 -0.9152
 2589TIP3   OH2 7730   7.134   6.420   0.042  0.0614 -0.0616 -0.7236
 2589TIP3    H1 7731   7.181   6.502   0.038  0.4804 -0.2796 -0.3186
 2589TIP3    H2 7732   7.062   6.430  -0.022 -0.2803  0.8528 -0.2055
 2590TIP3   OH2 7733   3.208   0.281   2.149 -0.0248 -0.1573  0.2039
 2590TIP3    H1 7734   3.255   0.225   2.087  0.9327  0.6765  0.1496
 2590TIP3    H2 7735   3.169   0.221   2.212  1.1863 -0.8694  0.2948
 2591TIP3   OH2 7736   7.148   3.672   1.264 -0.3784  0.3448  0.3062
 2591TIP3    H1 7737   7.065   3.644   1.226  0.6325 -1.5538 -0.6576
 2591TIP3    H2 7738   7.136   3.765   1.283 -2.2097  0.4692 -1.2134
 2592TIP3   OH2 7739   4.299   4.065   3.939  0.2874  0.5361 -0.0914
 2592TIP3    H1 7740   4.370   4.026   3.888 -0.2072  0.2715 -0.5943
 2592TIP3    H2 7741   4.260   3.992   3.986 -1.3198  0.1810 -1.8556
 2593TIP3   OH2 7742   0.961   0.722   1.230 -0.2740 -0.0942 -0.3466
 2593TIP3    H1 7743   0.870   0.749   1.219 -0.6358 -0.7965  0.7659
 2593TIP3    H2 7744   0.966   0.690   1.321  1.0227 -0.2748 -0.4602
 2594TIP3   OH2 7745   5.067   1.161   5.812 -0.4125 -0.3123  0.0688
 2594TIP3    H1 7746   5.148   1.157   5.862 -0.5481 -0.1527  0.3041
 2594TIP3    H2 7747   5.076   1.093   5.745  0.6357  0.8309 -1.0112
 2595TIP3   OH2 7748   6.169   4.218   0.850 -0.8343 -0.0236  0.0857
 2595TIP3    H1 7749   6.090   4.200   0.900 -0.3329 -1.5222  0.3829
 2595TIP3    H2 7750   6.222   4.274   0.907 -2.3721  2.5106 -0.8082
 2596TIP3   OH2 7751   5.114   3.264   5.236  0.3446  0.4651 -0.0864
 2596TIP3    H1 7752   5.115   3.299   5.325  0.8069  0.2585 -0.0094
 2596TIP3    H2 7753   5.144   3.174   5.245 -0.9156  0.0067 -0.2759
 2597TIP3   OH2 7754   2.813   2.169   4.570  0.0329  0.0230 -0.5897
 2597TIP3    H1 7755   2.765   2.251   4.586 -0.3572 -0.2874 -0.1277
 2597TIP3    H2 7756   2.756   2.118   4.513 -1.6387 -1.5790  2.2699
 2598TIP3   OH2 7757   2.807   2.501   5.015 -0.6102  0.6124  0.0327
 2598TIP3    H1 7758   2.877   2.548   5.061  1.2595  0.6012 -2.5695
 2598TIP3    H2 7759   2.824   2.409   5.034  0.3492  0.5882 -0.8474
 2599TIP3   OH2 7760   4.174   3.440   0.823  0.2525 -0.3636 -0.2907
 2599TIP3    H1 7761   4.174   3.347   0.842 -0.9469 -0.3713 -0.2925
 2599TIP3    H2 7762   4.119   3.450   0.745  1.6912  0.1698 -1.2873
 2600TIP3   OH2 7763   2.955   4.263   1.027 -0.3781 -0.2887  0.4244
 2600TIP3    H1 7764   2.901   4.199   1.076 -0.5624 -0.1944  0.3446
 2600TIP3    H2 7765   2.897   4.294   0.957 -0.4134  0.2478  0.6914
 2601TIP3   OH2 7766   3.109   4.623   1.572  0.5728  0.2668  0.0292
 2601TIP3    H1 7767   3.116   4.588   1.483 -0.9663  1.9513 -0.8023
 2601TIP3    H2 7768   3.167   4.699   1.572 -0.5271  1.1402 -0.0421
 2602TIP3   OH2 7769   3.620   0.169   4.208 -0.4902 -0.9161 -0.2062
 2602TIP3    H1 7770   3.525   0.183   4.200 -0.4304  0.1161  0.6536
 2602TIP3    H2 7771   3.659   0.230   4.146 -0.4089 -3.2046 -2.5663
 2603TIP3   OH2 7772   4.857   2.177   5.038  0.5628  0.4525 -0.3533
 2603TIP3    H1 7773   4.866   2.114   5.109 -2.1498 -1.0285 -1.1703
 2603TIP3    H2 7774   4.939   2.173   4.990  1.7690  0.1867  1.6382
 2604TIP3   OH2 7775   2.148   0.755   1.727 -0.4482  0.2826 -0.1939
 2604TIP3    H1 7776   2.171   0.841   1.692  1.8712 -0.6401 -1.1551
 2604TIP3    H2 7777   2.232   0.708   1.732 -1.7127 -2.1208 -0.2618
 2605TIP3   OH2 7778   0.492   6.811   3.650  0.0966 -0.1423  0.1062
 2605TIP3    H1 7779   0.421   6.752   3.676  1.8118 -1.9471  1.0051
 2605TIP3    H2 7780   0.538   6.764   3.581  0.5557  0.9088 -0.3250
 2606TIP3   OH2 7781   6.446   6.153   0.827  0.5321  0.2917 -0.7150
 2606TIP3    H1 7782   6.455   6.091   0.900  0.2808  0.2735 -0.7002
 2606TIP3    H2 7783   6.407   6.230   0.866 -0.4954 -0.0613 -1.0123
 2607TIP3   OH2 7784   6.608   4.759   1.354  0.8221 -0.7728  0.4414
 2607TIP3    H1 7785   6.626   4.782   1.445  1.0739 -1.2068  0.5031
 2607TIP3    H2 7786   6.598   4.664   1.354  0.3637 -0.7265  0.0918
 2608TIP3   OH2 7787   0.888   4.938   0.935  0.1956  0.0924 -0.2623
 2608TIP3    H1 7788   0.842   4.908   1.013  0.4523  1.0234  0.2641
 2608TIP3    H2 7789   0.820   4.970   0.877  0.0634  0.1122 -0.0967
 2609TIP3   OH2 7790   2.827   0.009   2.691  0.2696  0.3882  0.8331
 2609TIP3    H1 7791   2.853   0.066   2.619 -1.4983 -0.2319 -0.3673
 2609TIP3    H2 7792   2.906  -0.040   2.713  0.6169 -0.1207 -1.3748
 2610TIP3   OH2 7793   3.300   2.196   2.912  0.0600  0.0555 -0.6540
 2610TIP3    H1 7794   3.265   2.280   2.883  1.3634  0.7543 -0.2686
 2610TIP3    H2 7795   3.349   2.216   2.992  2.7519 -0.5326 -2.0332
 2611TIP3   OH2 7796   6.234   4.655   5.844 -0.1768 -0.0445 -0.6863
 2611TIP3    H1 7797   6.180   4.577   5.833 -0.2496 -0.2047  0.6616
 2611TIP3    H2 7798   6.206   4.713   5.773 -0.9027 -0.8081 -1.0395
 2612TIP3   OH2 7799   4.452   3.173   1.705  0.0343 -0.1149  0.2987
 2612TIP3    H1 7800   4.535   3.144   1.666  0.0873 -1.0513  1.0685
 2612TIP3    H2 7801   4.477   3.235   1.773 -0.0795  1.8293 -1.3552
 2613TIP3   OH2 7802   5.537   5.575   2.901 -0.2805  0.2577  0.2770
 2613TIP3    H1 7803   5.553   5.483   2.922  0.6375 -0.1629 -1.9520
 2613TIP3    H2 7804   5.579   5.624   2.972 -0.2645 -1.0267  1.1717
 2614TIP3   OH2 7805   2.928   0.635   3.498  0.3448 -0.6706 -0.3262
 2614TIP3    H1 7806   2.907   0.596   3.414 -3.0484  0.9474 -0.3850
 2614TIP3    H2 7807   2.982   0.711   3.477 -0.4738 -0.2799 -1.0551
 2615TIP3   OH2 7808   4.212   4.466   2.742 -0.1982 -0.0318 -0.4965
 2615TIP3    H1 7809   4.286   4.412   2.714 -0.7669 -0.3124 -1.5380
 2615TIP3    H2 7810   4.143   4.403   2.761 -0.6877  0.2878 -1.1708
 2616TIP3   OH2 7811   6.555   0.857   4.762  0.1628 -0.1430  0.0003
 2616TIP3    H1 7812   6.580   0.890   4.849 -0.4898 -0.9520  0.5053
 2616TIP3    H2 7813   6.518   0.933   4.718  3.4368  1.1432 -0.8068
 2617TIP3   OH2 7814   6.346   1.297   1.688  0.0854 -0.4445 -0.0272
 2617TIP3    H1 7815   6.329   1.270   1.598  0.6392  0.2200 -0.3404
 2617TIP3    H2 7816   6.259   1.315   1.724 -0.1630 -1.0314 -0.3245
 2618TIP3   OH2 7817   5.839   3.790   4.856  0.1652  0.1017  0.3317
 2618TIP3    H1 7818   5.927   3.825   4.869  0.6891 -0.9017 -0.4506
 2618TIP3    H2 7819   5.796   3.855   4.800  0.7595  0.0672 -0.1725
 2619TIP3   OH2 7820   1.170   0.417   3.334  0.3229 -0.0402 -0.0296
 2619TIP3    H1 7821   1.144   0.504   3.302  0.0282 -0.0113  0.2770
 2619TIP3    H2 7822   1.209   0.435   3.420  0.1225 -0.2253  0.1008
 2620TIP3   OH2 7823   5.938   2.114   0.840 -0.2914  0.8012  0.8850
 2620TIP3    H1 7824   5.884   2.170   0.784 -0.9569  0.4916  1.2038
 2620TIP3    H2 7825   6.004   2.172   0.877  0.4754  0.9204 -0.6070
 2621TIP3   OH2 7826   3.438   5.270   0.714 -0.3871  0.1617 -0.2975
 2621TIP3    H1 7827   3.349   5.265   0.681 -0.4026 -1.6529 -0.0626
 2621TIP3    H2 7828   3.437   5.345   0.774 -2.6088 -1.5487  2.0201
 2622TIP3   OH2 7829   5.666   3.442   4.415  0.0652 -0.0761  0.6186
 2622TIP3    H1 7830   5.683   3.425   4.322 -0.7134  1.9610  0.0645
 2622TIP3    H2 7831   5.743   3.406   4.460  0.6198 -0.7870 -0.8193
 2623TIP3   OH2 7832   1.634   2.679   0.078  0.7040 -0.4739  0.0392
 2623TIP3    H1 7833   1.661   2.763   0.117  1.1862 -0.9832  0.8242
 2623TIP3    H2 7834   1.544   2.666   0.108  0.7824 -0.4515  0.2852
 2624TIP3   OH2 7835   2.792   5.334   4.175 -0.2994  0.5026 -0.5340
 2624TIP3    H1 7836   2.700   5.354   4.156 -0.8971 -1.5159 -0.0274
 2624TIP3    H2 7837   2.805   5.366   4.265 -0.9296 -0.4523 -0.0941
 2625TIP3   OH2 7838   5.680   3.517   3.274  0.0696 -0.4027 -0.1332
 2625TIP3    H1 7839   5.612   3.548   3.334 -0.7872  2.0658 -2.1656
 2625TIP3    H2 7840   5.735   3.593   3.258  0.6789 -1.1497 -1.9102
 2626TIP3   OH2 7841   5.756   3.173   0.378 -0.0888  0.1352 -0.6750
 2626TIP3    H1 7842   5.671   3.178   0.335 -0.4751  0.7442  0.1334
 2626TIP3    H2 7843   5.818   3.203   0.311 -0.7295  1.5681 -0.6808
 2627TIP3   OH2 7844   1.916   5.875   2.316 -0.8581  0.5206 -0.0568
 2627TIP3    H1 7845   1.894   5.877   2.409  0.0108  0.2467  0.1608
 2627TIP3    H2 7846   1.990   5.936   2.307  1.4603 -2.0906  0.1104
 2628TIP3   OH2 7847   0.470   6.311   1.430 -0.6439  0.3371  0.5845
 2628TIP3    H1 7848   0.523   6.348   1.359  0.0130  0.7413  1.2762
 2628TIP3    H2 7849   0.431   6.387   1.473 -0.2831  0.1587  1.2406
 2629TIP3   OH2 7850   0.899   5.250   1.049 -0.3892  0.1252 -0.1190
 2629TIP3    H1 7851   0.895   5.277   1.140  0.0078  1.5512 -0.5010
 2629TIP3    H2 7852   0.934   5.161   1.052  1.0308  0.6853  1.0423
 2630TIP3   OH2 7853   3.608   3.178   4.960  0.2367 -0.5733 -0.2428
 2630TIP3    H1 7854   3.648   3.094   4.936 -2.2999 -2.2558  1.0040
 2630TIP3    H2 7855   3.683   3.234   4.980  2.0430 -2.9785  0.3337
 2631TIP3   OH2 7856   1.065   6.182   5.888 -0.1757  0.2611 -0.1715
 2631TIP3    H1 7857   1.030   6.151   5.804 -0.5182 -0.3676  0.1996
 2631TIP3    H2 7858   1.108   6.105   5.925  0.8945  0.8025 -0.2390
 2632TIP3   OH2 7859   5.255   0.974   4.102  0.5783 -0.3510 -0.0582
 2632TIP3    H1 7860   5.304   0.891   4.104  2.2700  0.6175  1.2989
 2632TIP3    H2 7861   5.277   1.017   4.184 -1.5224  0.7908 -0.0071
 2633TIP3   OH2 7862   3.713   6.551   1.714 -0.4043  0.2683 -0.1739
 2633TIP3    H1 7863   3.794   6.552   1.663 -0.3718 -0.6437 -0.1598
 2633TIP3    H2 7864   3.736   6.594   1.796 -0.6375  2.3890 -1.1542
 2634TIP3   OH2 7865   3.936   3.967   4.016  0.0164  0.0809 -0.4168
 2634TIP3    H1 7866   3.955   3.875   4.030 -1.2928 -0.2465 -0.6236
 2634TIP3    H2 7867   3.974   4.012   4.091  1.0720 -0.5658 -0.5572
 2635TIP3   OH2 7868   2.186   6.398   2.653 -0.8712 -0.1292 -0.4439
 2635TIP3    H1 7869   2.092   6.410   2.644 -0.8311  0.7274  0.1676
 2635TIP3    H2 7870   2.221   6.487   2.663 -0.2265 -0.5307  1.2785
 2636TIP3   OH2 7871   0.921   2.428   2.276 -0.5871  0.1640  0.6152
 2636TIP3    H1 7872   0.999   2.388   2.237 -1.5261 -0.8337 -0.2958
 2636TIP3    H2 7873   0.927   2.406   2.369 -0.4532 -1.0718  0.3280
 2637TIP3   OH2 7874   6.563   4.352   4.057  0.1764 -0.6242 -0.2105
 2637TIP3    H1 7875   6.530   4.278   4.108 -0.1913 -0.9701 -0.9484
 2637TIP3    H2 7876   6.540   4.332   3.967 -0.3386  0.6087 -0.3776
 2638TIP3   OH2 7877   6.485   6.265   3.405 -0.3640 -0.5445 -0.2604
 2638TIP3    H1 7878   6.475   6.331   3.474 -1.4271 -1.0406  0.0858
 2638TIP3    H2 7879   6.467   6.313   3.324 -0.7062 -0.3025 -0.0472
 2639TIP3   OH2 7880   6.346   0.414   2.319  0.2862  0.8751  1.0400
 2639TIP3    H1 7881   6.333   0.445   2.229 -1.2709 -1.0446  0.5457
 2639TIP3    H2 7882   6.439   0.431   2.336  0.6114  1.3607 -0.8965
 2640TIP3   OH2 7883   6.979   3.344   4.819 -0.1581  0.2252 -0.2071
 2640TIP3    H1 7884   6.892   3.309   4.840  0.1206 -1.4288 -1.5501
 2640TIP3    H2 7885   7.034   3.317   4.893 -1.1143  2.9705  1.6158
 2641TIP3   OH2 7886   6.984   4.642   0.056 -0.5614  0.3001 -0.0941
 2641TIP3    H1 7887   7.033   4.564   0.031 -0.2002  0.4760  0.0527
 2641TIP3    H2 7888   6.897   4.628   0.020 -0.5816 -0.3027  0.1793
 2642TIP3   OH2 7889   2.640   3.987   5.842 -0.3959 -0.7391 -0.3315
 2642TIP3    H1 7890   2.665   3.930   5.769  0.9966  0.3594 -0.7705
 2642TIP3    H2 7891   2.673   4.074   5.816 -1.6859  0.0834  0.7028
 2643TIP3   OH2 7892   5.533   4.904   1.933  0.3378  0.6699  0.1401
 2643TIP3    H1 7893   5.525   4.973   1.867  0.5832  0.8257  0.2719
 2643TIP3    H2 7894   5.483   4.830   1.897 -0.4183  1.1090  0.2623
 2644TIP3   OH2 7895   5.654   2.053   3.413  0.3195 -0.1150 -0.1630
 2644TIP3    H1 7896   5.684   1.980   3.467 -0.7090  1.7625  3.2518
 2644TIP3    H2 7897   5.580   2.017   3.364 -1.0302 -1.1612  2.4307
 2645TIP3   OH2 7898   0.502   1.216   0.738  0.0634 -0.3045  0.3712
 2645TIP3    H1 7899   0.476   1.307   0.755 -0.6277 -0.3747 -0.2204
 2645TIP3    H2 7900   0.419   1.170   0.725  0.4446 -0.8080 -0.3514
 2646TIP3   OH2 7901   3.399   2.884   1.527  0.5814  0.3850 -0.6848
 2646TIP3    H1 7902   3.325   2.945   1.519  0.5704  0.5880  0.8034
 2646TIP3    H2 7903   3.391   2.828   1.450 -0.2080  1.3882 -1.3692
 2647TIP3   OH2 7904   2.385   5.222   1.098  0.3446  0.3997  0.4450
 2647TIP3    H1 7905   2.469   5.266   1.088  0.5210 -0.1268 -0.5338
 2647TIP3    H2 7906   2.381   5.197   1.190  2.0711 -1.1215  0.1691
 2648TIP3   OH2 7907   5.971   6.822   1.157  0.7777  0.0066  0.3366
 2648TIP3    H1 7908   6.062   6.791   1.155  0.6667 -0.2642 -0.8421
 2648TIP3    H2 7909   5.918   6.743   1.153  0.4767  0.1653  0.9948
 2649TIP3   OH2 7910   6.574   6.604   2.729 -0.4740 -0.3826 -0.1476
 2649TIP3    H1 7911   6.589   6.596   2.635 -0.4585 -0.8424 -0.1046
 2649TIP3    H2 7912   6.486   6.639   2.737 -1.0912 -1.8433 -0.3038
 2650TIP3   OH2 7913   2.919   4.779   5.271  0.6708  0.0283 -0.4103
 2650TIP3    H1 7914   2.892   4.756   5.181  0.3473  2.2434 -0.9482
 2650TIP3    H2 7915   2.986   4.846   5.259  1.3991 -0.4149  1.0241
 2651TIP3   OH2 7916   3.202   4.477   3.029  0.5466 -0.8136 -0.2276
 2651TIP3    H1 7917   3.124   4.522   2.997  1.8344  1.0613 -0.9125
 2651TIP3    H2 7918   3.219   4.408   2.965  1.4045  1.0184 -2.0850
 2652TIP3   OH2 7919   4.017   1.474   5.032 -0.4655  0.0944 -0.5331
 2652TIP3    H1 7920   4.065   1.437   4.959 -0.1519  0.2068 -0.3838
 2652TIP3    H2 7921   3.978   1.399   5.076 -0.5019  0.0118 -0.7049
 2653TIP3   OH2 7922   4.773   0.527   2.268 -0.6705  0.6328  0.2649
 2653TIP3    H1 7923   4.698   0.485   2.226  0.0480  0.7104 -1.1763
 2653TIP3    H2 7924   4.779   0.613   2.226  1.2833 -0.0549 -1.0007
 2654TIP3   OH2 7925   1.219   0.142   0.442 -0.7147  0.9499  0.2326
 2654TIP3    H1 7926   1.252   0.231   0.437 -0.7970  1.0015  0.5853
 2654TIP3    H2 7927   1.139   0.144   0.389  0.2258  0.6319 -1.2746
 2655TIP3   OH2 7928   0.641   3.652   4.512  0.3275 -0.4309  0.0214
 2655TIP3    H1 7929   0.562   3.671   4.562  0.5882 -0.6765  0.5330
 2655TIP3    H2 7930   0.657   3.731   4.461 -0.1384 -0.3101  0.0631
 2656TIP3   OH2 7931   1.128   4.997   1.768 -0.3856  0.1138  0.1729
 2656TIP3    H1 7932   1.110   5.013   1.860 -0.7339  0.1029  0.1111
 2656TIP3    H2 7933   1.067   4.927   1.744  1.4991 -1.7892  0.5924
 2657TIP3   OH2 7934   4.504   0.384   5.279  0.2679 -0.3427  0.0221
 2657TIP3    H1 7935   4.444   0.341   5.339  0.1618 -2.8505 -1.7392
 2657TIP3    H2 7936   4.471   0.474   5.272 -1.1922 -0.7052  1.6942
 2658TIP3   OH2 7937   6.687   0.879   2.875 -0.6490 -0.4259 -0.2240
 2658TIP3    H1 7938   6.648   0.913   2.794  0.8974  0.9480 -0.4318
 2658TIP3    H2 7939   6.780   0.875   2.857 -0.5659 -3.0194  0.5009
 2659TIP3   OH2 7940   6.435   5.452   0.643 -1.2272  0.0348 -0.1684
 2659TIP3    H1 7941   6.496   5.506   0.593 -0.5741 -0.3114  0.2368
 2659TIP3    H2 7942   6.407   5.508   0.716 -1.1106  0.0687 -0.1498
 2660TIP3   OH2 7943   5.865   2.718   4.561  0.4092  0.0379  0.2724
 2660TIP3    H1 7944   5.840   2.809   4.572 -0.3408  0.0302 -1.1404
 2660TIP3    H2 7945   5.874   2.684   4.650  1.6112  1.7089  0.8225
 2661TIP3   OH2 7946   4.498   1.004   0.221  0.5241  0.2404 -0.1062
 2661TIP3    H1 7947   4.494   0.950   0.300 -0.1933 -0.5299 -0.6522
 2661TIP3    H2 7948   4.521   1.091   0.253 -1.4578  0.3551  1.1895
 2662TIP3   OH2 7949   5.313   0.635   2.801 -0.1350 -0.2672 -0.0585
 2662TIP3    H1 7950   5.363   0.553   2.800 -0.0143 -0.1853 -0.6579
 2662TIP3    H2 7951   5.367   0.694   2.855  0.5495 -0.1002 -0.9092
 2663TIP3   OH2 7952   3.785   5.988   3.232 -0.0653 -0.2409  0.3871
 2663TIP3    H1 7953   3.823   6.020   3.150 -0.2081 -0.2054  0.3351
 2663TIP3    H2 7954   3.780   6.065   3.288  0.6270 -0.3814  0.6610
 2664TIP3   OH2 7955   5.718   2.620   0.612 -0.3156 -0.5934 -0.9154
 2664TIP3    H1 7956   5.633   2.617   0.657  0.1126  1.4925  0.1771
 2664TIP3    H2 7957   5.782   2.602   0.680  0.2055 -0.4424 -1.3629
 2665TIP3   OH2 7958   2.208   3.897   5.040 -0.0556 -0.0924 -0.1723
 2665TIP3    H1 7959   2.174   3.808   5.045 -1.0672  0.3185  0.7477
 2665TIP3    H2 7960   2.284   3.897   5.098 -1.0454  0.0339  1.1915
 2666TIP3   OH2 7961   3.797   6.201   5.037 -0.0490 -0.2433 -0.1728
 2666TIP3    H1 7962   3.868   6.181   5.098 -0.0902 -0.6727 -0.2601
 2666TIP3    H2 7963   3.717   6.189   5.088 -0.0526  0.7024  0.0577
 2667TIP3   OH2 7964   3.822   0.446   4.318 -0.2993 -0.2287 -0.4342
 2667TIP3    H1 7965   3.761   0.463   4.247 -1.2927 -0.6959  0.2959
 2667TIP3    H2 7966   3.880   0.378   4.284 -0.4844 -0.1359 -0.9471
 2668TIP3   OH2 7967   6.129   3.906   2.943  0.2097 -0.0978  0.2233
 2668TIP3    H1 7968   6.125   3.818   2.906 -0.4226  1.3800 -3.6244
 2668TIP3    H2 7969   6.037   3.933   2.951  0.3308 -0.1061  2.5770
 2669TIP3   OH2 7970   5.697   2.649   1.470 -0.0725 -0.4563 -0.1622
 2669TIP3    H1 7971   5.784   2.688   1.463 -0.6259  0.7435 -0.7570
 2669TIP3    H2 7972   5.678   2.651   1.564  0.0994  0.3249 -0.1347
 2670TIP3   OH2 7973   3.011   5.532   1.237  0.4455 -0.0371 -0.2369
 2670TIP3    H1 7974   3.104   5.529   1.260  0.3743 -0.6560 -0.0182
 2670TIP3    H2 7975   3.008   5.588   1.160  1.0177 -0.0951 -0.3076
 2671TIP3   OH2 7976   1.746   3.236   2.453 -0.2099 -0.0992  0.2145
 2671TIP3    H1 7977   1.710   3.300   2.391 -0.6770  0.3589  0.9375
 2671TIP3    H2 7978   1.791   3.172   2.399 -3.2268 -1.4678 -0.9184
 2672TIP3   OH2 7979   3.565   1.476   4.855  0.1887 -0.4716  0.4941
 2672TIP3    H1 7980   3.612   1.482   4.938  0.3543  0.9817  0.3220
 2672TIP3    H2 7981   3.526   1.389   4.855 -0.7839 -0.0914  2.6367
 2673TIP3   OH2 7982   4.087   3.811   2.720 -0.2108 -0.2152 -0.0827
 2673TIP3    H1 7983   4.121   3.726   2.690 -1.1002 -1.0702  1.2196
 2673TIP3    H2 7984   4.165   3.858   2.750  0.3169 -0.4835 -0.9767
 2674TIP3   OH2 7985   2.026   6.643   4.229 -0.0302  0.3162 -0.3004
 2674TIP3    H1 7986   1.982   6.583   4.290  0.9413  0.7545  0.8626
 2674TIP3    H2 7987   1.988   6.729   4.249 -0.3965  0.3198 -0.9881
 2675TIP3   OH2 7988   3.708   2.254   5.711  0.3830 -0.2766  0.1015
 2675TIP3    H1 7989   3.628   2.302   5.689 -0.2928 -1.3287  0.2030
 2675TIP3    H2 7990   3.690   2.164   5.685  1.7299 -0.4401 -0.3419
 2676TIP3   OH2 7991   6.739   6.422   0.741  0.6677 -0.1726  0.0464
 2676TIP3    H1 7992   6.660   6.473   0.760  0.4455 -1.0495  1.6849
 2676TIP3    H2 7993   6.769   6.454   0.656 -1.1102  0.5948 -0.3260
 2677TIP3   OH2 7994   2.053   2.471   5.016 -0.7271 -0.0227 -0.1063
 2677TIP3    H1 7995   2.058   2.375   5.024  1.4115  0.1079  0.8738
 2677TIP3    H2 7996   2.093   2.490   4.931  0.5389  0.0705  0.4874
 2678TIP3   OH2 7997   6.834   5.564   2.895 -0.0563  0.0676  0.1916
 2678TIP3    H1 7998   6.743   5.579   2.922 -0.5576 -0.8340 -0.9351
 2678TIP3    H2 7999   6.873   5.516   2.968  0.2109  2.3973  1.6971
 2679TIP3   OH2 8000   1.425   2.914   1.752  0.4215  0.0560  0.7147
 2679TIP3    H1 8001   1.519   2.918   1.771  0.1549  0.6933  1.9759
 2679TIP3    H2 8002   1.415   2.836   1.698  1.6602 -0.0828  0.6514
 2680TIP3   OH2 8003   6.898   6.018   2.479 -0.8203 -0.4150 -0.1733
 2680TIP3    H1 8004   6.938   6.001   2.565 -0.7487  0.4422 -0.0297
 2680TIP3    H2 8005   6.925   5.943   2.426  1.2124  0.2157 -0.1476
 2681TIP3   OH2 8006   6.686   3.088   1.269 -0.3775  0.2892  0.1034
 2681TIP3    H1 8007   6.700   2.994   1.280 -1.7922  0.1454  1.0171
 2681TIP3    H2 8008   6.702   3.105   1.176 -1.2046 -1.0742 -0.3044
 2682TIP3   OH2 8009   0.517   3.829   0.969 -0.0369 -0.5818 -0.0152
 2682TIP3    H1 8010   0.522   3.733   0.969 -1.2041 -0.6676 -0.4838
 2682TIP3    H2 8011   0.423   3.847   0.962  0.2635  0.5980 -1.3674
 2683TIP3   OH2 8012   1.029   0.061   4.127  0.5242  0.2919 -0.4341
 2683TIP3    H1 8013   1.061   0.032   4.042  1.1237 -0.0951 -0.0871
 2683TIP3    H2 8014   0.950   0.009   4.143  1.1998 -0.6701 -0.1289
 2684TIP3   OH2 8015   6.813  -0.026   5.723 -0.2044 -0.6119  0.0765
 2684TIP3    H1 8016   6.782   0.022   5.800  0.9927 -0.5228  0.5256
 2684TIP3    H2 8017   6.827   0.041   5.657 -0.0374 -0.5414  0.1849
 2685TIP3   OH2 8018   6.552   3.729   1.144 -0.2055 -0.0108 -0.1453
 2685TIP3    H1 8019   6.459   3.739   1.165 -0.6400 -0.2008 -1.8219
 2685TIP3    H2 8020   6.597   3.763   1.221 -1.6524  2.0828 -0.1201
 2686TIP3   OH2 8021   1.789   6.377   3.775 -0.5372  0.4006 -0.0926
 2686TIP3    H1 8022   1.797   6.467   3.744 -1.0761  0.6854  0.5678
 2686TIP3    H2 8023   1.820   6.379   3.865 -1.1528  0.0658  0.1367
 2687TIP3   OH2 8024   1.289   6.359   3.028  0.2339  0.3392 -0.3263
 2687TIP3    H1 8025   1.290   6.349   3.124  0.5167  0.6532 -0.2939
 2687TIP3    H2 8026   1.270   6.271   2.995  0.8463  0.0754  0.0028
 2688TIP3   OH2 8027   0.112   1.574   1.239  0.2011 -0.5165 -0.0302
 2688TIP3    H1 8028   0.108   1.653   1.186 -0.0496 -0.5289 -0.0301
 2688TIP3    H2 8029   0.104   1.604   1.329 -2.5503 -0.7188 -0.1103
 2689TIP3   OH2 8030   4.185   5.117   1.219 -0.4708 -0.6436  0.0462
 2689TIP3    H1 8031   4.137   5.064   1.156 -0.7293 -0.9236  0.4740
 2689TIP3    H2 8032   4.269   5.073   1.229 -0.5331 -0.7488  0.1019
 2690TIP3   OH2 8033   5.165   5.705   1.208 -0.3488 -0.1946 -0.4655
 2690TIP3    H1 8034   5.140   5.738   1.121  0.8215  0.7855 -0.4409
 2690TIP3    H2 8035   5.099   5.741   1.267  0.1160  0.9842 -0.6425
 2691TIP3   OH2 8036   0.374   0.217   5.579  0.2800 -0.4946 -0.0256
 2691TIP3    H1 8037   0.315   0.167   5.636  1.5900  0.4553  2.2818
 2691TIP3    H2 8038   0.353   0.308   5.598  2.0258 -0.1509  0.3596
 2692TIP3   OH2 8039   5.702   3.637   2.639 -0.6294  0.2706  0.0474
 2692TIP3    H1 8040   5.606   3.638   2.634 -0.5916 -0.3534 -3.6744
 2692TIP3    H2 8041   5.724   3.546   2.658 -0.8902 -0.5728 -3.0442
 2693TIP3   OH2 8042   2.892   1.346   1.549 -0.0832 -0.1295  0.4895
 2693TIP3    H1 8043   2.984   1.322   1.543 -0.6299 -2.8273  1.6188
 2693TIP3    H2 8044   2.865   1.360   1.458  1.1159 -0.6744  0.0297
 2694TIP3   OH2 8045   4.918   4.586   5.113 -0.4300 -0.3439 -0.4721
 2694TIP3    H1 8046   4.861   4.523   5.069 -0.5953 -0.4242 -0.1518
 2694TIP3    H2 8047   4.928   4.551   5.202  0.7407 -0.7273 -0.7419
 2695TIP3   OH2 8048   1.947   1.759   5.445  0.1896  0.6232  0.6247
 2695TIP3    H1 8049   1.866   1.811   5.444  0.2883  0.8019 -0.9198
 2695TIP3    H2 8050   2.016   1.821   5.422  0.3522 -0.0706 -0.9328
 2696TIP3   OH2 8051   4.372   2.189   0.465  0.2783  0.1022 -0.0680
 2696TIP3    H1 8052   4.396   2.217   0.553  1.3038  0.2000 -0.3670
 2696TIP3    H2 8053   4.424   2.110   0.450 -0.9576 -0.7620 -0.0594
 2697TIP3   OH2 8054   5.932   4.303   0.383 -0.1971 -0.2949 -0.7576
 2697TIP3    H1 8055   5.841   4.311   0.409 -0.0431  0.4547 -0.4117
 2697TIP3    H2 8056   5.951   4.209   0.389 -0.8957 -0.4355 -0.6880
 2698TIP3   OH2 8057   2.389   2.416   3.523 -0.2509 -0.1327  0.1187
 2698TIP3    H1 8058   2.422   2.493   3.569 -0.4340 -0.2137  0.3869
 2698TIP3    H2 8059   2.459   2.392   3.462 -0.5334  0.7478 -0.5654
 2699TIP3   OH2 8060   0.755   3.091   3.673  0.3964  0.4690  0.4098
 2699TIP3    H1 8061   0.689   3.136   3.621 -0.3266  0.0999  0.9928
 2699TIP3    H2 8062   0.839   3.114   3.632 -0.0987  0.8748 -0.3797
 2700TIP3   OH2 8063   3.803   3.408   0.635  0.1823 -0.3614 -0.4515
 2700TIP3    H1 8064   3.725   3.422   0.689  0.4897  1.6333 -0.4463
 2700TIP3    H2 8065   3.847   3.493   0.634  1.3208 -0.9215 -2.0846
 2701TIP3   OH2 8066   2.476   5.171   4.207  0.0946 -0.0266  0.3446
 2701TIP3    H1 8067   2.560   5.213   4.227  0.0433  0.9748 -1.3548
 2701TIP3    H2 8068   2.423   5.241   4.168 -0.7456 -1.1688 -0.6150
 2702TIP3   OH2 8069   6.485   4.919   5.809  0.2614 -0.4464  0.7438
 2702TIP3    H1 8070   6.557   4.892   5.866 -0.2941 -1.5548  0.9611
 2702TIP3    H2 8071   6.410   4.866   5.838 -0.1921 -0.6042 -0.5977
 2703TIP3   OH2 8072   5.611   2.072   0.927 -0.0399  0.6655 -0.5767
 2703TIP3    H1 8073   5.563   2.133   0.872 -1.0477 -0.5970 -1.1686
 2703TIP3    H2 8074   5.692   2.054   0.878 -0.3458  0.5263 -1.0367
 2704TIP3   OH2 8075   7.162   5.817   0.181  0.4209  0.1369  0.3415
 2704TIP3    H1 8076   7.171   5.731   0.138  1.3227  0.1705  0.4475
 2704TIP3    H2 8077   7.121   5.797   0.265  0.4969 -0.1724  0.3074
 2705TIP3   OH2 8078   5.464   4.158   3.886 -0.2671 -0.3265  0.1379
 2705TIP3    H1 8079   5.374   4.183   3.865 -0.1200  0.2795  0.2132
 2705TIP3    H2 8080   5.517   4.198   3.818 -0.1361 -1.5597 -0.5239
 2706TIP3   OH2 8081   2.323   0.883   4.978  0.0660  0.0565 -0.1798
 2706TIP3    H1 8082   2.237   0.851   4.950 -0.5397  2.3324 -1.2223
 2706TIP3    H2 8083   2.306   0.972   5.009  2.1102  0.7932 -0.9928
 2707TIP3   OH2 8084   3.599   4.256   4.547  0.7789 -0.5021  0.1077
 2707TIP3    H1 8085   3.577   4.175   4.501  0.5602 -0.3365 -0.0798
 2707TIP3    H2 8086   3.516   4.303   4.553  0.9982 -0.0695 -0.2162
 2708TIP3   OH2 8087   0.906   4.975   3.249  0.0855  0.6949  0.1093
 2708TIP3    H1 8088   0.922   4.927   3.167  0.3610  1.5378 -0.3477
 2708TIP3    H2 8089   0.989   4.969   3.296  0.0208  0.4534  0.1894
 2709TIP3   OH2 8090   2.896   6.450   2.848  0.1358  0.4776 -0.0194
 2709TIP3    H1 8091   2.891   6.488   2.761 -0.3595 -0.3407 -0.3607
 2709TIP3    H2 8092   2.820   6.485   2.895 -0.6111 -0.4517 -0.4944
 2710TIP3   OH2 8093   4.660   0.914   5.337  0.4298 -0.2648 -0.2740
 2710TIP3    H1 8094   4.577   0.951   5.368  0.6719  0.1820 -0.1413
 2710TIP3    H2 8095   4.682   0.846   5.401  0.8867  0.6015  0.5191
 2711TIP3   OH2 8096   3.799   2.865   4.109 -0.1617 -0.0248  0.7597
 2711TIP3    H1 8097   3.767   2.859   4.199 -1.0026 -1.0128  0.4230
 2711TIP3    H2 8098   3.768   2.784   4.068 -0.7452  0.8980 -0.7002
 2712TIP3   OH2 8099   1.903   6.367   3.364 -0.3540 -0.5152 -0.2100
 2712TIP3    H1 8100   1.837   6.324   3.420  0.6273  0.2327  1.6082
 2712TIP3    H2 8101   1.889   6.460   3.379 -1.4272 -0.1499 -2.9094
 2713TIP3   OH2 8102   4.763   1.231   0.174  0.5791 -0.1497 -0.3160
 2713TIP3    H1 8103   4.795   1.176   0.102 -0.6185 -0.8153 -0.3724
 2713TIP3    H2 8104   4.690   1.279   0.136 -1.2813 -1.8744  0.8753
 2714TIP3   OH2 8105   5.050   0.028   2.955  0.1089 -0.2421  0.1569
 2714TIP3    H1 8106   5.145   0.017   2.951  0.2850  0.8097  1.1045
 2714TIP3    H2 8107   5.016  -0.044   2.902  1.4250 -0.6965 -0.1162
 2715TIP3   OH2 8108   6.087   5.532   2.276 -0.0973 -0.4134 -0.5601
 2715TIP3    H1 8109   6.121   5.463   2.334  0.5238  1.4117  1.3664
 2715TIP3    H2 8110   6.135   5.610   2.301 -2.5584  1.3167 -0.9049
 2716TIP3   OH2 8111   0.735   2.561   5.696 -0.4146 -0.5168 -0.1032
 2716TIP3    H1 8112   0.766   2.501   5.628  0.1387  0.2164 -0.5052
 2716TIP3    H2 8113   0.746   2.648   5.659  1.0789 -0.0277  1.3815
 2717TIP3   OH2 8114   1.273   0.116   2.097  0.1829 -0.0966  0.4469
 2717TIP3    H1 8115   1.315   0.083   2.176  1.2184 -3.8274 -1.4126
 2717TIP3    H2 8116   1.341   0.166   2.052 -0.0140  0.9324  1.2646
 2718TIP3   OH2 8117   2.824   5.183   2.110  0.1447 -0.5248  0.3218
 2718TIP3    H1 8118   2.819   5.091   2.138 -1.6624 -1.1810 -1.8185
 2718TIP3    H2 8119   2.880   5.181   2.032 -0.1861  0.1232  0.0638
 2719TIP3   OH2 8120   0.378   4.788   3.334  0.0692 -0.4531 -0.2700
 2719TIP3    H1 8121   0.406   4.879   3.328  1.6226 -0.9268 -0.8279
 2719TIP3    H2 8122   0.283   4.792   3.340  0.0748  1.1783 -0.7839
 2720TIP3   OH2 8123   5.402   2.811   2.832  0.3317  0.4422  0.5995
 2720TIP3    H1 8124   5.383   2.735   2.777 -0.3872 -0.8086  2.5051
 2720TIP3    H2 8125   5.331   2.813   2.896  0.4990  2.5702  0.7987
 2721TIP3   OH2 8126   4.144   1.972   1.197 -0.6109 -0.0505 -0.2211
 2721TIP3    H1 8127   4.065   1.977   1.143 -1.4623  1.0101  1.0539
 2721TIP3    H2 8128   4.112   1.949   1.284  0.5058  0.2651  0.2856
 2722TIP3   OH2 8129   2.842   3.701   2.101  0.5623 -0.2527  0.2986
 2722TIP3    H1 8130   2.872   3.610   2.101  2.8166  0.4157 -1.1412
 2722TIP3    H2 8131   2.822   3.721   2.010 -3.0820 -0.1637  0.9674
 2723TIP3   OH2 8132   0.351   3.426   2.480 -0.2483 -0.1429 -0.8352
 2723TIP3    H1 8133   0.379   3.398   2.393  0.4999 -0.4062 -0.5152
 2723TIP3    H2 8134   0.271   3.476   2.464 -1.0801 -1.6122 -1.5137
 2724TIP3   OH2 8135   2.665   1.007   5.669 -0.1430 -1.0738 -0.3080
 2724TIP3    H1 8136   2.707   0.978   5.750 -1.1890  2.2525  1.5757
 2724TIP3    H2 8137   2.577   1.034   5.695  0.0759  1.8231 -2.1216
 2725TIP3   OH2 8138   0.255   4.160   0.454 -0.1829  0.3236  0.2664
 2725TIP3    H1 8139   0.170   4.201   0.467 -0.4181  0.1506 -0.6675
 2725TIP3    H2 8140   0.311   4.200   0.521 -0.8667  0.8113  0.5605
 2726TIP3   OH2 8141   2.475   3.246   4.283  0.3903 -0.2950 -0.3796
 2726TIP3    H1 8142   2.549   3.240   4.223  0.3956  1.6732 -0.6361
 2726TIP3    H2 8143   2.505   3.201   4.362  2.9960  2.6462  0.5278
 2727TIP3   OH2 8144   1.531   3.469   3.869  0.5924 -0.0194  0.0841
 2727TIP3    H1 8145   1.511   3.463   3.963  3.6970  0.3403  0.8878
 2727TIP3    H2 8146   1.540   3.379   3.840  3.4502 -0.1690  1.1738
 2728TIP3   OH2 8147   5.567   3.619   4.603  0.0537  0.6384  0.0495
 2728TIP3    H1 8148   5.626   3.569   4.546 -0.2955  0.1300  0.1249
 2728TIP3    H2 8149   5.511   3.553   4.644  1.2869  0.8179  2.1829
 2729TIP3   OH2 8150   1.797   5.573   5.134  0.3202  0.2589  0.2433
 2729TIP3    H1 8151   1.732   5.505   5.153 -0.7760  1.7683  2.3348
 2729TIP3    H2 8152   1.806   5.621   5.217  1.2898  2.4401 -1.0400
 2730TIP3   OH2 8153   7.090   4.800   1.687  0.1650  0.0411 -0.0929
 2730TIP3    H1 8154   7.040   4.790   1.767 -1.5937 -0.3694 -1.1898
 2730TIP3    H2 8155   7.059   4.883   1.649 -0.0818 -0.4657 -1.0373
 2731TIP3   OH2 8156   4.335   4.308   5.014  0.7614  0.5705 -0.0981
 2731TIP3    H1 8157   4.246   4.341   5.026  0.1283 -0.0453 -2.4878
 2731TIP3    H2 8158   4.391   4.372   5.059 -0.7857  1.7869  0.1917
 2732TIP3   OH2 8159   6.196   0.545   2.525  0.4479  0.0442  0.0502
 2732TIP3    H1 8160   6.248   0.495   2.462  0.1631 -1.9032  1.2829
 2732TIP3    H2 8161   6.251   0.620   2.547  0.8195  0.4190 -1.9750
 2733TIP3   OH2 8162   6.491   6.101   3.852 -0.3132 -0.7886  0.2729
 2733TIP3    H1 8163   6.420   6.083   3.914 -0.6946  1.7958  0.7096
 2733TIP3    H2 8164   6.570   6.072   3.898 -0.5714  1.1876  2.1123
 2734TIP3   OH2 8165   4.951   1.304   0.352  0.0892 -0.7441  0.0027
 2734TIP3    H1 8166   4.886   1.265   0.293 -0.2449 -0.4555  0.1796
 2734TIP3    H2 8167   5.014   1.234   0.368 -0.4866 -1.2019  0.2836
 2735TIP3   OH2 8168   2.376   0.570   1.718  0.3351 -0.4960  0.4984
 2735TIP3    H1 8169   2.318   0.515   1.771 -1.5067  1.3531  0.5643
 2735TIP3    H2 8170   2.461   0.565   1.762 -0.1495 -2.0696  1.3340
 2736TIP3   OH2 8171   3.110   4.565   2.279  0.3241  0.3481 -0.2038
 2736TIP3    H1 8172   3.109   4.629   2.351  2.3457 -2.1328  2.2351
 2736TIP3    H2 8173   3.199   4.569   2.245 -0.1271  0.2407 -1.4343
 2737TIP3   OH2 8174   3.976   2.250   5.745  0.4538  0.0356 -0.2922
 2737TIP3    H1 8175   3.995   2.329   5.794  1.6270  0.1791 -0.9469
 2737TIP3    H2 8176   3.880   2.246   5.741  0.3842  1.5671 -0.4874
 2738TIP3   OH2 8177   6.457   3.052   5.431 -0.2073  0.0102 -0.3708
 2738TIP3    H1 8178   6.374   3.082   5.394  1.0028  2.6121 -1.2210
 2738TIP3    H2 8179   6.479   2.973   5.381 -1.3997  0.1901 -1.2152
 2739TIP3   OH2 8180   5.501   4.797   2.647 -0.0412  0.0323  0.4800
 2739TIP3    H1 8181   5.560   4.800   2.572 -0.3010  1.5444  0.3124
 2739TIP3    H2 8182   5.418   4.766   2.610 -0.5633  2.0793 -0.1746
 2740TIP3   OH2 8183   2.460   4.445   0.670  0.0324 -0.3500 -0.0391
 2740TIP3    H1 8184   2.447   4.398   0.588  2.3372 -0.9667 -0.0993
 2740TIP3    H2 8185   2.407   4.525   0.659 -1.3418 -1.3600 -1.2443
 2741TIP3   OH2 8186   5.331   1.055   3.308  0.1168 -0.2799 -0.4290
 2741TIP3    H1 8187   5.395   1.109   3.355 -1.2712  0.9560  0.1310
 2741TIP3    H2 8188   5.357   0.965   3.328  1.5303  0.1833 -0.0428
 2742TIP3   OH2 8189   1.117   4.230   2.115 -0.6195 -0.0289  0.2798
 2742TIP3    H1 8190   1.138   4.255   2.025  0.3120 -0.1477  0.4482
 2742TIP3    H2 8191   1.117   4.313   2.164  0.6712 -0.1347  0.4970
 2743TIP3   OH2 8192   3.240   3.338   0.411  0.7625  0.5810 -0.0255
 2743TIP3    H1 8193   3.318   3.363   0.362 -0.2029  0.5002 -1.6666
 2743TIP3    H2 8194   3.188   3.417   0.416 -0.0630  0.1184 -0.9436
 2744TIP3   OH2 8195   3.193   1.511   1.761  0.1410  0.5371 -0.3385
 2744TIP3    H1 8196   3.245   1.501   1.681 -1.8355 -0.1782 -1.6168
 2744TIP3    H2 8197   3.105   1.530   1.729 -0.3398  2.1407  1.7435
 2745TIP3   OH2 8198   3.036   5.427   0.589 -0.8555 -1.0267 -0.2106
 2745TIP3    H1 8199   2.976   5.489   0.631  0.9756 -0.5835  1.9723
 2745TIP3    H2 8200   3.046   5.459   0.500 -1.9833  0.2801  0.1040
 2746TIP3   OH2 8201   5.201   1.784   5.409 -0.7243  1.3124 -0.3872
 2746TIP3    H1 8202   5.240   1.780   5.496  1.1009  2.8307 -1.0507
 2746TIP3    H2 8203   5.128   1.845   5.418 -1.1782  0.6928  0.2622
 2747TIP3   OH2 8204   3.753   0.064   2.799  0.1633 -0.6581  0.0026
 2747TIP3    H1 8205   3.801   0.023   2.727 -0.5531 -2.7068  0.5974
 2747TIP3    H2 8206   3.761   0.001   2.871 -0.3863  0.6347  1.2335
 2748TIP3   OH2 8207   6.068   5.447   1.721 -0.6432  0.1718 -0.2503
 2748TIP3    H1 8208   6.004   5.492   1.776 -1.8641  0.0853 -1.5501
 2748TIP3    H2 8209   6.016   5.387   1.668  0.2978  1.1750 -2.4392
 2749TIP3   OH2 8210   0.488   1.202   1.080 -0.2126 -0.5198  0.1505
 2749TIP3    H1 8211   0.438   1.216   1.160 -1.2790 -0.8722 -0.4253
 2749TIP3    H2 8212   0.530   1.286   1.062  0.3943 -0.5668  1.2997
 2750TIP3   OH2 8213   2.166   6.486   0.955  0.1705 -0.6863  0.2433
 2750TIP3    H1 8214   2.127   6.562   0.911  0.6379 -0.0964  0.8346
 2750TIP3    H2 8215   2.120   6.480   1.038  1.1033 -0.1662  0.8174
 2751TIP3   OH2 8216   5.231   0.821   5.229 -0.0729 -0.3571  0.1736
 2751TIP3    H1 8217   5.259   0.756   5.294 -0.3810 -0.6507  0.0133
 2751TIP3    H2 8218   5.154   0.783   5.188  0.3166 -0.3272 -0.6089
 2752TIP3   OH2 8219   5.617   0.444   3.825 -0.2561 -0.0812  0.2261
 2752TIP3    H1 8220   5.559   0.507   3.782 -1.5405 -0.6427  1.0865
 2752TIP3    H2 8221   5.558   0.380   3.865  0.9926 -1.5897 -0.2233
 2753TIP3   OH2 8222   2.205   0.606   3.990 -0.1057 -0.5315 -0.1418
 2753TIP3    H1 8223   2.138   0.551   3.951 -0.6125  0.1267 -0.2173
 2753TIP3    H2 8224   2.170   0.695   3.984  0.4780 -0.2528  0.4256
 2754TIP3   OH2 8225   4.386   0.760   1.330  0.1876 -0.3544 -0.2872
 2754TIP3    H1 8226   4.353   0.672   1.345 -0.1526  0.0229  1.2883
 2754TIP3    H2 8227   4.380   0.804   1.415  1.7669  0.7197 -0.6758
 2755TIP3   OH2 8228   5.774   5.140   1.609  0.1022 -0.3117  0.1385
 2755TIP3    H1 8229   5.848   5.197   1.629  0.1516  0.5600 -2.2263
 2755TIP3    H2 8230   5.812   5.052   1.603  0.9784  0.1354 -1.1134
 2756TIP3   OH2 8231   0.859   6.185   1.120 -0.0111 -0.2840 -0.1240
 2756TIP3    H1 8232   0.811   6.143   1.191 -1.1990  1.6556  0.2748
 2756TIP3    H2 8233   0.874   6.114   1.057 -0.8984 -1.5577  1.0254
 2757TIP3   OH2 8234   3.369   1.598   4.321 -0.1826 -0.3279  0.0845
 2757TIP3    H1 8235   3.416   1.606   4.405  1.1826  2.5261 -0.8427
 2757TIP3    H2 8236   3.288   1.646   4.335 -2.0330 -3.4200  0.9789
 2758TIP3   OH2 8237   1.285   3.245   5.295 -0.0464 -0.1423 -0.1033
 2758TIP3    H1 8238   1.281   3.165   5.243 -0.0010  0.6268 -1.3411
 2758TIP3    H2 8239   1.243   3.223   5.378  0.7389 -1.6864 -0.0781
 2759TIP3   OH2 8240   0.910   2.979   4.967  0.4079 -0.0867 -0.5701
 2759TIP3    H1 8241   0.959   3.057   4.941  1.9180 -0.8164 -0.0082
 2759TIP3    H2 8242   0.875   2.944   4.885  2.9666 -0.9433 -1.3821
 2760TIP3   OH2 8243   7.151   2.944   2.164 -0.3279 -0.4547 -0.4228
 2760TIP3    H1 8244   7.105   2.902   2.236 -1.5030  2.8097  0.8895
 2760TIP3    H2 8245   7.109   2.909   2.085  1.5352 -4.7249  0.1984
 2761TIP3   OH2 8246   5.652   1.414   3.623  0.6950 -0.7488 -0.1544
 2761TIP3    H1 8247   5.704   1.461   3.557  2.6007 -2.3859  0.0828
 2761TIP3    H2 8248   5.699   1.428   3.705 -0.8458  0.0397  0.6362
 2762TIP3   OH2 8249   1.067   3.209   4.971  0.4089  0.7313  0.2648
 2762TIP3    H1 8250   1.138   3.244   4.916  0.6412 -1.2023 -0.7415
 2762TIP3    H2 8251   1.014   3.285   4.993  1.1497  1.7863 -1.4205
 2763TIP3   OH2 8252   2.539   4.309   2.554  0.9015 -0.0774 -0.8410
 2763TIP3    H1 8253   2.476   4.274   2.491 -2.3513 -0.8263  2.4884
 2763TIP3    H2 8254   2.514   4.401   2.564  1.0933 -0.0840 -0.3088
 2764TIP3   OH2 8255   7.019   0.091   3.603  0.0931 -0.3643 -0.3975
 2764TIP3    H1 8256   7.030   0.115   3.511  0.7849 -2.7237 -0.9726
 2764TIP3    H2 8257   7.021  -0.004   3.604 -0.5089 -0.4148  2.0124
 2765TIP3   OH2 8258   5.826   4.089   5.403 -0.1389  0.7305 -0.3106
 2765TIP3    H1 8259   5.767   4.164   5.398  0.5463  1.2150 -1.3261
 2765TIP3    H2 8260   5.803   4.035   5.328 -1.2341 -0.5645  0.8979
 2766TIP3   OH2 8261   7.081   0.350   3.719  0.2130  0.1277  0.8338
 2766TIP3    H1 8262   7.042   0.270   3.685 -2.3948  1.2549  0.9460
 2766TIP3    H2 8263   7.027   0.373   3.795  0.2526  2.4595  0.2386
 2767TIP3   OH2 8264   2.802   3.164   0.640  0.4547 -0.1482  0.4573
 2767TIP3    H1 8265   2.855   3.154   0.719  1.1295  0.1929  0.0564
 2767TIP3    H2 8266   2.803   3.258   0.622  1.1119 -0.3271 -0.4969
 2768TIP3   OH2 8267   3.868   2.052   5.004  0.1293 -0.2261  0.8750
 2768TIP3    H1 8268   3.875   2.050   4.909  0.3317 -1.1993  0.8985
 2768TIP3    H2 8269   3.785   2.098   5.021 -0.8953 -1.7048  0.1505
 2769TIP3   OH2 8270   4.124   3.435   3.357 -0.1873 -0.0606 -0.2752
 2769TIP3    H1 8271   4.217   3.419   3.373 -0.2203 -0.3995 -0.4168
 2769TIP3    H2 8272   4.097   3.365   3.297 -0.8556 -0.7943  0.8183
 2770TIP3   OH2 8273   6.036   4.586   3.037  0.6077 -0.3623  0.2262
 2770TIP3    H1 8274   6.071   4.599   3.125  1.5020 -0.3405 -0.1257
 2770TIP3    H2 8275   6.088   4.514   3.001 -0.5323 -1.1844  0.1249
 2771TIP3   OH2 8276   0.069   4.476   0.757  0.4434 -0.1161  0.2776
 2771TIP3    H1 8277   0.101   4.566   0.755 -0.0483  0.0805  1.0927
 2771TIP3    H2 8278  -0.024   4.483   0.736  0.6431 -0.5716 -0.8904
 2772TIP3   OH2 8279   4.763   3.139   3.946  0.6116 -0.1309  0.2494
 2772TIP3    H1 8280   4.846   3.091   3.936  0.2893 -1.1574  2.0967
 2772TIP3    H2 8281   4.785   3.214   4.000  0.5610  0.3020 -0.3183
 2773TIP3   OH2 8282   0.090   5.331   0.719 -0.0295  0.7546 -0.1533
 2773TIP3    H1 8283   0.079   5.241   0.689  0.1875  0.9025 -0.6906
 2773TIP3    H2 8284   0.011   5.350   0.769 -0.6059  0.6509 -1.0092
 2774TIP3   OH2 8285   7.080   4.877   0.124 -0.1334  0.0024  0.2521
 2774TIP3    H1 8286   7.063   4.938   0.052  0.9089  1.2541  1.0443
 2774TIP3    H2 8287   7.026   4.801   0.102 -0.3057  0.5757 -1.5437
 2775TIP3   OH2 8288   2.921   2.707   4.456 -0.5257  0.2101  0.0947
 2775TIP3    H1 8289   2.882   2.640   4.511  0.7440  0.4904  1.4021
 2775TIP3    H2 8290   2.992   2.744   4.509  1.4848 -0.2441 -2.0992
 2776TIP3   OH2 8291   2.572   6.122   2.281 -0.2829 -0.1353  0.6510
 2776TIP3    H1 8292   2.663   6.141   2.304 -0.0149  0.2909 -0.6663
 2776TIP3    H2 8293   2.541   6.066   2.351  0.5655  0.8499  1.8587
 2777TIP3   OH2 8294   5.156   3.842   2.466  0.1288 -0.4925  0.3276
 2777TIP3    H1 8295   5.250   3.849   2.484  0.0640 -0.5400  0.6841
 2777TIP3    H2 8296   5.122   3.930   2.480  0.4843  0.0688 -1.9624
 2778TIP3   OH2 8297   4.974   6.415   3.453 -0.2615  0.0635 -0.3554
 2778TIP3    H1 8298   5.036   6.471   3.406  0.2148  0.5227  0.7848
 2778TIP3    H2 8299   4.910   6.476   3.491  1.3502  0.1230  2.5387
 2779TIP3   OH2 8300   5.145   5.459   1.677 -0.2819 -0.4048  0.1047
 2779TIP3    H1 8301   5.205   5.400   1.724 -1.9154 -1.6185  0.7516
 2779TIP3    H2 8302   5.173   5.452   1.586  0.9958 -0.4057  0.4744
 2780TIP3   OH2 8303   2.464   1.250   2.985  0.1041 -0.3136 -0.0737
 2780TIP3    H1 8304   2.371   1.269   2.975  0.2364  0.5648  0.2987
 2780TIP3    H2 8305   2.472   1.214   3.074  0.4291  1.8117  0.8171
 2781TIP3   OH2 8306   6.451   6.420   3.192 -0.0864  0.2476  0.4781
 2781TIP3    H1 8307   6.362   6.444   3.168  0.1048  1.0277  0.5182
 2781TIP3    H2 8308   6.493   6.397   3.109 -0.0705  0.7412  0.3506
 2782TIP3   OH2 8309   0.085   2.618   3.234  0.2874  0.5724  0.1421
 2782TIP3    H1 8310   0.168   2.666   3.237  0.3321  0.5115 -0.1207
 2782TIP3    H2 8311   0.056   2.626   3.143 -0.1980  0.9326  0.3299
 2783TIP3   OH2 8312   1.071   0.839   3.423  0.0508  0.4211 -0.2256
 2783TIP3    H1 8313   1.120   0.779   3.480 -0.1337 -0.2442 -0.7462
 2783TIP3    H2 8314   1.063   0.792   3.340  1.6318  2.0040 -1.3266
 2784TIP3   OH2 8315   1.012   4.949   2.537 -0.3242 -0.0005  0.4891
 2784TIP3    H1 8316   1.074   5.011   2.499  0.4850 -1.2061 -0.2508
 2784TIP3    H2 8317   1.018   4.964   2.631  1.1656 -0.1293  0.4410
 2785TIP3   OH2 8318   2.526   2.554   0.325  0.8145 -0.1748 -0.1081
 2785TIP3    H1 8319   2.509   2.550   0.419 -0.1491  2.3789 -0.1199
 2785TIP3    H2 8320   2.468   2.488   0.288 -2.2311  1.8165  0.7587
 2786TIP3   OH2 8321   3.998   5.251   5.059  0.4021 -0.2698  0.6782
 2786TIP3    H1 8322   4.048   5.272   4.979 -1.1027 -1.5467 -0.6793
 2786TIP3    H2 8323   4.044   5.176   5.096  0.6075 -0.2269  0.5174
 2787TIP3   OH2 8324   6.075   5.095   2.698  0.0922  0.1200 -0.2093
 2787TIP3    H1 8325   6.157   5.139   2.721 -0.2276  0.0554  1.1362
 2787TIP3    H2 8326   6.007   5.145   2.744 -0.5663 -0.1428 -0.8834
 2788TIP3   OH2 8327   5.745   0.299   5.232  0.0307  0.2374 -0.0036
 2788TIP3    H1 8328   5.698   0.224   5.267  0.2173 -1.3465 -2.7794
 2788TIP3    H2 8329   5.678   0.364   5.213 -0.2863  0.3081  1.3170
 2789TIP3   OH2 8330   2.959   4.658   2.028 -0.3139 -0.1847  0.1568
 2789TIP3    H1 8331   2.944   4.617   2.114 -0.4307 -0.1337  0.1618
 2789TIP3    H2 8332   2.992   4.746   2.049 -0.1087 -0.2584  0.1468
 2790TIP3   OH2 8333   4.231   1.248   2.467  0.0349  0.1766  0.3389
 2790TIP3    H1 8334   4.156   1.298   2.436 -0.1885 -0.9421 -1.0385
 2790TIP3    H2 8335   4.218   1.242   2.562 -1.6378 -0.0067  0.1253
 2791TIP3   OH2 8336   5.124   3.241   3.213 -0.2833  0.0987 -0.4645
 2791TIP3    H1 8337   5.209   3.248   3.257 -0.1289  1.3569 -0.9207
 2791TIP3    H2 8338   5.144   3.203   3.128  0.0587  1.7391 -1.1492
 2792TIP3   OH2 8339   3.565   3.111   1.914  0.3650 -0.2574  0.9483
 2792TIP3    H1 8340   3.559   3.016   1.920 -1.0676 -0.2527  0.0691
 2792TIP3    H2 8341   3.631   3.127   1.847 -1.1023 -0.7132 -0.6767
 2793TIP3   OH2 8342   5.873   4.334   1.991  0.1647 -0.4234  0.0214
 2793TIP3    H1 8343   5.966   4.319   1.972 -0.3779 -0.2780 -3.2404
 2793TIP3    H2 8344   5.853   4.418   1.951 -1.6087 -0.9203 -0.2295
 2794TIP3   OH2 8345   5.326   5.233   3.436  0.0633 -0.2231  0.0706
 2794TIP3    H1 8346   5.386   5.272   3.500  0.8518 -0.3735 -0.5535
 2794TIP3    H2 8347   5.379   5.167   3.391 -0.9780 -1.3655  0.4671
 2795TIP3   OH2 8348   6.539   3.902   3.999 -0.4778  0.5852 -0.0763
 2795TIP3    H1 8349   6.497   3.906   3.914 -1.1615 -0.7372  0.1716
 2795TIP3    H2 8350   6.489   3.963   4.053 -0.8572  0.4847 -0.3049
 2796TIP3   OH2 8351   2.030   6.777   5.672  0.1565 -0.0778 -0.0664
 2796TIP3    H1 8352   1.976   6.703   5.644 -0.3788  0.1650  0.3051
 2796TIP3    H2 8353   2.056   6.819   5.590  0.8676 -0.9439 -0.3033
 2797TIP3   OH2 8354   2.229   6.129   4.760 -0.0272 -0.1004  0.1447
 2797TIP3    H1 8355   2.211   6.037   4.740  1.3165 -0.2311 -0.5779
 2797TIP3    H2 8356   2.322   6.139   4.743 -0.5126  1.8867 -1.8106
 2798TIP3   OH2 8357   3.631   5.803   3.370 -0.3887  0.4041 -0.2561
 2798TIP3    H1 8358   3.699   5.856   3.329  0.3690  0.8482  1.4966
 2798TIP3    H2 8359   3.667   5.714   3.372 -0.1232  0.5191  0.0992
 2799TIP3   OH2 8360   2.549   5.383   3.469  0.1576 -0.3853 -0.0625
 2799TIP3    H1 8361   2.550   5.427   3.553  0.0379 -1.7263  0.6631
 2799TIP3    H2 8362   2.466   5.336   3.466 -0.1705  0.2278 -1.2498
 2800TIP3   OH2 8363   5.890   1.122   2.200 -0.1063 -0.2269 -0.0826
 2800TIP3    H1 8364   5.908   1.176   2.276 -0.3933  1.7278 -1.3411
 2800TIP3    H2 8365   5.974   1.116   2.154  0.0892 -1.4688  0.3959
 2801TIP3   OH2 8366   2.092   5.591   1.000 -0.7393  0.1566 -0.1090
 2801TIP3    H1 8367   2.127   5.562   1.085  0.6310  1.0498 -0.3298
 2801TIP3    H2 8368   2.037   5.666   1.021 -0.1737  0.5551 -0.0174
 2802TIP3   OH2 8369   2.060   4.577   3.186 -0.1850  0.2177  0.5472
 2802TIP3    H1 8370   2.152   4.604   3.186 -0.5651  2.1406 -2.9205
 2802TIP3    H2 8371   2.062   4.483   3.164  0.9780  0.5357 -0.8511
 2803TIP3   OH2 8372   5.170   4.137   2.088 -0.5859 -1.0244  0.1271
 2803TIP3    H1 8373   5.157   4.146   2.182  0.0584  2.6577  0.0203
 2803TIP3    H2 8374   5.241   4.199   2.068 -0.3441 -2.0698 -2.7308
 2804TIP3   OH2 8375   2.946   2.612   3.106 -0.5704  0.0884  0.0018
 2804TIP3    H1 8376   3.012   2.674   3.075  0.7779 -0.9869  0.6097
 2804TIP3    H2 8377   2.922   2.562   3.028  1.1888 -1.1454  0.1910
 2805TIP3   OH2 8378   0.998   0.145   0.875  0.2091 -0.0533  0.4970
 2805TIP3    H1 8379   0.917   0.160   0.923  0.2850 -0.1302  0.6517
 2805TIP3    H2 8380   0.987   0.059   0.834 -0.1453  0.3297 -0.2244
 2806TIP3   OH2 8381   4.395   6.663   0.215 -0.2876  0.6462  0.1334
 2806TIP3    H1 8382   4.432   6.748   0.190 -0.4278  0.2641 -1.5257
 2806TIP3    H2 8383   4.375   6.620   0.131 -1.8869 -0.3009  0.9489
 2807TIP3   OH2 8384   3.572   4.242   2.555 -0.6887  0.0841 -0.3070
 2807TIP3    H1 8385   3.510   4.283   2.496  0.0589  0.7713 -0.6342
 2807TIP3    H2 8386   3.625   4.184   2.500 -1.0021 -0.4699 -0.0383
 2808TIP3   OH2 8387   0.023   5.249   4.121  0.1260 -0.2803 -0.5466
 2808TIP3    H1 8388  -0.064   5.236   4.084 -1.6841  2.7582  2.1008
 2808TIP3    H2 8389   0.051   5.334   4.088  1.4545 -0.5673 -0.2319
 2809TIP3   OH2 8390   6.630   1.530   3.304  0.3651 -0.0412  0.1605
 2809TIP3    H1 8391   6.674   1.494   3.227  3.0218  0.6281  1.2363
 2809TIP3    H2 8392   6.669   1.618   3.314 -2.6794  1.4303  0.1333
 2810TIP3   OH2 8393   0.657   3.214   5.159  0.1455  0.3215 -0.0421
 2810TIP3    H1 8394   0.584   3.220   5.221 -1.0991 -0.6978 -1.3287
 2810TIP3    H2 8395   0.618   3.235   5.074  1.6855  1.1373 -0.5719
 2811TIP3   OH2 8396   0.807   2.472   2.857  0.4542  0.0088  0.1723
 2811TIP3    H1 8397   0.713   2.460   2.844  0.4289  0.8374 -0.4976
 2811TIP3    H2 8398   0.838   2.388   2.892 -0.5128 -0.2957  0.3140
 2812TIP3   OH2 8399   5.745   2.907   1.949  0.2565  0.1236 -0.1414
 2812TIP3    H1 8400   5.750   2.930   1.856 -0.5563  1.7783  0.1870
 2812TIP3    H2 8401   5.653   2.883   1.962  0.4750 -0.5798  0.1487
 2813TIP3   OH2 8402   3.908   3.111   5.305 -0.0940  0.0209 -0.0019
 2813TIP3    H1 8403   3.833   3.070   5.262 -1.1615  1.1486  0.6889
 2813TIP3    H2 8404   3.952   3.039   5.351  0.3780 -0.9831 -1.9350
 2814TIP3   OH2 8405   4.014   2.729   5.123 -0.1158 -0.6709  0.0467
 2814TIP3    H1 8406   4.079   2.770   5.066  0.7904  1.3882  2.3883
 2814TIP3    H2 8407   4.064   2.699   5.199 -1.7160  0.3140  1.5711
 2815TIP3   OH2 8408   3.557   3.810   4.879 -0.1390 -0.2514 -0.0165
 2815TIP3    H1 8409   3.558   3.781   4.971 -0.8542 -0.8279 -0.1732
 2815TIP3    H2 8410   3.468   3.843   4.866  0.4232  1.3179 -0.0742
 2816TIP3   OH2 8411   6.957   2.780   4.107 -0.7895 -0.4708  0.0441
 2816TIP3    H1 8412   6.967   2.872   4.131 -0.7124 -0.6410  0.6711
 2816TIP3    H2 8413   6.894   2.781   4.035 -0.7021  0.0815 -0.0312
 2817TIP3   OH2 8414   0.535   1.458   3.792 -0.6449  0.0761  0.2773
 2817TIP3    H1 8415   0.575   1.371   3.784  1.5038  1.0844 -1.1785
 2817TIP3    H2 8416   0.610   1.517   3.805 -1.8733  1.8715 -0.4266
 2818TIP3   OH2 8417   5.281   6.448   1.875  0.3386  0.3030 -0.6752
 2818TIP3    H1 8418   5.228   6.520   1.910 -0.7081 -0.9822  0.5045
 2818TIP3    H2 8419   5.368   6.486   1.862  0.1909  1.4348  1.2993
 2819TIP3   OH2 8420   2.713   5.640   1.627 -0.1749 -0.0682 -0.2224
 2819TIP3    H1 8421   2.769   5.706   1.669  0.1705 -2.0277  2.7481
 2819TIP3    H2 8422   2.774   5.571   1.600 -0.7528 -0.3165 -0.9120
 2820TIP3   OH2 8423   6.823   3.420   0.795  0.6842 -0.7374 -0.3587
 2820TIP3    H1 8424   6.772   3.422   0.876 -1.4699 -0.3460 -1.6532
 2820TIP3    H2 8425   6.772   3.473   0.733  2.3781 -0.8283 -1.9175
 2821TIP3   OH2 8426   6.608   1.541   5.658  0.2918 -0.1043 -0.7653
 2821TIP3    H1 8427   6.623   1.498   5.573 -0.6727  0.1821 -1.0987
 2821TIP3    H2 8428   6.516   1.569   5.654  0.1211 -0.4253  0.5323
 2822TIP3   OH2 8429   1.264   6.089   3.977  0.7001 -0.1738 -0.0542
 2822TIP3    H1 8430   1.353   6.059   3.997  0.2987  0.0968  2.4317
 2822TIP3    H2 8431   1.270   6.184   3.979  0.1244 -0.1464  1.4878
 2823TIP3   OH2 8432   1.700   2.859   0.387 -0.1746  0.0423  0.2045
 2823TIP3    H1 8433   1.698   2.845   0.481  1.9475  0.2366  0.3215
 2823TIP3    H2 8434   1.762   2.794   0.354 -0.2701  0.5101 -0.9604
 2824TIP3   OH2 8435   0.134   1.574   0.088  0.5504  0.3380  0.5665
 2824TIP3    H1 8436   0.198   1.627   0.136  1.6684 -1.8065  1.5878
 2824TIP3    H2 8437   0.186   1.505   0.047 -0.6136  1.0234 -2.3172
 2825TIP3   OH2 8438   4.168   2.873   4.368 -0.4513  0.2102  0.0093
 2825TIP3    H1 8439   4.114   2.911   4.437 -0.9208  1.5577 -1.0542
 2825TIP3    H2 8440   4.119   2.888   4.288 -0.3686 -2.1877 -0.5594
 2826TIP3   OH2 8441   7.011   0.113   1.763  0.0691  0.3567 -0.5212
 2826TIP3    H1 8442   6.945   0.044   1.768  0.5482 -0.1160 -0.6158
 2826TIP3    H2 8443   6.965   0.192   1.790 -0.8182  0.2329 -1.6324
 2827TIP3   OH2 8444   3.930   3.234   0.452 -0.0690  0.2421 -0.0156
 2827TIP3    H1 8445   3.903   3.252   0.362  1.3115  1.8520 -0.1406
 2827TIP3    H2 8446   3.902   3.311   0.502  0.7959  0.1920  0.5753
 2828TIP3   OH2 8447   4.283   0.426   0.720 -0.8723  0.9740  0.7392
 2828TIP3    H1 8448   4.367   0.470   0.737 -0.2528  0.0950  0.0429
 2828TIP3    H2 8449   4.306   0.334   0.709 -1.2606  1.1955 -3.7748
 2829TIP3   OH2 8450   1.585   5.854   0.668  0.0228 -0.0846  0.0395
 2829TIP3    H1 8451   1.575   5.776   0.723  0.3052 -0.1438  0.0086
 2829TIP3    H2 8452   1.583   5.927   0.729  0.0049 -0.1325  0.0960
 2830TIP3   OH2 8453   3.759   4.611   4.582 -0.4714 -0.3165 -0.0453
 2830TIP3    H1 8454   3.739   4.704   4.566 -0.5005  0.0316  1.7969
 2830TIP3    H2 8455   3.673   4.570   4.594 -0.3877 -0.2298  0.8684
 2831TIP3   OH2 8456   0.795   5.360   0.577 -0.2718  0.0202 -0.3028
 2831TIP3    H1 8457   0.890   5.371   0.570 -0.3775  1.0589 -0.3533
 2831TIP3    H2 8458   0.779   5.349   0.670 -0.2844  2.1577  0.0041
 2832TIP3   OH2 8459   3.001   5.048   4.674 -0.1176 -0.4909  0.3891
 2832TIP3    H1 8460   3.048   5.074   4.595  1.7393 -0.3154  1.4782
 2832TIP3    H2 8461   3.056   4.980   4.713 -1.2042 -0.8769  1.2953
 2833TIP3   OH2 8462   1.788   5.249   2.751 -0.2582 -0.1768  0.0987
 2833TIP3    H1 8463   1.771   5.188   2.679 -0.5849  0.5318 -0.4419
 2833TIP3    H2 8464   1.875   5.284   2.733 -0.0473 -0.5223  0.4394
 2834TIP3   OH2 8465   5.370   3.432   2.156  0.2904  0.6588 -0.4038
 2834TIP3    H1 8466   5.455   3.433   2.198  0.4685  0.4307 -0.7485
 2834TIP3    H2 8467   5.333   3.519   2.173 -1.0058 -0.4179  2.9348
 2835TIP3   OH2 8468  -0.024   3.690   0.432 -0.3295  0.0736  0.1710
 2835TIP3    H1 8469   0.010   3.779   0.422 -1.6009  0.5894  0.2654
 2835TIP3    H2 8470   0.031   3.651   0.500  2.3915 -0.3639 -2.0677
 2836TIP3   OH2 8471   5.905   1.147   4.794  1.0072  0.2543 -0.0362
 2836TIP3    H1 8472   5.856   1.180   4.869  0.5343  0.7101 -0.5392
 2836TIP3    H2 8473   5.838   1.107   4.738  1.4081 -0.4383 -0.0315
 2837TIP3   OH2 8474   2.913   0.630   4.346 -0.1353  0.3196  0.1614
 2837TIP3    H1 8475   2.884   0.541   4.365  1.6221 -0.2600  0.3276
 2837TIP3    H2 8476   2.842   0.668   4.294 -2.0917 -0.2661  2.2579
 2838TIP3   OH2 8477   3.375   5.891   0.995  0.7125 -0.1636 -0.6241
 2838TIP3    H1 8478   3.366   5.976   1.038  1.1861 -0.1314 -0.5765
 2838TIP3    H2 8479   3.375   5.828   1.067  0.6347 -0.1821 -0.6403
 2839TIP3   OH2 8480   1.337   0.643   0.905 -0.0659 -0.5991  0.3361
 2839TIP3    H1 8481   1.268   0.581   0.925 -0.3888  0.1279  1.5157
 2839TIP3    H2 8482   1.393   0.644   0.983  0.0865  0.3818  0.2298
 2840TIP3   OH2 8483   2.295   5.538   3.117 -0.3706  0.0750  0.7525
 2840TIP3    H1 8484   2.258   5.527   3.029 -0.5065 -0.6185  0.8947
 2840TIP3    H2 8485   2.359   5.608   3.106  1.2173 -1.4531 -0.4158
 2841TIP3   OH2 8486   0.274   2.595   1.421 -0.0400 -0.7721 -0.2501
 2841TIP3    H1 8487   0.268   2.502   1.399 -0.9467 -0.5774 -0.8801
 2841TIP3    H2 8488   0.311   2.636   1.344 -1.6516 -0.3243 -0.8234
 2842TIP3   OH2 8489   1.832   3.237   5.768 -0.2111  0.2450 -0.5795
 2842TIP3    H1 8490   1.813   3.225   5.674  0.6490 -0.3756 -0.6837
 2842TIP3    H2 8491   1.911   3.186   5.783 -0.5887 -0.0129  0.5918
 2843TIP3   OH2 8492   6.424   3.723   0.640  0.0468 -0.5346 -0.3498
 2843TIP3    H1 8493   6.484   3.713   0.714 -0.0706  0.3100 -0.1312
 2843TIP3    H2 8494   6.441   3.810   0.606 -1.0185 -0.2880 -0.3046
 2844TIP3   OH2 8495   3.386   3.898   0.704  0.8966 -0.5909 -0.2827
 2844TIP3    H1 8496   3.349   3.814   0.677 -0.4805 -0.1256  0.0647
 2844TIP3    H2 8497   3.369   3.903   0.798  0.2536  0.4055 -0.4367
 2845TIP3   OH2 8498   5.478   3.982   1.217  0.1759  0.1229  0.6387
 2845TIP3    H1 8499   5.409   3.942   1.164  0.1798  2.2484 -1.0951
 2845TIP3    H2 8500   5.434   4.053   1.264  0.6759 -0.2249  1.6637
 2846TIP3   OH2 8501   6.286   2.028   5.676  0.0743  0.1909  0.1804
 2846TIP3    H1 8502   6.315   2.120   5.675  0.6656  0.0361  1.1125
 2846TIP3    H2 8503   6.290   2.004   5.769 -0.1068 -0.7674 -0.0585
 2847TIP3   OH2 8504   6.593   3.473   1.384 -0.5966 -0.4030 -0.2530
 2847TIP3    H1 8505   6.503   3.477   1.351 -0.9476  2.3867  0.7730
 2847TIP3    H2 8506   6.585   3.430   1.469 -0.6264 -1.9049 -0.9879
 2848TIP3   OH2 8507   0.750   0.007   3.340  0.3549  0.1384  0.0593
 2848TIP3    H1 8508   0.749   0.088   3.288 -1.7263  2.1578  2.9062
 2848TIP3    H2 8509   0.663  -0.031   3.327  0.7431 -0.7647  0.0402
 2849TIP3   OH2 8510   5.050   1.560   3.826  0.3020 -0.1870 -0.2369
 2849TIP3    H1 8511   4.995   1.482   3.816  2.1998 -1.4927 -1.2036
 2849TIP3    H2 8512   5.136   1.525   3.851  1.7558  1.3837 -2.6048
 2850TIP3   OH2 8513   2.294   2.214   1.983  0.2536 -0.1083 -0.1136
 2850TIP3    H1 8514   2.284   2.300   2.023  0.5116 -0.2528  0.2732
 2850TIP3    H2 8515   2.314   2.156   2.057  2.7754 -0.0440 -0.6580
 2851TIP3   OH2 8516   2.770   5.322   0.813 -0.1113 -0.3987 -0.5202
 2851TIP3    H1 8517   2.722   5.367   0.882  1.4765  2.0513 -0.8593
 2851TIP3    H2 8518   2.801   5.393   0.756  2.2090 -1.9868 -1.3759
 2852TIP3   OH2 8519   0.413   1.843  -0.008 -0.0383  0.4712 -0.4236
 2852TIP3    H1 8520   0.329   1.872  -0.041 -0.1069 -1.5426 -2.2735
 2852TIP3    H2 8521   0.396   1.817   0.083 -1.6260 -0.6362 -0.9989
 2853TIP3   OH2 8522   5.031   1.304   0.649 -0.2535  0.1058  0.9534
 2853TIP3    H1 8523   5.030   1.242   0.576 -1.9520 -0.1089  1.1356
 2853TIP3    H2 8524   5.109   1.358   0.633  0.6145 -1.3178  0.1724
 2854TIP3   OH2 8525   0.828   2.402   5.478  0.9205 -0.4347 -0.1799
 2854TIP3    H1 8526   0.866   2.453   5.406  2.0105 -1.1504 -0.1484
 2854TIP3    H2 8527   0.806   2.318   5.438  4.0381 -1.8548  0.7888
 2855TIP3   OH2 8528   2.335   4.955   4.314  0.0546 -0.5682 -0.2602
 2855TIP3    H1 8529   2.249   4.985   4.344  0.0565 -0.7409 -0.0834
 2855TIP3    H2 8530   2.359   5.017   4.246 -0.3142 -0.6473 -0.4691
 2856TIP3   OH2 8531   5.069   3.556   5.574  0.6083 -0.2204  0.5357
 2856TIP3    H1 8532   5.125   3.591   5.643  0.6055 -0.3300  0.5951
 2856TIP3    H2 8533   5.046   3.631   5.520  2.0785 -0.4129 -0.3992
 2857TIP3   OH2 8534   1.741   5.640   2.726  0.1795  0.9035  0.3361
 2857TIP3    H1 8535   1.697   5.571   2.676  1.7169  2.1870 -3.1152
 2857TIP3    H2 8536   1.770   5.597   2.806 -1.8604 -1.5214 -0.0979
 2858TIP3   OH2 8537   3.978   6.127   2.443  0.2817  0.1247  0.4526
 2858TIP3    H1 8538   3.925   6.183   2.387 -0.8622 -1.3262  0.0259
 2858TIP3    H2 8539   4.048   6.095   2.386 -0.3359 -0.6018  0.0915
 2859TIP3   OH2 8540   3.619   5.953   0.824 -0.4782  0.1983  0.1448
 2859TIP3    H1 8541   3.679   5.880   0.839  0.1944  0.2799 -1.8316
 2859TIP3    H2 8542   3.543   5.932   0.878  0.2505 -1.2717  0.6761
 2860TIP3   OH2 8543   2.807   5.918   2.134 -0.3568  0.1181  0.4092
 2860TIP3    H1 8544   2.772   5.847   2.081  0.1962  0.5925 -0.6197
 2860TIP3    H2 8545   2.871   5.961   2.078  0.1431  0.7326  1.4149
 2861TIP3   OH2 8546   3.177   0.507   2.419  0.0216  0.0026  0.5091
 2861TIP3    H1 8547   3.222   0.444   2.475  0.3803 -0.2622 -0.0739
 2861TIP3    H2 8548   3.232   0.585   2.423 -0.1336  0.0975  0.7966
 2862TIP3   OH2 8549   6.789   0.398   4.220 -0.3498 -0.7248  0.0912
 2862TIP3    H1 8550   6.812   0.319   4.170  1.1896  1.2722 -2.6052
 2862TIP3    H2 8551   6.716   0.437   4.172 -1.5038 -0.7310  1.7411
 2863TIP3   OH2 8552   4.295   3.520   0.314 -0.5404  0.2388  0.2869
 2863TIP3    H1 8553   4.382   3.510   0.275 -0.4724 -1.1074  0.7379
 2863TIP3    H2 8554   4.235   3.508   0.240 -0.3639  1.5929 -0.1072
 2864TIP3   OH2 8555   0.304   1.774   4.988 -0.1550  0.6877 -0.7335
 2864TIP3    H1 8556   0.260   1.727   4.917 -0.8426  2.0651 -1.2643
 2864TIP3    H2 8557   0.278   1.865   4.976  0.3687  1.0750  0.8246
 2865TIP3   OH2 8558   4.938   4.195   4.484  0.9218 -0.2632  0.5309
 2865TIP3    H1 8559   4.889   4.129   4.535 -0.2904 -0.2024 -0.5109
 2865TIP3    H2 8560   5.028   4.187   4.516  0.4761 -1.2452  1.6349
 2866TIP3   OH2 8561   0.645   1.587   5.540 -0.1707 -0.5598 -0.0356
 2866TIP3    H1 8562   0.684   1.534   5.610 -0.9746 -1.2456 -0.0854
 2866TIP3    H2 8563   0.698   1.568   5.463  1.4353  1.0733  0.5999
 2867TIP3   OH2 8564   5.489   3.175   2.163 -0.6231  0.0691  0.1658
 2867TIP3    H1 8565   5.431   3.252   2.163 -1.2409 -0.3939 -0.0904
 2867TIP3    H2 8566   5.435   3.104   2.131  0.1612 -0.3265 -0.3050
 2868TIP3   OH2 8567   1.139   4.819   4.382 -0.1813 -0.1597 -0.2613
 2868TIP3    H1 8568   1.199   4.894   4.384  0.6193 -0.8042  0.9695
 2868TIP3    H2 8569   1.193   4.744   4.406 -1.5037 -0.7259  1.0709
 2869TIP3   OH2 8570   3.978   6.112   5.225 -0.1771  0.3298 -0.4769
 2869TIP3    H1 8571   4.061   6.159   5.236 -0.7793  1.2307  0.4208
 2869TIP3    H2 8572   4.000   6.037   5.169  1.1831  0.6831 -0.4556
 2870TIP3   OH2 8573   4.652   5.642   0.580  0.3531  0.2739 -0.1518
 2870TIP3    H1 8574   4.597   5.701   0.631 -0.4600  1.3689 -2.1573
 2870TIP3    H2 8575   4.730   5.694   0.560 -0.1113  0.5185 -1.4379
 2871TIP3   OH2 8576   5.135   5.107   0.552  0.6615  0.0086  0.6319
 2871TIP3    H1 8577   5.191   5.147   0.485  0.8913 -0.5772  0.4615
 2871TIP3    H2 8578   5.097   5.181   0.599  0.3085  0.4465 -0.3036
 2872TIP3   OH2 8579   3.407   3.602   0.933  1.2024  0.1826  0.1545
 2872TIP3    H1 8580   3.418   3.693   0.961  0.3806  0.6053 -0.8373
 2872TIP3    H2 8581   3.317   3.580   0.958  1.1003 -0.0612 -0.4140
 2873TIP3   OH2 8582   6.825   0.058   1.367  0.6100 -0.6428 -0.1119
 2873TIP3    H1 8583   6.913   0.093   1.357  1.2357 -1.2472  2.4410
 2873TIP3    H2 8584   6.773   0.131   1.400  0.8066 -0.8842  0.7811
 2874TIP3   OH2 8585   0.076   4.641   4.342 -0.2255 -0.0368 -0.0003
 2874TIP3    H1 8586   0.065   4.663   4.434  0.5507  0.0382  0.0781
 2874TIP3    H2 8587   0.151   4.693   4.313  0.0287 -0.6408 -0.4700
 2875TIP3   OH2 8588   3.167   3.060   3.068  0.1663 -0.6952  0.5136
 2875TIP3    H1 8589   3.103   3.085   3.134  0.2154 -0.1695  0.3643
 2875TIP3    H2 8590   3.124   3.077   2.985  0.5922 -0.0906  0.4117
 2876TIP3   OH2 8591   0.652   3.510   0.663 -0.6973 -0.2099 -0.1003
 2876TIP3    H1 8592   0.719   3.488   0.729 -0.5963 -1.8544 -0.6949
 2876TIP3    H2 8593   0.603   3.429   0.651 -0.3842 -0.1238 -2.4253
 2877TIP3   OH2 8594   1.937   1.032   5.699 -0.2111 -0.5755  0.2554
 2877TIP3    H1 8595   1.843   1.049   5.699 -0.6463 -2.5390  1.8077
 2877TIP3    H2 8596   1.954   0.991   5.614 -1.1732 -1.9344  0.6736
 2878TIP3   OH2 8597   5.164   3.531   3.307  0.4870  0.3064 -0.7017
 2878TIP3    H1 8598   5.090   3.564   3.358 -0.2318  0.2816 -1.7093
 2878TIP3    H2 8599   5.139   3.442   3.282  1.0822  0.1091 -0.6257
 2879TIP3   OH2 8600   3.885   3.718   5.118 -0.2735  0.1659  0.0336
 2879TIP3    H1 8601   3.834   3.788   5.159 -1.1759 -0.2240 -0.4070
 2879TIP3    H2 8602   3.830   3.640   5.126  0.4080 -0.3415 -0.1377
 2880TIP3   OH2 8603   6.372   2.727   0.039 -0.6038 -0.0041 -0.7823
 2880TIP3    H1 8604   6.384   2.687   0.125 -3.2854  0.2752 -0.1854
 2880TIP3    H2 8605   6.375   2.821   0.057 -1.4006  0.0545 -0.9424
 2881TIP3   OH2 8606   3.745   3.750   5.527  0.1121  0.7918 -0.0215
 2881TIP3    H1 8607   3.677   3.687   5.552  1.8044 -1.1811 -0.1648
 2881TIP3    H2 8608   3.768   3.794   5.608  0.5320 -0.4677  0.5691
 2882TIP3   OH2 8609   6.599   1.051   4.960  0.3786 -0.2352 -0.5147
 2882TIP3    H1 8610   6.643   1.098   4.890  0.5852  0.7423  0.2383
 2882TIP3    H2 8611   6.511   1.087   4.961 -0.6390 -2.4294 -2.2443
 2883TIP3   OH2 8612   3.021   3.569   3.117  0.0143  0.2386  0.1196
 2883TIP3    H1 8613   3.037   3.581   3.211  1.7199  1.5689 -0.2744
 2883TIP3    H2 8614   3.049   3.479   3.099  2.0084  0.7330  0.5071
 2884TIP3   OH2 8615   1.520   4.214   1.742  0.4852 -0.5820 -0.0402
 2884TIP3    H1 8616   1.520   4.265   1.823 -0.4637 -0.8580  0.1476
 2884TIP3    H2 8617   1.549   4.276   1.675 -1.7534  0.5820 -0.0205
 2885TIP3   OH2 8618   5.982   4.513   4.951 -0.3884 -0.4769 -0.0241
 2885TIP3    H1 8619   5.888   4.503   4.966 -0.6151 -1.2596 -1.7117
 2885TIP3    H2 8620   6.022   4.448   5.009 -0.9042 -0.4542  0.3680
 2886TIP3   OH2 8621   5.603   5.570   2.626  0.1749  0.0063  0.0464
 2886TIP3    H1 8622   5.602   5.522   2.708  0.2242  0.9514  0.6108
 2886TIP3    H2 8623   5.563   5.655   2.647 -0.2499  0.0839 -1.0085
 2887TIP3   OH2 8624   4.806   1.910   4.893  0.8433  0.1375  0.1114
 2887TIP3    H1 8625   4.890   1.943   4.862  1.0465  0.4476  0.9657
 2887TIP3    H2 8626   4.768   1.867   4.816  2.0446 -0.5461 -0.1409
 2888TIP3   OH2 8627   4.628   1.870   0.491 -0.2720  0.1148 -0.1657
 2888TIP3    H1 8628   4.605   1.938   0.555 -1.0612  1.3122 -1.6357
 2888TIP3    H2 8629   4.544   1.835   0.462  0.1169 -1.2024  0.2248
 2889TIP3   OH2 8630   0.239   0.865   5.316 -0.5184  0.0231 -0.2590
 2889TIP3    H1 8631   0.249   0.785   5.368 -0.6570  0.2636  0.1405
 2889TIP3    H2 8632   0.314   0.919   5.342  1.4518 -1.2226 -2.8445
 2890TIP3   OH2 8633   3.725   4.120   2.361  0.2322 -0.2186 -0.3190
 2890TIP3    H1 8634   3.730   4.027   2.341  1.9141 -0.0809 -0.6820
 2890TIP3    H2 8635   3.707   4.162   2.277 -2.2761 -0.2947  0.1121
 2891TIP3   OH2 8636   6.437   0.841   0.477  0.3727 -0.2000 -0.5360
 2891TIP3    H1 8637   6.427   0.873   0.566 -2.3445 -1.1688 -0.3811
 2891TIP3    H2 8638   6.476   0.754   0.487 -1.7570 -1.1689 -0.0266
 2892TIP3   OH2 8639   2.010   0.684   1.067  0.5676  0.1414 -0.2045
 2892TIP3    H1 8640   2.043   0.739   0.997 -0.6996  0.3380 -0.6658
 2892TIP3    H2 8641   2.074   0.613   1.074 -0.3946 -1.1525 -3.1077
 2893TIP3   OH2 8642   3.653   1.005   2.056 -0.7893  0.4418  0.4046
 2893TIP3    H1 8643   3.609   1.053   1.986 -1.4897  0.7865  1.0733
 2893TIP3    H2 8644   3.600   0.927   2.070  0.3774 -0.6185 -0.7175
 2894TIP3   OH2 8645   0.271   1.541   1.849  0.3752  0.3481 -0.0049
 2894TIP3    H1 8646   0.341   1.488   1.811 -0.2141  0.1545 -0.8271
 2894TIP3    H2 8647   0.246   1.602   1.780 -1.7532 -1.0082 -0.5002
 2895TIP3   OH2 8648   4.571   4.349   1.503 -0.3790  0.4297  0.2761
 2895TIP3    H1 8649   4.535   4.391   1.425 -1.1627  0.9235  0.8892
 2895TIP3    H2 8650   4.574   4.256   1.481  0.7216  0.6967 -0.8459
 2896TIP3   OH2 8651   5.288   2.198   4.039  0.2746 -0.4642  0.0350
 2896TIP3    H1 8652   5.383   2.206   4.033  0.2491  0.1369  0.3461
 2896TIP3    H2 8653   5.265   2.246   4.118 -0.3413 -0.1062 -0.3553
 2897TIP3   OH2 8654   4.318   3.490   5.749  0.1539 -0.5179  0.2287
 2897TIP3    H1 8655   4.311   3.415   5.691  0.8041  0.5847 -1.3462
 2897TIP3    H2 8656   4.408   3.521   5.737  0.3909 -0.4167  2.0447
 2898TIP3   OH2 8657   1.651   3.686   3.630 -0.1706 -0.0674  0.6598
 2898TIP3    H1 8658   1.560   3.662   3.648 -0.1673 -0.6633 -0.0836
 2898TIP3    H2 8659   1.646   3.774   3.592 -0.6210 -0.7852 -1.0532
 2899TIP3   OH2 8660   3.431   4.323   0.198  0.2415  0.1287 -0.5572
 2899TIP3    H1 8661   3.417   4.353   0.108  0.0434 -0.8218 -0.8479
 2899TIP3    H2 8662   3.443   4.404   0.248 -1.1317  0.7515 -1.1719
 2900TIP3   OH2 8663   5.860   6.764   3.573  0.1419  0.0420  0.0868
 2900TIP3    H1 8664   5.818   6.713   3.504 -1.3144 -0.1056  1.0248
 2900TIP3    H2 8665   5.891   6.843   3.529  1.1418 -0.9864 -1.1120
 2901TIP3   OH2 8666   5.559   4.065   5.233  0.0292  0.0279 -0.0244
 2901TIP3    H1 8667   5.555   4.160   5.242 -0.7260 -0.1020  1.0785
 2901TIP3    H2 8668   5.468   4.037   5.234  0.2879 -0.7929  0.5802
 2902TIP3   OH2 8669   4.215   3.573   4.686 -0.3624  0.1576 -0.2982
 2902TIP3    H1 8670   4.208   3.574   4.781 -1.1001 -0.6651 -0.3270
 2902TIP3    H2 8671   4.172   3.654   4.658 -0.2845  0.3246  0.0577
 2903TIP3   OH2 8672   4.987   2.712   5.802  0.5461  0.2271  0.6177
 2903TIP3    H1 8673   4.935   2.735   5.879  0.1946 -3.2893  1.6055
 2903TIP3    H2 8674   5.060   2.660   5.837 -0.8775 -3.5260 -1.3819
 2904TIP3   OH2 8675   6.806   4.923   0.684  0.4560 -0.5198  0.2538
 2904TIP3    H1 8676   6.888   4.969   0.663  0.4221 -1.5703 -2.8365
 2904TIP3    H2 8677   6.739   4.969   0.633 -0.4790 -1.0064  1.0184
 2905TIP3   OH2 8678   0.247   0.680   4.280 -0.0280  0.0724 -0.3600
 2905TIP3    H1 8679   0.200   0.714   4.204  0.5071 -0.7088 -1.0542
 2905TIP3    H2 8680   0.319   0.629   4.243  1.7891  1.7702  0.6459
 2906TIP3   OH2 8681   1.964   3.549   1.237 -0.0243  0.1329 -0.8386
 2906TIP3    H1 8682   1.898   3.596   1.288  0.9557 -1.9012  2.6670
 2906TIP3    H2 8683   1.923   3.464   1.218  0.8593 -0.4124 -0.3592
 2907TIP3   OH2 8684   2.132   2.997   1.879  0.1926 -0.0701 -0.4118
 2907TIP3    H1 8685   2.104   3.000   1.971  0.5829 -0.2362 -0.2822
 2907TIP3    H2 8686   2.195   2.924   1.876 -0.5557 -0.7036 -1.0248
 2908TIP3   OH2 8687   0.776   0.631   0.894  0.0079 -0.3852 -1.1992
 2908TIP3    H1 8688   0.791   0.556   0.836 -0.1956 -0.1430 -1.5687
 2908TIP3    H2 8689   0.685   0.621   0.922  0.6481 -1.5849  0.6521
 2909TIP3   OH2 8690   3.379   2.582   1.590  0.4742  0.1743  0.0117
 2909TIP3    H1 8691   3.443   2.617   1.528  1.1347  0.9114  1.0837
 2909TIP3    H2 8692   3.319   2.530   1.536  0.7680  1.1514 -1.3043
 2910TIP3   OH2 8693   0.210   0.399   3.263 -0.2584 -0.1616 -0.5951
 2910TIP3    H1 8694   0.298   0.397   3.298 -0.8086 -1.0345  0.8323
 2910TIP3    H2 8695   0.215   0.456   3.186  1.8631 -1.4226 -1.4628
 2911TIP3   OH2 8696   4.727   1.840   1.871 -0.0156 -0.3484 -0.1608
 2911TIP3    H1 8697   4.699   1.753   1.899 -1.1715 -0.2025 -0.8200
 2911TIP3    H2 8698   4.741   1.888   1.953  0.9727 -1.2275  0.2184
 2912TIP3   OH2 8699   2.523   1.933   0.677 -0.3936  0.1055  0.0561
 2912TIP3    H1 8700   2.592   1.921   0.611 -0.0918 -1.2230  0.5814
 2912TIP3    H2 8701   2.452   1.876   0.649 -1.0490  1.0068 -0.1504
 2913TIP3   OH2 8702   2.901   0.073   4.202 -0.2280 -0.2650 -0.6173
 2913TIP3    H1 8703   2.857   0.149   4.165  0.4730  0.5249  0.1341
 2913TIP3    H2 8704   2.869   0.067   4.292  0.7519 -0.0061 -0.2306
 2914TIP3   OH2 8705   1.152   5.266   0.868 -0.3908 -0.3492 -0.1466
 2914TIP3    H1 8706   1.224   5.288   0.928  0.7553 -1.9538 -0.8652
 2914TIP3    H2 8707   1.074   5.304   0.909  0.7824  1.0176  0.9043
 2915TIP3   OH2 8708   0.335   1.465   1.486  0.4725 -0.3779  0.0348
 2915TIP3    H1 8709   0.376   1.448   1.571  1.0991  1.2436  0.0883
 2915TIP3    H2 8710   0.383   1.539   1.450 -1.3739  0.5681 -0.6371
 2916TIP3   OH2 8711   3.348   0.874   5.398 -0.5792  0.0259 -0.4251
 2916TIP3    H1 8712   3.327   0.820   5.475 -1.0546  0.0545 -0.5362
 2916TIP3    H2 8713   3.302   0.832   5.326  0.2448 -0.2779 -0.7959
 2917TIP3   OH2 8714   5.757   6.541   2.924 -0.1794  0.2478 -0.3864
 2917TIP3    H1 8715   5.732   6.628   2.956  0.7956  1.1013 -1.8405
 2917TIP3    H2 8716   5.695   6.523   2.853 -2.5725 -1.8025  2.0068
 2918TIP3   OH2 8717   5.074   5.165   3.817  0.1107  0.0012 -0.4067
 2918TIP3    H1 8718   5.065   5.247   3.865 -0.5382 -0.6854  0.6910
 2918TIP3    H2 8719   4.990   5.121   3.830  0.3291 -0.6926 -1.2653
 2919TIP3   OH2 8720   0.358   3.012   1.886  0.6102  0.3016  0.0636
 2919TIP3    H1 8721   0.339   2.985   1.796  3.3134 -2.4391  0.1526
 2919TIP3    H2 8722   0.280   2.985   1.935 -0.3264  0.5647 -1.2139
 2920TIP3   OH2 8723   6.470   2.792   2.045  0.4839  0.2188 -0.9730
 2920TIP3    H1 8724   6.387   2.778   2.089  0.3965 -0.6185 -1.3810
 2920TIP3    H2 8725   6.466   2.883   2.014 -0.4781  0.0486 -1.3970
 2921TIP3   OH2 8726   4.034   6.306   4.215 -0.3590 -0.0000 -0.3831
 2921TIP3    H1 8727   4.050   6.386   4.164  1.7453 -1.3145 -1.9757
 2921TIP3    H2 8728   4.036   6.334   4.306  0.1601  1.7852 -0.9043
 2922TIP3   OH2 8729   4.262   4.879   5.393  0.5001  0.6817 -0.5385
 2922TIP3    H1 8730   4.285   4.898   5.302  1.2510 -2.4405 -1.1342
 2922TIP3    H2 8731   4.334   4.914   5.445  1.3766  0.2508 -1.4277
 2923TIP3   OH2 8732   5.275   5.680   4.097  0.4079  0.4564 -0.5381
 2923TIP3    H1 8733   5.215   5.753   4.111  0.5506  0.6778 -1.0878
 2923TIP3    H2 8734   5.361   5.721   4.085  0.7790  0.1195  0.7891
 2924TIP3   OH2 8735   4.613   6.478   0.080  0.2324 -0.0641  0.9200
 2924TIP3    H1 8736   4.678   6.427   0.127  1.3706  0.0433 -0.4783
 2924TIP3    H2 8737   4.664   6.536   0.023 -1.0610  0.0750 -0.1536
 2925TIP3   OH2 8738   6.105   6.507   3.860 -0.0501 -0.3103 -0.2210
 2925TIP3    H1 8739   6.129   6.435   3.801 -0.4004 -0.2581 -0.4291
 2925TIP3    H2 8740   6.016   6.531   3.833 -0.0922 -0.0796  0.1257
 2926TIP3   OH2 8741   2.086   5.079   4.387  0.0697  0.3080  0.3334
 2926TIP3    H1 8742   2.039   5.147   4.435 -0.1358  0.2415  0.2252
 2926TIP3    H2 8743   2.030   5.002   4.391 -1.2673  1.0201 -2.3023
 2927TIP3   OH2 8744   6.011   1.499   3.003  0.1059 -0.3960  0.2018
 2927TIP3    H1 8745   6.047   1.423   3.048 -0.1227 -0.9667 -0.5613
 2927TIP3    H2 8746   6.083   1.530   2.947  0.1324 -0.1782  0.3562
 2928TIP3   OH2 8747   5.446   5.763   3.776 -0.1924  0.1356 -0.1194
 2928TIP3    H1 8748   5.494   5.795   3.852 -1.3995 -0.7058  1.0580
 2928TIP3    H2 8749   5.355   5.789   3.793 -0.9576 -2.4187  0.1236
 2929TIP3   OH2 8750   0.178   2.200   5.492 -0.1958  0.1932  0.2992
 2929TIP3    H1 8751   0.135   2.273   5.447 -0.0399  0.4251  0.5211
 2929TIP3    H2 8752   0.108   2.137   5.507 -0.3895  0.4157  0.3453
 2930TIP3   OH2 8753   2.044   0.445   5.227 -0.4298 -0.3391  0.4127
 2930TIP3    H1 8754   2.013   0.360   5.257  1.0719 -0.1188  2.8264
 2930TIP3    H2 8755   2.096   0.426   5.149 -3.0999 -1.1350 -1.3057
 2931TIP3   OH2 8756   3.199   0.625   1.455  0.2419  0.0520  0.1781
 2931TIP3    H1 8757   3.224   0.679   1.530 -1.6928 -0.7709  1.5080
 2931TIP3    H2 8758   3.116   0.663   1.425 -0.2406 -1.0779  0.0107
 2932TIP3   OH2 8759   1.036   4.536   1.802 -0.1682 -0.4156  0.4224
 2932TIP3    H1 8760   0.950   4.521   1.841 -0.2424 -2.0164 -0.2917
 2932TIP3    H2 8761   1.017   4.576   1.717 -0.1703 -0.1876  0.5291
 2933TIP3   OH2 8762   5.590   1.304   5.236 -0.2940  0.1489 -0.4468
 2933TIP3    H1 8763   5.628   1.246   5.302 -1.4188 -0.9963 -0.7727
 2933TIP3    H2 8764   5.547   1.372   5.286 -0.5888 -0.3547 -0.0094
 2934TIP3   OH2 8765   1.129   4.399   3.402 -0.3786  0.0900  0.2003
 2934TIP3    H1 8766   1.101   4.484   3.367 -0.1244  0.3715  0.6747
 2934TIP3    H2 8767   1.066   4.336   3.366 -1.3781  0.6578  0.9234
 2935TIP3   OH2 8768   6.649   1.884   4.852 -0.1147  0.3629 -0.5087
 2935TIP3    H1 8769   6.736   1.862   4.820  0.1873  0.8842 -0.0520
 2935TIP3    H2 8770   6.640   1.978   4.834 -1.4654 -0.0975 -2.6356
 2936TIP3   OH2 8771   2.829   5.905   0.447  0.4297 -0.5436 -0.1866
 2936TIP3    H1 8772   2.824   5.888   0.353 -1.6003 -1.7204  0.0788
 2936TIP3    H2 8773   2.892   5.841   0.480 -0.8226 -1.9578 -0.4179
 2937TIP3   OH2 8774   5.169   5.987   0.389 -0.0945  0.6454 -0.0624
 2937TIP3    H1 8775   5.161   5.894   0.368 -0.7126  0.4316  1.0264
 2937TIP3    H2 8776   5.262   6.000   0.406 -0.1251  0.0031  0.6725
 2938TIP3   OH2 8777   6.328   1.490   5.742 -0.4996  0.2873  0.1467
 2938TIP3    H1 8778   6.331   1.422   5.675 -3.6992 -0.7729  0.8819
 2938TIP3    H2 8779   6.402   1.471   5.799  0.4217 -0.7311 -1.3298
 2939TIP3   OH2 8780   2.551   0.323   0.311  0.3727  0.1506  0.1964
 2939TIP3    H1 8781   2.617   0.336   0.379  0.0844  2.2022  0.1393
 2939TIP3    H2 8782   2.469   0.308   0.359  0.7881 -2.3530  0.2664
 2940TIP3   OH2 8783   2.583   4.487   5.515  0.5294  0.2552 -0.4341
 2940TIP3    H1 8784   2.527   4.565   5.511 -1.6373 -1.2399 -0.8272
 2940TIP3    H2 8785   2.619   4.488   5.604 -1.2127  0.5560  0.2985
 2941TIP3   OH2 8786   2.388   3.056   2.773 -0.1943  0.2936 -0.5801
 2941TIP3    H1 8787   2.447   2.997   2.819 -1.4337  0.8425  1.8623
 2941TIP3    H2 8788   2.417   3.052   2.682  1.5375 -1.8787 -0.0258
 2942TIP3   OH2 8789   0.110   6.422   2.889  0.2485  0.4465  0.0890
 2942TIP3    H1 8790   0.074   6.376   2.965 -3.3045  0.3903 -1.4070
 2942TIP3    H2 8791   0.165   6.491   2.926  1.4520 -1.6590  2.5283
 2943TIP3   OH2 8792   1.122   0.995   3.075  0.3312 -0.5112  0.2437
 2943TIP3    H1 8793   1.079   1.068   3.119  1.0663 -0.3180  0.6600
 2943TIP3    H2 8794   1.050   0.938   3.047 -0.2608  0.4184 -0.1867
 2944TIP3   OH2 8795   6.330   0.205   3.659 -0.0315  0.0463  0.0954
 2944TIP3    H1 8796   6.363   0.294   3.652 -2.2688  0.9653  0.3067
 2944TIP3    H2 8797   6.356   0.177   3.747  0.7405  0.4524  0.0080
 2945TIP3   OH2 8798   4.113   5.619   4.722 -0.1416  0.0847  0.0532
 2945TIP3    H1 8799   4.053   5.597   4.794  1.6361 -4.1835  0.5457
 2945TIP3    H2 8800   4.149   5.704   4.746 -1.6057  0.0516  2.7764
 2946TIP3   OH2 8801   3.246   6.433   1.649  0.4994 -0.2122 -0.1764
 2946TIP3    H1 8802   3.248   6.337   1.652  0.4515 -0.2216 -0.4232
 2946TIP3    H2 8803   3.174   6.457   1.708  0.3239 -0.3420 -0.3348
 2947TIP3   OH2 8804   0.860   5.466   4.558 -0.4114 -0.3888  0.0569
 2947TIP3    H1 8805   0.887   5.558   4.549 -2.6162  0.2682 -0.7347
 2947TIP3    H2 8806   0.896   5.422   4.481 -0.0077  0.0004  0.0208
 2948TIP3   OH2 8807   1.368   3.847   1.410 -0.0111  0.2708 -0.5454
 2948TIP3    H1 8808   1.360   3.929   1.459  0.7491  0.5007 -0.7834
 2948TIP3    H2 8809   1.405   3.786   1.474 -1.7268 -0.2462 -0.0097
 2949TIP3   OH2 8810   1.070   6.457   1.259  0.4911  0.3807  0.5090
 2949TIP3    H1 8811   1.111   6.522   1.316  1.2338  0.5774 -0.2196
 2949TIP3    H2 8812   0.996   6.502   1.220  0.8303  0.7005  0.2292
 2950TIP3   OH2 8813   4.082   6.213   3.878  0.0499  0.8001  0.4350
 2950TIP3    H1 8814   4.051   6.298   3.908  1.1987  0.3917  3.0795
 2950TIP3    H2 8815   4.116   6.171   3.957  0.3837 -1.7456 -0.9602
 2951TIP3   OH2 8816   4.094   1.619   0.930  0.0592 -0.0602  0.1611
 2951TIP3    H1 8817   4.019   1.563   0.910  0.4072 -0.1306 -1.0835
 2951TIP3    H2 8818   4.119   1.596   1.019 -1.7538  0.3917  0.8237
 2952TIP3   OH2 8819   5.415   1.457   2.062  0.1234  0.0106  0.2193
 2952TIP3    H1 8820   5.395   1.530   2.003  2.3644  1.5501  1.2137
 2952TIP3    H2 8821   5.479   1.404   2.014  0.5235  0.2147  0.5217
 2953TIP3   OH2 8822   6.773   4.492   0.776  0.1360  0.2566 -0.3698
 2953TIP3    H1 8823   6.750   4.581   0.805  0.5418 -0.5283  2.6812
 2953TIP3    H2 8824   6.693   4.442   0.787  0.6134 -0.3183  0.6505
 2954TIP3   OH2 8825   5.724   5.899   4.366 -0.3802  0.8121 -0.2756
 2954TIP3    H1 8826   5.794   5.965   4.365 -0.9018  1.3880 -1.9599
 2954TIP3    H2 8827   5.750   5.835   4.300 -1.7825  1.4605 -1.5283
 2955TIP3   OH2 8828   3.539   4.221   1.534 -0.1252  0.3715  0.2295
 2955TIP3    H1 8829   3.592   4.300   1.525  0.3369 -0.0721 -1.2221
 2955TIP3    H2 8830   3.449   4.252   1.524 -0.1272  1.0059  1.8747
 2956TIP3   OH2 8831   2.369   2.934   0.697 -0.3206 -0.4003  0.1273
 2956TIP3    H1 8832   2.301   2.870   0.720 -1.4017  0.9679  0.9117
 2956TIP3    H2 8833   2.428   2.887   0.639 -1.3775 -1.9432  0.2500
 2957TIP3   OH2 8834   6.290   3.022   5.129  0.3128 -0.4744  0.1147
 2957TIP3    H1 8835   6.237   3.085   5.080  0.4768 -1.3102 -1.1730
 2957TIP3    H2 8836   6.258   3.030   5.219  1.0759  2.2226  0.2382
 2958TIP3   OH2 8837   2.658   0.832   3.170  0.5678 -0.5407 -0.3937
 2958TIP3    H1 8838   2.650   0.857   3.078 -1.9569 -0.9238 -0.3404
 2958TIP3    H2 8839   2.605   0.897   3.217  1.6846 -0.4505  0.7929
 2959TIP3   OH2 8840   1.141   6.506   3.911  0.6218  0.3693 -0.3557
 2959TIP3    H1 8841   1.122   6.514   3.817 -0.7122  0.4429 -0.0887
 2959TIP3    H2 8842   1.142   6.596   3.942 -3.2877  0.2937  0.4918
 2960TIP3   OH2 8843   2.457   6.647   4.135  0.1973  0.2419 -0.3798
 2960TIP3    H1 8844   2.449   6.629   4.041 -0.9962 -0.1879 -0.2163
 2960TIP3    H2 8845   2.527   6.589   4.165  0.2160 -0.0148 -0.9090
 2961TIP3   OH2 8846   5.507   3.734   3.711  0.1803 -0.1738  0.1628
 2961TIP3    H1 8847   5.457   3.658   3.739  0.6179  0.3203  2.4538
 2961TIP3    H2 8848   5.577   3.743   3.776  2.5004 -0.0464 -2.1499
 2962TIP3   OH2 8849   1.269   3.843   2.133 -0.2500 -0.6546  0.2153
 2962TIP3    H1 8850   1.292   3.907   2.201  1.1409 -1.8617  0.9376
 2962TIP3    H2 8851   1.250   3.896   2.056  2.5153  0.6437  0.2842
 2963TIP3   OH2 8852   3.388   1.675   3.262  0.1477 -0.7060  0.2451
 2963TIP3    H1 8853   3.339   1.598   3.292  1.2070 -0.8798  1.6620
 2963TIP3    H2 8854   3.322   1.732   3.223 -0.9125 -1.6382  0.6019
 2964TIP3   OH2 8855   3.757   0.324   4.581 -0.1866  1.0066 -0.3133
 2964TIP3    H1 8856   3.775   0.360   4.495  1.2967  2.1860  0.4235
 2964TIP3    H2 8857   3.729   0.399   4.634  0.7443  0.6983  0.6766
 2965TIP3   OH2 8858   3.355   0.136   1.926 -0.0848 -0.1466  0.0427
 2965TIP3    H1 8859   3.282   0.137   1.863 -0.6648  0.7279  0.7073
 2965TIP3    H2 8860   3.433   0.150   1.872 -0.5716  0.5383 -0.5049
 2966TIP3   OH2 8861   1.481   2.188   3.631  0.3624  0.1578  0.6216
 2966TIP3    H1 8862   1.396   2.197   3.672  0.5466  1.0544  0.8182
 2966TIP3    H2 8863   1.520   2.111   3.673 -0.5257 -0.5560  0.1819
 2967TIP3   OH2 8864   2.751   2.244   4.218 -0.0658 -0.0919  0.2055
 2967TIP3    H1 8865   2.846   2.249   4.223 -0.0275 -0.3324 -0.2567
 2967TIP3    H2 8866   2.725   2.199   4.299  0.1305  0.8439  0.7997
 2968TIP3   OH2 8867   3.670   0.062   0.479 -0.3415  0.4413 -0.1359
 2968TIP3    H1 8868   3.736  -0.007   0.483 -1.4250 -0.5814  0.8272
 2968TIP3    H2 8869   3.679   0.099   0.392 -0.3931 -1.6194 -1.0758
 2969TIP3   OH2 8870   0.541   1.577   4.380  0.3057  0.5693 -0.2937
 2969TIP3    H1 8871   0.635   1.563   4.391  0.1770 -0.6402 -0.5593
 2969TIP3    H2 8872   0.526   1.666   4.412  1.5514  0.8135 -0.3400
 2970TIP3   OH2 8873   5.793   0.468   3.620  0.1058  0.3400 -0.3932
 2970TIP3    H1 8874   5.876   0.421   3.626 -0.2656 -0.4289 -1.0886
 2970TIP3    H2 8875   5.733   0.422   3.678 -0.2612 -0.0641 -1.0791
 2971TIP3   OH2 8876   4.736   1.051   4.021 -0.2005 -0.2452  0.3620
 2971TIP3    H1 8877   4.668   1.111   3.989 -0.8840 -0.1854  1.8570
 2971TIP3    H2 8878   4.803   1.052   3.952  1.3161  4.5482  1.5472
 2972TIP3   OH2 8879   2.598   0.769   1.287 -0.1625  0.0838 -0.5391
 2972TIP3    H1 8880   2.637   0.714   1.218  3.7483  2.2161 -0.3309
 2972TIP3    H2 8881   2.599   0.857   1.250 -4.4197  0.4905 -0.1381
 2973TIP3   OH2 8882   4.004   1.082   2.207  0.3335  0.6416 -0.1803
 2973TIP3    H1 8883   3.915   1.099   2.237 -0.3868 -0.5510 -1.5466
 2973TIP3    H2 8884   4.043   1.027   2.274  0.4813  2.1104  1.0055
 2974TIP3   OH2 8885   3.545   6.249   2.605  0.7824 -0.1220  0.3201
 2974TIP3    H1 8886   3.471   6.200   2.567  0.3772 -0.0749  1.0410
 2974TIP3    H2 8887   3.517   6.270   2.694  1.1456  1.0090  0.1841
 2975TIP3   OH2 8888   4.645   3.306   4.875 -0.9759 -0.4757  0.2122
 2975TIP3    H1 8889   4.616   3.227   4.829 -2.3367  0.2210 -0.1855
 2975TIP3    H2 8890   4.689   3.359   4.808 -1.0926 -0.3854  0.2067
 2976TIP3   OH2 8891   2.804   5.734   2.387 -0.3864 -0.3623  0.3547
 2976TIP3    H1 8892   2.776   5.822   2.412  1.4655  0.3394  0.1447
 2976TIP3    H2 8893   2.731   5.698   2.337 -0.8862  1.3496 -0.2092
 2977TIP3   OH2 8894   1.332   3.091   1.206  0.8211  0.3080  0.1136
 2977TIP3    H1 8895   1.400   3.065   1.268  2.2779  0.4953 -1.3614
 2977TIP3    H2 8896   1.285   3.010   1.187  0.7203  0.1448  0.9983
 2978TIP3   OH2 8897   5.513   3.757   5.185  0.9040  0.0289 -0.6635
 2978TIP3    H1 8898   5.483   3.694   5.251  0.4975 -0.0436 -0.9122
 2978TIP3    H2 8899   5.452   3.831   5.194 -0.4704 -0.8254 -2.3346
 2979TIP3   OH2 8900   6.515   5.758   5.130  0.3620 -0.3007 -0.2584
 2979TIP3    H1 8901   6.501   5.668   5.099 -1.4256 -0.1681  0.0532
 2979TIP3    H2 8902   6.429   5.800   5.121  1.1532  1.3749 -0.3518
 2980TIP3   OH2 8903   6.705   0.383   0.813  0.2144 -0.4553 -0.7895
 2980TIP3    H1 8904   6.758   0.394   0.892  0.9500 -0.1048 -1.3220
 2980TIP3    H2 8905   6.620   0.421   0.835  0.7149  0.5195 -0.4769
 2981TIP3   OH2 8906   3.696   2.724   0.938 -0.7500  0.2466 -0.9025
 2981TIP3    H1 8907   3.726   2.803   0.893  1.7267 -1.1505 -1.9265
 2981TIP3    H2 8908   3.732   2.652   0.885 -3.6329 -1.6219 -0.5185
 2982TIP3   OH2 8909   6.335   4.023   2.350 -0.0179 -0.0030 -0.0184
 2982TIP3    H1 8910   6.311   4.104   2.306  1.6431  0.6122  0.1226
 2982TIP3    H2 8911   6.360   3.963   2.280 -3.2715 -1.2344 -0.3114
 2983TIP3   OH2 8912   6.216   2.303   4.491  0.0798  0.5909  0.7787
 2983TIP3    H1 8913   6.135   2.253   4.500  1.2192 -0.9798  3.1776
 2983TIP3    H2 8914   6.188   2.388   4.456 -2.5241 -0.0308  1.1791
 2984TIP3   OH2 8915   0.495   2.988   2.250  0.8950 -0.2855  0.3463
 2984TIP3    H1 8916   0.496   3.082   2.236  3.3567 -0.2757  0.1973
 2984TIP3    H2 8917   0.587   2.963   2.260  0.2958 -2.6093  0.8804
 2985TIP3   OH2 8918   3.013   0.698   1.699  0.2755 -0.6671 -0.4975
 2985TIP3    H1 8919   3.044   0.711   1.788  0.8432  0.2529 -0.8233
 2985TIP3    H2 8920   2.938   0.639   1.709  0.1421 -0.3407  0.6167
 2986TIP3   OH2 8921   2.655   0.738   1.580 -0.3396  0.1323 -0.9097
 2986TIP3    H1 8922   2.656   0.786   1.497  3.4190  0.1522 -1.0310
 2986TIP3    H2 8923   2.687   0.801   1.644  1.0201 -1.0820 -0.3397
 2987TIP3   OH2 8924   0.305   0.607   5.452  0.1285 -0.5567 -0.3703
 2987TIP3    H1 8925   0.283   0.530   5.505  1.0404 -0.8362 -0.3888
 2987TIP3    H2 8926   0.399   0.619   5.464 -0.0541  0.7518 -0.1257
 2988TIP3   OH2 8927   2.261   1.050   4.697  0.3288 -0.3243 -0.1596
 2988TIP3    H1 8928   2.176   1.017   4.667  0.4820  0.0938 -1.0955
 2988TIP3    H2 8929   2.324   1.013   4.635  0.6603  0.5615 -0.3628
 2989TIP3   OH2 8930   4.573   1.515   1.820 -0.2008  0.5362  0.0041
 2989TIP3    H1 8931   4.618   1.471   1.748 -0.4293  1.2081 -0.5601
 2989TIP3    H2 8932   4.483   1.482   1.815 -0.2018  0.5356  0.0255
 2990TIP3   OH2 8933   3.567   4.102   3.770 -0.0344  0.0709  0.3464
 2990TIP3    H1 8934   3.637   4.101   3.835  1.1507  0.9808 -0.8655
 2990TIP3    H2 8935   3.486   4.097   3.822  0.8878 -0.0275  1.8251
 2991TIP3   OH2 8936   6.516   2.134   0.655  0.5130  0.0981  0.7851
 2991TIP3    H1 8937   6.570   2.208   0.684 -0.7766  1.7352 -0.7624
 2991TIP3    H2 8938   6.480   2.162   0.571 -3.7875 -0.2984  2.2593
 2992TIP3   OH2 8939   1.267   2.648   4.126  0.2262  0.1460 -0.0306
 2992TIP3    H1 8940   1.204   2.719   4.117 -0.2920 -0.2828  0.1473
 2992TIP3    H2 8941   1.220   2.580   4.175  1.1978  0.2761  1.1328
 2993TIP3   OH2 8942   3.002   6.375   0.056 -0.1110  0.4625  0.4247
 2993TIP3    H1 8943   2.998   6.286   0.022  1.4903  0.0645  1.1644
 2993TIP3    H2 8944   3.002   6.431  -0.021  1.2940 -0.3121 -0.1722
 2994TIP3   OH2 8945   3.498   3.857   0.329 -0.3418 -0.6591  0.1938
 2994TIP3    H1 8946   3.523   3.796   0.399  0.9072 -0.4555 -0.0539
 2994TIP3    H2 8947   3.505   3.805   0.249  0.4307 -0.2744  0.0102
 2995TIP3   OH2 8948   5.323   5.449   4.267 -0.0979  0.3348  0.0795
 2995TIP3    H1 8949   5.374   5.373   4.239 -0.4467  0.0583  0.1866
 2995TIP3    H2 8950   5.326   5.509   4.192 -0.9437 -0.3564 -0.5275
 2996TIP3   OH2 8951   0.078   0.484   3.783  0.1157  0.2230  0.1297
 2996TIP3    H1 8952   0.134   0.473   3.707 -1.0281 -1.2449 -0.5424
 2996TIP3    H2 8953   0.008   0.420   3.771 -0.5819  0.5810  1.9662
 2997TIP3   OH2 8954   1.534   2.322   1.999 -0.3904  0.3848 -0.1185
 2997TIP3    H1 8955   1.600   2.264   2.036  0.1862  0.8913 -0.3412
 2997TIP3    H2 8956   1.494   2.364   2.075 -0.3706  0.1688  0.0125
 2998TIP3   OH2 8957   3.750   1.396   3.418 -0.5933  0.2761 -0.1516
 2998TIP3    H1 8958   3.831   1.369   3.462  0.1346  0.8801 -1.0790
 2998TIP3    H2 8959   3.704   1.313   3.401  0.7706 -0.2772 -1.3759
 2999TIP3   OH2 8960   0.726   4.894   3.708 -0.3107  0.5637 -0.0154
 2999TIP3    H1 8961   0.765   4.866   3.625  0.6579 -0.4977  0.7765
 2999TIP3    H2 8962   0.632   4.893   3.691 -0.1769 -0.5563 -0.8328
 3000TIP3   OH2 8963   1.310   0.599   4.821 -0.1383  0.9251  0.8240
 3000TIP3    H1 8964   1.393   0.643   4.836  0.5653 -0.3354  0.6961
 3000TIP3    H2 8965   1.323   0.547   4.742 -0.8237  0.1968  1.1659
 3001TIP3   OH2 8966   0.422   1.482   0.255 -0.4503  0.0882  0.2297
 3001TIP3    H1 8967   0.357   1.473   0.185  0.4283 -0.1895 -0.5775
 3001TIP3    H2 8968   0.505   1.495   0.208  0.1971 -0.3793  1.2211
 3002TIP3   OH2 8969   7.120   5.883   2.580 -0.1278 -0.1331  0.1411
 3002TIP3    H1 8970   7.186   5.952   2.588  0.1726 -0.6029  2.5600
 3002TIP3    H2 8971   7.158   5.809   2.628 -0.4557 -2.0235 -2.3588
 3003TIP3   OH2 8972   0.502   0.081   0.907 -0.1509  0.5305  0.1549
 3003TIP3    H1 8973   0.577   0.105   0.853  0.7375 -2.7388 -0.3090
 3003TIP3    H2 8974   0.499  -0.015   0.902 -4.8143  0.4497 -0.4862
 3004TIP3   OH2 8975   1.676   2.939   0.892  0.2786  0.0490 -0.0064
 3004TIP3    H1 8976   1.757   2.970   0.851  1.4085 -0.2587  1.8361
 3004TIP3    H2 8977   1.611   3.005   0.869  1.7674  1.9532  0.8703
 3005TIP3   OH2 8978   6.893   1.525   1.395 -0.1769 -0.3363  0.1038
 3005TIP3    H1 8979   6.970   1.494   1.444  0.0717 -2.0947 -1.2904
 3005TIP3    H2 8980   6.819   1.504   1.451  0.2589  0.3363  0.9657
 3006TIP3   OH2 8981   0.143   2.471   4.304  0.3438  0.3507 -0.4701
 3006TIP3    H1 8982   0.194   2.528   4.361  0.2163  1.1220 -1.1008
 3006TIP3    H2 8983   0.052   2.484   4.333  0.4276 -0.4976  0.2032
 3007TIP3   OH2 8984   1.401   4.365   0.606 -0.2819  0.1034 -0.4438
 3007TIP3    H1 8985   1.314   4.358   0.567 -0.2539 -0.0647 -0.4775
 3007TIP3    H2 8986   1.393   4.436   0.669  0.0863  1.4505 -1.8453
 3008TIP3   OH2 8987   3.784   1.032   0.366  0.5460 -0.1700 -0.2439
 3008TIP3    H1 8988   3.865   1.074   0.338  0.1077  0.4692 -0.5784
 3008TIP3    H2 8989   3.733   1.103   0.405  0.7011 -0.8211  1.2193
 3009TIP3   OH2 8990   7.073   0.126   1.285 -0.3698  0.0097 -0.0398
 3009TIP3    H1 8991   7.151   0.182   1.284  0.0449 -0.5316  1.3305
 3009TIP3    H2 8992   7.104   0.040   1.259 -0.7148  0.0220 -0.5172
 3010TIP3   OH2 8993   0.188   0.894   3.101  0.1581 -0.7093 -0.4419
 3010TIP3    H1 8994   0.111   0.841   3.122 -0.0474 -0.4949 -0.6380
 3010TIP3    H2 8995   0.198   0.953   3.175 -1.0249  0.5723 -1.2316
 3011TIP3   OH2 8996   0.046   3.687   2.912  0.5590 -0.3794  1.0805
 3011TIP3    H1 8997   0.005   3.604   2.890  1.1597 -0.6616  1.0021
 3011TIP3    H2 8998   0.138   3.665   2.928  0.2422 -0.1704  3.5710
 3012TIP3   OH2 8999   1.274   4.088   3.130  0.4689 -0.4277 -0.2146
 3012TIP3    H1 9000   1.314   4.017   3.079  1.2357 -0.7583  0.8246
 3012TIP3    H2 9001   1.334   4.103   3.202 -1.2245 -0.8970  1.3637
 3013TIP3   OH2 9002   3.020   0.444   0.603 -0.3796 -0.6513 -0.2096
 3013TIP3    H1 9003   3.030   0.359   0.646 -1.2367  0.1955  1.7887
 3013TIP3    H2 9004   2.932   0.472   0.626  0.7381  1.9128  1.4331
 3014TIP3   OH2 9005   1.140   3.724   3.282 -0.1086 -0.1214  0.0583
 3014TIP3    H1 9006   1.225   3.725   3.326  0.1722 -2.2422 -0.3399
 3014TIP3    H2 9007   1.156   3.681   3.198 -1.6464 -0.9430  0.1520
 3015TIP3   OH2 9008   2.442   0.743   0.398 -0.3484 -0.3998 -0.1073
 3015TIP3    H1 9009   2.518   0.712   0.349 -0.6012 -1.6853  0.2487
 3015TIP3    H2 9010   2.368   0.697   0.359 -0.9618  0.8554 -0.4655
 3016TIP3   OH2 9011   3.751   1.786   4.681 -0.1647 -0.1795 -0.0494
 3016TIP3    H1 9012   3.798   1.760   4.760 -1.6242  0.0742  0.9468
 3016TIP3    H2 9013   3.747   1.706   4.628  0.3491 -0.4988  0.3833
 3017TIP3   OH2 9014   2.597   5.579   0.352  0.0004 -0.2841  0.4264
 3017TIP3    H1 9015   2.634   5.518   0.416  1.3205  0.8217  0.7745
 3017TIP3    H2 9016   2.503   5.577   0.369  0.2886 -0.1574  2.3048
 3018TIP3   OH2 9017   0.495   5.945   4.857  0.0215 -0.1052  0.2860
 3018TIP3    H1 9018   0.568   5.962   4.798 -0.1197 -0.4359  0.0086
 3018TIP3    H2 9019   0.418   5.976   4.809 -0.2050 -1.2454 -0.1170
 3019TIP3   OH2 9020   3.441   2.248   4.356 -0.2266  0.2333  0.4332
 3019TIP3    H1 9021   3.469   2.337   4.334 -2.4255  0.5943 -1.2671
 3019TIP3    H2 9022   3.463   2.196   4.279 -1.3838 -0.0946  0.3044
 3020TIP3   OH2 9023   1.731   4.350   5.608  0.2646 -0.1169  0.0021
 3020TIP3    H1 9024   1.721   4.436   5.568 -2.0506 -0.9287 -1.3365
 3020TIP3    H2 9025   1.663   4.346   5.675  0.4762 -0.8477  0.1836
 3021TIP3   OH2 9026   3.450   2.361   0.508 -0.2882  0.4181  0.6546
 3021TIP3    H1 9027   3.382   2.400   0.563  1.9122 -0.8688  4.6702
 3021TIP3    H2 9028   3.418   2.273   0.488 -0.6638  0.5159  0.8295
 3022TIP3   OH2 9029   3.787   3.109   3.631 -0.5888  1.1621 -0.5650
 3022TIP3    H1 9030   3.692   3.104   3.626 -0.8590  3.0245  1.3995
 3022TIP3    H2 9031   3.814   3.135   3.542 -1.5272 -2.3246 -2.0318
 3023TIP3   OH2 9032   6.640   6.485   4.737 -0.0769 -0.7073 -0.4650
 3023TIP3    H1 9033   6.624   6.421   4.806 -1.8043 -0.6535 -0.7673
 3023TIP3    H2 9034   6.669   6.563   4.783 -3.3583  0.0837  0.5509
 3024TIP3   OH2 9035   4.753   4.295   4.230  0.1381  0.8999 -0.1803
 3024TIP3    H1 9036   4.666   4.326   4.204 -0.1369 -0.3045 -0.7829
 3024TIP3    H2 9037   4.781   4.241   4.156  0.7963  0.1354  0.6149
 3025TIP3   OH2 9038   4.626   3.997   4.370  0.6222  0.2505 -0.1566
 3025TIP3    H1 9039   4.656   3.910   4.396  0.2635 -0.0403 -0.6983
 3025TIP3    H2 9040   4.644   4.052   4.445  1.9747 -0.0386 -0.2400
 3026TIP3   OH2 9041   0.467   1.462   4.142  0.0166 -0.2574 -0.2890
 3026TIP3    H1 9042   0.470   1.476   4.237 -0.7756  0.0175 -0.3017
 3026TIP3    H2 9043   0.532   1.523   4.107 -1.2330  1.2591 -0.0886
 3027TIP3   OH2 9044   3.958   6.368   0.970 -0.2272  0.6012 -0.5312
 3027TIP3    H1 9045   4.018   6.339   0.900  0.4197  0.8710 -0.0978
 3027TIP3    H2 9046   3.989   6.455   0.993 -1.0322  0.8968 -0.5620
 3028TIP3   OH2 9047   5.274   1.726   2.975 -0.0639 -0.1694 -0.6261
 3028TIP3    H1 9048   5.250   1.662   3.042 -0.0470  0.1679 -0.2990
 3028TIP3    H2 9049   5.369   1.720   2.969  0.1118  1.0402  0.6307
 3029TIP3   OH2 9050   4.949   0.423   1.010 -0.7334  0.1986  0.0366
 3029TIP3    H1 9051   4.943   0.348   1.070 -1.5864 -0.1375 -0.4483
 3029TIP3    H2 9052   4.897   0.491   1.053  1.1950  1.0295  1.1734
 3030TIP3   OH2 9053   6.496   0.539   3.409 -0.2043  0.2551 -0.0047
 3030TIP3    H1 9054   6.581   0.496   3.409 -0.0995  0.4333  1.1062
 3030TIP3    H2 9055   6.516   0.632   3.395 -0.0717  0.5084  1.6940
 3031TIP3   OH2 9056   0.930   6.200   2.429 -0.8546 -0.1225  0.1881
 3031TIP3    H1 9057   0.911   6.114   2.467 -0.4327  0.6931  2.3947
 3031TIP3    H2 9058   0.849   6.250   2.441 -0.7313  0.1444 -0.0658
 3032TIP3   OH2 9059   2.374   1.976   4.970  0.1174 -0.1856 -0.2356
 3032TIP3    H1 9060   2.380   2.071   4.984 -0.3612 -0.0899 -0.6232
 3032TIP3    H2 9061   2.314   1.967   4.896 -0.1583 -0.8093  0.0525
 3033TIP3   OH2 9062   2.059   4.530   2.285  0.0258 -0.4268 -0.0834
 3033TIP3    H1 9063   2.080   4.546   2.193 -0.9196  1.2062 -0.0541
 3033TIP3    H2 9064   2.102   4.447   2.306  2.3379  0.3717 -1.2995
 3034TIP3   OH2 9065   2.948   1.607   1.233  0.5376 -0.3977 -0.0549
 3034TIP3    H1 9066   2.866   1.558   1.226  0.3098 -0.2929  1.4677
 3034TIP3    H2 9067   3.016   1.539   1.231  0.2322 -0.8378  1.8431
 3035TIP3   OH2 9068   7.119   3.801   4.400  0.3629 -0.2719  0.0628
 3035TIP3    H1 9069   7.103   3.735   4.332 -0.1584 -0.3999  0.3013
 3035TIP3    H2 9070   7.204   3.777   4.437 -0.4341 -1.6856  1.1045
 3036TIP3   OH2 9071   0.112   3.984   2.361 -0.2736 -0.3187  0.5357
 3036TIP3    H1 9072   0.059   4.059   2.389  1.7393  1.3400  0.2256
 3036TIP3    H2 9073   0.066   3.949   2.285 -1.3409  0.5292  0.7730
 3037TIP3   OH2 9074   6.894   1.579   1.987 -0.1198 -0.4030  0.9942
 3037TIP3    H1 9075   6.962   1.614   1.930  0.3870 -1.5389  0.8645
 3037TIP3    H2 9076   6.841   1.523   1.929 -1.2721  0.5633  1.0610
 3038TIP3   OH2 9077   0.769   4.312   3.345 -0.7851  0.3580  0.8188
 3038TIP3    H1 9078   0.839   4.343   3.287 -2.3693  1.0954 -0.8074
 3038TIP3    H2 9079   0.801   4.330   3.433  1.1723  0.4328  0.1470
 3039TIP3   OH2 9080   6.917   1.074   5.804 -0.0326 -0.0217  0.2250
 3039TIP3    H1 9081   6.921   1.044   5.895 -0.0946  1.5479  0.7751
 3039TIP3    H2 9082   6.853   1.016   5.763  1.3367 -1.9528  0.6692
 3040TIP3   OH2 9083   5.253   1.382   1.071 -0.0711 -1.0179 -0.3567
 3040TIP3    H1 9084   5.176   1.411   1.120  0.6857 -1.4985  1.1543
 3040TIP3    H2 9085   5.218   1.320   1.007 -0.8578 -1.9189  0.8954
 3041TIP3   OH2 9086   0.970   4.138   3.581  0.1359  0.0528  0.0558
 3041TIP3    H1 9087   1.023   4.085   3.639  1.2829 -0.0242 -1.0129
 3041TIP3    H2 9088   0.996   4.111   3.493 -1.4749  0.2283 -0.5080
 3042TIP3   OH2 9089   4.400   1.019   0.664 -0.0336 -0.3108  0.1238
 3042TIP3    H1 9090   4.413   0.972   0.582  0.5795 -0.1701  0.1326
 3042TIP3    H2 9091   4.361   0.955   0.723 -1.3916 -0.1393 -0.5603
 3043TIP3   OH2 9092   1.696   0.358   2.541  0.3732  1.3525  0.0215
 3043TIP3    H1 9093   1.621   0.391   2.590  0.4987  1.1864  0.3304
 3043TIP3    H2 9094   1.749   0.311   2.606 -0.3549 -0.3972 -0.5789
 3044TIP3   OH2 9095   6.238   0.920   2.067  0.1639 -0.0286 -0.1771
 3044TIP3    H1 9096   6.175   0.857   2.102 -0.1634  0.2822 -0.2006
 3044TIP3    H2 9097   6.305   0.927   2.135 -0.5843  0.7409  0.5157
 3045TIP3   OH2 9098   1.678   5.361   4.214 -0.0856 -0.2581  0.0428
 3045TIP3    H1 9099   1.707   5.413   4.289  0.0711 -2.4761  1.6520
 3045TIP3    H2 9100   1.677   5.422   4.141  1.1206  1.7052  1.5484
 3046TIP3   OH2 9101   1.034   6.650   3.298  0.3440 -0.3779  0.2396
 3046TIP3    H1 9102   1.051   6.594   3.222  1.6996 -0.7439  0.7692
 3046TIP3    H2 9103   1.118   6.651   3.345 -0.0509  1.0335  0.9441
 3047TIP3   OH2 9104   6.042   0.205   3.627  0.2275  0.3512 -0.5287
 3047TIP3    H1 9105   6.118   0.250   3.663  0.2207 -0.7377  0.8990
 3047TIP3    H2 9106   6.078   0.128   3.584 -0.1038 -0.7133  1.0218
 3048TIP3   OH2 9107   4.456   2.914   4.263  0.3577 -0.2813 -0.6087
 3048TIP3    H1 9108   4.497   2.900   4.178 -1.0815 -0.4131 -1.3130
 3048TIP3    H2 9109   4.379   2.857   4.263  0.5946 -0.6668  0.9901
 3049TIP3   OH2 9110   6.158   6.323   4.080 -0.1887  0.0948  0.1409
 3049TIP3    H1 9111   6.136   6.398   4.025 -0.0189  0.1775  0.1868
 3049TIP3    H2 9112   6.180   6.360   4.165 -1.3291 -0.0920  0.5401
 3050TIP3   OH2 9113   1.846   2.142   4.816  0.0796  0.4383  0.5648
 3050TIP3    H1 9114   1.798   2.147   4.733 -0.9260 -1.5963  0.9705
 3050TIP3    H2 9115   1.833   2.229   4.855 -3.1248  0.1267  0.5134
 3051TIP3   OH2 9116   6.254   5.317   0.055  0.0349  0.0638  0.0158
 3051TIP3    H1 9117   6.299   5.241   0.092 -0.5144  0.3761  1.3740
 3051TIP3    H2 9118   6.256   5.302  -0.040  0.5608 -1.2774  0.2175
 3052TIP3   OH2 9119   5.840   3.130   4.471  0.2003 -0.2488  0.5138
 3052TIP3    H1 9120   5.904   3.085   4.416  0.7305 -0.8461  1.5958
 3052TIP3    H2 9121   5.887   3.206   4.505  0.4316 -0.7992  1.4741
 3053TIP3   OH2 9122   1.627   5.325   5.188 -0.0476  0.4822 -0.1330
 3053TIP3    H1 9123   1.695   5.273   5.232 -0.9945  0.6197  1.5882
 3053TIP3    H2 9124   1.573   5.260   5.143  1.5662  0.4231 -2.1179
 3054TIP3   OH2 9125   6.223   6.527   2.191 -0.3910 -0.1160  0.6641
 3054TIP3    H1 9126   6.143   6.579   2.180  0.2905  0.7879 -0.2932
 3054TIP3    H2 9127   6.259   6.556   2.275  1.1896  2.8016 -0.8520
 3055TIP3   OH2 9128   0.343   6.385   4.995  0.7217  0.3638 -0.1084
 3055TIP3    H1 9129   0.307   6.310   5.043  0.3866  0.5945  0.0077
 3055TIP3    H2 9130   0.363   6.449   5.064 -1.3522  1.3825 -0.3553
 3056TIP3   OH2 9131   6.250   5.255   3.553  0.3179 -0.1937  0.1593
 3056TIP3    H1 9132   6.177   5.313   3.532  1.0672  0.1789 -1.5563
 3056TIP3    H2 9133   6.294   5.240   3.469  1.0096 -2.0746  0.7994
 3057TIP3   OH2 9134   3.668   2.447   2.061 -0.5205 -0.1457  0.0414
 3057TIP3    H1 9135   3.669   2.542   2.077  1.4563  0.0911 -1.1027
 3057TIP3    H2 9136   3.576   2.423   2.061 -1.1432  2.0168 -0.8834
 3058TIP3   OH2 9137   0.447   0.292   3.367  0.8014  0.4910 -0.0585
 3058TIP3    H1 9138   0.503   0.266   3.440  0.7996  1.4056  0.2803
 3058TIP3    H2 9139   0.508   0.298   3.293  1.5346  3.1023  0.6523
 3059TIP3   OH2 9140   3.661   6.055   5.788 -0.0547 -0.4171  0.1602
 3059TIP3    H1 9141   3.636   5.963   5.800  0.0821 -0.4135  0.4809
 3059TIP3    H2 9142   3.670   6.089   5.877  0.9924 -0.3834  0.0489
 3060TIP3   OH2 9143   2.596   4.838   3.012 -0.0892 -0.6869 -0.1226
 3060TIP3    H1 9144   2.654   4.777   3.058 -1.8618 -1.0108  1.8460
 3060TIP3    H2 9145   2.615   4.923   3.052 -0.0977 -0.5860 -0.3364
 3061TIP3   OH2 9146   4.330   0.731   5.716 -0.1709 -0.2804 -0.2752
 3061TIP3    H1 9147   4.314   0.752   5.624  0.3393 -3.2173 -1.1239
 3061TIP3    H2 9148   4.251   0.685   5.744  0.2253 -0.5960  0.3480
 3062TIP3   OH2 9149   4.658   3.201   3.676 -0.7377  0.2331 -0.4738
 3062TIP3    H1 9150   4.687   3.163   3.759  0.0059  0.7247 -0.4994
 3062TIP3    H2 9151   4.723   3.267   3.655 -1.7599  1.2221 -0.6586
 3063TIP3   OH2 9152   5.330   1.445   2.320 -0.4379 -0.3234 -0.3856
 3063TIP3    H1 9153   5.407   1.397   2.352  0.5588  1.1569 -0.4228
 3063TIP3    H2 9154   5.358   1.482   2.236 -0.3298  2.0909  0.6186
 3064TIP3   OH2 9155   5.057   2.652   2.611  0.0517 -0.3104  0.3880
 3064TIP3    H1 9156   5.068   2.747   2.614 -0.3701 -0.1058 -2.1066
 3064TIP3    H2 9157   4.963   2.639   2.617  0.1191 -0.5992  0.8670
 3065TIP3   OH2 9158   1.830   5.787   3.391  0.2954 -0.1486 -0.1300
 3065TIP3    H1 9159   1.830   5.810   3.484 -1.3425 -1.7830  0.3295
 3065TIP3    H2 9160   1.886   5.709   3.385 -1.3923 -1.4067 -0.0858
 3066TIP3   OH2 9161   6.471   6.499   0.759  0.4717  0.8778  0.0613
 3066TIP3    H1 9162   6.466   6.453   0.675  1.1640  1.1905 -0.1588
 3066TIP3    H2 9163   6.415   6.447   0.818  0.7694  0.0853 -0.3349
 3067TIP3   OH2 9164   6.199   2.586   4.431  0.2633 -0.0828 -0.4321
 3067TIP3    H1 9165   6.286   2.611   4.398  0.2264  0.7330  0.0705
 3067TIP3    H2 9166   6.190   2.634   4.513 -0.1457 -1.1623  0.1652
 3068TIP3   OH2 9167   1.761   1.633   1.881 -0.2034 -0.2483  0.3089
 3068TIP3    H1 9168   1.700   1.641   1.954 -1.2715 -1.4584 -0.4213
 3068TIP3    H2 9169   1.847   1.651   1.920 -1.0399  2.2034  1.2002
 3069TIP3   OH2 9170   6.231   4.333   4.762 -0.4226  0.2898 -0.1624
 3069TIP3    H1 9171   6.225   4.296   4.850  0.8796  0.6587  0.0986
 3069TIP3    H2 9172   6.253   4.425   4.776 -2.0604  0.8292 -0.8475
 3070TIP3   OH2 9173   7.018   1.038   0.536 -0.0489 -0.6916 -0.3615
 3070TIP3    H1 9174   7.106   1.010   0.512  0.5992  0.1825  0.8783
 3070TIP3    H2 9175   6.961   0.993   0.474  1.2333 -1.5716 -0.9489
 3071TIP3   OH2 9176   2.037   2.011   1.081 -0.1747 -0.2346  0.7978
 3071TIP3    H1 9177   2.108   2.058   1.038  0.0213 -0.2513  1.1026
 3071TIP3    H2 9178   2.045   2.034   1.173  0.7529 -1.9234  1.1771
 3072TIP3   OH2 9179   5.879   2.597   0.354 -0.0904  0.3223  0.8927
 3072TIP3    H1 9180   5.804   2.583   0.412 -0.5054 -2.3545 -0.1544
 3072TIP3    H2 9181   5.948   2.632   0.411 -1.0546 -0.4579  2.6045
 3073TIP3   OH2 9182   5.491   3.256   3.988 -0.2657  0.2939 -0.6893
 3073TIP3    H1 9183   5.483   3.212   3.904 -0.2690 -2.5691  0.6664
 3073TIP3    H2 9184   5.423   3.216   4.043  0.3047  1.4097  0.9246
 3074TIP3   OH2 9185   0.577   5.019   0.906  0.2225 -0.2160 -1.0548
 3074TIP3    H1 9186   0.579   5.057   0.994 -2.0436 -2.6040  0.1489
 3074TIP3    H2 9187   0.505   5.064   0.862 -0.0317 -0.4824 -0.9188
 3075TIP3   OH2 9188   3.655   3.623   0.164  0.7520  0.2408  0.1312
 3075TIP3    H1 9189   3.681   3.548   0.110  0.5525 -3.0040  4.0261
 3075TIP3    H2 9190   3.737   3.667   0.186  1.1548 -0.2724 -0.3225
 3076TIP3   OH2 9191   5.051   0.664   5.092  0.0240  0.4564 -0.3687
 3076TIP3    H1 9192   4.970   0.634   5.052 -0.3783 -0.2549  0.9421
 3076TIP3    H2 9193   5.106   0.586   5.098  0.1704  0.5973  0.2421
 3077TIP3   OH2 9194   4.566   4.125   1.372  0.0568  0.6270  0.0136
 3077TIP3    H1 9195   4.511   4.063   1.419  0.0077  0.6577 -0.0031
 3077TIP3    H2 9196   4.529   4.126   1.283  0.5825  0.0333 -0.2250
 3078TIP3   OH2 9197   2.272   3.318   4.017 -0.6081  0.2082  0.0954
 3078TIP3    H1 9198   2.273   3.231   4.057  0.9096  0.3689  0.4525
 3078TIP3    H2 9199   2.333   3.312   3.944 -0.8231  0.8652 -0.1488
 3079TIP3   OH2 9200   5.086   2.179   4.870 -0.4216  0.2298 -0.1467
 3079TIP3    H1 9201   5.133   2.194   4.788 -0.9799 -0.0590 -0.5243
 3079TIP3    H2 9202   5.102   2.258   4.921  1.0182 -0.1277  0.0005
 3080TIP3   OH2 9203   2.328   3.635   3.811  0.1303  0.0142 -0.0301
 3080TIP3    H1 9204   2.260   3.568   3.819 -0.0712  0.1412 -0.5878
 3080TIP3    H2 9205   2.395   3.610   3.874  0.0369 -0.6861 -0.2034
 3081TIP3   OH2 9206   7.009   1.487   5.170  0.1600  0.3715  0.2574
 3081TIP3    H1 9207   7.018   1.539   5.250  0.2623  0.3399  0.2670
 3081TIP3    H2 9208   7.086   1.429   5.170  0.4218  0.7149 -0.1173
 3082TIP3   OH2 9209   5.473   0.990   2.080 -0.3001  0.3665  0.1406
 3082TIP3    H1 9210   5.423   0.913   2.108 -1.0890  0.3761 -1.1422
 3082TIP3    H2 9211   5.419   1.029   2.011  0.9154  1.0759 -0.4311
 3083TIP3   OH2 9212   2.715   4.390   0.853 -0.2675 -0.4818 -0.4504
 3083TIP3    H1 9213   2.791   4.367   0.799  0.6627 -0.7908  0.9374
 3083TIP3    H2 9214   2.668   4.455   0.801  1.8330  0.9683 -0.6816
 3084TIP3   OH2 9215   4.485   2.711   4.971 -0.0890  0.7255  0.4721
 3084TIP3    H1 9216   4.416   2.777   4.970 -0.3453  0.4577 -0.7228
 3084TIP3    H2 9217   4.439   2.627   4.972  0.2360  0.5330  1.6262
 3085TIP3   OH2 9218   4.223   1.571   2.541  0.7095  0.1545 -0.5368
 3085TIP3    H1 9219   4.233   1.582   2.447 -2.0295 -1.1556 -1.0796
 3085TIP3    H2 9220   4.245   1.480   2.557 -0.3719 -0.0614 -0.1995
 3086TIP3   OH2 9221   5.950   2.471   5.153  0.4065 -0.2343  0.0437
 3086TIP3    H1 9222   5.912   2.466   5.241 -0.5071 -0.6063 -0.3550
 3086TIP3    H2 9223   6.044   2.463   5.167  0.4271  1.3056  1.1221
 3087TIP3   OH2 9224   4.468   6.429   5.507 -0.1812 -0.5293 -0.5039
 3087TIP3    H1 9225   4.447   6.401   5.418 -1.9106 -0.2465 -0.2201
 3087TIP3    H2 9226   4.388   6.471   5.539  0.2266 -1.0404  1.3456
 3088TIP3   OH2 9227   3.252   0.720   1.055 -0.2996 -0.8988 -0.0257
 3088TIP3    H1 9228   3.177   0.722   0.995 -0.2269  0.5286 -0.1176
 3088TIP3    H2 9229   3.328   0.707   0.998 -0.2645  0.0986 -0.2297
 3089TIP3   OH2 9230   5.026   5.762   2.434 -0.6359  0.2350  0.5527
 3089TIP3    H1 9231   4.935   5.740   2.456 -0.7748  0.2287 -0.0010
 3089TIP3    H2 9232   5.078   5.702   2.487 -0.9563  0.2427  0.8813
 3090TIP3   OH2 9233   6.403   4.102   1.946  0.2374 -0.8656  0.5769
 3090TIP3    H1 9234   6.321   4.115   1.898  0.8733  0.9756 -0.1330
 3090TIP3    H2 9235   6.428   4.012   1.927 -1.0270 -1.0896 -0.1597
 3091TIP3   OH2 9236   4.580   3.652   2.778 -0.5412  0.2877  0.2917
 3091TIP3    H1 9237   4.551   3.572   2.821  0.0835 -0.3903 -0.5230
 3091TIP3    H2 9238   4.506   3.677   2.722  0.2314 -1.2515 -1.5259
 3092TIP3   OH2 9239   2.702   6.656   3.430  0.4060  0.3812  0.3308
 3092TIP3    H1 9240   2.730   6.713   3.501  2.2110 -1.1599  0.9276
 3092TIP3    H2 9241   2.778   6.601   3.412 -0.4880 -0.2350 -1.8329
 3093TIP3   OH2 9242   4.421   3.857   5.419  0.6627  0.6078  0.4871
 3093TIP3    H1 9243   4.451   3.766   5.431  0.3317  0.5378  0.7928
 3093TIP3    H2 9244   4.348   3.866   5.480 -0.4928  0.5155 -0.8544
 3094TIP3   OH2 9245   7.048   2.592   1.542  0.1621 -0.2406  0.1683
 3094TIP3    H1 9246   7.052   2.505   1.583 -1.8918 -1.0271 -1.1632
 3094TIP3    H2 9247   7.022   2.575   1.452  2.0767  1.6297 -0.8495
 3095TIP3   OH2 9248   5.153   0.270   0.856  0.3235  0.7583  0.0838
 3095TIP3    H1 9249   5.134   0.361   0.877  1.4370  1.7204 -2.6433
 3095TIP3    H2 9250   5.216   0.274   0.783  0.4856 -2.1901 -0.0780
 3096TIP3   OH2 9251   6.704   6.148   1.901 -0.6100  0.2641  0.5306
 3096TIP3    H1 9252   6.715   6.114   1.990  0.0674  1.5072  0.9538
 3096TIP3    H2 9253   6.744   6.083   1.845  0.1039  0.0579  1.2584
 3097TIP3   OH2 9254   3.498   5.017   4.150  0.1519  0.4496  0.0350
 3097TIP3    H1 9255   3.518   5.012   4.244 -0.5112 -1.3266  0.1075
 3097TIP3    H2 9256   3.410   4.981   4.142  0.6975 -0.6541 -1.4261
 3098TIP3   OH2 9257   5.739   2.494   2.594 -0.1058 -0.3595  0.1880
 3098TIP3    H1 9258   5.776   2.557   2.533  1.0263  0.3549  1.5761
 3098TIP3    H2 9259   5.814   2.454   2.637 -0.8500 -1.6282  0.3827
 3099TIP3   OH2 9260   4.516   1.991   5.559  0.0370 -0.1152  0.6578
 3099TIP3    H1 9261   4.560   2.000   5.474 -0.2256  2.0191  0.7100
 3099TIP3    H2 9262   4.570   1.927   5.606  0.9135 -0.3890 -0.6543
 3100TIP3   OH2 9263   5.902   4.550   2.446  0.4286  0.2231 -0.1714
 3100TIP3    H1 9264   5.835   4.617   2.433  0.7257  0.2590 -1.6609
 3100TIP3    H2 9265   5.976   4.597   2.484 -0.4576  0.1249  1.7865
 3101TIP3   OH2 9266   4.014   2.783   3.244  0.0744  0.3630 -0.3604
 3101TIP3    H1 9267   3.925   2.811   3.266 -0.0409  0.7985 -1.3501
 3101TIP3    H2 9268   4.011   2.688   3.251 -0.1071  0.4305  0.8841
 3102TIP3   OH2 9269   5.200   2.272   0.748  0.0941  0.0771  0.5485
 3102TIP3    H1 9270   5.254   2.334   0.699 -1.4516  1.2322  0.2292
 3102TIP3    H2 9271   5.208   2.301   0.839 -0.1024  0.3576  0.4797
 3103TIP3   OH2 9272   5.034   2.636   4.216 -0.0532 -0.2116 -0.3613
 3103TIP3    H1 9273   4.998   2.547   4.220  0.5995 -0.5214 -1.1963
 3103TIP3    H2 9274   5.046   2.653   4.123  3.2581 -0.6736 -0.1252
 3104TIP3   OH2 9275   1.190   1.878   1.734  0.0031 -0.2174  0.1834
 3104TIP3    H1 9276   1.206   1.849   1.824 -3.1006 -2.9886  0.0251
 3104TIP3    H2 9277   1.102   1.916   1.736 -0.1437 -0.3642 -1.6875
 3105TIP3   OH2 9278   0.895   4.984   4.384 -0.7776 -0.4094  1.0121
 3105TIP3    H1 9279   0.855   5.071   4.391 -1.4303 -0.8025  2.6782
 3105TIP3    H2 9280   0.847   4.942   4.313 -0.8289  0.3773  0.5595
 3106TIP3   OH2 9281   2.088   3.841   1.091  0.3300  0.1376 -0.2605
 3106TIP3    H1 9282   2.010   3.888   1.062 -0.1648 -0.5691 -0.0935
 3106TIP3    H2 9283   2.057   3.753   1.112  0.9689  0.1673  0.8756
 3107TIP3   OH2 9284   5.263   5.815   5.345 -0.1615  0.5308 -0.0305
 3107TIP3    H1 9285   5.249   5.812   5.251  0.4337  0.8176 -0.1340
 3107TIP3    H2 9286   5.342   5.868   5.356  1.0810 -1.3108  0.4785
 3108TIP3   OH2 9287   0.967   2.137   0.153  0.4621  0.3026 -0.1567
 3108TIP3    H1 9288   0.964   2.219   0.201 -1.2442  0.3098 -0.1862
 3108TIP3    H2 9289   1.059   2.124   0.131  1.0089  1.2713  1.4211
 3109TIP3   OH2 9290   0.269   6.723   3.312  0.7522 -0.0602 -0.1797
 3109TIP3    H1 9291   0.220   6.805   3.310  1.3014  0.2676 -0.6949
 3109TIP3    H2 9292   0.216   6.664   3.365  0.0800  0.4585 -0.2640
 3110TIP3   OH2 9293   6.024   0.484   5.077 -0.4797  0.0713  0.1480
 3110TIP3    H1 9294   5.986   0.406   5.037 -0.0010 -0.5167  0.8145
 3110TIP3    H2 9295   6.097   0.451   5.129  0.7278  1.1287 -0.8029
 3111TIP3   OH2 9296   0.368   2.428   0.770  0.1788 -0.9563  0.3267
 3111TIP3    H1 9297   0.392   2.374   0.695 -0.9461 -1.9395  0.6616
 3111TIP3    H2 9298   0.273   2.436   0.765  0.1703 -0.3746  1.2171
 3112TIP3   OH2 9299   0.711   5.766   3.042  0.4257  0.8228  0.1543
 3112TIP3    H1 9300   0.636   5.709   3.056 -0.6103  1.7688 -1.2250
 3112TIP3    H2 9301   0.755   5.770   3.127 -0.8168 -0.1122  0.8716
 3113TIP3   OH2 9302   6.787   6.560   3.733 -0.1608  0.3446 -0.5378
 3113TIP3    H1 9303   6.782   6.465   3.749  0.2155  0.3462 -0.4174
 3113TIP3    H2 9304   6.702   6.581   3.694  0.3825 -0.3741 -2.2343
 3114TIP3   OH2 9305   4.512   1.690   5.269 -0.1686 -0.8827 -0.6145
 3114TIP3    H1 9306   4.568   1.621   5.304 -1.5223 -1.3039  0.8855
 3114TIP3    H2 9307   4.569   1.741   5.211  0.7613 -3.5093 -2.1923
 3115TIP3   OH2 9308   1.606   0.341   0.974 -0.5805 -0.2260  0.0971
 3115TIP3    H1 9309   1.701   0.329   0.964 -0.8053 -1.9110 -0.2838
 3115TIP3    H2 9310   1.573   0.347   0.884 -0.8679  0.2070  0.2264
 3116TIP3   OH2 9311   5.878   1.976   2.290  0.2262  0.5900 -0.1899
 3116TIP3    H1 9312   5.817   1.931   2.231  0.0238 -0.2077  0.5983
 3116TIP3    H2 9313   5.942   2.018   2.232  0.8853 -1.3624 -0.9608
 3117TIP3   OH2 9314   2.132   1.078   0.635  0.0777  0.0079  0.3618
 3117TIP3    H1 9315   2.219   1.117   0.646  0.4829 -0.5794 -0.6266
 3117TIP3    H2 9316   2.128   1.009   0.702 -0.1547  0.8737  1.2754
 3118TIP3   OH2 9317   5.045   3.438   0.979 -0.3665 -0.2644 -0.4677
 3118TIP3    H1 9318   5.083   3.491   1.048 -0.8382 -0.9553  0.3398
 3118TIP3    H2 9319   5.045   3.349   1.014 -0.3967 -0.6654 -1.4461
 3119TIP3   OH2 9320   4.360   0.460   1.194  0.7640 -0.0143  0.1751
 3119TIP3    H1 9321   4.340   0.371   1.165 -0.7063  0.1158  0.7076
 3119TIP3    H2 9322   4.345   0.459   1.288  0.9471  0.7462  0.2189
 3120TIP3   OH2 9323   3.254   2.802   4.269 -0.1226 -0.4637  0.5390
 3120TIP3    H1 9324   3.270   2.841   4.354 -1.1707 -0.3162  0.6869
 3120TIP3    H2 9325   3.191   2.861   4.227  2.1007  0.7688 -1.3006
 3121TIP3   OH2 9326   2.720   6.515   1.674  0.0263 -0.1736  0.3302
 3121TIP3    H1 9327   2.725   6.580   1.604 -0.0478  0.9561  1.3282
 3121TIP3    H2 9328   2.627   6.494   1.680 -0.2733  1.2739  1.3988
 3122TIP3   OH2 9329   0.196   5.245   4.327  0.1484 -0.1216 -0.1779
 3122TIP3    H1 9330   0.150   5.190   4.391 -0.8177 -0.0030 -0.7396
 3122TIP3    H2 9331   0.135   5.251   4.253  0.8682  0.4776 -0.7389
 3123TIP3   OH2 9332   4.759   5.168   0.994 -0.4753 -0.9308  0.0832
 3123TIP3    H1 9333   4.844   5.123   0.990  0.4641  0.8281 -0.8045
 3123TIP3    H2 9334   4.743   5.180   1.088 -0.4312 -2.4777  0.3169
 3124TIP3   OH2 9335   4.716   3.172   5.108  0.7951  0.1070 -0.2139
 3124TIP3    H1 9336   4.811   3.161   5.104  0.6072 -2.0624 -0.1347
 3124TIP3    H2 9337   4.695   3.228   5.033  2.3006  2.5685  1.0799
 3125TIP3   OH2 9338   0.773   0.838   2.474 -0.3424 -0.0264 -0.0922
 3125TIP3    H1 9339   0.780   0.769   2.408  0.1904 -0.2931  0.2377
 3125TIP3    H2 9340   0.737   0.913   2.426  1.3612  0.2420 -1.0359
 3126TIP3   OH2 9341   3.586   2.382   4.146 -0.1564  0.1851  0.0998
 3126TIP3    H1 9342   3.570   2.295   4.111  4.0079 -0.1179 -1.6450
 3126TIP3    H2 9343   3.552   2.442   4.079  1.6938 -0.2980 -1.3571
 3127TIP3   OH2 9344   2.400   2.277   4.309  0.1198  0.0554  0.1984
 3127TIP3    H1 9345   2.466   2.333   4.267  0.0517  0.1504  0.2169
 3127TIP3    H2 9346   2.346   2.247   4.236  1.0543 -1.2123 -0.0160
 3128TIP3   OH2 9347   0.100   6.343   4.088 -0.4259 -0.0367  0.1216
 3128TIP3    H1 9348   0.043   6.267   4.077 -1.5379  0.7759  0.0528
 3128TIP3    H2 9349   0.078   6.377   4.175  0.3643 -0.0273  0.3274
 3129TIP3   OH2 9350   5.455   4.192   2.252 -0.0147 -0.2812  0.2995
 3129TIP3    H1 9351   5.390   4.193   2.323  1.3046  1.1422  1.5696
 3129TIP3    H2 9352   5.539   4.185   2.296  0.7653 -1.5152 -1.2819
 3130TIP3   OH2 9353   2.575   4.153   0.040 -0.2836 -0.2238 -0.5653
 3130TIP3    H1 9354   2.542   4.098   0.111 -0.0842 -0.3465 -0.5663
 3130TIP3    H2 9355   2.550   4.242   0.065 -0.8223 -0.3345 -0.6810
 3131TIP3   OH2 9356   6.393   1.146   0.310  0.1972  0.0759 -0.3680
 3131TIP3    H1 9357   6.386   1.134   0.405 -3.4988 -0.7947 -0.5928
 3131TIP3    H2 9358   6.391   1.057   0.275  0.5454  0.4284 -1.3081
 3132TIP3   OH2 9359   5.924   2.522   0.084  0.6754  0.3217 -0.0198
 3132TIP3    H1 9360   5.892   2.438   0.052 -2.4196  1.8051 -1.2058
 3132TIP3    H2 9361   5.919   2.515   0.179  1.4910 -1.1492 -0.0520
 3133TIP3   OH2 9362   3.059   4.564   5.824 -0.1366 -0.0296  0.3161
 3133TIP3    H1 9363   3.095   4.490   5.776 -0.1511 -0.0297  0.3050
 3133TIP3    H2 9364   3.075   4.639   5.768  1.5104  0.2623  1.1356
 3134TIP3   OH2 9365   1.589   4.290   1.120 -0.4589 -0.6993 -0.0941
 3134TIP3    H1 9366   1.561   4.198   1.122  1.6377 -1.3844  0.1845
 3134TIP3    H2 9367   1.592   4.311   1.027  0.5064 -1.4153 -0.2403
 3135TIP3   OH2 9368   6.208   4.075   1.720  0.3167 -0.4375 -0.1159
 3135TIP3    H1 9369   6.224   4.160   1.678  0.0210  0.0829  0.7867
 3135TIP3    H2 9370   6.150   4.029   1.659  1.3035 -0.4073 -1.0967
 3136TIP3   OH2 9371   1.311   4.055   2.335  0.7348  0.1206  0.4952
 3136TIP3    H1 9372   1.259   4.132   2.359 -0.2824  0.4277 -2.3754
 3136TIP3    H2 9373   1.395   4.091   2.305  0.9517 -0.0608  0.8672
 3137TIP3   OH2 9374   1.717   4.945   2.309  0.2013 -0.4518 -0.0918
 3137TIP3    H1 9375   1.702   4.955   2.403 -0.5222  2.6742 -0.4273
 3137TIP3    H2 9376   1.789   5.005   2.289 -0.5624 -0.0167 -1.7216
 3138TIP3   OH2 9377   0.943   5.031   0.394 -0.1369 -0.3842 -0.3544
 3138TIP3    H1 9378   1.017   5.012   0.452  0.3335  1.1038 -0.4437
 3138TIP3    H2 9379   0.958   5.119   0.362 -0.6549 -0.9701 -2.3812
 3139TIP3   OH2 9380   0.500   4.821   5.719 -0.6278 -0.2150 -1.1671
 3139TIP3    H1 9381   0.523   4.805   5.627  2.1478  1.5358 -0.8963
 3139TIP3    H2 9382   0.504   4.916   5.728 -1.7384 -0.2952  0.6080
 3140TIP3   OH2 9383   5.431   4.495   3.250  0.5126  0.3421  0.2365
 3140TIP3    H1 9384   5.517   4.520   3.216  0.2898  0.6672 -0.1016
 3140TIP3    H2 9385   5.373   4.501   3.174  0.3926 -0.9372  0.2105
 3141TIP3   OH2 9386   2.055   3.846   1.809  0.4484  0.4966  0.1846
 3141TIP3    H1 9387   2.131   3.809   1.853  0.3067  0.9830  0.8569
 3141TIP3    H2 9388   1.992   3.862   1.880  0.7408  2.5973  0.0207
 3142TIP3   OH2 9389   2.466   6.160   0.080 -0.2437 -0.4849  0.1589
 3142TIP3    H1 9390   2.439   6.068   0.076 -0.4674 -0.5154  1.8568
 3142TIP3    H2 9391   2.561   6.157   0.071 -0.1866 -0.9448  0.8820
 3143TIP3   OH2 9392   2.576   2.202   0.723  0.3313  0.0797  0.1402
 3143TIP3    H1 9393   2.536   2.117   0.710 -1.5451  0.4316  2.6454
 3143TIP3    H2 9394   2.634   2.190   0.799  0.3188  0.9306  0.2987
 3144TIP3   OH2 9395   5.467   0.354   1.920  0.3660  0.8748 -0.7202
 3144TIP3    H1 9396   5.453   0.341   1.826 -1.9540  1.6944 -0.5313
 3144TIP3    H2 9397   5.535   0.290   1.943 -1.3321 -1.6575 -2.3122
 3145TIP3   OH2 9398   6.256   2.576   1.715  0.0696 -0.4234  0.7706
 3145TIP3    H1 9399   6.168   2.542   1.698  0.8952 -2.8010  0.8602
 3145TIP3    H2 9400   6.284   2.529   1.794  1.3569  0.4213  0.8415
 3146TIP3   OH2 9401   3.124   1.393   1.181 -0.3574  0.3408 -0.7254
 3146TIP3    H1 9402   3.081   1.309   1.165 -0.7675  0.4158 -0.0396
 3146TIP3    H2 9403   3.211   1.383   1.141 -0.4583 -0.3533 -0.7875
 3147TIP3   OH2 9404   0.204   5.785   3.296 -0.1112 -0.1277 -0.3916
 3147TIP3    H1 9405   0.222   5.691   3.302 -0.0015 -0.0435  0.9115
 3147TIP3    H2 9406   0.181   5.811   3.385 -1.8666  0.7541 -1.0532
 3148TIP3   OH2 9407   4.225   3.801   4.123  0.2410  0.2542  0.3202
 3148TIP3    H1 9408   4.189   3.713   4.111  1.8085 -0.2932 -0.7901
 3148TIP3    H2 9409   4.257   3.802   4.213 -1.3969  0.3516  0.9385
 3149TIP3   OH2 9410   6.238   4.125   5.789  0.0717  0.1373 -0.4522
 3149TIP3    H1 9411   6.200   4.037   5.799 -0.3072  0.3438 -0.0895
 3149TIP3    H2 9412   6.189   4.180   5.850  0.2253  0.6303 -0.7692
 3150TIP3   OH2 9413   5.686   5.316   3.987  0.0224 -0.0511  0.0078
 3150TIP3    H1 9414   5.684   5.226   3.953 -0.0860  0.0623 -0.2959
 3150TIP3    H2 9415   5.594   5.344   3.982  0.0550  0.0727  0.1152
 3151TIP3   OH2 9416   5.203   3.871   5.651 -0.2027  0.3350  0.2385
 3151TIP3    H1 9417   5.115   3.873   5.688  0.5458 -1.0358  2.2627
 3151TIP3    H2 9418   5.249   3.804   5.701  2.2824  1.6228 -0.1384
 3152TIP3   OH2 9419   1.909   1.941   0.607  0.1159  0.7298 -0.5179
 3152TIP3    H1 9420   1.921   1.923   0.700 -0.5007  1.2420 -0.3296
 3152TIP3    H2 9421   1.814   1.950   0.597  0.1866  0.7882 -1.1760
 3153TIP3   OH2 9422   3.972   3.052   5.903 -0.2711 -0.4506 -0.1087
 3153TIP3    H1 9423   4.033   3.026   5.834 -1.6449 -0.2739 -1.4243
 3153TIP3    H2 9424   3.942   3.139   5.878 -2.4870 -1.2641 -0.5528
 3154TIP3   OH2 9425   3.964   5.103   5.785 -0.3764 -0.2989  0.5237
 3154TIP3    H1 9426   4.001   5.026   5.741 -0.0299  0.7997 -1.1967
 3154TIP3    H2 9427   3.878   5.114   5.745  0.3473  1.3157 -0.7011
 3155TIP3   OH2 9428   2.809   2.034   5.390 -0.5057 -0.4672 -0.0857
 3155TIP3    H1 9429   2.740   2.020   5.455 -0.9915  2.3943  0.1563
 3155TIP3    H2 9430   2.763   2.068   5.313  0.4178 -0.5368 -0.6840
 3156TIP3   OH2 9431   6.298   6.644   3.085 -0.0030 -0.2078  0.2322
 3156TIP3    H1 9432   6.206   6.670   3.077 -0.0081 -0.1408  0.5083
 3156TIP3    H2 9433   6.330   6.641   2.995 -0.2555 -0.1558  0.1402
 3157TIP3   OH2 9434   3.086   6.166   5.048 -0.7524 -0.5005 -0.2629
 3157TIP3    H1 9435   3.065   6.089   5.100 -1.1377 -0.0646  0.2505
 3157TIP3    H2 9436   3.029   6.160   4.971 -1.4055 -0.3100  0.1885
 3158TIP3   OH2 9437   5.814   2.939   2.297 -0.4411 -0.0384  0.1329
 3158TIP3    H1 9438   5.839   2.848   2.312 -0.1127  0.0067 -0.1286
 3158TIP3    H2 9439   5.718   2.939   2.305 -0.4003 -0.3016  0.6650
 3159TIP3   OH2 9440   1.652   2.810   4.865 -0.6133 -0.0324  0.0706
 3159TIP3    H1 9441   1.603   2.816   4.783  0.4990  0.7967 -0.5544
 3159TIP3    H2 9442   1.637   2.894   4.908  1.0292  0.6362 -0.5935
 3160TIP3   OH2 9443   0.495   0.343   1.668  0.0356 -0.2197  0.4566
 3160TIP3    H1 9444   0.431   0.295   1.721 -1.5383  1.4404  0.1600
 3160TIP3    H2 9445   0.501   0.293   1.586 -0.1179 -0.9182  0.8571
 3161TIP3   OH2 9446   5.215   3.999   4.227 -0.5512  0.2690  0.6924
 3161TIP3    H1 9447   5.210   4.091   4.201  1.0482  0.2051  0.0766
 3161TIP3    H2 9448   5.284   3.962   4.173 -1.9132 -1.6106  0.1190
 3162TIP3   OH2 9449   2.285   0.892   3.394  0.5418  0.0889 -0.8315
 3162TIP3    H1 9450   2.291   0.846   3.311 -2.0791 -1.7039 -0.1601
 3162TIP3    H2 9451   2.256   0.980   3.370 -2.5936 -1.0772 -1.8272
 3163TIP3   OH2 9452   3.970   3.863   0.995 -0.0481  0.3635 -0.2142
 3163TIP3    H1 9453   3.969   3.929   0.926 -0.2596  0.3266 -0.2481
 3163TIP3    H2 9454   3.989   3.912   1.075  1.9183  0.1793 -0.5187
 3164TIP3   OH2 9455   1.059   2.257   1.770 -0.2664 -0.3921  0.0127
 3164TIP3    H1 9456   1.129   2.204   1.733 -1.7256 -2.8651  0.5131
 3164TIP3    H2 9457   1.068   2.245   1.865 -0.4393  0.5555  0.1590
 3165TIP3   OH2 9458   5.722   5.053   3.982  0.0245  0.1493  0.0501
 3165TIP3    H1 9459   5.662   5.031   4.053 -0.0371  0.9478  0.2554
 3165TIP3    H2 9460   5.737   4.970   3.936 -1.4391 -0.0241 -0.1592
 3166TIP3   OH2 9461   2.797   0.417   3.925  0.5154 -0.0700  0.4788
 3166TIP3    H1 9462   2.784   0.510   3.904 -0.1763 -0.1305  0.6264
 3166TIP3    H2 9463   2.793   0.373   3.840 -1.7576 -0.2537  0.6432
 3167TIP3   OH2 9464   1.115   0.542   2.347  0.0628 -0.2599  0.2287
 3167TIP3    H1 9465   1.197   0.547   2.298 -0.3882  0.2669 -0.4968
 3167TIP3    H2 9466   1.102   0.449   2.362  0.0032 -0.4719 -1.0364
 3168TIP3   OH2 9467   1.215   4.798   1.279 -0.3020 -0.1783 -0.0504
 3168TIP3    H1 9468   1.137   4.841   1.243 -0.1692  0.6893  0.6943
 3168TIP3    H2 9469   1.194   4.704   1.274 -1.4611  0.0486  0.2959
 3169TIP3   OH2 9470   5.965   5.985   5.140  0.0006  0.1742  0.0026
 3169TIP3    H1 9471   5.898   5.921   5.118 -1.4615  1.5168  0.3393
 3169TIP3    H2 9472   6.007   5.951   5.219 -1.1033 -0.1149  0.4789
 3170TIP3   OH2 9473   2.725   4.744   1.303 -0.1837 -0.1635 -0.0332
 3170TIP3    H1 9474   2.695   4.810   1.241 -0.7503 -0.1064  0.2969
 3170TIP3    H2 9475   2.649   4.689   1.319 -0.0175 -0.2320  0.5416
 3171TIP3   OH2 9476   1.139   0.285   3.859  0.4239  0.0408 -0.1575
 3171TIP3    H1 9477   1.079   0.354   3.888  0.0192 -0.6990  0.8360
 3171TIP3    H2 9478   1.122   0.277   3.765 -2.5268 -1.4842  0.3794
 3172TIP3   OH2 9479   3.106   2.585   2.080 -0.2363 -0.6051  0.2338
 3172TIP3    H1 9480   3.073   2.502   2.116  2.5060 -1.4037  1.1935
 3172TIP3    H2 9481   3.166   2.558   2.011 -1.4063  0.7610 -1.3774
 3173TIP3   OH2 9482   3.598   3.085   0.972  0.0509 -0.4542 -0.0236
 3173TIP3    H1 9483   3.687   3.050   0.963 -0.3767 -1.6420  0.1548
 3173TIP3    H2 9484   3.556   3.061   0.890  0.3521  1.5885 -0.8280
 3174TIP3   OH2 9485   5.562   2.733   4.838  0.0589  0.9029 -0.2759
 3174TIP3    H1 9486   5.588   2.749   4.929  1.4050 -0.2535 -0.4315
 3174TIP3    H2 9487   5.482   2.784   4.828 -0.2668  0.8708  1.6326
 3175TIP3   OH2 9488   1.393   0.166   3.636 -0.0905  0.2553  0.7820
 3175TIP3    H1 9489   1.407   0.077   3.666 -0.5270  0.0393  0.3709
 3175TIP3    H2 9490   1.390   0.159   3.540 -0.4319  0.6583  0.7586
 3176TIP3   OH2 9491   0.864   3.794   1.003  0.8340 -0.2101  0.4463
 3176TIP3    H1 9492   0.870   3.741   0.923  0.6582  0.5735 -0.1019
 3176TIP3    H2 9493   0.885   3.883   0.974 -0.1580  0.2503  1.0883
 3177TIP3   OH2 9494   4.120   1.162   3.132  0.1196 -0.3223  0.5300
 3177TIP3    H1 9495   4.157   1.206   3.055 -1.6358 -1.2169 -0.9194
 3177TIP3    H2 9496   4.102   1.233   3.194 -0.3515  0.6971 -0.7280
 3178TIP3   OH2 9497   3.551   3.380   0.492  0.5412 -0.0825 -0.0184
 3178TIP3    H1 9498   3.626   3.380   0.551  0.0922 -1.8579  0.6104
 3178TIP3    H2 9499   3.489   3.442   0.532  0.1250 -1.4657  1.5939
 3179TIP3   OH2 9500   0.730   4.176   1.885  0.0985 -0.0351  0.4426
 3179TIP3    H1 9501   0.657   4.165   1.824  0.7071 -0.7805 -0.1714
 3179TIP3    H2 9502   0.697   4.142   1.968 -0.3389 -0.1161  0.2375
 3180TIP3   OH2 9503   5.144   1.267   3.244  0.5836  0.1373  0.2641
 3180TIP3    H1 9504   5.058   1.231   3.221  0.3203  0.1538  1.1864
 3180TIP3    H2 9505   5.195   1.191   3.272  0.6937  0.2025  0.2413
 3181TIP3   OH2 9506   6.682   2.627   2.032 -0.3942 -0.2274 -0.3784
 3181TIP3    H1 9507   6.728   2.609   1.951 -1.8533 -0.2566 -1.2421
 3181TIP3    H2 9508   6.618   2.695   2.009 -1.2029 -0.6268  0.5962
 3182TIP3   OH2 9509   4.485   5.214   1.180  0.3285  0.2771 -0.3751
 3182TIP3    H1 9510   4.461   5.145   1.118 -0.1836 -0.6612  0.8459
 3182TIP3    H2 9511   4.414   5.279   1.171  0.0409 -0.0482 -0.4800
 3183TIP3   OH2 9512   1.087   1.418   5.779  0.3838  0.3383  0.0615
 3183TIP3    H1 9513   1.032   1.449   5.851 -0.1975  0.2214 -0.3278
 3183TIP3    H2 9514   1.103   1.495   5.725  1.0356  0.4816  0.4446
 3184TIP3   OH2 9515   0.992   3.113   0.423  0.3131 -0.1925 -0.0262
 3184TIP3    H1 9516   1.061   3.109   0.358  1.3490  1.9134  0.8398
 3184TIP3    H2 9517   1.037   3.105   0.507 -0.3795  1.5436  0.5728
 3185TIP3   OH2 9518   4.935   4.796   5.303 -0.4024  0.0859 -0.0904
 3185TIP3    H1 9519   4.996   4.777   5.231  0.8829  2.1910  0.3283
 3185TIP3    H2 9520   4.933   4.892   5.307 -2.4636  0.0452  1.0431
 3186TIP3   OH2 9521   2.794   1.831   4.901 -0.3992 -0.3249  0.0025
 3186TIP3    H1 9522   2.823   1.747   4.867 -0.9951 -1.0248  1.1687
 3186TIP3    H2 9523   2.806   1.824   4.995  0.3513  1.2293  0.0584
 3187TIP3   OH2 9524   3.509   0.740   2.059 -0.3131  0.0135 -0.5085
 3187TIP3    H1 9525   3.537   0.714   1.971  0.7798  0.9739 -0.4779
 3187TIP3    H2 9526   3.554   0.679   2.117  0.9761  0.9165 -0.5147
 3188TIP3   OH2 9527   0.476   0.039   4.598 -0.3544  0.2210  0.1451
 3188TIP3    H1 9528   0.510   0.009   4.514  0.9201 -0.4427  0.8618
 3188TIP3    H2 9529   0.554   0.068   4.646 -0.8578 -0.7360  1.6137
 3189TIP3   OH2 9530   0.958   0.692   4.014  0.0591 -0.0390  0.1861
 3189TIP3    H1 9531   1.035   0.698   4.070 -0.8032 -0.0854  1.4035
 3189TIP3    H2 9532   0.991   0.710   3.926  1.1447  1.8530  0.9199
 3190TIP3   OH2 9533   2.876   3.656   5.787  0.3766  0.4899  0.4125
 3190TIP3    H1 9534   2.812   3.660   5.858  1.1792  1.1574  1.1239
 3190TIP3    H2 9535   2.848   3.582   5.733  0.7299 -1.1842  2.3820
 3191TIP3   OH2 9536   0.986   6.462   2.426 -0.4602 -0.0596  0.5118
 3191TIP3    H1 9537   1.018   6.470   2.336 -1.3893 -0.2529  0.1619
 3191TIP3    H2 9538   0.981   6.368   2.441  0.3677 -0.0387  1.0251
 3192TIP3   OH2 9539   7.118   4.022  -0.004 -0.1202  0.3584  0.5840
 3192TIP3    H1 9540   7.095   4.020   0.089 -1.3419 -0.0354  0.3003
 3192TIP3    H2 9541   7.066   3.951  -0.043  1.6758 -0.6173 -0.1311
 3193TIP3   OH2 9542   3.676   2.900   4.370 -0.1077  0.3034 -0.5274
 3193TIP3    H1 9543   3.587   2.866   4.379 -0.8241  1.8405 -1.4219
 3193TIP3    H2 9544   3.717   2.882   4.455 -0.1735 -3.2437 -1.0725
 3194TIP3   OH2 9545   3.840   2.579   0.736  0.6445 -0.4230  0.2548
 3194TIP3    H1 9546   3.776   2.508   0.730  1.3991 -1.0225 -1.0503
 3194TIP3    H2 9547   3.901   2.563   0.665  1.9708  0.4341  1.1452
 3195TIP3   OH2 9548   6.642   3.644   5.766  0.0395  0.3264 -0.0348
 3195TIP3    H1 9549   6.657   3.606   5.680  0.4209  0.0030  0.1742
 3195TIP3    H2 9550   6.640   3.570   5.826  1.9633  0.7022  0.5400
 3196TIP3   OH2 9551   4.207   0.627   4.070 -0.0529 -0.2461 -0.0645
 3196TIP3    H1 9552   4.284   0.655   4.120  0.4442 -0.3153 -0.7781
 3196TIP3    H2 9553   4.243   0.588   3.991 -0.7853 -1.6089  0.2591
 3197TIP3   OH2 9554   4.480   0.224   1.829  0.5002 -0.1034 -1.1613
 3197TIP3    H1 9555   4.561   0.237   1.878 -0.4747  1.4564  0.1614
 3197TIP3    H2 9556   4.508   0.204   1.740  2.3628 -3.5742  0.0313
 3198TIP3   OH2 9557   1.607   3.585   5.732 -0.7004  0.6241 -0.1564
 3198TIP3    H1 9558   1.578   3.533   5.807 -0.5629  1.3772  0.4269
 3198TIP3    H2 9559   1.610   3.522   5.660  0.6452 -0.4660  0.7887
 3199TIP3   OH2 9560   3.361   3.014   3.309 -0.2478  0.2853 -0.0230
 3199TIP3    H1 9561   3.280   3.041   3.353  0.6303  2.1739  0.5192
 3199TIP3    H2 9562   3.341   3.024   3.215 -1.5470 -2.0976 -0.0956
 3200TIP3   OH2 9563   4.095   1.905   0.522  0.5967  0.4238 -0.6072
 3200TIP3    H1 9564   4.078   1.996   0.498  0.5605  0.2892 -1.1074
 3200TIP3    H2 9565   4.087   1.903   0.617 -0.0268  0.8137 -0.6494
 3201TIP3   OH2 9566   5.279   4.518   2.417  0.0319 -0.5106 -0.3569
 3201TIP3    H1 9567   5.301   4.464   2.493 -0.1681 -2.1096 -1.3945
 3201TIP3    H2 9568   5.200   4.565   2.443  1.5012  1.1399  1.4115
 3202TIP3   OH2 9569   2.515   0.425   4.283 -0.1359  0.0287  0.1748
 3202TIP3    H1 9570   2.443   0.413   4.221  0.9619 -1.7711 -0.8261
 3202TIP3    H2 9571   2.476   0.405   4.368 -1.5414  2.0714  0.0820
 3203TIP3   OH2 9572   0.386   2.961   2.531 -0.6861 -0.0283 -0.6494
 3203TIP3    H1 9573   0.302   3.005   2.518 -0.4567  0.9162  0.8510
 3203TIP3    H2 9574   0.440   2.992   2.458 -1.9785 -1.6621 -2.3964
 3204TIP3   OH2 9575   3.707   0.761   3.218 -0.0471 -0.9211  0.2684
 3204TIP3    H1 9576   3.798   0.738   3.237 -0.4390 -1.0728  2.1509
 3204TIP3    H2 9577   3.684   0.705   3.143  1.8066  0.1876 -1.2078
 3205TIP3   OH2 9578   3.388   4.653   5.582  0.6790  0.8800 -0.1992
 3205TIP3    H1 9579   3.376   4.738   5.541  0.3641  0.5279 -0.8593
 3205TIP3    H2 9580   3.432   4.672   5.665  0.5008  1.6900 -0.2811
 3206TIP3   OH2 9581   1.736   4.333   5.192 -0.0144 -0.0541 -0.4040
 3206TIP3    H1 9582   1.780   4.411   5.228  0.5311  0.7432 -2.6104
 3206TIP3    H2 9583   1.800   4.263   5.201  0.0384  0.0775  0.3088
 3207TIP3   OH2 9584   0.759   2.982   2.285  0.2966 -0.2675  0.1780
 3207TIP3    H1 9585   0.818   3.023   2.221  0.4945  1.8266  1.6106
 3207TIP3    H2 9586   0.804   2.992   2.369 -0.0520 -2.7762  0.7521
 3208TIP3   OH2 9587   1.079   4.538   1.212  0.1021  0.3786 -0.1660
 3208TIP3    H1 9588   1.087   4.489   1.130  0.6817  3.5275 -2.1660
 3208TIP3    H2 9589   0.985   4.543   1.228  0.0210 -3.4477  1.6160
 3209TIP3   OH2 9590   2.936   5.868   0.837  0.2721  0.5186  0.3106
 3209TIP3    H1 9591   3.023   5.908   0.827  0.5609 -0.1096  0.2738
 3209TIP3    H2 9592   2.888   5.895   0.759  1.1158 -0.8312 -0.7310
 3210TIP3   OH2 9593   2.470   4.717   0.245 -0.2303 -0.5200 -0.4418
 3210TIP3    H1 9594   2.393   4.669   0.274 -0.3907  0.8836  1.7546
 3210TIP3    H2 9595   2.451   4.809   0.268  1.4304  0.0832 -1.3132
 3211TIP3   OH2 9596   5.716   5.878   1.233 -0.1179 -0.2455  0.8081
 3211TIP3    H1 9597   5.629   5.868   1.270 -0.6527 -0.1450 -0.3901
 3211TIP3    H2 9598   5.713   5.831   1.150  1.4332 -1.5715  1.4352
 3212TIP3   OH2 9599   1.022   5.126   3.645 -0.0011  0.5576 -0.0021
 3212TIP3    H1 9600   1.011   5.063   3.716  0.8012 -1.2620 -1.3945
 3212TIP3    H2 9601   1.059   5.204   3.687  0.7173 -0.5673  1.5367
 3213TIP3   OH2 9602   2.586   2.795   0.238 -0.2829 -0.4554 -0.2340
 3213TIP3    H1 9603   2.560   2.704   0.255  0.1148 -0.4763  0.2830
 3213TIP3    H2 9604   2.640   2.819   0.313 -0.3459  0.1960 -0.3908
 3214TIP3   OH2 9605   5.960   1.467   4.310 -0.3654 -0.1532 -0.2996
 3214TIP3    H1 9606   6.045   1.432   4.337  0.7544  3.0777  0.9122
 3214TIP3    H2 9607   5.899   1.440   4.379 -0.2375 -2.0048 -0.8785
 3215TIP3   OH2 9608   1.218   0.969   5.829  0.1296  0.2813  0.7092
 3215TIP3    H1 9609   1.139   1.021   5.816  1.3806  1.8417 -1.3083
 3215TIP3    H2 9610   1.286   1.034   5.847  1.8148 -0.4860 -2.2056
 3216TIP3   OH2 9611   6.328   3.559   2.810  0.5351 -0.7076  0.7869
 3216TIP3    H1 9612   6.317   3.599   2.897 -0.3619  0.9149 -0.0170
 3216TIP3    H2 9613   6.260   3.600   2.757  1.5957 -1.0583 -0.8944
 3217TIP3   OH2 9614   2.472   2.304   0.058  0.2439  0.2936  0.3528
 3217TIP3    H1 9615   2.536   2.262   0.115  0.3722 -0.3179 -0.2265
 3217TIP3    H2 9616   2.493   2.270  -0.029 -0.2953  0.7893  0.0301
 3218TIP3   OH2 9617   1.498   6.650   1.931  0.5676 -0.0704 -0.4019
 3218TIP3    H1 9618   1.472   6.613   2.016  3.3316  0.4876  0.7971
 3218TIP3    H2 9619   1.517   6.573   1.877 -0.5730 -0.4181 -0.3513
 3219TIP3   OH2 9620   4.372   0.113   2.281  0.3261 -0.2154  0.5774
 3219TIP3    H1 9621   4.354   0.195   2.328 -0.6317 -1.0743  1.7726
 3219TIP3    H2 9622   4.300   0.105   2.219  1.3737  0.7115 -0.8195
 3220TIP3   OH2 9623   1.483   1.402   4.893 -0.6017 -0.2295 -0.9977
 3220TIP3    H1 9624   1.474   1.385   4.800 -1.3570 -0.4377 -0.8880
 3220TIP3    H2 9625   1.415   1.350   4.935 -0.5646  0.2106 -0.3655
 3221TIP3   OH2 9626   5.731   4.446   4.300 -0.3338 -0.5422 -0.2278
 3221TIP3    H1 9627   5.742   4.406   4.214 -0.9080 -0.6680 -0.2466
 3221TIP3    H2 9628   5.646   4.414   4.331 -0.1317 -0.4975  0.3845
 3222TIP3   OH2 9629   6.096   5.756   1.609 -0.1152  0.0249 -0.5647
 3222TIP3    H1 9630   6.012   5.714   1.591 -0.1625  0.8104 -2.3873
 3222TIP3    H2 9631   6.161   5.701   1.564  0.3558 -0.4229  0.6010
 3223TIP3   OH2 9632   0.449   3.280   2.981  0.1145 -0.0110  0.1838
 3223TIP3    H1 9633   0.446   3.185   2.987 -3.8223 -0.0776 -0.1129
 3223TIP3    H2 9634   0.458   3.298   2.888  0.4685 -0.1166  0.1989
 3224TIP3   OH2 9635   5.282   3.168   4.140 -0.3687  0.2233 -0.5375
 3224TIP3    H1 9636   5.268   3.109   4.215 -0.9290  2.9867  1.6988
 3224TIP3    H2 9637   5.194   3.192   4.111 -0.2667  2.3847  0.7313
 3225TIP3   OH2 9638   5.895   4.415   4.511 -0.1532 -0.2685 -0.0313
 3225TIP3    H1 9639   5.976   4.466   4.501 -0.3734  0.0635 -0.1223
 3225TIP3    H2 9640   5.847   4.429   4.430  1.4509 -3.6618 -1.7910
 3226TIP3   OH2 9641   7.003   1.048   2.628 -0.2656  0.6618  0.4246
 3226TIP3    H1 9642   6.933   1.059   2.563  0.3345  3.8561  0.1579
 3226TIP3    H2 9643   6.958   1.052   2.712 -0.7847 -1.2528  0.2867
 3227TIP3   OH2 9644   4.361   4.897   5.137 -0.7966 -0.3043 -0.3015
 3227TIP3    H1 9645   4.444   4.945   5.142 -2.0564  1.9893 -0.0942
 3227TIP3    H2 9646   4.382   4.819   5.086  1.0488  1.2507 -2.1130
 3228TIP3   OH2 9647   4.345   4.994   3.409  0.5718 -0.0183 -0.5841
 3228TIP3    H1 9648   4.439   4.996   3.425  0.5665  1.9118 -0.5268
 3228TIP3    H2 9649   4.312   5.075   3.449 -0.8017  0.3204 -2.2539
 3229TIP3   OH2 9650   6.619   2.498   1.738  0.0030  0.4495  0.3753
 3229TIP3    H1 9651   6.583   2.413   1.765 -0.7055  0.2726 -1.0716
 3229TIP3    H2 9652   6.560   2.562   1.777 -0.3644  0.2322  0.1844
 3230TIP3   OH2 9653   3.360   0.323   0.784 -0.0632  0.2505  0.2467
 3230TIP3    H1 9654   3.317   0.396   0.740 -0.4815 -0.0522  0.1390
 3230TIP3    H2 9655   3.316   0.317   0.869  0.1592  0.2963  0.3659
 3231TIP3   OH2 9656   2.688   2.290   3.305 -0.4227  0.2419  0.2382
 3231TIP3    H1 9657   2.765   2.255   3.261 -1.7094 -0.0592 -1.9134
 3231TIP3    H2 9658   2.721   2.363   3.358  1.3526 -0.0458 -0.4170
 3232TIP3   OH2 9659   6.677   3.197   0.265 -0.1302 -0.1710 -0.1942
 3232TIP3    H1 9660   6.609   3.262   0.253  0.4556  0.2917 -1.0725
 3232TIP3    H2 9661   6.676   3.178   0.359 -1.5902 -0.3303 -0.2157
 3233TIP3   OH2 9662   3.995   4.302   3.733 -0.3576  0.0204  0.2223
 3233TIP3    H1 9663   4.013   4.210   3.716  0.7554  0.6013 -2.3033
 3233TIP3    H2 9664   3.973   4.339   3.647 -0.5289  2.1511  1.1041
 3234TIP3   OH2 9665   2.810   0.987   1.148  0.0047  0.0670  0.2933
 3234TIP3    H1 9666   2.851   1.000   1.233  1.3645  1.9280 -0.5728
 3234TIP3    H2 9667   2.796   1.075   1.114  0.2249 -0.6152 -1.7150
 3235TIP3   OH2 9668   1.670   6.443   4.220  0.1346 -0.4389 -0.3712
 3235TIP3    H1 9669   1.641   6.534   4.208  1.6945  0.0808 -0.3665
 3235TIP3    H2 9670   1.596   6.391   4.189 -1.3124  0.8004  0.8292
 3236TIP3   OH2 9671   1.876   1.779   2.597  0.5399  0.1504 -0.2660
 3236TIP3    H1 9672   1.959   1.779   2.645  0.4218  0.9507 -0.0436
 3236TIP3    H2 9673   1.809   1.774   2.666  0.3333  2.3335 -0.2248
 3237TIP3   OH2 9674   4.502   4.752   1.547  0.2098  0.1526 -0.2934
 3237TIP3    H1 9675   4.516   4.693   1.473 -2.0887 -1.8757  0.7354
 3237TIP3    H2 9676   4.548   4.711   1.620 -0.5261  0.1731  0.1960
 3238TIP3   OH2 9677   3.026   5.636   5.665 -0.2720 -0.3567  0.1733
 3238TIP3    H1 9678   2.938   5.673   5.660 -1.1274 -2.3593 -0.7422
 3238TIP3    H2 9679   3.065   5.677   5.742 -1.6303  1.3157  0.0258
 3239TIP3   OH2 9680   0.591   3.612   2.218 -0.2668 -0.3783  0.0629
 3239TIP3    H1 9681   0.657   3.562   2.171  0.6294  1.3559 -0.6297
 3239TIP3    H2 9682   0.585   3.569   2.303  1.3369 -0.9462 -0.0641
 3240TIP3   OH2 9683   3.261   3.163   0.664  0.6733 -0.1443 -0.1935
 3240TIP3    H1 9684   3.180   3.125   0.628  0.1274  1.3173 -0.5625
 3240TIP3    H2 9685   3.327   3.143   0.598 -0.0790  1.4557 -1.4998
 3241TIP3   OH2 9686   4.428   0.862   4.921 -0.1513  0.7788  0.6786
 3241TIP3    H1 9687   4.433   0.937   4.862 -0.5730  0.4780  0.2481
 3241TIP3    H2 9688   4.518   0.850   4.952  0.5699 -0.3760 -1.6132
 3242TIP3   OH2 9689   6.399   0.040   0.125  0.1993 -0.0421  0.0066
 3242TIP3    H1 9690   6.306   0.035   0.146  0.5209 -1.2550  1.2819
 3242TIP3    H2 9691   6.425   0.129   0.150 -0.2285 -0.2938  1.4085
 3243TIP3   OH2 9692   5.995   0.977   5.707 -0.0756 -0.0246 -0.3424
 3243TIP3    H1 9693   5.939   0.902   5.686 -1.0821  1.5045 -3.8392
 3243TIP3    H2 9694   5.934   1.050   5.719  0.9838  0.8159  0.0813
 3244TIP3   OH2 9695   5.525   1.852   5.563 -0.1974  0.0038  0.1918
 3244TIP3    H1 9696   5.511   1.853   5.468 -1.0882  0.7758  0.3152
 3244TIP3    H2 9697   5.474   1.777   5.593 -1.4954  0.8781  0.2587
 3245TIP3   OH2 9698   5.529   4.722   3.075  0.2471 -0.5459 -0.5340
 3245TIP3    H1 9699   5.588   4.725   3.000 -0.8412 -2.5276 -1.5592
 3245TIP3    H2 9700   5.445   4.753   3.041 -0.3608 -1.8653 -0.2944
 3246TIP3   OH2 9701   4.430   5.590   4.871 -0.5406 -0.0466  0.2036
 3246TIP3    H1 9702   4.425   5.666   4.929 -1.0206  0.9880 -1.1506
 3246TIP3    H2 9703   4.346   5.545   4.882 -0.6517  0.1787  0.2771
 3247TIP3   OH2 9704   1.130   5.517   0.287 -0.2566 -0.2769  0.1654
 3247TIP3    H1 9705   1.134   5.472   0.203  0.1720 -2.0787  1.0865
 3247TIP3    H2 9706   1.221   5.531   0.312 -0.3821  0.6149  0.1587
 3248TIP3   OH2 9707   7.059   2.831   1.938  0.0307 -0.2512  0.2015
 3248TIP3    H1 9708   6.972   2.796   1.919  0.1779 -1.5126  1.6349
 3248TIP3    H2 9709   7.119   2.766   1.902  0.3555 -0.1762  0.6000
 3249TIP3   OH2 9710   2.716   3.694   3.241  0.1332 -0.0020 -0.0887
 3249TIP3    H1 9711   2.809   3.714   3.235  0.5405  1.0199  4.9356
 3249TIP3    H2 9712   2.708   3.642   3.321 -3.7466  1.2439  0.5409
 3250TIP3   OH2 9713   0.088   5.987   3.086 -0.6074  0.3807  0.8363
 3250TIP3    H1 9714   0.002   5.989   3.045 -0.8321 -2.7422  0.8884
 3250TIP3    H2 9715   0.106   5.894   3.098  2.6244  0.9429  1.1848
 3251TIP3   OH2 9716   6.856   6.505   0.476 -0.7470 -0.0868 -0.0228
 3251TIP3    H1 9717   6.950   6.502   0.495 -0.8639 -0.3561  0.5398
 3251TIP3    H2 9718   6.834   6.415   0.450 -0.6999  0.1513 -0.9260
 3252TIP3   OH2 9719   5.563   0.334   4.382  0.7753 -0.5082  0.1731
 3252TIP3    H1 9720   5.576   0.247   4.346  1.8483 -0.4834  0.4437
 3252TIP3    H2 9721   5.571   0.322   4.477  1.0561 -0.1104  0.2047
 3253TIP3   OH2 9722   1.224   4.493   3.920  0.3574  0.3268 -0.1003
 3253TIP3    H1 9723   1.249   4.540   4.000  0.3008  0.3254 -0.0814
 3253TIP3    H2 9724   1.152   4.546   3.884  0.4619  0.3923 -0.2133
 3254TIP3   OH2 9725   4.329   6.385   1.186  0.1105  0.5842 -0.3434
 3254TIP3    H1 9726   4.323   6.299   1.227  3.0706  0.8584  0.8833
 3254TIP3    H2 9727   4.363   6.442   1.255  2.7571  1.6537 -2.3563
 3255TIP3   OH2 9728   3.743   5.111   5.266  0.3598  0.0815 -0.1183
 3255TIP3    H1 9729   3.821   5.075   5.309 -0.0672  0.5007  1.0436
 3255TIP3    H2 9730   3.700   5.035   5.227 -0.6776 -0.8181  2.5240
 3256TIP3   OH2 9731   5.725   3.860   0.890  0.2131  0.2573 -0.2827
 3256TIP3    H1 9732   5.690   3.864   0.800  1.1784  2.9032 -0.6183
 3256TIP3    H2 9733   5.686   3.780   0.927  0.4997 -1.4512 -3.3118
 3257TIP3   OH2 9734   3.530   2.091   5.457 -0.3456 -0.4134 -0.1457
 3257TIP3    H1 9735   3.549   1.999   5.476  0.1307 -0.4840 -0.9365
 3257TIP3    H2 9736   3.597   2.117   5.395  0.0702  0.7307  0.7413
 3258TIP3   OH2 9737   5.016   4.904   2.305 -0.2989 -0.4445 -0.1643
 3258TIP3    H1 9738   4.985   4.841   2.239  1.8137 -1.1397 -0.5758
 3258TIP3    H2 9739   5.029   4.985   2.256  0.1708 -0.6393 -0.3681
 3259TIP3   OH2 9740   5.040   2.021   3.194 -0.3173  0.3703 -0.4223
 3259TIP3    H1 9741   5.130   2.052   3.187  0.2450 -1.1859 -0.4555
 3259TIP3    H2 9742   4.997   2.057   3.117  0.5020  0.4256 -0.8685
 3260TIP3   OH2 9743   5.509   5.335   0.275  0.1433 -0.1406  0.5893
 3260TIP3    H1 9744   5.499   5.270   0.206 -1.1946  1.3022 -0.6612
 3260TIP3    H2 9745   5.600   5.363   0.269  0.3483 -0.8681  0.1950
 3261TIP3   OH2 9746   2.812   0.926   1.703  0.3541 -0.3114  0.1235
 3261TIP3    H1 9747   2.793   1.000   1.760 -0.3779 -1.8884  2.0663
 3261TIP3    H2 9748   2.907   0.923   1.698  0.3904  0.7789 -0.0293
 3262TIP3   OH2 9749   5.092   5.126   3.523 -0.0863 -0.0052  0.5351
 3262TIP3    H1 9750   5.094   5.149   3.616 -0.4306 -2.1898  1.1424
 3262TIP3    H2 9751   5.170   5.167   3.486  1.0152 -0.5190  2.1737
 3263TIP3   OH2 9752   3.565   0.258   2.800 -0.2180 -0.4039 -0.1604
 3263TIP3    H1 9753   3.540   0.273   2.708  0.5512 -0.7162 -0.4298
 3263TIP3    H2 9754   3.624   0.183   2.796 -0.5789 -0.7407  0.6610
 3264TIP3   OH2 9755   5.944   5.685   3.542  0.5147  0.0687 -0.1841
 3264TIP3    H1 9756   5.890   5.758   3.514 -0.4620 -0.5113  0.1523
 3264TIP3    H2 9757   6.005   5.723   3.605 -0.6121  0.4331  0.7185
 3265TIP3   OH2 9758   5.723   5.862   5.396 -0.1224 -0.2803  0.3814
 3265TIP3    H1 9759   5.776   5.876   5.475 -1.3097 -1.4765  1.4489
 3265TIP3    H2 9760   5.751   5.776   5.364 -0.1232 -0.0989 -0.1084
 3266TIP3   OH2 9761   4.289   2.445   4.283  0.2621  0.0150  0.1373
 3266TIP3    H1 9762   4.205   2.467   4.241 -0.7965 -0.5229  1.8478
 3266TIP3    H2 9763   4.301   2.514   4.349  1.0060 -0.0863  0.1118
 3267TIP3   OH2 9764   2.256   5.714   2.867  0.1990  0.0875 -0.1993
 3267TIP3    H1 9765   2.196   5.640   2.870  1.1150 -0.6488  0.3078
 3267TIP3    H2 9766   2.243   5.759   2.951  1.8829 -1.3274  0.8748
 3268TIP3   OH2 9767   3.675   5.302   1.837  0.3251  0.5031  0.4182
 3268TIP3    H1 9768   3.672   5.383   1.786  0.3786  0.5249  0.4505
 3268TIP3    H2 9769   3.680   5.232   1.771  0.4020  0.5321  0.3945
 3269TIP3   OH2 9770   4.769   3.368   2.775  0.1211 -0.2098  0.5362
 3269TIP3    H1 9771   4.852   3.407   2.805  0.8356 -0.0071 -1.5588
 3269TIP3    H2 9772   4.723   3.346   2.856  1.3991  1.3855  1.7697
 3270TIP3   OH2 9773   6.087   5.464   3.466 -0.4939 -0.2506  0.7630
 3270TIP3    H1 9774   6.033   5.540   3.484  0.0203 -0.0002  1.2908
 3270TIP3    H2 9775   6.052   5.428   3.384 -1.8448 -0.4750  1.4210
 3271TIP3   OH2 9776   7.109   0.318   2.734 -0.4463 -0.0543  0.0202
 3271TIP3    H1 9777   7.116   0.370   2.814 -1.1818 -1.3409  0.9558
 3271TIP3    H2 9778   7.021   0.279   2.738 -0.5147 -0.1235 -1.4388
 3272TIP3   OH2 9779   0.756   3.534   0.023 -0.5215  0.4106 -0.0821
 3272TIP3    H1 9780   0.729   3.442   0.013 -0.4891  0.4278 -0.3236
 3272TIP3    H2 9781   0.808   3.534   0.103 -1.9837  0.5504  0.9072
 3273TIP3   OH2 9782   6.223   5.745   5.123  0.2407  0.1872  0.4252
 3273TIP3    H1 9783   6.151   5.792   5.165 -0.3836  0.2317 -0.6673
 3273TIP3    H2 9784   6.205   5.752   5.029 -0.2664 -2.8065  0.2032
 3274TIP3   OH2 9785   4.057   0.151   5.659  0.5831 -0.3303  0.2659
 3274TIP3    H1 9786   4.088   0.063   5.639 -0.1377 -0.6322  0.4579
 3274TIP3    H2 9787   3.972   0.157   5.613  0.5198  0.1749  0.4479
 3275TIP3   OH2 9788   5.180   3.234   4.600  0.2407 -0.1936  0.2834
 3275TIP3    H1 9789   5.198   3.322   4.567 -0.4639  0.9069  2.6076
 3275TIP3    H2 9790   5.266   3.194   4.610  0.7235  0.9716  1.0377
 3276TIP3   OH2 9791   2.139   5.209   0.502  0.4391  0.0830  0.5510
 3276TIP3    H1 9792   2.100   5.276   0.445  0.7456 -0.2476 -0.0612
 3276TIP3    H2 9793   2.103   5.228   0.589  0.4967  1.0190  0.3847
 3277TIP3   OH2 9794   2.366   5.289   4.603 -0.5047  0.5487 -0.5598
 3277TIP3    H1 9795   2.310   5.220   4.638  1.3041 -0.0668  1.3653
 3277TIP3    H2 9796   2.326   5.370   4.636 -0.4345  0.1344  0.6065
 3278TIP3   OH2 9797   0.303   5.962   5.134 -0.1871 -0.3792  0.2271
 3278TIP3    H1 9798   0.365   5.924   5.072 -1.3428 -1.8738 -0.0683
 3278TIP3    H2 9799   0.304   5.902   5.209 -1.5604 -0.6564  0.0392
 3279TIP3   OH2 9800   2.473   2.491   3.071  0.5402 -0.1622 -0.2160
 3279TIP3    H1 9801   2.399   2.541   3.035  0.2705 -0.8411 -0.6288
 3279TIP3    H2 9802   2.551   2.535   3.037  0.3036 -0.1280 -0.7209
 3280TIP3   OH2 9803   4.246   1.348   5.164 -0.1774  0.0992  0.0500
 3280TIP3    H1 9804   4.254   1.358   5.069  0.8934 -0.6059  0.0412
 3280TIP3    H2 9805   4.167   1.295   5.176 -0.8881  1.0236 -0.3676
 3281TIP3   OH2 9806   4.107   4.400   1.831 -0.1054 -0.2568 -0.7812
 3281TIP3    H1 9807   4.056   4.335   1.782 -1.8513  0.7839 -0.4286
 3281TIP3    H2 9808   4.050   4.425   1.904  2.2701 -1.4540  1.6398
 3282TIP3   OH2 9809   1.289   2.461   1.784  0.3742  0.0882  0.1364
 3282TIP3    H1 9810   1.282   2.435   1.876 -0.6741 -0.8677 -0.2040
 3282TIP3    H2 9811   1.213   2.422   1.742  1.2288 -0.0818 -1.2896
 3283TIP3   OH2 9812   6.685   6.083   3.460 -0.1466 -0.4982 -0.1753
 3283TIP3    H1 9813   6.767   6.130   3.445  0.0670 -0.9970 -0.5950
 3283TIP3    H2 9814   6.617   6.150   3.452  0.2643  0.0987  1.0473
 3284TIP3   OH2 9815   1.705   1.765   0.112 -0.0155 -0.1078 -0.2588
 3284TIP3    H1 9816   1.789   1.740   0.073 -0.1103 -1.4536  0.3354
 3284TIP3    H2 9817   1.647   1.777   0.037  0.4912 -0.0261 -0.6434
 3285TIP3   OH2 9818   3.015   1.057   0.734  0.0502  0.1083 -0.1234
 3285TIP3    H1 9819   2.972   0.972   0.722 -1.3148  0.7146  0.2103
 3285TIP3    H2 9820   3.095   1.037   0.783 -0.0936 -1.0171 -0.3198
 3286TIP3   OH2 9821   5.176   2.949   4.295 -0.1891 -0.2299  0.1149
 3286TIP3    H1 9822   5.179   2.861   4.259  2.5802  0.2368 -1.0776
 3286TIP3    H2 9823   5.181   2.937   4.390 -0.7227 -1.3523  0.0060
 3287TIP3   OH2 9824   5.495   4.078   2.008 -0.0864 -0.2863 -0.5695
 3287TIP3    H1 9825   5.536   3.994   2.029  1.8011  1.1561  2.1172
 3287TIP3    H2 9826   5.448   4.103   2.087 -0.7300  1.1475 -1.3646
 3288TIP3   OH2 9827   1.089   4.362   5.788 -0.0943 -0.0462  0.1861
 3288TIP3    H1 9828   1.014   4.308   5.762 -1.0284 -0.3214  3.0537
 3288TIP3    H2 9829   1.153   4.350   5.717 -1.8739 -1.5990 -1.2772
 3289TIP3   OH2 9830   5.029   4.005   5.257 -0.2296  0.1093  0.2244
 3289TIP3    H1 9831   4.935   4.019   5.254 -0.4998 -1.4228  0.4708
 3289TIP3    H2 9832   5.067   4.090   5.236 -1.6695  0.4942 -1.0144
 3290TIP3   OH2 9833   0.489   1.574   2.983 -0.3088 -0.1332  0.2446
 3290TIP3    H1 9834   0.457   1.491   2.947 -0.0482 -1.0690  2.0428
 3290TIP3    H2 9835   0.489   1.560   3.078 -1.3542  2.3371  0.6681
 3291TIP3   OH2 9836   7.080   6.795   0.631  0.2538  0.1620  0.0812
 3291TIP3    H1 9837   7.098   6.760   0.718  0.7766 -0.5047 -0.2829
 3291TIP3    H2 9838   7.166   6.819   0.596  0.2888 -1.2670 -0.9306
 3292TIP3   OH2 9839   4.810   1.422   3.314  0.5286  0.3852 -0.8978
 3292TIP3    H1 9840   4.881   1.480   3.340 -0.0389  0.7065 -0.0101
 3292TIP3    H2 9841   4.847   1.334   3.319  0.8510  0.5475 -0.4087
 3293TIP3   OH2 9842   3.431   2.954   0.795 -0.2442 -0.4265  0.2056
 3293TIP3    H1 9843   3.364   3.018   0.775 -0.0960 -0.3868 -0.1631
 3293TIP3    H2 9844   3.400   2.910   0.874 -0.7239 -0.4448  0.0049
 3294TIP3   OH2 9845   4.300   6.634   2.776  0.4463  0.4496 -0.0988
 3294TIP3    H1 9846   4.315   6.716   2.823 -1.0367  0.4386  0.4380
 3294TIP3    H2 9847   4.282   6.660   2.686 -0.8637  0.7923  0.2505
 3295TIP3   OH2 9848   6.435   5.453   2.219  0.5513  0.8127  0.5040
 3295TIP3    H1 9849   6.423   5.369   2.175 -0.5483  1.0775  0.2887
 3295TIP3    H2 9850   6.412   5.519   2.153  1.3110  1.2877  0.6989
 3296TIP3   OH2 9851   5.995   3.903   2.307 -0.0561 -0.2015  0.0508
 3296TIP3    H1 9852   6.020   3.974   2.248 -2.2372  0.3008 -0.3583
 3296TIP3    H2 9853   6.028   3.929   2.393  0.5823  0.5057 -0.4043
 3297TIP3   OH2 9854   3.112   0.476   0.347 -0.0479 -0.5973 -0.1754
 3297TIP3    H1 9855   3.029   0.449   0.309 -0.8368 -0.2544  1.2559
 3297TIP3    H2 9856   3.091   0.500   0.437  1.2147  1.5367 -0.3816
 3298TIP3   OH2 9857   3.265   3.375   4.723 -0.0867 -0.6163  0.2186
 3298TIP3    H1 9858   3.214   3.312   4.775 -0.7782 -0.4575 -0.2562
 3298TIP3    H2 9859   3.322   3.418   4.787 -0.5258 -0.8262  0.7563
 3299TIP3   OH2 9860   1.128   5.212   3.196 -0.0886 -0.5150 -0.1570
 3299TIP3    H1 9861   1.174   5.245   3.119  2.5722 -2.0569  0.6136
 3299TIP3    H2 9862   1.163   5.123   3.209 -0.9064 -0.5495  2.4330
 3300TIP3   OH2 9863   6.521   1.348   4.622 -0.4274 -0.0452 -0.0694
 3300TIP3    H1 9864   6.606   1.319   4.655 -0.7000 -1.0655 -0.2097
 3300TIP3    H2 9865   6.473   1.266   4.606 -1.3005  0.5066 -0.3344
 3301TIP3   OH2 9866   1.210   1.117   4.603  0.1180 -0.7331 -0.5508
 3301TIP3    H1 9867   1.264   1.073   4.538  0.2644  0.7066 -1.4492
 3301TIP3    H2 9868   1.146   1.051   4.629  0.0974 -1.3810 -2.1085
 3302TIP3   OH2 9869   4.359   5.711   4.289  0.2350 -0.1042 -0.6823
 3302TIP3    H1 9870   4.267   5.735   4.300 -0.1136 -0.6195 -2.2884
 3302TIP3    H2 9871   4.375   5.647   4.359 -0.9902 -0.9549 -1.1416
 3303TIP3   OH2 9872   6.036   1.120   1.175  0.2955  0.3405  0.1162
 3303TIP3    H1 9873   6.078   1.105   1.260  1.5365 -1.0905 -0.6976
 3303TIP3    H2 9874   6.059   1.209   1.152 -0.0210  0.7302  1.2518
 3304TIP3   OH2 9875   1.091   0.338   1.169 -0.7632 -0.3747 -0.0030
 3304TIP3    H1 9876   1.028   0.409   1.157  0.3992  0.5185 -1.1944
 3304TIP3    H2 9877   1.144   0.339   1.089  0.2083 -1.6432  0.5831
 3305TIP3   OH2 9878   0.870   0.617   5.516 -0.1913 -0.2033  0.3623
 3305TIP3    H1 9879   0.922   0.617   5.436 -2.1593 -0.0751 -0.9917
 3305TIP3    H2 9880   0.882   0.705   5.553 -0.6145  0.3501 -0.7618
 3306TIP3   OH2 9881   2.328   2.363   1.582 -0.3722 -0.3098 -0.0660
 3306TIP3    H1 9882   2.269   2.287   1.585 -2.8588  1.4831 -0.0684
 3306TIP3    H2 9883   2.396   2.343   1.646 -1.5212 -2.0859  0.6994
 3307TIP3   OH2 9884   1.905   4.696   0.430  0.0235 -0.2799 -0.6199
 3307TIP3    H1 9885   1.947   4.730   0.351  0.2997  1.8928  0.3650
 3307TIP3    H2 9886   1.898   4.602   0.416 -0.0563  0.0513 -3.2588
 3308TIP3   OH2 9887   4.736   5.963   2.726 -0.1941 -0.0604 -0.0627
 3308TIP3    H1 9888   4.718   5.916   2.645 -0.4641  0.7002 -0.4491
 3308TIP3    H2 9889   4.653   6.005   2.748 -0.0811 -0.1401  0.5273
 3309TIP3   OH2 9890   4.799   0.072   2.111  0.3244  0.7392 -0.0210
 3309TIP3    H1 9891   4.865   0.011   2.145  1.7448  2.6571  0.8695
 3309TIP3    H2 9892   4.809   0.067   2.016  1.9976  1.1950  0.1013
 3310TIP3   OH2 9893   1.219   5.690   4.174 -0.0264 -0.1896 -0.5241
 3310TIP3    H1 9894   1.135   5.734   4.183 -0.2177 -0.6052 -0.2662
 3310TIP3    H2 9895   1.284   5.757   4.200 -0.4080 -0.5712  1.6345
 3311TIP3   OH2 9896   6.893   5.286   2.334  0.9302 -1.3318  0.3090
 3311TIP3    H1 9897   6.805   5.267   2.365 -0.6086  3.4073 -0.2359
 3311TIP3    H2 9898   6.902   5.236   2.253 -1.5670 -1.5205  0.0796
 3312TIP3   OH2 9899   2.757   3.016   2.465 -0.1056  0.1649 -0.4047
 3312TIP3    H1 9900   2.744   2.965   2.544 -0.1466 -1.0241 -1.1606
 3312TIP3    H2 9901   2.838   3.065   2.481 -0.6683  0.7678  0.7716
 3313TIP3   OH2 9902   5.980   0.548   1.238 -0.2576  0.3146 -0.2839
 3313TIP3    H1 9903   5.971   0.473   1.180 -0.3217 -0.3954  0.6263
 3313TIP3    H2 9904   5.898   0.551   1.287  0.1532  0.3533  0.4115
 3314TIP3   OH2 9905   0.064   4.979   1.892  0.2794 -0.1997  0.3269
 3314TIP3    H1 9906   0.103   4.940   1.970 -0.2911 -1.0803  0.1852
 3314TIP3    H2 9907  -0.030   4.964   1.903  0.3368 -3.8363 -2.3096
 3315TIP3   OH2 9908   6.728   6.229   1.007  0.2444  0.6893 -0.4798
 3315TIP3    H1 9909   6.699   6.303   0.954 -1.1907  0.5381  0.0463
 3315TIP3    H2 9910   6.664   6.159   0.988 -0.3283  0.6301  1.4015
 3316TIP3   OH2 9911   5.550   5.103   1.752  0.0197 -0.9143 -0.3154
 3316TIP3    H1 9912   5.559   5.076   1.661 -0.1447 -0.0116 -0.6141
 3316TIP3    H2 9913   5.638   5.132   1.777 -0.2894  0.5359 -0.7759
 3317TIP3   OH2 9914   1.568   1.560   2.511  0.3542  0.3454 -0.2536
 3317TIP3    H1 9915   1.548   1.653   2.503  1.1953  0.4623 -1.2188
 3317TIP3    H2 9916   1.519   1.518   2.441  0.7640  0.1936 -0.4512
 3318TIP3   OH2 9917   0.046   6.716   2.914  0.2654 -0.3376 -0.2206
 3318TIP3    H1 9918   0.019   6.626   2.897 -1.4749  0.1026 -0.0014
 3318TIP3    H2 9919   0.009   6.736   3.000  1.8115  0.1622  0.3617
 3319TIP3   OH2 9920   1.877   1.294   1.460 -0.3908  0.2632 -0.0642
 3319TIP3    H1 9921   1.788   1.311   1.490  0.0542  1.7147  0.4859
 3319TIP3    H2 9922   1.906   1.219   1.513 -0.9641  0.3458  0.3801
 3320TIP3   OH2 9923   0.327   4.356   2.062  0.1118  0.0684  0.1736
 3320TIP3    H1 9924   0.315   4.381   2.154 -2.3577  0.0116 -0.0640
 3320TIP3    H2 9925   0.288   4.268   2.056 -1.1898  0.6816 -1.1845
 3321TIP3   OH2 9926   4.714   3.868   2.182  0.1394 -0.2788  0.0043
 3321TIP3    H1 9927   4.732   3.831   2.096  0.0139  1.9512 -1.0572
 3321TIP3    H2 9928   4.620   3.884   2.182  0.2573  0.4758  0.2069
 3322TIP3   OH2 9929   2.287   6.346   1.746 -0.4587 -0.4129 -0.0729
 3322TIP3    H1 9930   2.360   6.311   1.695 -1.8309 -3.1709 -0.3379
 3322TIP3    H2 9931   2.210   6.305   1.708 -1.8354 -0.2482  2.3380
 3323TIP3   OH2 9932   1.233   3.424   5.683 -0.3979 -0.2973  0.2470
 3323TIP3    H1 9933   1.311   3.378   5.654 -0.9520 -1.8187  1.0891
 3323TIP3    H2 9934   1.208   3.382   5.765 -1.3971  0.9848  0.6525
 3324TIP3   OH2 9935   1.748   5.255   1.366  0.3875  0.0085  0.5238
 3324TIP3    H1 9936   1.770   5.347   1.349  1.3264 -0.0072  1.5434
 3324TIP3    H2 9937   1.799   5.232   1.444  0.0003 -1.3227  0.4083
 3325TIP3   OH2 9938   4.252   3.770   0.377  0.1441  0.1875 -0.1222
 3325TIP3    H1 9939   4.342   3.796   0.360  0.3977 -1.1409 -1.0142
 3325TIP3    H2 9940   4.249   3.677   0.354 -1.9855  0.6968 -2.4760
 3326TIP3   OH2 9941   2.777   1.024   5.014 -0.0415 -0.0505  1.0889
 3326TIP3    H1 9942   2.782   0.930   5.031  1.7938 -0.0485  0.7752
 3326TIP3    H2 9943   2.863   1.058   5.039  0.2752  1.1043 -1.2615
 3327TIP3   OH2 9944   3.015   0.039   1.476  0.2316 -0.2380  0.4134
 3327TIP3    H1 9945   3.070   0.115   1.458  1.1193 -0.3263  2.4349
 3327TIP3    H2 9946   2.933   0.057   1.431  0.9865  1.1545 -0.4675
 3328TIP3   OH2 9947   2.994   1.569   3.948  0.2912  0.0271  0.2139
 3328TIP3    H1 9948   3.051   1.639   3.981 -0.2596 -0.2407  1.8269
 3328TIP3    H2 9949   3.053   1.496   3.930  0.6268  0.1838  0.6415
 3329TIP3   OH2 9950   4.704   1.076   4.350 -0.2825  0.6980  0.0891
 3329TIP3    H1 9951   4.732   1.155   4.305 -0.4746  0.8299  0.1967
 3329TIP3    H2 9952   4.741   1.085   4.438  1.0141 -0.0726 -0.3447
 3330TIP3   OH2 9953   4.535   3.831   4.854 -0.1613  0.0763  0.3310
 3330TIP3    H1 9954   4.548   3.736   4.866  0.5079 -0.0127 -0.9229
 3330TIP3    H2 9955   4.523   3.865   4.943 -0.6631 -1.2155  0.7833
 3331TIP3   OH2 9956   6.353   4.621   1.077 -0.1193  0.3012 -0.5645
 3331TIP3    H1 9957   6.342   4.643   0.985 -2.1406 -1.4106 -0.7930
 3331TIP3    H2 9958   6.300   4.686   1.123  0.2042  0.6359 -0.6583
 3332TIP3   OH2 9959   4.108   6.659   1.780  0.9052  0.3407 -0.3853
 3332TIP3    H1 9960   4.044   6.705   1.726 -0.7060 -0.6333  0.6428
 3332TIP3    H2 9961   4.072   6.661   1.868  3.0879  1.1679  0.5483
 3333TIP3   OH2 9962   6.298   3.528   1.933  0.2213 -0.1342  0.1275
 3333TIP3    H1 9963   6.322   3.505   1.843  0.7223 -0.9067  0.4569
 3333TIP3    H2 9964   6.263   3.617   1.926 -0.9730 -0.6639 -1.0392
 3334TIP3   OH2 9965   4.379   5.212   4.407  0.4572  0.0777 -0.8109
 3334TIP3    H1 9966   4.474   5.207   4.414  0.3760  0.1399  0.8817
 3334TIP3    H2 9967   4.361   5.212   4.313  2.0864 -0.6058 -1.1561
 3335TIP3   OH2 9968   6.853   4.640   1.548 -0.3981  0.5111 -0.0278
 3335TIP3    H1 9969   6.857   4.667   1.639 -0.9383  0.0799  0.1252
 3335TIP3    H2 9970   6.834   4.546   1.551  2.6920 -0.2572 -0.5100
 3336TIP3   OH2 9971   1.345   0.695   0.135 -0.2707 -0.0698  0.1486
 3336TIP3    H1 9972   1.340   0.773   0.079  0.0569  0.3987  0.7583
 3336TIP3    H2 9973   1.258   0.686   0.173 -0.3957 -0.1824 -0.1670
 3337TIP3   OH2 9974   4.621   1.183   0.414  0.0268 -0.1277  0.2160
 3337TIP3    H1 9975   4.679   1.203   0.340  0.9733  0.3291  1.0636
 3337TIP3    H2 9976   4.669   1.211   0.491  0.0461 -2.6449  1.2337
 3338TIP3   OH2 9977   2.619   0.071   1.585  0.3151  0.3832  0.4247
 3338TIP3    H1 9978   2.634  -0.023   1.583  0.3677  0.1942  3.6366
 3338TIP3    H2 9979   2.563   0.088   1.510 -0.1213 -2.3035  0.0387
 3339TIP3   OH2 9980   2.239   6.342   2.929 -0.4802 -0.4208 -0.0883
 3339TIP3    H1 9981   2.189   6.424   2.928  1.2012  0.6282 -0.8963
 3339TIP3    H2 9982   2.237   6.311   2.839  3.0707  1.4525 -0.9985
 3340TIP3   OH2 9983   4.103   0.343   1.324  0.3535  0.1445 -0.5940
 3340TIP3    H1 9984   4.076   0.372   1.411  0.3703 -0.2046 -0.4698
 3340TIP3    H2 9985   4.063   0.406   1.264 -1.5702 -0.8815 -0.4839
 3341TIP3   OH2 9986   0.639   6.740   5.235 -0.3674 -0.4413  0.3317
 3341TIP3    H1 9987   0.654   6.782   5.319  0.3759 -0.2186  0.0908
 3341TIP3    H2 9988   0.726   6.729   5.197 -0.7351  0.1299 -0.7265
 3342TIP3   OH2 9989   1.908   4.685   0.974  0.1961  0.2419 -0.3558
 3342TIP3    H1 9990   1.924   4.601   1.016 -0.3917 -0.3527 -1.3043
 3342TIP3    H2 9991   1.969   4.687   0.900 -0.6229  0.1226 -1.0421
 3343TIP3   OH2 9992   5.137   6.280   0.526 -0.6692  0.5104 -0.1154
 3343TIP3    H1 9993   5.120   6.365   0.565 -0.4294  0.1908  0.7066
 3343TIP3    H2 9994   5.054   6.254   0.487 -0.4210  1.6746 -1.5053
 3344TIP3   OH2 9995   3.265   3.480   5.822  0.2613  0.3370  0.4401
 3344TIP3    H1 9996   3.186   3.527   5.848  0.5030  0.9250  0.1147
 3344TIP3    H2 9997   3.290   3.431   5.901  0.2648  1.1067  0.9230
 3345TIP3   OH2 9998   2.058   0.310   0.788  0.0009  0.2383 -0.1747
 3345TIP3    H1 9999   2.028   0.270   0.870 -0.8182  1.8806  0.3750
 3345TIP3    H210000   2.088   0.398   0.813 -1.4928  1.2901 -1.7744
 3346TIP3   OH210001   5.928   3.386   4.579 -0.0674  0.1314  0.3305
 3346TIP3    H110002   5.998   3.386   4.514 -0.4420  2.1655 -0.1492
 3346TIP3    H210003   5.971   3.404   4.662  0.4177 -2.5080  0.7473
 3347TIP3   OH210004   2.632   6.516   3.005 -0.5298 -0.4748 -0.5527
 3347TIP3    H110005   2.567   6.502   3.074  0.5602 -0.6873  0.4558
 3347TIP3    H210006   2.580   6.534   2.927 -1.8371 -2.0797 -0.1027
 3348TIP3   OH210007   2.790   4.962   3.440 -0.4875  0.2170  0.6714
 3348TIP3    H110008   2.699   4.983   3.417 -0.6878  0.7011  1.7872
 3348TIP3    H210009   2.783   4.922   3.527  0.4505  1.3037  1.2740
 3349TIP3   OH210010   1.889   2.919   1.268  0.3494 -0.3904 -0.5065
 3349TIP3    H110011   1.859   2.896   1.356  1.3073 -1.5549 -0.4436
 3349TIP3    H210012   1.853   3.006   1.251  0.6528  0.1159  1.2824
 3350TIP3   OH210013   0.965   1.468   1.474  0.0996 -0.0464 -0.0699
 3350TIP3    H110014   1.029   1.488   1.406  0.2033  0.2813  0.1234
 3350TIP3    H210015   0.959   1.373   1.474  2.0790 -0.2407  1.2604
 3351TIP3   OH210016   0.376   3.787   2.168 -0.2872 -0.0881 -0.7872
 3351TIP3    H110017   0.450   3.726   2.167 -0.2600 -0.0584 -0.5727
 3351TIP3    H210018   0.415   3.872   2.188 -0.2391  0.1146 -1.7179
 3352TIP3   OH210019   1.608   3.067   3.356 -0.4491  0.8166  0.2151
 3352TIP3    H110020   1.625   3.098   3.445  0.1112 -0.2018  0.4796
 3352TIP3    H210021   1.537   3.004   3.366  1.0713 -0.9677  0.3043
 3353TIP3   OH210022   2.216   2.489   3.188  0.2430 -0.1212 -0.2378
 3353TIP3    H110023   2.133   2.448   3.212  0.5018 -0.1217  0.7279
 3353TIP3    H210024   2.269   2.418   3.153  0.0840 -0.2708 -0.1768
 3354TIP3   OH210025   0.114   2.830   0.993 -0.0842  0.3471 -0.3517
 3354TIP3    H110026   0.074   2.766   1.052 -0.4693  0.2440 -0.7163
 3354TIP3    H210027   0.048   2.846   0.926  1.3711 -1.8102 -2.4774
 3355TIP3   OH210028   2.735   4.465   3.434  0.7275  0.2680 -0.3231
 3355TIP3    H110029   2.744   4.429   3.346  0.9164  1.0637 -0.6336
 3355TIP3    H210030   2.790   4.543   3.434  0.9116  0.1548  0.5722
 3356TIP3   OH210031   0.374   2.822   5.225 -0.2388 -0.7003  0.1472
 3356TIP3    H110032   0.464   2.791   5.230  0.1195 -0.0757 -1.8491
 3356TIP3    H210033   0.331   2.783   5.302  1.4045 -1.9927  0.4591
 3357TIP3   OH210034   5.239   0.374   2.961  0.5291  0.1999 -0.4429
 3357TIP3    H110035   5.262   0.452   3.011 -0.1876  0.4834 -0.5544
 3357TIP3    H210036   5.210   0.311   3.028  0.2658  0.3312 -0.4320
 3358TIP3   OH210037   3.526   4.329   4.230  0.2453 -0.0373  0.2376
 3358TIP3    H110038   3.591   4.392   4.260 -0.2717 -0.4790  2.5124
 3358TIP3    H210039   3.560   4.295   4.147  0.4916  3.2081 -1.1263
 3359TIP3   OH210040   6.338   2.018   2.537 -0.5211 -0.0254  0.8103
 3359TIP3    H110041   6.306   1.980   2.455 -0.0574  0.0182  0.6069
 3359TIP3    H210042   6.259   2.044   2.584 -0.7829  0.1859  0.2629
 3360TIP3   OH210043   3.016   4.512   1.124 -0.0600  0.4220  0.3424
 3360TIP3    H110044   2.988   4.422   1.110  1.8057 -0.1468 -0.0080
 3360TIP3    H210045   3.070   4.533   1.048  0.2263  1.5350  0.8289
 3361TIP3   OH210046   5.536   0.882   0.018  0.2469  0.3489 -0.6065
 3361TIP3    H110047   5.585   0.895  -0.064  0.1508  0.3382 -0.6655
 3361TIP3    H210048   5.566   0.953   0.075 -0.7121  1.2041 -1.1323
 3362TIP3   OH210049   0.483   3.908   2.533 -0.6528  0.1412 -0.1433
 3362TIP3    H110050   0.422   3.895   2.605 -0.0424  1.3819  0.6290
 3362TIP3    H210051   0.555   3.958   2.571  0.5143 -0.6732 -1.2023
 3363TIP3   OH210052   7.190   1.183   0.274 -0.4528 -0.6424  0.0459
 3363TIP3    H110053   7.115   1.239   0.292 -1.9460 -2.7693  0.8519
 3363TIP3    H210054   7.252   1.203   0.344 -0.2856  1.0224 -0.5373
 3364TIP3   OH210055   4.209   5.134   5.571  0.1864 -0.0708  0.1123
 3364TIP3    H110056   4.288   5.130   5.518  0.2476 -0.3485  0.2276
 3364TIP3    H210057   4.229   5.082   5.649 -0.5790 -1.2490 -0.4658
 3365TIP3   OH210058   5.577   1.016   0.443 -0.5807 -0.2001  0.4835
 3365TIP3    H110059   5.611   0.931   0.417 -0.3972 -1.2558  3.7328
 3365TIP3    H210060   5.496   1.025   0.393 -0.6038 -2.3088  0.0371
 3366TIP3   OH210061   2.156   6.071   2.312 -0.2757  0.0095 -0.9497
 3366TIP3    H110062   2.233   6.127   2.305 -1.4507  1.8378 -0.0933
 3366TIP3    H210063   2.132   6.075   2.405 -1.3897 -0.5125 -1.2006
 3367TIP3   OH210064   1.709   4.531   3.940 -0.3265  0.3385  0.8057
 3367TIP3    H110065   1.700   4.563   4.029 -0.7470 -2.1533  1.7539
 3367TIP3    H210066   1.634   4.567   3.893 -0.7830  0.7051  1.7954
 3368TIP3   OH210067   6.163   4.666   3.274  0.2888 -0.0081 -0.2985
 3368TIP3    H110068   6.175   4.591   3.333 -0.7354 -0.6729 -0.8930
 3368TIP3    H210069   6.240   4.721   3.289  0.3784 -0.4874  1.1577
 3369TIP3   OH210070   2.814   6.761   0.703 -0.3408 -0.1145 -0.0694
 3369TIP3    H110071   2.882   6.715   0.654  0.2597 -0.6441  1.2233
 3369TIP3    H210072   2.831   6.854   0.687  0.0527 -0.2707 -0.5738
 3370TIP3   OH210073   6.396   6.032   3.253 -0.1918  0.6892  0.5638
 3370TIP3    H110074   6.394   6.071   3.165  0.4840  0.4735  0.4460
 3370TIP3    H210075   6.434   6.100   3.308  2.4418 -0.2667  0.0806
 3371TIP3   OH210076   3.843   0.399   3.079 -0.1693  0.0104 -0.1655
 3371TIP3    H110077   3.830   0.453   3.000  0.0866 -0.8559 -0.8164
 3371TIP3    H210078   3.921   0.347   3.059  0.4537  0.4546  1.0514
 3372TIP3   OH210079   1.796   3.630   2.520  0.8121 -0.4582  0.1737
 3372TIP3    H110080   1.784   3.564   2.451  0.9966 -0.8458  0.5076
 3372TIP3    H210081   1.867   3.685   2.489 -0.4866  0.6693 -0.9232
 3373TIP3   OH210082   1.656   2.115   3.943 -0.4101 -0.0309  0.2898
 3373TIP3    H110083   1.682   2.143   4.031  1.0299 -0.2048 -0.0651
 3373TIP3    H210084   1.648   2.197   3.893  1.2020 -0.0541 -0.0498
 3374TIP3   OH210085   0.044   4.906   3.873 -0.4464 -0.0294 -0.4722
 3374TIP3    H110086  -0.050   4.890   3.867 -0.2543 -0.8197 -2.1253
 3374TIP3    H210087   0.084   4.819   3.861  0.4937  0.1780  0.9418
 3375TIP3   OH210088   5.389   6.136   1.304  0.1652 -0.0375  0.1665
 3375TIP3    H110089   5.377   6.094   1.218  0.8991  2.3676 -1.2038
 3375TIP3    H210090   5.306   6.121   1.349 -0.3841 -1.0577 -1.1074
 3376TIP3   OH210091   2.765   3.920   1.442  0.0348  0.0531  0.1766
 3376TIP3    H110092   2.696   3.916   1.508 -1.9947  0.8765 -1.7582
 3376TIP3    H210093   2.756   3.839   1.393  2.1503 -0.9955  1.3793
 3377TIP3   OH210094   2.555   3.023   5.030  0.3703 -0.2110 -0.1902
 3377TIP3    H110095   2.573   2.929   5.029  1.1188 -0.0751 -0.9669
 3377TIP3    H210096   2.623   3.060   4.973  1.7293  1.1024  2.1395
 3378TIP3   OH210097   1.166   1.251   5.275  0.0579  0.1822  0.5044
 3378TIP3    H110098   1.185   1.336   5.316  0.5623  1.5950 -2.3731
 3378TIP3    H210099   1.223   1.189   5.320  2.5181  2.1120  0.2442
 3379TIP3   OH210100   3.388   5.993   2.862 -0.7514 -0.1799 -0.1241
 3379TIP3    H110101   3.427   6.057   2.922 -2.0750  1.0594 -0.5574
 3379TIP3    H210102   3.463   5.946   2.826  0.1710  0.2039  1.1954
 3380TIP3   OH210103   4.852   0.701   5.654 -0.4681  0.1559 -0.2837
 3380TIP3    H110104   4.931   0.651   5.635 -1.3191 -1.3121 -0.1249
 3380TIP3    H210105   4.818   0.662   5.734 -1.2063  0.9500 -0.1960
 3381TIP3   OH210106   1.170   1.452   1.294 -0.2266  0.3319  0.1759
 3381TIP3    H110107   1.207   1.496   1.371  2.4116 -1.5442  0.1289
 3381TIP3    H210108   1.238   1.459   1.227 -0.7758 -1.4933 -0.6423
 3382TIP3   OH210109   5.480   5.558   0.814 -0.4607  0.2309  0.6617
 3382TIP3    H110110   5.443   5.641   0.846  0.3850  0.2606  1.6113
 3382TIP3    H210111   5.436   5.543   0.731 -1.9811  0.7037  1.3407
 3383TIP3   OH210112   3.771   4.648   2.800  0.3435  0.3492  0.1867
 3383TIP3    H110113   3.822   4.643   2.880  1.3343  0.0374 -0.4425
 3383TIP3    H210114   3.700   4.585   2.811  0.5897  0.1708  0.7323
 3384TIP3   OH210115   5.372   3.319   5.690  0.1510  0.4964 -0.5633
 3384TIP3    H110116   5.421   3.239   5.707 -0.0288  0.8934  2.3703
 3384TIP3    H210117   5.437   3.389   5.699 -0.3951  0.8675  0.6542
 3385TIP3   OH210118   1.543   4.015   1.218 -0.0614 -0.0539  0.2690
 3385TIP3    H110119   1.472   4.055   1.268 -0.2269 -0.4269  0.3308
 3385TIP3    H210120   1.542   3.923   1.243 -0.3481 -0.3124 -0.6524
 3386TIP3   OH210121   6.513   2.477   5.498  0.2337 -0.2337 -0.0173
 3386TIP3    H110122   6.509   2.433   5.413  0.7380 -0.9778  0.3413
 3386TIP3    H210123   6.494   2.409   5.562  0.5539  0.1680  0.5162
 3387TIP3   OH210124   5.200   1.202   0.875 -0.1300  0.2802 -0.2104
 3387TIP3    H110125   5.146   1.123   0.870 -1.1718  0.9263  0.3879
 3387TIP3    H210126   5.170   1.257   0.803  2.0642 -0.6952 -1.9787
 3388TIP3   OH210127   1.596   5.624   1.394 -0.1090 -0.5892 -0.3340
 3388TIP3    H110128   1.689   5.608   1.409 -0.1768 -0.6148  0.0806
 3388TIP3    H210129   1.553   5.579   1.467 -0.2788  2.3913  1.5754
 3389TIP3   OH210130   1.638   6.313   1.034 -0.5082 -0.3163 -0.1330
 3389TIP3    H110131   1.725   6.282   1.008 -0.3143 -0.5992  0.8328
 3389TIP3    H210132   1.614   6.376   0.966  0.0520 -0.9243 -0.9060
 3390TIP3   OH210133   0.036   1.405   2.266  0.1739  0.2887  0.3219
 3390TIP3    H110134   0.075   1.491   2.283  1.0569 -0.3246  1.5054
 3390TIP3    H210135   0.084   1.371   2.191 -2.5618  2.2610 -2.6048
 3391TIP3   OH210136   3.006   4.740   4.421  0.7016 -0.5140  0.2457
 3391TIP3    H110137   2.945   4.802   4.460  0.2505  0.4635 -1.8784
 3391TIP3    H210138   3.088   4.788   4.413  0.5275 -0.3675 -0.8208
 3392TIP3   OH210139   2.034   0.434   3.861 -0.3148  0.3799  0.2942
 3392TIP3    H110140   2.087   0.414   3.784 -0.5074  1.1907 -0.0613
 3392TIP3    H210141   1.970   0.363   3.865 -0.4014  0.4119 -0.3929
 3393TIP3   OH210142   0.615   3.104   5.697  0.4829 -0.0235  0.3910
 3393TIP3    H110143   0.561   3.062   5.629  0.0310 -0.4502  1.0041
 3393TIP3    H210144   0.579   3.192   5.705  0.3068 -0.0873  0.3207
 3394TIP3   OH210145   2.082   4.598   1.246  0.0534  0.5220  0.2983
 3394TIP3    H110146   2.048   4.527   1.191  0.1476 -0.7170  1.7995
 3394TIP3    H210147   2.004   4.642   1.279 -0.0549 -0.1562  0.9705
 3395TIP3   OH210148   2.756   2.469   1.841 -0.2370 -0.2320 -0.0947
 3395TIP3    H110149   2.748   2.430   1.928 -0.8070 -0.2233 -0.1412
 3395TIP3    H210150   2.682   2.433   1.792 -1.5968  1.9048  0.2329
 3396TIP3   OH210151   0.861   5.358   1.297 -0.0892 -0.4257 -0.1496
 3396TIP3    H110152   0.941   5.349   1.349 -0.2021 -0.6814 -0.0208
 3396TIP3    H210153   0.792   5.377   1.361 -0.3727 -1.5339 -0.1166
 3397TIP3   OH210154   3.042   5.186   1.920  0.5787 -0.6051 -0.6233
 3397TIP3    H110155   3.099   5.161   1.848  1.9028  1.1670 -0.2571
 3397TIP3    H210156   3.084   5.262   1.959 -1.7092  0.3946  0.0841
 3398TIP3   OH210157   5.999   5.375   5.159 -0.1563  0.6449 -0.4161
 3398TIP3    H110158   5.917   5.333   5.188  0.7497  0.9995  3.1889
 3398TIP3    H210159   5.981   5.405   5.070 -3.2626 -1.0217 -0.4764
 3399TIP3   OH210160   2.957   3.535   0.869  0.2640  0.3192 -0.2579
 3399TIP3    H110161   3.001   3.619   0.881  2.8271 -1.2176  2.1035
 3399TIP3    H210162   3.023   3.478   0.829 -0.0993 -1.5526  1.6420
 3400TIP3   OH210163   0.878   2.253   3.005  0.3315  0.1809  0.4344
 3400TIP3    H110164   0.956   2.262   3.061  0.1612 -0.2972  0.7580
 3400TIP3    H210165   0.840   2.169   3.031  1.3796 -1.0643 -1.8465
 3401TIP3   OH210166   1.831   2.864   3.018 -0.0940 -0.2958 -0.0658
 3401TIP3    H110167   1.831   2.798   3.087 -4.0024 -0.3084  0.1507
 3401TIP3    H210168   1.809   2.946   3.064 -1.9787 -0.1623 -1.1378
 3402TIP3   OH210169   6.670   3.418   4.647  0.3005  0.0845 -0.0771
 3402TIP3    H110170   6.667   3.434   4.552  0.8034 -2.5516 -0.6236
 3402TIP3    H210171   6.758   3.447   4.673  0.5701 -0.1681 -0.6715
 3403TIP3   OH210172   1.005   1.968   4.247 -0.2792  0.2154  0.1406
 3403TIP3    H110173   1.024   1.909   4.174  0.4416  0.7047 -0.0810
 3403TIP3    H210174   0.988   1.909   4.321  0.9418 -0.2823  0.0534
 3404TIP3   OH210175   5.894   6.383   2.257  0.0879 -0.9190  0.4272
 3404TIP3    H110176   5.828   6.400   2.190 -0.5548 -0.2969  1.1876
 3404TIP3    H210177   5.927   6.296   2.237 -2.4117 -2.1429  1.1593
 3405TIP3   OH210178   3.585   6.758   1.640 -0.0919 -0.0983 -0.7439
 3405TIP3    H110179   3.555   6.761   1.549  0.5056  0.7262 -0.9185
 3405TIP3    H210180   3.652   6.690   1.641 -0.3821 -0.3897 -0.8280
 3406TIP3   OH210181   0.951   2.285   3.346  0.2529 -0.1187  0.1745
 3406TIP3    H110182   0.981   2.211   3.398 -0.1784  1.2414  2.5173
 3406TIP3    H210183   1.028   2.343   3.341 -0.3146  0.7443  1.2035
 3407TIP3   OH210184   4.422   5.308   2.318  0.2093  0.6354  0.3789
 3407TIP3    H110185   4.440   5.221   2.282  1.5426  0.9561  0.2262
 3407TIP3    H210186   4.326   5.313   2.320  0.1080 -0.7395  0.1753
 3408TIP3   OH210187   6.339   3.721   1.506 -0.6398  0.1352 -0.2228
 3408TIP3    H110188   6.338   3.666   1.428 -2.0292 -0.8328  0.4438
 3408TIP3    H210189   6.251   3.714   1.542 -0.5750  2.0414  0.4346
 3409TIP3   OH210190   3.288   5.781   1.917 -0.1922  0.0359 -0.4091
 3409TIP3    H110191   3.317   5.810   1.830  0.3881 -1.3061 -0.6836
 3409TIP3    H210192   3.343   5.829   1.978  1.8790 -1.5760 -0.8955
 3410TIP3   OH210193   6.660   1.337   2.795 -0.5529  0.0083 -0.1867
 3410TIP3    H110194   6.581   1.311   2.747 -0.8153  1.0545 -0.3443
 3410TIP3    H210195   6.710   1.389   2.733  0.0898 -0.3391  0.0365
 3411TIP3   OH210196   5.631   5.756   3.080 -0.6088 -0.4248  0.2418
 3411TIP3    H110197   5.576   5.752   3.158 -1.8529 -0.8703 -0.6284
 3411TIP3    H210198   5.704   5.813   3.104  0.2707 -2.3233  2.4674
 3412TIP3   OH210199   0.663   2.902   1.372  0.1888  0.7594  0.0622
 3412TIP3    H110200   0.574   2.936   1.365 -0.2390 -0.5373 -1.6927
 3412TIP3    H210201   0.715   2.977   1.402 -1.5505  1.3820  1.7090
 3413TIP3   OH210202   0.146   6.550   0.544 -0.0628  0.6168  0.2200
 3413TIP3    H110203   0.199   6.507   0.611 -0.2228  0.6791  0.3897
 3413TIP3    H210204   0.203   6.618   0.508  1.1441 -1.3987 -1.8980
 3414TIP3   OH210205   3.047   0.618   4.732  0.8006  0.0572  0.5767
 3414TIP3    H110206   3.123   0.666   4.765  1.2938  0.4035 -0.9748
 3414TIP3    H210207   2.979   0.684   4.721  0.1830 -0.2811  2.1330
 3415TIP3   OH210208   0.976   1.228   3.156  0.1682  0.5090 -0.1055
 3415TIP3    H110209   0.922   1.255   3.231 -0.2750  0.2617 -0.3324
 3415TIP3    H210210   0.926   1.255   3.079  0.6751  0.8558 -0.3159
 3416TIP3   OH210211   1.089   5.453   5.701 -0.1658 -0.2195 -0.2969
 3416TIP3    H110212   1.074   5.466   5.608 -2.2638 -2.5805 -0.4018
 3416TIP3    H210213   1.159   5.388   5.706 -0.4882 -0.5696 -0.2684
 3417TIP3   OH210214   4.262   2.717   3.887 -0.2729  1.1319  0.5237
 3417TIP3    H110215   4.327   2.774   3.846  0.4325 -0.2111 -0.3058
 3417TIP3    H210216   4.182   2.768   3.887  0.5806  2.5280  0.8298
 3418TIP3   OH210217   4.751   0.364   5.579 -0.3579  0.6553 -0.1933
 3418TIP3    H110218   4.661   0.366   5.611 -0.5628 -1.9997 -0.4096
 3418TIP3    H210219   4.803   0.336   5.654 -0.1128 -0.5225 -0.7892
 3419TIP3   OH210220   5.692   2.802   2.936  0.4058  0.5966 -0.2434
 3419TIP3    H110221   5.605   2.773   2.963  1.0935 -1.4662 -0.0878
 3419TIP3    H210222   5.682   2.896   2.922 -1.7688  0.4686  0.0455
 3420TIP3   OH210223   6.566   2.269   1.844 -0.3385 -0.8627  0.2352
 3420TIP3    H110224   6.657   2.243   1.859 -0.1996 -0.7503 -0.3852
 3420TIP3    H210225   6.515   2.191   1.865 -0.0870 -0.9843  0.3989
 3421TIP3   OH210226   3.720   0.236   3.872 -0.2898  0.3830 -0.1675
 3421TIP3    H110227   3.786   0.174   3.841  0.5625  1.0727  0.2428
 3421TIP3    H210228   3.637   0.189   3.862  0.1510 -0.1208 -1.6350
 3422TIP3   OH210229   3.627   3.758   1.200 -0.1317  0.5665  0.1893
 3422TIP3    H110230   3.588   3.819   1.263 -0.9536  0.7905 -0.5270
 3422TIP3    H210231   3.594   3.672   1.226  0.1669  0.5499  0.5364
 3423TIP3   OH210232   1.603   0.137   0.780 -0.0576 -0.0349 -0.6693
 3423TIP3    H110233   1.569   0.069   0.722 -1.8173  0.5243 -0.3414
 3423TIP3    H210234   1.548   0.213   0.764  1.8835  1.3781 -1.0446
 3424TIP3   OH210235   4.110   3.599   4.972  0.1394 -0.0049 -0.0479
 3424TIP3    H110236   4.191   3.599   5.024  0.3845  0.4906 -0.4260
 3424TIP3    H210237   4.048   3.649   5.025  0.7062  1.4456 -0.6949
 3425TIP3   OH210238   3.739   4.842   0.489  0.3691 -0.2756 -0.2323
 3425TIP3    H110239   3.695   4.775   0.436  1.9926 -0.8597 -0.8993
 3425TIP3    H210240   3.807   4.877   0.431  0.4868  0.9318  0.6067
 3426TIP3   OH210241   0.736   2.184   5.349 -0.0624  0.3359 -0.6739
 3426TIP3    H110242   0.767   2.122   5.283  0.1876  1.4050 -1.5737
 3426TIP3    H210243   0.647   2.154   5.369 -0.1394  0.0004 -1.4842
 3427TIP3   OH210244   4.898   6.484   3.896  0.1690  0.2401 -0.0312
 3427TIP3    H110245   4.845   6.504   3.819  0.6463  0.4388 -0.3093
 3427TIP3    H210246   4.834   6.470   3.966 -0.2714 -0.0372 -0.4813
 3428TIP3   OH210247   1.246   3.997   0.944  0.1343 -0.0673 -0.2845
 3428TIP3    H110248   1.280   4.085   0.960  0.2364  0.1763 -1.7001
 3428TIP3    H210249   1.296   3.966   0.869  0.4316 -1.5377  0.5010
 3429TIP3   OH210250   1.402   3.184   1.835  0.3476  0.1368  0.3503
 3429TIP3    H110251   1.318   3.184   1.880  0.6791 -0.1599  0.9700
 3429TIP3    H210252   1.397   3.110   1.775  0.9369 -1.1800  1.8582
 3430TIP3   OH210253   1.854   5.716   1.035 -0.3264 -0.6975  0.1586
 3430TIP3    H110254   1.791   5.684   0.970 -2.0117 -0.0505  1.3944
 3430TIP3    H210255   1.812   5.793   1.074  1.7710  0.4733  0.2377
 3431TIP3   OH210256   2.603   3.340   0.103  0.5653  0.5601  0.0078
 3431TIP3    H110257   2.591   3.413   0.164  1.4785  0.1097  0.7557
 3431TIP3    H210258   2.533   3.279   0.123 -1.0184  1.7871 -1.5147
 3432TIP3   OH210259   4.541   2.419   0.779  0.2265 -0.5248 -0.4766
 3432TIP3    H110260   4.608   2.369   0.733  0.5133  0.9010 -1.7141
 3432TIP3    H210261   4.585   2.451   0.858  0.9251  0.1018 -1.0994
 3433TIP3   OH210262   2.606   1.449   3.577  0.3857  0.4541  0.3305
 3433TIP3    H110263   2.545   1.386   3.613  1.2407 -0.7896 -0.3438
 3433TIP3    H210264   2.555   1.501   3.516 -0.3242  0.4304  0.8918
 3434TIP3   OH210265   2.854   0.678   5.765 -0.5245  0.1246  0.1986
 3434TIP3    H110266   2.829   0.585   5.766 -0.4407  0.0703 -1.1762
 3434TIP3    H210267   2.882   0.696   5.855 -2.6698 -0.5852  1.0801
 3435TIP3   OH210268   3.744   1.959   2.390  0.1959  0.0169 -0.5254
 3435TIP3    H110269   3.778   2.004   2.467  1.5214 -0.0142 -1.0628
 3435TIP3    H210270   3.814   1.901   2.362 -0.1254  0.2370 -1.9217
 3436TIP3   OH210271   3.061   0.607   5.534  0.2500 -0.2176 -0.2371
 3436TIP3    H110272   3.146   0.648   5.541  0.7230 -0.8696 -1.6197
 3436TIP3    H210273   3.062   0.537   5.599  1.6557 -1.5965 -1.6259
 3437TIP3   OH210274   6.183   5.341   0.671  0.4795  0.0937 -0.6192
 3437TIP3    H110275   6.249   5.406   0.696 -0.4374  0.9787 -0.4463
 3437TIP3    H210276   6.131   5.385   0.604 -1.4124  0.3300  0.9193
 3438TIP3   OH210277   1.869   5.025   3.852 -0.6212 -0.3261 -0.0396
 3438TIP3    H110278   1.910   5.009   3.937 -2.6633  0.9733  1.2569
 3438TIP3    H210279   1.872   5.120   3.841 -0.3889 -0.4714 -1.4693
 3439TIP3   OH210280   1.238   2.154   1.603  0.3996 -0.1620  0.6822
 3439TIP3    H110281   1.260   2.068   1.565  0.5170  0.1837 -0.0571
 3439TIP3    H210282   1.320   2.184   1.643  1.1960  0.8452 -1.5269
 3440TIP3   OH210283   3.575   1.872   4.330 -0.3370 -0.3707 -0.3644
 3440TIP3    H110284   3.484   1.900   4.330 -0.1256  0.3592  0.9260
 3440TIP3    H210285   3.617   1.923   4.399  1.1584 -0.3675 -1.2101
 3441TIP3   OH210286   1.056   6.560   5.463  0.2745 -0.0955  0.5723
 3441TIP3    H110287   1.080   6.591   5.376  0.6804 -2.2831 -0.1573
 3441TIP3    H210288   1.126   6.499   5.487 -1.2676 -1.6979  1.1976
 3442TIP3   OH210289   5.505   6.038   5.320  0.6261  0.1308 -0.0375
 3442TIP3    H110290   5.541   6.126   5.311  1.0472  0.0166  0.4848
 3442TIP3    H210291   5.576   5.986   5.358  0.8094 -0.7510 -1.5003
 3443TIP3   OH210292   0.221   5.220   5.532  0.9529  0.2702  0.4946
 3443TIP3    H110293   0.254   5.220   5.622  0.7409  0.8296  0.5729
 3443TIP3    H210294   0.298   5.235   5.477  1.0007  0.4609  0.6138
 3444TIP3   OH210295   6.483   0.939   0.123 -0.4883  0.3681  0.1374
 3444TIP3    H110296   6.440   0.854   0.116  0.7245 -0.2578  0.0680
 3444TIP3    H210297   6.541   0.930   0.199 -0.4624  1.1806  0.2219
 3445TIP3   OH210298   1.693   6.756   2.345 -0.1666  0.1218 -0.9120
 3445TIP3    H110299   1.689   6.661   2.335 -0.1693  0.1756 -1.4458
 3445TIP3    H210300   1.713   6.789   2.258  2.1017  0.4942 -0.2969
 3446TIP3   OH210301   0.263   6.461   0.789 -0.6774 -0.5336  0.1504
 3446TIP3    H110302   0.192   6.526   0.795 -2.0666 -1.8934 -0.8443
 3446TIP3    H210303   0.326   6.489   0.856 -2.4687  0.3286  1.5796
 3447TIP3   OH210304   1.754   0.139   4.894  0.2315  0.4834  0.5498
 3447TIP3    H110305   1.666   0.148   4.856  0.4377 -0.7334 -0.2615
 3447TIP3    H210306   1.749   0.186   4.977 -1.8147 -1.2687  1.5121
 3448TIP3   OH210307   2.491   4.472   2.893 -0.0885  0.2498  0.2334
 3448TIP3    H110308   2.484   4.501   2.803 -0.3480 -1.3744 -0.2972
 3448TIP3    H210309   2.563   4.409   2.893  0.2537  0.6077  1.2763
 3449TIP3   OH210310   5.156   0.490   4.294  0.4977  0.6353  0.1838
 3449TIP3    H110311   5.123   0.530   4.213 -0.9898 -1.4644 -0.3566
 3449TIP3    H210312   5.249   0.476   4.278  0.4230  1.1616 -0.7758
 3450TIP3   OH210313   2.173   3.964   0.071 -0.5033  0.4533  0.3599
 3450TIP3    H110314   2.166   4.055   0.100 -0.4494  0.2321  1.0892
 3450TIP3    H210315   2.250   3.930   0.117  0.2078  0.3848 -0.8515
 3451TIP3   OH210316   0.066   4.318   5.440 -0.0333  0.1417 -0.1797
 3451TIP3    H110317   0.041   4.333   5.349  2.1200 -1.5410 -1.1461
 3451TIP3    H210318   0.142   4.375   5.454 -0.2876  0.3177  0.5502
 3452TIP3   OH210319   0.273   4.811   3.051  0.3554 -0.7695  0.5537
 3452TIP3    H110320   0.277   4.788   2.958 -1.3764  0.7266  0.0637
 3452TIP3    H210321   0.286   4.728   3.096  0.2347 -1.6941 -1.0235
 3453TIP3   OH210322   5.218   2.272   3.179 -0.1682  0.2419 -0.0956
 3453TIP3    H110323   5.230   2.234   3.092 -1.7002 -0.5876  0.0263
 3453TIP3    H210324   5.286   2.340   3.184  0.7828 -0.5442 -1.4203
 3454TIP3   OH210325   2.841   3.313   4.398 -0.1716  0.0720 -0.0151
 3454TIP3    H110326   2.834   3.225   4.360  0.6354  0.6942 -1.7285
 3454TIP3    H210327   2.928   3.315   4.438 -0.3890 -0.0766  0.4599
 3455TIP3   OH210328   0.419   6.204   0.751  0.5589  0.5386 -0.3796
 3455TIP3    H110329   0.445   6.201   0.659 -1.9797  1.2859 -1.1829
 3455TIP3    H210330   0.351   6.271   0.755  0.8883  0.8255  2.1507
 3456TIP3   OH210331   5.506   3.057   5.668  0.7263  0.3948  0.5782
 3456TIP3    H110332   5.479   3.039   5.758 -0.0800  2.2662  0.7442
 3456TIP3    H210333   5.572   2.991   5.650 -0.0716 -0.8854  2.0629
 3457TIP3   OH210334   3.514   3.512   1.203  0.6637 -0.2644 -0.5515
 3457TIP3    H110335   3.434   3.505   1.150 -0.1951 -1.1098  0.8080
 3457TIP3    H210336   3.487   3.490   1.292  2.3219 -0.0775  0.0423
 3458TIP3   OH210337   3.735   2.508   4.890  0.3622 -0.4141 -0.0892
 3458TIP3    H110338   3.829   2.525   4.881  0.5011 -0.6518  0.7987
 3458TIP3    H210339   3.703   2.580   4.945 -0.1229  0.0796 -1.0059
 3459TIP3   OH210340   2.722   1.280   1.297  0.1488 -0.7255 -0.2356
 3459TIP3    H110341   2.631   1.249   1.300 -0.0743 -0.0729 -0.2086
 3459TIP3    H210342   2.735   1.307   1.206  0.3499 -0.9120 -0.2630
 3460TIP3   OH210343   5.649   1.899   0.595 -0.0996  0.0348  0.2693
 3460TIP3    H110344   5.727   1.849   0.619 -1.3967 -2.4049 -0.2052
 3460TIP3    H210345   5.576   1.848   0.630 -1.6654  0.1486 -2.5253
 3461TIP3   OH210346   5.922   2.562   3.026  0.3089 -0.1037  0.0708
 3461TIP3    H110347   5.861   2.489   3.017  2.9992 -2.5821  0.1556
 3461TIP3    H210348   5.959   2.551   3.114 -0.7823  2.7983  1.0025
 3462TIP3   OH210349   5.270   1.012   4.669 -0.2353 -0.0393  0.1882
 3462TIP3    H110350   5.329   0.938   4.681 -0.1927 -0.0468 -0.0614
 3462TIP3    H210351   5.185   0.972   4.651 -0.3587 -0.0287  0.7503
 3463TIP3   OH210352   5.142   1.466   0.178  0.0800  0.1850  0.0431
 3463TIP3    H110353   5.221   1.432   0.137 -0.2316  1.1161 -1.4222
 3463TIP3    H210354   5.103   1.390   0.222  1.5041 -0.3907  0.3696
 3464TIP3   OH210355   1.904   4.889   4.399  0.7781 -0.3846  0.2708
 3464TIP3    H110356   1.832   4.896   4.461  1.8520  1.3793  1.3818
 3464TIP3    H210357   1.931   4.797   4.404 -1.7010 -1.2629 -0.6261
 3465TIP3   OH210358   2.686   2.432   0.955  0.1235 -0.3366 -0.1379
 3465TIP3    H110359   2.675   2.383   1.037  0.9526  0.7751  0.6753
 3465TIP3    H210360   2.606   2.485   0.949 -0.9228 -1.9573 -1.1857
 3466TIP3   OH210361   4.039   3.053   4.548  0.3038 -0.4627 -0.0615
 3466TIP3    H110362   3.947   3.058   4.573  0.2611 -2.3955  0.3437
 3466TIP3    H210363   4.072   3.142   4.558 -0.8067 -0.2629  2.6822
 3467TIP3   OH210364   1.471   4.916   0.198 -0.2105 -0.0801 -0.4519
 3467TIP3    H110365   1.518   4.931   0.116  1.2407 -0.3207  0.2981
 3467TIP3    H210366   1.534   4.868   0.253 -1.5492 -0.9322  0.3903
 3468TIP3   OH210367   6.370   0.176   4.667  0.2368  0.5290 -0.2213
 3468TIP3    H110368   6.375   0.089   4.627 -0.0977  0.6002 -0.4237
 3468TIP3    H210369   6.355   0.235   4.593 -0.3564  0.6649  0.0026
 3469TIP3   OH210370   4.695   3.504   1.720 -0.4573 -0.5809 -0.2467
 3469TIP3    H110371   4.644   3.557   1.658 -1.1132  0.1025  0.8386
 3469TIP3    H210372   4.782   3.544   1.719 -0.8708  0.3787  0.3500
 3470TIP3   OH210373   2.734   5.439   2.608  0.0254 -0.1217  0.6225
 3470TIP3    H110374   2.817   5.480   2.632 -0.1861  0.9013 -0.3266
 3470TIP3    H210375   2.675   5.512   2.591 -0.3670 -0.7950 -1.0992
 3471TIP3   OH210376   1.396   4.779   5.797 -0.2905  0.3312 -0.4593
 3471TIP3    H110377   1.357   4.735   5.722  0.8163  0.6585 -1.2525
 3471TIP3    H210378   1.415   4.709   5.859  1.4273 -0.3651 -1.6861
 3472TIP3   OH210379   1.012   2.593   1.799 -0.5301 -0.0982  0.4266
 3472TIP3    H110380   1.057   2.616   1.880 -2.0668 -0.3615  1.3998
 3472TIP3    H210381   0.933   2.546   1.828 -1.8974  1.1119 -1.1374
 3473TIP3   OH210382   5.740   4.408   1.051 -0.2413  0.2657  0.0809
 3473TIP3    H110383   5.729   4.503   1.059 -1.0261  0.2049 -0.1872
 3473TIP3    H210384   5.652   4.372   1.067  0.3360 -0.5252  1.7018
 3474TIP3   OH210385   0.314   1.175   3.577 -0.0366 -0.5568 -0.0316
 3474TIP3    H110386   0.299   1.086   3.608 -0.3633 -0.4876  0.0124
 3474TIP3    H210387   0.410   1.183   3.571 -0.0264 -1.2284 -0.9656
 3475TIP3   OH210388   0.611   2.499   4.841  0.3691  0.2568  0.0333
 3475TIP3    H110389   0.591   2.591   4.859  2.6598  0.7984  0.1024
 3475TIP3    H210390   0.602   2.456   4.926 -1.0925  0.2919 -0.0700
 3476TIP3   OH210391   1.587   1.177   0.532 -0.3180  0.2264 -0.6668
 3476TIP3    H110392   1.554   1.162   0.443 -2.0771 -1.2436  0.1759
 3476TIP3    H210393   1.674   1.137   0.531 -1.3836 -2.3097 -1.0446
 3477TIP3   OH210394   4.087   0.980   1.525  0.1088  0.2152  0.3521
 3477TIP3    H110395   4.178   0.986   1.496 -0.3806  2.3974 -0.9831
 3477TIP3    H210396   4.068   0.886   1.525  2.0179 -0.2162 -0.4089
 3478TIP3   OH210397   6.704   3.504   3.837  0.1704  0.8133  0.2061
 3478TIP3    H110398   6.758   3.544   3.768  0.1637 -0.2117 -0.4131
 3478TIP3    H210399   6.667   3.426   3.796 -0.9644  0.9342  0.9425
 3479TIP3   OH210400   3.714   4.429   1.566  0.0690 -0.5594 -0.5030
 3479TIP3    H110401   3.701   4.502   1.505  0.7176 -0.4567 -0.5230
 3479TIP3    H210402   3.809   4.422   1.576  0.1519 -2.6695 -2.0546
 3480TIP3   OH210403   0.041   5.414   3.064 -0.1624 -0.2448  0.7084
 3480TIP3    H110404   0.066   5.324   3.044  1.3494 -0.6561  3.7225
 3480TIP3    H210405   0.125   5.459   3.077 -0.8877  0.7616  2.2094
 3481TIP3   OH210406   1.777   0.471   4.211  0.6312 -0.3325 -0.1434
 3481TIP3    H110407   1.794   0.563   4.187 -0.6874 -0.2879 -1.0346
 3481TIP3    H210408   1.796   0.467   4.304 -1.4895  1.4680  0.4696
 3482TIP3   OH210409   2.342   3.917   1.039  0.2925 -0.0197  0.1663
 3482TIP3    H110410   2.338   3.987   1.104 -2.6630  0.0118  0.1081
 3482TIP3    H210411   2.267   3.861   1.060  0.4296 -1.1192 -1.9893
 3483TIP3   OH210412   1.034   2.070   2.072 -0.8720  0.0930  0.5220
 3483TIP3    H110413   1.096   2.066   2.144 -0.4893  0.8250  0.2437
 3483TIP3    H210414   0.953   2.033   2.107 -0.4042 -0.4763  1.0146
 3484TIP3   OH210415   0.721   5.496   2.090  0.0224  0.2896 -0.5648
 3484TIP3    H110416   0.653   5.554   2.125 -0.8990 -1.0017 -0.1680
 3484TIP3    H210417   0.776   5.475   2.166 -0.7538 -0.8385 -0.2914
 3485TIP3   OH210418   5.669   3.784   2.918 -0.1051 -0.1222  0.2322
 3485TIP3    H110419   5.698   3.693   2.913 -0.5073 -0.1699 -3.7119
 3485TIP3    H210420   5.579   3.782   2.887 -0.5549  1.5228  1.3224
 3486TIP3   OH210421   1.489   4.596   0.016 -0.2160  0.1315  0.5409
 3486TIP3    H110422   1.456   4.522   0.068  1.5329 -0.5875  0.6844
 3486TIP3    H210423   1.420   4.610  -0.050 -0.8692 -1.2416  0.8756
 3487TIP3   OH210424   4.347   2.565   3.624 -0.6104 -0.1213 -0.1275
 3487TIP3    H110425   4.344   2.568   3.720  0.5115  1.4886 -0.0993
 3487TIP3    H210426   4.258   2.586   3.597 -0.7301  0.3086  0.5597
 3488TIP3   OH210427   5.821   3.010   4.036 -0.8870  0.6049 -0.4444
 3488TIP3    H110428   5.745   2.987   4.090 -0.3056 -1.8991 -0.5741
 3488TIP3    H210429   5.789   3.004   3.946 -0.6049 -0.3272 -0.4953
 3489TIP3   OH210430   5.470   5.286   2.143 -0.6180  0.5062 -0.0227
 3489TIP3    H110431   5.545   5.344   2.159 -0.4625 -0.1877  2.0929
 3489TIP3    H210432   5.508   5.212   2.093  0.5048 -0.5308  2.2219
 3490TIP3   OH210433   3.286   2.342   1.481  0.4119 -0.0131  0.1488
 3490TIP3    H110434   3.315   2.333   1.391  0.1168  2.9177 -0.3570
 3490TIP3    H210435   3.192   2.361   1.474  0.3762  0.2085  1.0525
 3491TIP3   OH210436   5.368   4.857   0.442  0.1542  0.0047  0.1464
 3491TIP3    H110437   5.419   4.937   0.426 -0.9005  0.6565 -0.1252
 3491TIP3    H210438   5.373   4.808   0.360 -1.6580  1.2637 -0.7950
 3492TIP3   OH210439   3.262   2.380   5.455 -0.8128  0.3306 -0.2904
 3492TIP3    H110440   3.196   2.431   5.409 -0.1561  0.2664 -1.3286
 3492TIP3    H210441   3.242   2.393   5.548 -0.8469  2.2101 -0.5234
 3493TIP3   OH210442   3.232   4.877   4.715 -0.3452 -0.2932  0.0747
 3493TIP3    H110443   3.267   4.966   4.719 -0.3494 -0.3109  0.5744
 3493TIP3    H210444   3.254   4.847   4.627  0.7384 -0.2390  0.3093
 3494TIP3   OH210445   0.833   0.010   5.800 -0.2546  0.1464  0.8922
 3494TIP3    H110446   0.876   0.093   5.784 -0.0724  0.0329  0.7892
 3494TIP3    H210447   0.762   0.007   5.735  0.9448 -0.6501 -0.4380
 3495TIP3   OH210448   1.734   6.496   4.663 -0.5282 -0.5677 -0.0848
 3495TIP3    H110449   1.699   6.584   4.650 -0.3885  0.0980  3.2030
 3495TIP3    H210450   1.682   6.440   4.605 -3.2332  1.1752  0.4807
 3496TIP3   OH210451   5.955   1.727   5.670 -0.0326 -0.1958 -0.5933
 3496TIP3    H110452   6.045   1.755   5.652 -0.3163  0.2248 -1.4548
 3496TIP3    H210453   5.956   1.698   5.761  0.1087  3.6564  0.8528
 3497TIP3   OH210454   4.987   2.353   1.385  0.3734  0.0824  0.4819
 3497TIP3    H110455   5.014   2.327   1.473  1.3775  0.2548  0.2317
 3497TIP3    H210456   4.976   2.448   1.391 -0.9610 -0.0581  0.7715
 3498TIP3   OH210457   6.785   6.419   3.076  0.5192  0.0860 -0.2260
 3498TIP3    H110458   6.725   6.371   3.018  1.3403  0.3711 -1.3449
 3498TIP3    H210459   6.805   6.499   3.028  1.7595  0.0161  0.1373
 3499TIP3   OH210460   4.624   2.863   0.808 -0.1520  0.0222 -0.1087
 3499TIP3    H110461   4.645   2.871   0.901 -0.1919 -1.0702  0.0140
 3499TIP3    H210462   4.674   2.932   0.765  1.1710 -0.5101  0.5354
 3500TIP3   OH210463   5.781   1.186   5.693  0.4474  0.3287  0.4036
 3500TIP3    H110464   5.712   1.137   5.739  1.0029 -0.0323  0.8666
 3500TIP3    H210465   5.760   1.174   5.600 -0.4867  0.7705  0.5451
 3501TIP3   OH210466   2.425   5.221   0.575  0.2128  0.0239 -0.2449
 3501TIP3    H110467   2.334   5.195   0.559  0.4433 -0.3846 -0.9467
 3501TIP3    H210468   2.446   5.183   0.660 -0.3698  0.3869  0.0690
 3502TIP3   OH210469   5.412   6.461   4.192  0.4512 -0.1294 -0.2662
 3502TIP3    H110470   5.408   6.498   4.104  0.1071 -0.1655 -0.2682
 3502TIP3    H210471   5.333   6.495   4.236 -0.0145 -1.0722 -0.3518
 3503TIP3   OH210472   3.534   4.064   1.014  0.2296 -0.2869  0.0008
 3503TIP3    H110473   3.581   3.995   0.967 -0.4587 -0.1036 -0.9699
 3503TIP3    H210474   3.596   4.137   1.017 -0.5000  0.5875 -2.8098
 3504TIP3   OH210475   2.187   0.269   3.697 -0.7669 -0.5920  0.4094
 3504TIP3    H110476   2.265   0.235   3.739 -1.6349 -0.7087  2.0175
 3504TIP3    H210477   2.215   0.351   3.655  0.7290 -1.8567 -1.1684
 3505TIP3   OH210478   5.175   6.513   3.927  0.0836 -0.2794 -1.0392
 3505TIP3    H110479   5.203   6.467   3.847 -0.1989 -0.5872 -0.9641
 3505TIP3    H210480   5.080   6.517   3.920 -0.0736 -1.4932 -0.0967
 3506TIP3   OH210481   2.518   6.098   3.536  0.5969  0.0476  0.0713
 3506TIP3    H110482   2.514   6.050   3.618  1.5295 -0.9647 -0.4503
 3506TIP3    H210483   2.429   6.132   3.523  0.5060  0.4796  1.6281
 3507TIP3   OH210484   1.322   3.963   4.439  0.4456 -0.6533 -0.2511
 3507TIP3    H110485   1.394   3.995   4.384 -0.5725  0.0753 -1.2161
 3507TIP3    H210486   1.246   3.962   4.380 -1.3438  2.6216  1.7010
 3508TIP3   OH210487   6.476   6.212   4.233 -0.0857 -0.0761  0.4082
 3508TIP3    H110488   6.430   6.291   4.204 -1.7455  0.1754  3.2527
 3508TIP3    H210489   6.566   6.240   4.248 -0.2182  0.7981 -0.3921
 3509TIP3   OH210490   4.051   3.612   4.004 -0.3953  0.8099  0.6757
 3509TIP3    H110491   3.965   3.585   4.035 -0.6750  2.3023  1.2899
 3509TIP3    H210492   4.034   3.665   3.927  0.0331  0.4600  0.3377
 3510TIP3   OH210493   3.410   3.300   2.256  0.4177  0.1714 -0.2011
 3510TIP3    H110494   3.481   3.311   2.192  0.5462  0.2080 -0.0503
 3510TIP3    H210495   3.332   3.286   2.202  0.6255 -0.4135 -0.3596
 3511TIP3   OH210496   6.531   5.754   3.180  0.7467  0.3759  0.3207
 3511TIP3    H110497   6.620   5.754   3.215  0.2160 -1.8977  1.9468
 3511TIP3    H210498   6.483   5.814   3.237  0.6993 -0.4657  1.2024
 3512TIP3   OH210499   7.050   6.298   0.261 -0.0980  0.1624 -0.3983
 3512TIP3    H110500   7.068   6.354   0.337  0.1277 -0.2383 -0.1486
 3512TIP3    H210501   7.076   6.350   0.186  3.4153 -0.8087 -0.0286
 3513TIP3   OH210502   4.478   2.396   3.434  0.1904  0.0046  0.0763
 3513TIP3    H110503   4.443   2.457   3.501  2.2617  0.0774  1.1682
 3513TIP3    H210504   4.450   2.434   3.351 -1.1519  0.7658  0.8263
 3514TIP3   OH210505   2.943   2.234   2.891 -0.4105  0.2813 -0.1578
 3514TIP3    H110506   2.883   2.272   2.828  0.3521  2.2353  0.2122
 3514TIP3    H210507   3.004   2.182   2.839 -1.6229 -0.6697 -0.6632
 3515TIP3   OH210508   3.670   0.596   1.424  0.2950  0.3204 -0.3588
 3515TIP3    H110509   3.575   0.608   1.423  0.1458 -0.7405  0.3951
 3515TIP3    H210510   3.693   0.581   1.332 -0.4917 -0.9728 -0.3647
 3516TIP3   OH210511   6.692   3.448   3.051  0.1436  0.3078  0.1110
 3516TIP3    H110512   6.734   3.407   2.976  0.0302  1.1373 -0.4230
 3516TIP3    H210513   6.667   3.535   3.020  0.0313  0.6397  1.0912
 3517TIP3   OH210514   3.592   1.542   5.433 -0.5285  0.1185  0.0387
 3517TIP3    H110515   3.648   1.478   5.389 -1.6182 -1.0958  0.3537
 3517TIP3    H210516   3.545   1.492   5.500 -0.7377  1.4353  0.9383
 3518TIP3   OH210517   1.511   0.144   0.141  0.4850  0.2175  0.1619
 3518TIP3    H110518   1.600   0.176   0.150  1.0305 -0.8286 -1.1944
 3518TIP3    H210519   1.519   0.065   0.088 -1.1170 -0.5966  1.0484
 3519TIP3   OH210520   6.331   6.118   1.358 -0.2372 -0.4703  0.0326
 3519TIP3    H110521   6.349   6.076   1.442 -0.7649  2.1383  1.5515
 3519TIP3    H210522   6.394   6.190   1.353 -1.1821  0.3262 -1.0869
 3520TIP3   OH210523   5.550   0.472   2.240 -0.3881 -0.3351 -0.5762
 3520TIP3    H110524   5.636   0.446   2.206  0.3258 -0.0278  0.8975
 3520TIP3    H210525   5.523   0.398   2.295  0.7076  1.0146  1.9790
 3521TIP3   OH210526   3.296   6.533   2.407  0.6594 -0.3140  0.0790
 3521TIP3    H110527   3.220   6.590   2.400  1.6646  1.0887  0.1700
 3521TIP3    H210528   3.261   6.444   2.398 -0.7477  0.3696 -1.5985
 3522TIP3   OH210529   7.131   2.865   3.123  0.3073 -0.3413  0.0126
 3522TIP3    H110530   7.038   2.847   3.117 -0.1389  0.8916  2.2661
 3522TIP3    H210531   7.170   2.817   3.050 -1.9827 -1.4531 -0.5422
 3523TIP3   OH210532   5.972   0.102   1.009  0.1249  0.3093  0.2596
 3523TIP3    H110533   6.015   0.054   1.080 -0.3112 -1.0783 -0.3748
 3523TIP3    H210534   5.888   0.057   0.997 -0.8546  1.9956  0.4325
 3524TIP3   OH210535   6.940   5.005   4.913  0.4996 -0.7984  0.0807
 3524TIP3    H110536   6.923   5.054   4.833  0.0065 -0.5016  0.3678
 3524TIP3    H210537   7.003   5.059   4.961  1.6439 -1.4920 -0.5914
 3525TIP3   OH210538   4.156   2.824   4.658  0.2200  0.6636 -0.0236
 3525TIP3    H110539   4.100   2.898   4.636 -1.4324 -0.7148 -0.6846
 3525TIP3    H210540   4.109   2.748   4.625  2.7607 -0.5530 -1.1093
 3526TIP3   OH210541   4.656   2.031   5.318  0.2332 -0.1922 -0.7679
 3526TIP3    H110542   4.728   1.974   5.347 -1.6047 -2.1164  0.2795
 3526TIP3    H210543   4.627   1.993   5.236 -0.0736  0.1289 -0.8081
 3527TIP3   OH210544   6.054   2.380   4.898  0.7939  0.1888 -0.0099
 3527TIP3    H110545   6.146   2.353   4.900  0.3364 -1.5410  2.2085
 3527TIP3    H210546   6.028   2.383   4.990 -1.2639  1.0483 -0.5698
 3528TIP3   OH210547   3.049   1.269   2.960  0.7892  0.2859  0.4580
 3528TIP3    H110548   3.039   1.327   3.036  1.8857  0.4570  0.4959
 3528TIP3    H210549   3.131   1.298   2.919  0.0859  0.3709 -0.9545
 3529TIP3   OH210550   0.334   3.152   0.065 -0.0267 -0.0003  0.2105
 3529TIP3    H110551   0.255   3.100   0.075 -0.9198  1.2351 -0.1608
 3529TIP3    H210552   0.336   3.209   0.142 -0.4678  1.1856 -0.6274
 3530TIP3   OH210553   7.103   2.520   3.398 -0.3494 -0.1965  0.0579
 3530TIP3    H110554   7.134   2.443   3.445 -1.2758 -0.0516  0.9444
 3530TIP3    H210555   7.180   2.554   3.353  0.0795 -1.6117 -0.3252
 3531TIP3   OH210556   3.195   4.547   3.824  0.0602  0.2122 -0.2902
 3531TIP3    H110557   3.197   4.487   3.750 -2.1941 -0.1045 -0.1475
 3531TIP3    H210558   3.188   4.634   3.784  0.9222  0.2190 -0.4513
 3532TIP3   OH210559   2.161   0.035   0.069  0.4551  0.2687  0.1283
 3532TIP3    H110560   2.086   0.066   0.120 -0.3447  0.5002 -1.1442
 3532TIP3    H210561   2.220   0.110   0.065  0.8107  0.0653  1.1933
 3533TIP3   OH210562   5.034   3.943   3.903 -0.1054  0.1181  0.9072
 3533TIP3    H110563   5.006   3.958   3.993  0.6105  1.1465  0.9733
 3533TIP3    H210564   5.125   3.915   3.910  0.6113  2.1906  0.4277
 3534TIP3   OH210565   5.407   3.302   0.604  0.8588 -0.4985  0.5731
 3534TIP3    H110566   5.381   3.296   0.513 -0.0333  0.8611  0.7131
 3534TIP3    H210567   5.327   3.327   0.651  1.1022 -1.9877  1.8580
 3535TIP3   OH210568   2.693   3.310   2.415 -0.2048 -0.2243  0.4749
 3535TIP3    H110569   2.722   3.230   2.458 -0.1322  0.0769  0.9904
 3535TIP3    H210570   2.601   3.294   2.393 -0.5622  0.0249  1.7281
 3536TIP3   OH210571   6.104   4.831   4.121  0.0915  0.2316 -0.0818
 3536TIP3    H110572   6.173   4.822   4.187 -0.7442  0.2547  0.8126
 3536TIP3    H210573   6.147   4.807   4.038  1.4878  1.4009  0.2656
 3537TIP3   OH210574   4.026   0.961   1.022  0.6928 -0.2832 -0.0996
 3537TIP3    H110575   4.009   0.897   0.953 -0.9405  0.4388 -0.4229
 3537TIP3    H210576   4.101   1.011   0.990  1.5174 -1.5421 -0.1825
 3538TIP3   OH210577   2.130   0.349   0.230  0.1401  0.4318  0.2768
 3538TIP3    H110578   2.082   0.395   0.299  1.2867  1.6524  0.3030
 3538TIP3    H210579   2.119   0.257   0.250 -0.8094  0.7312  1.2146
 3539TIP3   OH210580   6.282   6.580   2.453  0.0163  0.4330  0.4141
 3539TIP3    H110581   6.261   6.603   2.543 -1.5491 -0.0821  0.2167
 3539TIP3    H210582   6.366   6.534   2.458  0.1145  0.7239  1.5546
 3540TIP3   OH210583   0.728   5.216   4.415 -0.3082  0.3738  0.0409
 3540TIP3    H110584   0.637   5.188   4.425 -0.2057 -0.5170 -1.2428
 3540TIP3    H210585   0.722   5.305   4.381 -0.7040  0.2998 -0.0942
 3541TIP3   OH210586   5.595   2.008   1.836  0.8907  0.0661  0.4462
 3541TIP3    H110587   5.623   1.918   1.853  1.3896  0.1854  0.2635
 3541TIP3    H210588   5.511   2.016   1.882 -0.4543 -1.2922 -1.6212
 3542TIP3   OH210589   0.943   6.207   4.497 -0.2260  0.2649 -0.3603
 3542TIP3    H110590   0.907   6.238   4.414 -1.1880 -1.0272 -0.4487
 3542TIP3    H210591   1.001   6.135   4.474  2.2490  2.0827 -0.1766
 3543TIP3   OH210592   3.241   3.500   1.127 -0.1521  0.0129 -0.4658
 3543TIP3    H110593   3.201   3.571   1.177 -0.0726 -0.9361  0.9888
 3543TIP3    H210594   3.168   3.460   1.080 -0.8984 -1.2960  1.6662
 3544TIP3   OH210595   2.349   6.016   0.754 -0.3539  0.0327 -0.1545
 3544TIP3    H110596   2.358   6.001   0.848 -0.6273  0.4929 -0.0525
 3544TIP3    H210597   2.325   5.930   0.718 -0.6275 -0.0627  0.2475
 3545TIP3   OH210598   1.994   0.881   1.913 -0.0733  0.1668  0.1194
 3545TIP3    H110599   2.011   0.975   1.904 -0.5421  0.3791  1.2073
 3545TIP3    H210600   2.069   0.838   1.872 -0.2265  1.0054 -1.0818
 3546TIP3   OH210601   0.693   3.101   4.443 -0.4268  0.5880 -0.5509
 3546TIP3    H110602   0.769   3.125   4.390  1.1191  1.0018  1.6904
 3546TIP3    H210603   0.671   3.181   4.491 -1.1148 -0.0198  0.1770
 3547TIP3   OH210604   1.496   5.475   1.605 -0.0616 -0.2325  0.0605
 3547TIP3    H110605   1.452   5.393   1.583 -0.0041  0.3069 -2.2572
 3547TIP3    H210606   1.461   5.498   1.691  0.5241 -3.0673  1.2024
 3548TIP3   OH210607   3.388   6.423   0.750  0.0758 -0.2434 -0.8246
 3548TIP3    H110608   3.388   6.327   0.744  1.2939 -0.4075  1.0352
 3548TIP3    H210609   3.480   6.448   0.740 -0.2933  0.8019 -1.8154
 3549TIP3   OH210610   1.373   2.651   0.962 -0.1452 -0.4540 -0.5664
 3549TIP3    H110611   1.449   2.613   0.918  0.6655  0.7667 -0.2833
 3549TIP3    H210612   1.373   2.611   1.049 -0.8198 -1.6857 -1.1108
 3550TIP3   OH210613   2.084   6.109   1.722 -0.3033  0.4999  0.2253
 3550TIP3    H110614   2.107   6.071   1.807  0.2487 -0.6374 -0.4193
 3550TIP3    H210615   2.108   6.042   1.658 -0.5953  1.3930 -0.8478
 3551TIP3   OH210616   6.947   5.803   5.294 -0.0629 -0.5475  0.1322
 3551TIP3    H110617   6.927   5.889   5.255 -0.7044  0.6730  2.8988
 3551TIP3    H210618   6.862   5.770   5.323  0.4697 -0.9862  1.2376
 3552TIP3   OH210619   4.507   4.650   2.562 -0.1433  0.1731  0.3472
 3552TIP3    H110620   4.456   4.668   2.642 -0.6878  2.1938 -0.3765
 3552TIP3    H210621   4.549   4.566   2.579  0.0272  0.6827  2.8928
 3553TIP3   OH210622   6.242   1.948   5.149 -0.6730 -0.2421  0.3122
 3553TIP3    H110623   6.164   1.917   5.194 -1.3510 -0.1091 -0.7357
 3553TIP3    H210624   6.222   1.938   5.056  0.4275  0.1147  0.0188
 3554TIP3   OH210625   0.489   1.170   2.621  0.2567 -0.6398 -0.4159
 3554TIP3    H110626   0.411   1.114   2.615  0.8411 -1.4648 -0.5367
 3554TIP3    H210627   0.464   1.251   2.578 -0.4557 -0.9926 -0.6870
 3555TIP3   OH210628   4.134   5.477   3.198  0.1064 -0.1390  0.0618
 3555TIP3    H110629   4.087   5.413   3.250  1.6132 -1.4532 -0.1359
 3555TIP3    H210630   4.067   5.542   3.175 -1.1587 -0.9021  1.3908
 3556TIP3   OH210631   4.732   1.553   1.402  0.0628  0.2830  0.2901
 3556TIP3    H110632   4.673   1.491   1.359 -0.0686  1.2328 -0.9627
 3556TIP3    H210633   4.734   1.629   1.343  3.9165 -0.3676 -0.7320
 3557TIP3   OH210634   2.309   2.325   0.277  0.2633  0.1577 -0.3063
 3557TIP3    H110635   2.342   2.245   0.318  0.9273  0.2122 -0.7220
 3557TIP3    H210636   2.330   2.314   0.184  0.4676  0.8630 -0.3479
 3558TIP3   OH210637   5.122   4.306   3.272 -0.7206  0.1960  0.1179
 3558TIP3    H110638   5.141   4.395   3.240 -0.6209 -0.6070 -2.2954
 3558TIP3    H210639   5.032   4.310   3.304 -0.7038  1.1667  0.0722
 3559TIP3   OH210640   7.065   5.860   1.510  0.8346 -0.1546 -0.1585
 3559TIP3    H110641   7.139   5.906   1.550  2.7662 -0.2246 -3.2854
 3559TIP3    H210642   7.027   5.925   1.449 -0.0614 -0.9431 -0.4672
 3560TIP3   OH210643   3.935   6.387   1.961 -0.4258  0.8205 -1.6403
 3560TIP3    H110644   3.911   6.477   1.935 -0.0569  1.4274  0.0016
 3560TIP3    H210645   3.951   6.342   1.878 -0.1599  2.3985 -2.4928
 3561TIP3   OH210646   1.243   3.752   1.129  0.2980  0.5161 -0.1387
 3561TIP3    H110647   1.225   3.833   1.081  0.4599  1.2124  0.9390
 3561TIP3    H210648   1.260   3.780   1.219 -0.1922 -0.7648  0.3916
 3562TIP3   OH210649   0.301   5.437   1.073  0.1100  0.3358  0.2722
 3562TIP3    H110650   0.341   5.497   1.136  0.9743  0.6292 -0.5263
 3562TIP3    H210651   0.237   5.491   1.026  0.0791  0.3447  0.3250
 3563TIP3   OH210652   6.861   2.944   0.700  0.1255  0.0770  0.6037
 3563TIP3    H110653   6.781   2.904   0.666  0.3877  0.1800 -0.1491
 3563TIP3    H210654   6.931   2.910   0.644  0.6153 -0.0294  1.2647
 3564TIP3   OH210655   5.724   0.543   0.646 -0.2219 -0.3099 -0.3774
 3564TIP3    H110656   5.706   0.514   0.557 -2.0570 -0.6152  0.0566
 3564TIP3    H210657   5.724   0.638   0.641  0.0156 -0.3294 -0.7652
 3565TIP3   OH210658   1.202   0.778   4.548  0.5213 -0.3955 -0.2607
 3565TIP3    H110659   1.144   0.704   4.532 -2.6106  2.1575 -1.9443
 3565TIP3    H210660   1.156   0.830   4.614  2.5796  0.1560  0.8114
 3566TIP3   OH210661   4.385   3.862   3.168 -0.5276  0.1217 -0.0106
 3566TIP3    H110662   4.407   3.792   3.229 -1.3604  1.1989  1.5970
 3566TIP3    H210663   4.372   3.939   3.224  0.6792  1.6579 -1.7316
 3567TIP3   OH210664   1.749   3.347   0.928 -0.0877  0.0054 -0.1425
 3567TIP3    H110665   1.731   3.275   0.988  1.2023  0.6925  1.1363
 3567TIP3    H210666   1.667   3.396   0.925 -0.3744 -0.4048  0.5596
 3568TIP3   OH210667   3.912   2.049   0.201  0.0227  0.4497  0.1538
 3568TIP3    H110668   3.889   1.982   0.136 -0.2335 -0.4373  1.1404
 3568TIP3    H210669   3.967   2.111   0.152 -0.1195 -0.2180 -0.8966
 3569TIP3   OH210670   2.400   1.162   0.552 -0.5252  0.5725  0.3203
 3569TIP3    H110671   2.432   1.242   0.510 -0.2772 -0.2226 -1.0644
 3569TIP3    H210672   2.383   1.102   0.480 -2.0552 -0.1636  1.2479
 3570TIP3   OH210673   1.522   2.312   3.285  0.0029 -0.3749 -0.1834
 3570TIP3    H110674   1.581   2.360   3.228 -1.1069  0.5642 -0.5957
 3570TIP3    H210675   1.498   2.234   3.235 -1.7916  0.9494 -1.5554
 3571TIP3   OH210676   2.963   0.657   1.980  0.3190  0.6988  0.0355
 3571TIP3    H110677   2.899   0.597   1.942  0.5442  0.2985  0.2832
 3571TIP3    H210678   2.967   0.632   2.072 -0.6391  2.0199  0.4683
 3572TIP3   OH210679   0.758   6.683   0.067  0.4641 -0.9803  0.2489
 3572TIP3    H110680   0.738   6.590   0.079 -0.4279 -0.5825  2.0721
 3572TIP3    H210681   0.676   6.728   0.085  1.1242  0.2385  0.3003
 3573TIP3   OH210682   3.245   6.794   1.701 -0.2234  0.6341 -0.1882
 3573TIP3    H110683   3.298   6.809   1.779 -0.7086  1.0251  0.0767
 3573TIP3    H210684   3.155   6.788   1.734 -0.5963  2.1713 -0.8502
 3574TIP3   OH210685   5.039   4.633   2.448  0.1996  0.0170 -0.1100
 3574TIP3    H110686   4.959   4.582   2.434  0.5327 -0.1803 -1.3633
 3574TIP3    H210687   5.030   4.709   2.392  1.6038 -0.8287 -1.5761
 3575TIP3   OH210688   2.762   6.204   0.087  0.0016  0.6140  0.8090
 3575TIP3    H110689   2.811   6.128   0.056 -1.2559 -1.8933  4.3255
 3575TIP3    H210690   2.821   6.246   0.151 -0.5343  0.5735  1.3421
 3576TIP3   OH210691   1.707   6.498   3.063 -0.2247  0.0424 -0.2455
 3576TIP3    H110692   1.782   6.440   3.076  0.3597  0.4188 -1.7440
 3576TIP3    H210693   1.648   6.449   3.006 -2.0777 -1.0243  2.4058
 3577TIP3   OH210694   6.104   1.206   4.055 -0.5977  0.1052  0.4358
 3577TIP3    H110695   6.068   1.281   4.009 -1.8621  0.9770  2.6751
 3577TIP3    H210696   6.053   1.201   4.136  0.2126 -2.4882  0.8762
 3578TIP3   OH210697   3.540   6.086   3.056  0.0156 -0.5641 -0.3401
 3578TIP3    H110698   3.563   6.112   3.145 -1.4054  1.0056 -0.4024
 3578TIP3    H210699   3.600   6.136   3.000 -1.0012  0.6739 -0.3552
 3579TIP3   OH210700   5.534   3.557   0.615  0.2564 -0.1308 -0.1630
 3579TIP3    H110701   5.471   3.499   0.658 -1.2824  0.4728 -1.4479
 3579TIP3    H210702   5.583   3.500   0.557 -1.4056 -0.1939 -1.5996
 3580TIP3   OH210703   1.020   5.063   1.219 -0.2384 -0.4196 -0.1428
 3580TIP3    H110704   0.946   5.002   1.210 -1.7377  1.0684  1.2839
 3580TIP3    H210705   1.011   5.098   1.308  2.1218 -0.0592  0.0001
 3581TIP3   OH210706   3.737   5.160   5.643 -0.2884  0.3357  0.4144
 3581TIP3    H110707   3.675   5.094   5.611  0.7130  0.1365 -1.2145
 3581TIP3    H210708   3.730   5.232   5.581  0.7699  0.5048  0.4723
 3582TIP3   OH210709   1.128   4.705   2.438  0.2894  0.4011  0.9441
 3582TIP3    H110710   1.081   4.784   2.465 -0.9341  0.9116 -2.2754
 3582TIP3    H210711   1.170   4.729   2.355 -0.1832 -2.2822 -0.1780
 3583TIP3   OH210712   6.671   1.429   3.044 -0.1542 -0.1070 -0.3980
 3583TIP3    H110713   6.658   1.405   2.952  1.2432 -0.5475 -0.5050
 3583TIP3    H210714   6.759   1.398   3.065 -0.4571 -0.0494  1.1092
 3584TIP3   OH210715   2.020   6.432   0.521  0.3337  0.0136  0.1921
 3584TIP3    H110716   1.966   6.387   0.587  1.6403 -0.5858  0.8847
 3584TIP3    H210717   1.965   6.434   0.443 -0.9464  0.0245  1.0571
 3585TIP3   OH210718   0.020   2.942   5.011  0.2260  0.1550  0.3035
 3585TIP3    H110719   0.054   2.942   5.100  1.6207  2.7524 -0.1246
 3585TIP3    H210720  -0.055   2.883   5.014 -0.1472  0.6129  3.3342
 3586TIP3   OH210721   6.450   2.597   3.049 -0.2551 -0.1612 -0.2608
 3586TIP3    H110722   6.396   2.591   3.127 -1.4669  0.6835 -0.9990
 3586TIP3    H210723   6.387   2.591   2.976  0.8595 -1.2022 -1.1804
 3587TIP3   OH210724   4.467   4.932   5.548  0.5649 -0.4389 -0.0362
 3587TIP3    H110725   4.554   4.893   5.541  0.8342  0.2976 -1.0680
 3587TIP3    H210726   4.467   4.977   5.633  0.9033 -1.1011  0.3171
 3588TIP3   OH210727   3.468   4.742   2.724  0.4542  0.8224 -0.4782
 3588TIP3    H110728   3.392   4.685   2.739  0.0692  1.3613 -0.3329
 3588TIP3    H210729   3.484   4.782   2.810  2.4692 -1.1336  0.1524
 3589TIP3   OH210730   6.115   6.671   1.364 -0.0731 -0.3702  0.3867
 3589TIP3    H110731   6.066   6.590   1.382 -1.2891  0.1579 -0.4503
 3589TIP3    H210732   6.073   6.737   1.419  0.5879 -0.1870  0.6798
 3590TIP3   OH210733   3.335   3.322   4.228 -0.0124  0.8659 -0.2047
 3590TIP3    H110734   3.330   3.385   4.299  3.0041  2.3921 -1.1541
 3590TIP3    H210735   3.352   3.375   4.150 -1.8541 -0.8485 -1.8935
 3591TIP3   OH210736   2.903   5.263   5.379  0.5570  0.6477  0.1168
 3591TIP3    H110737   2.868   5.178   5.406 -1.3617  1.1435 -0.5984
 3591TIP3    H210738   2.906   5.315   5.459 -0.4729  0.6053  0.1971
 3592TIP3   OH210739   0.929   1.997   1.798 -0.0998 -0.1630  0.1875
 3592TIP3    H110740   0.920   2.072   1.740 -1.0100 -0.9044 -0.6813
 3592TIP3    H210741   0.924   2.033   1.887 -2.0831  0.6458 -0.2147
 3593TIP3   OH210742   1.471   2.848   2.761  0.3831  0.0631  0.3229
 3593TIP3    H110743   1.519   2.919   2.720  0.3359 -0.9776 -1.6472
 3593TIP3    H210744   1.453   2.787   2.690 -2.9626 -0.1185  1.1754
 3594TIP3   OH210745   0.570   0.032   0.531  0.3347  0.2260  0.5287
 3594TIP3    H110746   0.501   0.045   0.596  0.0550 -1.0747  0.5270
 3594TIP3    H210747   0.525  -0.005   0.455  1.1350 -1.8321  0.9622
 3595TIP3   OH210748   0.278   1.493   3.854  0.2053  0.1182  0.6290
 3595TIP3    H110749   0.286   1.560   3.921  0.3166 -0.4611  1.1993
 3595TIP3    H210750   0.366   1.482   3.819  0.1441  0.4318  0.3684
 3596TIP3   OH210751   3.392   2.699   1.293  0.0349 -0.0474  0.1405
 3596TIP3    H110752   3.416   2.725   1.204 -2.1227  0.1336 -0.4343
 3596TIP3    H210753   3.344   2.617   1.282  0.2135 -0.3148  1.1991
 3597TIP3   OH210754   1.763   0.630   2.924 -0.3748 -0.1567  0.1130
 3597TIP3    H110755   1.684   0.593   2.885 -1.3257  1.6064  0.2784
 3597TIP3    H210756   1.744   0.634   3.018 -0.1999  0.4964  0.1265
 3598TIP3   OH210757   3.829   1.813   2.628  0.4506  0.1935 -0.1112
 3598TIP3    H110758   3.892   1.850   2.566  1.1137  0.0713  0.4748
 3598TIP3    H210759   3.875   1.738   2.666 -1.5218 -2.5888 -2.7251
 3599TIP3   OH210760   3.203   0.352   1.026  0.2025 -0.4019  0.2100
 3599TIP3    H110761   3.209   0.295   1.102 -1.1213  0.2210  0.8075
 3599TIP3    H210762   3.114   0.385   1.027  0.6979  1.0607 -0.5774
 3600TIP3   OH210763   2.339   2.365   0.933  0.0699  0.7967  0.2319
 3600TIP3    H110764   2.344   2.450   0.978 -1.6969  2.0805 -1.7911
 3600TIP3    H210765   2.410   2.368   0.869  1.1993 -0.1195  1.3741
 3601TIP3   OH210766   1.486   2.218   4.755 -0.2072  0.0500 -0.0820
 3601TIP3    H110767   1.533   2.222   4.672  1.1066  2.4224  0.6727
 3601TIP3    H210768   1.511   2.135   4.794  3.4370  1.1579  0.2498
 3602TIP3   OH210769   1.267   4.639   1.897 -0.1781  0.2767 -0.4358
 3602TIP3    H110770   1.190   4.618   1.844 -0.8013  0.1524  0.4959
 3602TIP3    H210771   1.231   4.671   1.979  0.7768 -0.5886  0.3363
 3603TIP3   OH210772   5.017   6.401   5.621  0.1982 -0.0105  0.3330
 3603TIP3    H110773   4.926   6.413   5.593 -0.3038  1.3681  2.3177
 3603TIP3    H210774   5.010   6.364   5.709  1.5432  0.7395  0.7799
 3604TIP3   OH210775   1.008   4.430   4.244 -0.1975 -0.5940 -0.2588
 3604TIP3    H110776   0.957   4.487   4.186 -1.6206 -1.0132  0.5242
 3604TIP3    H210777   1.074   4.488   4.282 -0.9078  0.2915 -0.3253
 3605TIP3   OH210778   4.062   0.676   5.797 -0.2282 -0.2632  0.1083
 3605TIP3    H110779   4.065   0.581   5.790  3.0359 -0.1914 -1.2646
 3605TIP3    H210780   4.002   0.704   5.728  0.7520 -1.2692 -1.1873
 3606TIP3   OH210781   0.488   2.678   0.720 -0.3402 -0.1891 -0.4685
 3606TIP3    H110782   0.442   2.707   0.800  2.0868  1.3960  0.4572
 3606TIP3    H210783   0.536   2.600   0.748  0.7640  0.5504 -0.2414
 3607TIP3   OH210784   1.657   6.095   0.830  0.1075 -0.1566 -0.4003
 3607TIP3    H110785   1.743   6.139   0.827 -0.0384  0.1559 -0.0846
 3607TIP3    H210786   1.599   6.153   0.780  0.0162 -0.2209 -0.3682
 3608TIP3   OH210787   3.172   1.115   5.404  0.4452 -0.1223  0.6012
 3608TIP3    H110788   3.127   1.058   5.341  0.4213 -0.4874  0.9414
 3608TIP3    H210789   3.264   1.089   5.397  0.6306  0.6898 -0.1624
 3609TIP3   OH210790   5.532   4.420   1.297 -0.0569 -0.1782 -0.1190
 3609TIP3    H110791   5.497   4.417   1.385 -1.4067 -0.2874 -0.6358
 3609TIP3    H210792   5.527   4.330   1.265  1.2291 -0.3016 -0.0248
 3610TIP3   OH210793   3.055   2.436   4.535  0.3605 -0.4095  0.0693
 3610TIP3    H110794   3.007   2.353   4.527 -1.5143  0.6453 -0.3117
 3610TIP3    H210795   3.124   2.418   4.598  0.8701 -2.6347 -1.0198
 3611TIP3   OH210796   2.719   3.704   5.217  0.1006 -0.2768  0.3488
 3611TIP3    H110797   2.661   3.757   5.162 -0.0011 -1.9029 -1.2047
 3611TIP3    H210798   2.670   3.692   5.299  0.3488  2.3789  0.9572
 3612TIP3   OH210799   5.840   3.677   4.233  0.0285  0.0309  0.3546
 3612TIP3    H110800   5.887   3.751   4.272  1.2180 -1.0441  1.0775
 3612TIP3    H210801   5.749   3.691   4.257  0.1998  1.3517  0.3050
 3613TIP3   OH210802   5.549   1.424   0.577 -0.5770 -0.3411 -0.5533
 3613TIP3    H110803   5.608   1.465   0.641  0.0285 -0.4337 -1.0468
 3613TIP3    H210804   5.549   1.331   0.601 -3.6745  0.1062  1.9809
 3614TIP3   OH210805   1.899   3.452   1.670  0.2126 -0.4813  0.1635
 3614TIP3    H110806   1.941   3.522   1.621  1.6948 -2.0851 -1.0213
 3614TIP3    H210807   1.959   3.435   1.743  0.2986 -1.0324 -0.0262
 3615TIP3   OH210808   5.199   4.984   5.834  0.2301 -0.2291  0.2509
 3615TIP3    H110809   5.261   5.040   5.788  1.1162 -2.0459 -0.9083
 3615TIP3    H210810   5.160   5.040   5.900  0.9737  1.7478 -0.9072
 3616TIP3   OH210811   1.813   0.365   0.733 -0.1662 -0.3844  0.4970
 3616TIP3    H110812   1.833   0.450   0.771 -0.2352  0.4132 -1.1304
 3616TIP3    H210813   1.892   0.313   0.746  0.8149  0.7558 -0.6043
 3617TIP3   OH210814   6.451   1.494   3.521 -0.8889 -0.3989 -0.3564
 3617TIP3    H110815   6.509   1.498   3.445 -1.1149  0.3353 -0.5017
 3617TIP3    H210816   6.510   1.478   3.595 -0.3054  1.4698 -0.3479
 3618TIP3   OH210817   2.577   3.461   4.883 -0.4766 -0.3289  0.6224
 3618TIP3    H110818   2.530   3.506   4.814  0.6080 -0.3213 -0.1357
 3618TIP3    H210819   2.638   3.403   4.837  0.4694 -0.1044  1.5538
 3619TIP3   OH210820   5.482   1.435   1.249 -0.2938 -0.3280  0.0811
 3619TIP3    H110821   5.509   1.516   1.294 -0.9860  0.1503 -0.3564
 3619TIP3    H210822   5.454   1.463   1.162  0.6212 -1.1992 -0.5234
 3620TIP3   OH210823   5.221   0.203   1.485  0.1515 -1.0806 -0.1079
 3620TIP3    H110824   5.241   0.253   1.406 -0.8382 -0.5333 -0.0300
 3620TIP3    H210825   5.168   0.129   1.454 -0.7782 -0.5114  0.1169
 3621TIP3   OH210826   6.474   5.967   1.569  0.3221 -0.2449  0.3645
 3621TIP3    H110827   6.519   5.936   1.490 -0.8852  0.0664 -0.4653
 3621TIP3    H210828   6.448   5.887   1.614 -0.0291 -0.4382 -0.1674
 3622TIP3   OH210829   0.798   0.397   2.457  0.1931  0.4236  0.4384
 3622TIP3    H110830   0.878   0.363   2.498 -0.1637  1.1661  1.8199
 3622TIP3    H210831   0.730   0.335   2.482  0.3540 -0.3010 -0.8833
 3623TIP3   OH210832   2.455   0.548   0.975 -0.3383  0.5649  0.5761
 3623TIP3    H110833   2.548   0.550   0.998  0.0569 -0.3354 -0.8266
 3623TIP3    H210834   2.452   0.575   0.884 -1.1696 -1.5714 -0.0904
 3624TIP3   OH210835   2.270   1.059   2.135 -0.1719 -0.1756 -0.4733
 3624TIP3    H110836   2.238   1.130   2.191 -1.2954 -0.7322 -0.3822
 3624TIP3    H210837   2.351   1.093   2.097 -0.3034  0.8701  0.1407
 3625TIP3   OH210838   4.902   0.978   5.591 -0.0928  0.0247  0.5159
 3625TIP3    H110839   4.887   0.884   5.599  2.3218 -0.3716  1.2486
 3625TIP3    H210840   4.884   1.012   5.679  0.6437 -0.0466  0.7028
 3626TIP3   OH210841   6.572   1.547   3.782 -0.2406 -0.2211  0.2259
 3626TIP3    H110842   6.658   1.573   3.815  0.3896 -2.0634  0.1935
 3626TIP3    H210843   6.514   1.552   3.857 -0.4016  2.1193 -0.0042
 3627TIP3   OH210844   1.303   3.308   2.461  0.0643  0.5943 -0.1399
 3627TIP3    H110845   1.385   3.336   2.503 -0.2119 -0.5571  1.2325
 3627TIP3    H210846   1.257   3.259   2.529  0.1363 -2.4330 -2.0895
 3628TIP3   OH210847   6.571   5.688   3.517 -0.1408  0.0197  0.7512
 3628TIP3    H110848   6.491   5.638   3.502  0.7134 -1.2265  0.2031
 3628TIP3    H210849   6.543   5.765   3.567 -1.2132 -1.8920  3.2431
 3629TIP3   OH210850   5.624   4.867   2.871  0.0802  0.4396  1.3692
 3629TIP3    H110851   5.604   4.876   2.778  0.4802  0.9698  1.3359
 3629TIP3    H210852   5.621   4.956   2.905  0.6375  0.3263  1.7235
 3630TIP3   OH210853   3.560   3.104   1.431 -0.4227  0.0784 -0.3772
 3630TIP3    H110854   3.513   3.042   1.486  0.2469 -1.2111 -1.2010
 3630TIP3    H210855   3.524   3.089   1.343  0.2030  0.4050 -0.6932
 3631TIP3   OH210856   0.700   0.557   2.664  0.2656  0.5921 -0.4005
 3631TIP3    H110857   0.738   0.524   2.583 -0.0369  1.9628 -1.1346
 3631TIP3    H210858   0.709   0.652   2.658 -0.0457  0.7377  1.0414
 3632TIP3   OH210859   5.517   5.279   5.164 -0.3269  0.3644 -0.4391
 3632TIP3    H110860   5.470   5.246   5.088 -1.2974  0.3474  0.1521
 3632TIP3    H210861   5.518   5.374   5.153 -0.1291  0.3343 -0.6681
 3633TIP3   OH210862   1.186   5.753   5.489  0.3113  0.1448  0.0548
 3633TIP3    H110863   1.150   5.755   5.578 -0.7582  0.7432 -0.3670
 3633TIP3    H210864   1.147   5.675   5.450  0.9018 -0.2012  0.1582
 3634TIP3   OH210865   3.038   2.368   0.475  0.0257 -0.0018  0.2855
 3634TIP3    H110866   2.950   2.338   0.452  1.0853 -2.4990 -0.8788
 3634TIP3    H210867   3.095   2.332   0.407  2.1910  0.0701  1.9186
 3635TIP3   OH210868   6.699   0.978   5.217  0.5273  1.2142  0.3680
 3635TIP3    H110869   6.644   1.016   5.149  1.3563  0.4681 -0.7484
 3635TIP3    H210870   6.714   1.050   5.279 -0.9357  1.6628  0.2290
 3636TIP3   OH210871   6.662   3.973   0.537  0.3762 -0.4785  0.8099
 3636TIP3    H110872   6.580   4.010   0.506 -1.2074 -1.7278  3.1906
 3636TIP3    H210873   6.697   4.040   0.596  0.6777 -0.2844  0.4171
 3637TIP3   OH210874   5.703   6.333   3.420  0.5217  0.1318 -0.3419
 3637TIP3    H110875   5.706   6.325   3.324  0.5230 -0.1222 -0.3220
 3637TIP3    H210876   5.615   6.304   3.444 -0.4681  2.7926 -0.4878
 3638TIP3   OH210877   2.427   2.411   0.613 -0.9311  0.7143 -0.2176
 3638TIP3    H110878   2.333   2.403   0.601 -0.8925  0.4948 -0.3867
 3638TIP3    H210879   2.455   2.325   0.644 -0.7296  0.6519 -0.5604
 3639TIP3   OH210880   1.430   3.970   0.100  0.1154  0.2030 -0.8934
 3639TIP3    H110881   1.484   4.047   0.114  0.8004 -0.6726  1.7517
 3639TIP3    H210882   1.354   4.003   0.051  0.7253  2.3764 -0.4873
 3640TIP3   OH210883   0.720   2.171   0.828  0.0366 -0.2929 -0.1709
 3640TIP3    H110884   0.704   2.247   0.884 -0.6344 -0.2271 -0.4373
 3640TIP3    H210885   0.684   2.097   0.876  1.2966 -0.5593  0.3922
 3641TIP3   OH210886   2.484   6.459   3.453  0.1336  0.8715  0.2710
 3641TIP3    H110887   2.473   6.420   3.540 -0.3440  2.0004  0.7396
 3641TIP3    H210888   2.545   6.531   3.467  0.8150  0.4632 -0.5329
 3642TIP3   OH210889   4.699   6.585   2.956  0.3924  0.5413  0.5118
 3642TIP3    H110890   4.711   6.662   2.900 -0.6239  0.6653  0.4550
 3642TIP3    H210891   4.635   6.531   2.910  0.8765 -0.2136  0.6979
 3643TIP3   OH210892   4.218   1.222   5.529  0.5039 -0.3400  0.5111
 3643TIP3    H110893   4.242   1.311   5.502  2.1191 -0.7306  0.5527
 3643TIP3    H210894   4.284   1.166   5.488 -0.7019 -1.5672  0.1995
 3644TIP3   OH210895   3.555   6.316   1.786  0.0937 -0.1039  0.7400
 3644TIP3    H110896   3.530   6.248   1.724  2.6173 -0.8358  0.4308
 3644TIP3    H210897   3.575   6.392   1.732  0.3144 -0.1022  0.8230
 3645TIP3   OH210898   0.189   6.390   5.516 -0.0279  0.3251 -0.3529
 3645TIP3    H110899   0.236   6.346   5.445 -0.6902 -1.1546  0.0986
 3645TIP3    H210900   0.256   6.443   5.559  0.4821  0.8846 -1.7816
 3646TIP3   OH210901   6.676   0.582   1.692 -0.1897  0.2883  0.6939
 3646TIP3    H110902   6.636   0.657   1.648 -1.0280 -1.4013 -1.5820
 3646TIP3    H210903   6.607   0.549   1.750 -0.5702  0.0083  0.0867
 3647TIP3   OH210904   6.216   4.580   1.421  0.5140 -0.2296 -1.0281
 3647TIP3    H110905   6.138   4.607   1.469  0.3854 -1.3057 -0.5862
 3647TIP3    H210906   6.213   4.630   1.340 -1.5000 -1.3540 -1.7295
 3648TIP3   OH210907   4.475   2.344   5.409 -0.2829  0.6388  0.0041
 3648TIP3    H110908   4.391   2.363   5.366 -0.3564 -0.1203 -0.2038
 3648TIP3    H210909   4.472   2.250   5.425  0.4267  0.6545  0.2290
 3649TIP3   OH210910   5.943   4.794   2.091 -0.0815 -0.0907  0.1091
 3649TIP3    H110911   6.015   4.765   2.147  0.1163  0.3718  0.0941
 3649TIP3    H210912   5.884   4.842   2.151 -0.1710 -0.1133  0.0392
 3650TIP3   OH210913   4.800   5.587   3.966  0.5532  0.0507  0.4333
 3650TIP3    H110914   4.718   5.637   3.965 -0.5527 -1.6981  0.4121
 3650TIP3    H210915   4.833   5.595   4.055  0.7844  1.3650  0.2562
 3651TIP3   OH210916   7.018   5.174   3.696 -0.0075 -0.2948  0.1629
 3651TIP3    H110917   6.983   5.090   3.665  1.9002 -0.8716 -0.5356
 3651TIP3    H210918   7.001   5.235   3.624 -0.8442 -0.2136  0.4198
 3652TIP3   OH210919   2.562   1.995   3.036 -0.0581 -0.3339  0.0056
 3652TIP3    H110920   2.581   2.042   2.955 -1.4826 -0.2879 -0.3163
 3652TIP3    H210921   2.629   1.927   3.040  0.2715 -0.0825 -0.9931
 3653TIP3   OH210922   5.963   3.863   1.007  0.0065  0.1912 -0.0280
 3653TIP3    H110923   6.023   3.808   0.957 -0.6547 -1.4444  0.8791
 3653TIP3    H210924   5.880   3.859   0.959 -0.3183 -0.4666  0.5632
 3654TIP3   OH210925   1.039   3.647   2.767 -0.1660  0.7436 -0.5517
 3654TIP3    H110926   0.983   3.572   2.786 -0.9558  0.9947 -1.7864
 3654TIP3    H210927   1.127   3.610   2.756 -0.4295  0.0948 -0.5104
 3655TIP3   OH210928   6.759   5.556   4.008 -0.0828  0.1679  0.6830
 3655TIP3    H110929   6.714   5.639   4.023 -0.3700  0.0044  0.7233
 3655TIP3    H210930   6.831   5.578   3.949  1.4706  0.9743  2.7176
 3656TIP3   OH210931   1.063   1.520   1.857 -0.0778  0.2133 -0.2092
 3656TIP3    H110932   1.145   1.565   1.837 -0.6881  2.5119  1.9797
 3656TIP3    H210933   0.998   1.589   1.863 -1.1571 -0.8860  2.9045
 3657TIP3   OH210934   2.123   5.402   1.877  0.2573  0.0060  0.3319
 3657TIP3    H110935   2.141   5.362   1.962 -0.5437  1.7383  1.3805
 3657TIP3    H210936   2.074   5.482   1.898 -2.9541 -1.1575 -1.9586
 3658TIP3   OH210937   6.988   2.797   4.988 -0.4177  0.0883 -0.0355
 3658TIP3    H110938   6.993   2.760   4.900  1.2674 -0.2842  0.1758
 3658TIP3    H210939   6.917   2.861   4.983 -2.2137 -1.8275 -0.9021
 3659TIP3   OH210940   5.551   4.697   5.208  0.3320 -0.2911  0.1533
 3659TIP3    H110941   5.461   4.729   5.210  0.4228  0.2696 -1.9322
 3659TIP3    H210942   5.604   4.777   5.218  0.6064 -0.5276  0.6247
 3660TIP3   OH210943   1.297   6.638   4.191  0.4255  0.2392 -0.3939
 3660TIP3    H110944   1.252   6.706   4.142 -0.4987 -0.0909 -0.0196
 3660TIP3    H210945   1.229   6.575   4.213  0.8617  0.2369  1.0725
 3661TIP3   OH210946   3.194   5.681   4.792  0.6902 -0.4450 -0.1306
 3661TIP3    H110947   3.258   5.633   4.741  0.7858  1.4019 -1.8620
 3661TIP3    H210948   3.245   5.744   4.843  0.3886 -0.0990 -0.2460
 3662TIP3   OH210949   4.244   1.141   1.007  0.0850  0.1866 -0.0972
 3662TIP3    H110950   4.291   1.208   0.957  0.3768 -0.2206 -0.3787
 3662TIP3    H210951   4.302   1.066   1.007 -0.7799 -0.5104 -0.9064
 3663TIP3   OH210952   6.519   0.545   1.085 -0.3587  0.6833  0.2901
 3663TIP3    H110953   6.526   0.601   1.008 -0.3937 -0.3837 -0.5207
 3663TIP3    H210954   6.432   0.505   1.078 -0.5715  0.9715  1.1700
 3664TIP3   OH210955   3.697   0.465   4.029  0.6239 -0.0560  0.0784
 3664TIP3    H110956   3.732   0.409   3.960  2.2306 -0.0296  0.8431
 3664TIP3    H210957   3.603   0.468   4.011  1.1497  1.2539 -3.0727
 3665TIP3   OH210958   5.200   2.169   2.149 -0.2834  0.0478 -0.5443
 3665TIP3    H110959   5.166   2.081   2.166  0.6791 -0.6603 -2.0758
 3665TIP3    H210960   5.212   2.207   2.236 -0.5624 -1.3945  0.1611
 3666TIP3   OH210961   1.682   4.133   1.459 -0.3561 -0.5065  0.4182
 3666TIP3    H110962   1.696   4.180   1.541 -0.2484 -1.8187  1.1770
 3666TIP3    H210963   1.588   4.115   1.456 -0.4474 -0.0051 -0.0231
 3667TIP3   OH210964   0.444   5.168   4.484  0.0858 -0.2359  0.2170
 3667TIP3    H110965   0.349   5.156   4.482 -0.2332  1.6364  1.4562
 3667TIP3    H210966   0.475   5.098   4.542 -0.5197 -0.8610 -0.1963
 3668TIP3   OH210967   5.083   2.805   0.303  0.1587  0.5941 -0.8165
 3668TIP3    H110968   5.140   2.763   0.367  0.5139  0.1423 -1.4107
 3668TIP3    H210969   5.029   2.866   0.354 -0.2554 -0.4638  0.0392
 3669TIP3   OH210970   5.410   1.765   0.608 -0.4356 -0.2323  0.2085
 3669TIP3    H110971   5.402   1.693   0.671 -0.7161 -1.1634 -0.8540
 3669TIP3    H210972   5.325   1.809   0.611 -0.5341 -0.4265  0.3139
 3670TIP3   OH210973   4.437   3.439   4.100  0.4617 -0.1303 -0.4255
 3670TIP3    H110974   4.401   3.356   4.069  0.2570 -0.4636  0.6611
 3670TIP3    H210975   4.492   3.415   4.175 -0.8852  0.8426  0.9450
 3671TIP3   OH210976   5.063   2.928   2.604  0.3286  0.3972  0.1958
 3671TIP3    H110977   4.993   2.986   2.632 -1.1098  0.0572 -2.4387
 3671TIP3    H210978   5.113   2.980   2.541  2.0443  0.3545  1.4362
 3672TIP3   OH210979   2.412   4.724   0.752 -0.5311  0.8083 -0.0627
 3672TIP3    H110980   2.507   4.714   0.763 -0.2731 -0.2236 -2.6039
 3672TIP3    H210981   2.403   4.800   0.694 -1.2218  0.6674 -0.1457
 3673TIP3   OH210982   1.266   1.501   5.357  0.3151 -0.4117 -0.4141
 3673TIP3    H110983   1.358   1.491   5.333  0.2991 -0.7496 -0.3367
 3673TIP3    H210984   1.235   1.573   5.302  0.0413 -1.7576 -2.1075
 3674TIP3   OH210985   3.894   2.678   0.057 -0.1283  0.4377 -0.5834
 3674TIP3    H110986   3.982   2.670   0.093  0.5501 -0.7410 -2.3475
 3674TIP3    H210987   3.837   2.689   0.134  1.2647 -1.3848  0.8059
 3675TIP3   OH210988   1.068   5.268   0.351 -0.9728  0.0335 -0.3899
 3675TIP3    H110989   1.139   5.216   0.313 -1.8635 -0.2780 -1.6921
 3675TIP3    H210990   1.090   5.358   0.329 -0.9793 -0.0621 -0.7976
 3676TIP3   OH210991   1.677   0.641   3.186  0.0742 -0.1993  0.4641
 3676TIP3    H110992   1.673   0.710   3.252  0.5499  1.0038 -0.6958
 3676TIP3    H210993   1.711   0.565   3.232 -1.0024  0.1651  1.9163
 3677TIP3   OH210994   2.039   5.997   0.894  0.6015  0.4711  0.3695
 3677TIP3    H110995   2.033   5.905   0.870  0.1840  0.3780  0.8049
 3677TIP3    H210996   2.129   6.023   0.872  0.9150 -0.2095  0.8204
 3678TIP3   OH210997   3.772   0.929   1.280 -0.3287 -0.4349  0.0021
 3678TIP3    H110998   3.815   0.843   1.280 -2.5892 -1.6909 -2.0432
 3678TIP3    H210999   3.779   0.959   1.370  1.5227 -2.2163  0.5413
 3679TIP3   OH211000   0.238   1.484   5.647 -0.1055  0.4819 -0.3780
 3679TIP3    H111001   0.287   1.526   5.717  1.5367 -1.7483 -0.0655
 3679TIP3    H211002   0.213   1.399   5.684 -0.6724 -0.0510 -1.9269
 3680TIP3   OH211003   0.049   3.579   0.846 -0.0720 -0.4004  0.2138
 3680TIP3    H111004   0.033   3.528   0.767  0.3296  2.6151 -1.9383
 3680TIP3    H211005  -0.036   3.584   0.889 -0.9133  0.1711 -1.4715
 3681TIP3   OH211006   2.369   5.860   5.411 -0.5549  0.4210 -0.1920
 3681TIP3    H111007   2.322   5.781   5.437 -0.0864  0.2735  0.2203
 3681TIP3    H211008   2.432   5.830   5.346 -1.2907  0.6847 -1.0452
 3682TIP3   OH211009   0.002   0.284   0.302 -0.1514  0.4171  0.4692
 3682TIP3    H111010   0.023   0.329   0.220 -0.5933 -0.4847 -0.1593
 3682TIP3    H211011  -0.002   0.353   0.367  2.9864  0.8947  0.3312
 3683TIP3   OH211012   7.010   1.341   2.131  0.7009 -0.2159 -0.0637
 3683TIP3    H111013   7.061   1.402   2.184  0.5529 -0.8043  0.7749
 3683TIP3    H211014   7.022   1.372   2.041 -0.1711  1.6530  0.4121
 3684TIP3   OH211015   1.012   6.480   0.697 -0.2822  0.6476 -0.0939
 3684TIP3    H111016   0.941   6.458   0.637 -0.4469  1.8773 -0.3902
 3684TIP3    H211017   1.089   6.439   0.658 -0.4817  0.9811 -0.8745
 3685TIP3   OH211018   3.300   1.135   3.248 -0.2243  0.1579  0.0448
 3685TIP3    H111019   3.316   1.044   3.271 -1.4622  0.1138  0.8460
 3685TIP3    H211020   3.206   1.147   3.265 -0.3045  1.2805 -1.0838
 3686TIP3   OH211021   5.309   2.808   0.880  0.1006 -0.4005  0.4743
 3686TIP3    H111022   5.275   2.778   0.964 -1.7669 -1.1703 -0.5076
 3686TIP3    H211023   5.265   2.891   0.864  1.8771  0.7138  1.0861
 3687TIP3   OH211024   1.806   4.165   2.592 -0.0334 -0.1392  0.8603
 3687TIP3    H111025   1.757   4.169   2.674 -1.4120  0.2439  0.0327
 3687TIP3    H211026   1.806   4.254   2.559 -0.2955 -0.4639 -0.0312
 3688TIP3   OH211027   6.549   3.787   3.469  0.4549 -0.1538  0.0481
 3688TIP3    H111028   6.622   3.799   3.529  1.4930 -3.1788 -0.4091
 3688TIP3    H211029   6.487   3.733   3.517 -1.8045  2.7210  0.5752
 3689TIP3   OH211030   5.031   4.314   4.245 -0.4066 -0.4373  0.2274
 3689TIP3    H111031   4.978   4.294   4.323  0.0569 -3.3373 -0.0947
 3689TIP3    H211032   4.967   4.332   4.176 -0.8995 -0.8760  0.5652
 3690TIP3   OH211033   4.994   1.679   0.065  0.2666  0.0768 -0.0891
 3690TIP3    H111034   4.910   1.649   0.101  0.9622 -0.0828  1.4979
 3690TIP3    H211035   5.057   1.614   0.095  1.3657  1.6215  1.0555
 3691TIP3   OH211036   1.794   4.056   1.982  0.0515 -0.4510 -0.1896
 3691TIP3    H111037   1.771   4.047   2.075  0.3447  0.6593  0.0107
 3691TIP3    H211038   1.710   4.058   1.937 -0.0606 -2.9383 -0.1787
 3692TIP3   OH211039   0.294   5.846   0.930 -0.1666  0.7008 -0.3422
 3692TIP3    H111040   0.354   5.845   1.004  0.6623  0.1521 -0.9966
 3692TIP3    H211041   0.232   5.776   0.948 -0.0132  0.6181 -0.1357
 3693TIP3   OH211042   2.190   1.632   2.978 -0.8054 -0.5092  0.3003
 3693TIP3    H111043   2.282   1.616   2.958 -1.4724 -3.0430 -1.1632
 3693TIP3    H211044   2.154   1.666   2.896 -1.5042 -1.2026  0.3087
 3694TIP3   OH211045   3.019   2.070   1.193  0.1246 -0.4864 -1.1059
 3694TIP3    H111046   2.946   2.009   1.177  0.1817 -0.2868 -2.1519
 3694TIP3    H211047   3.097   2.014   1.196 -0.0161 -0.6560 -0.3528
 3695TIP3   OH211048   6.100   1.489   2.518  0.2535 -0.1291 -0.9683
 3695TIP3    H111049   6.140   1.444   2.592 -1.2131  0.0673 -0.0175
 3695TIP3    H211050   6.102   1.582   2.542 -1.3408 -0.1593 -0.5522
 3696TIP3   OH211051   3.488   5.261   4.022  0.4874  0.1930 -0.2576
 3696TIP3    H111052   3.423   5.318   4.063 -1.6067 -0.9620 -1.7856
 3696TIP3    H211053   3.497   5.187   4.082 -0.8154 -0.3719 -0.7190
 3697TIP3   OH211054   4.556   6.680   2.526  0.3046  0.2567 -0.2256
 3697TIP3    H111055   4.598   6.758   2.489  0.7059 -0.0662 -0.4540
 3697TIP3    H211056   4.608   6.658   2.603  0.2315  0.1705 -0.2007
 3698TIP3   OH211057   6.560   3.740   2.995  0.4589 -0.3252 -0.4153
 3698TIP3    H111058   6.577   3.792   2.917  0.1273  1.4074  0.6085
 3698TIP3    H211059   6.466   3.724   2.993  0.4214 -0.1217 -0.2752
 3699TIP3   OH211060   0.531   5.491   0.585  0.2698  0.1663 -0.5237
 3699TIP3    H111061   0.476   5.548   0.531  0.5157  1.0932  0.1625
 3699TIP3    H211062   0.473   5.462   0.655  0.5750  1.0213  0.1144
 3700TIP3   OH211063   6.964   4.048   5.065 -0.5049  0.2766 -0.4034
 3700TIP3    H111064   6.889   4.071   5.010 -0.5768 -0.7240 -0.7414
 3700TIP3    H211065   6.962   4.111   5.137 -0.7556  1.2433 -1.2324
 3701TIP3   OH211066   1.696   5.325   1.804  0.3262 -0.6403 -0.2719
 3701TIP3    H111067   1.645   5.317   1.723  0.5971 -0.2641 -0.4816
 3701TIP3    H211068   1.701   5.419   1.820  1.2399 -0.6544 -0.4332
 3702TIP3   OH211069   4.420   1.973   0.226  0.1693 -0.3174  0.6373
 3702TIP3    H111070   4.329   1.959   0.253  0.1027 -2.8422 -0.6056
 3702TIP3    H211071   4.416   1.981   0.131  1.0753  1.8908  0.7196
 3703TIP3   OH211072   2.937   4.235   2.776  0.1782  0.1851  0.5824
 3703TIP3    H111073   2.945   4.172   2.705  0.7646  0.4928  0.3732
 3703TIP3    H211074   3.023   4.276   2.783 -0.3496  1.3900  0.3187
 3704TIP3   OH211075   5.588   0.851   5.259 -0.1377  0.2595  0.0312
 3704TIP3    H111076   5.669   0.857   5.310 -0.0215 -0.6438 -0.0255
 3704TIP3    H211077   5.518   0.852   5.325 -0.0959  1.2656  0.0659
 3705TIP3   OH211078   6.184   1.721   1.758 -0.4732 -0.3148  0.3279
 3705TIP3    H111079   6.266   1.701   1.712  0.9284  1.7753  1.7204
 3705TIP3    H211080   6.158   1.638   1.797  1.9774 -0.7415  1.2888
 3706TIP3   OH211081   1.777   6.623   0.842  0.4544 -0.1605 -0.2580
 3706TIP3    H111082   1.853   6.680   0.834 -0.4477  1.2648  0.6662
 3706TIP3    H211083   1.757   6.622   0.936  0.3334 -1.8976 -0.2706
 3707TIP3   OH211084   0.333   1.846   4.216 -0.0639 -0.3121 -0.4428
 3707TIP3    H111085   0.376   1.863   4.132  1.6306 -2.3235 -0.0735
 3707TIP3    H211086   0.245   1.880   4.205  0.5117  0.6641 -2.5712
 3708TIP3   OH211087   5.252   6.800   2.289  0.0561 -0.2112 -0.1602
 3708TIP3    H111088   5.264   6.723   2.344 -1.0520  0.4728  1.1152
 3708TIP3    H211089   5.260   6.874   2.349 -2.8060  0.5247 -0.5198
 3709TIP3   OH211090   6.409   3.608   2.344 -0.1850 -0.2231  0.3090
 3709TIP3    H111091   6.315   3.594   2.338 -0.3253  0.4739  0.8009
 3709TIP3    H211092   6.448   3.525   2.316 -0.9509 -0.7141  0.6938
 3710TIP3   OH211093   2.331   5.681   3.532 -0.5533  0.0863 -0.4805
 3710TIP3    H111094   2.277   5.760   3.520  1.6236  1.8275  0.5160
 3710TIP3    H211095   2.386   5.678   3.454  0.1630  0.2273  0.0164
 3711TIP3   OH211096   0.718   2.885   2.630  0.2879  0.2521  0.2766
 3711TIP3    H111097   0.755   2.945   2.565 -2.0308  1.7393  0.2057
 3711TIP3    H211098   0.698   2.806   2.580  2.0542 -0.1188  0.0680
 3712TIP3   OH211099   1.431   4.446   4.935 -0.0816 -0.2751 -0.0955
 3712TIP3    H111100   1.340   4.428   4.957 -0.5849  1.4022 -0.6525
 3712TIP3    H211101   1.429   4.528   4.886  1.7956  0.1599  0.4427
 3713TIP3   OH211102   4.581   1.465   2.440 -0.0346  0.3944  0.7412
 3713TIP3    H111103   4.630   1.385   2.418 -1.1325  0.0106 -0.4968
 3713TIP3    H211104   4.508   1.434   2.494  0.1627  0.7219  1.1952
 3714TIP3   OH211105   1.444   3.683   1.626  0.3494 -0.5645  0.0544
 3714TIP3    H111106   1.454   3.745   1.698 -1.9977 -0.8111  0.6828
 3714TIP3    H211107   1.370   3.628   1.652 -0.4827 -0.7555 -2.4751
 3715TIP3   OH211108   2.530   2.724   4.831  0.1554  0.6523  0.2074
 3715TIP3    H111109   2.592   2.725   4.904  2.3265 -1.8228 -1.3981
 3715TIP3    H211110   2.574   2.774   4.762  0.8402 -1.6659 -1.1675
 3716TIP3   OH211111   2.685   0.903   0.890 -0.4686  0.2494 -0.2486
 3716TIP3    H111112   2.733   0.947   0.960  0.1216 -0.6589 -0.0670
 3716TIP3    H211113   2.594   0.931   0.901  0.0038  1.9838 -0.5934
 3717TIP3   OH211114   1.083   3.159   3.947 -1.1781 -0.0700 -0.1539
 3717TIP3    H111115   1.124   3.245   3.959 -2.2269  0.5292 -0.6629
 3717TIP3    H211116   1.082   3.120   4.034 -0.5253  0.3572  0.0508
 3718TIP3   OH211117   2.351   3.933   3.792  0.3616 -0.1330 -0.1161
 3718TIP3    H111118   2.349   3.839   3.810  1.7735 -0.6926 -2.4445
 3718TIP3    H211119   2.285   3.946   3.724 -2.1215  1.2204  2.3568
 3719TIP3   OH211120   3.589   4.877   5.227 -0.2952  0.0192 -0.3095
 3719TIP3    H111121   3.623   4.864   5.315  0.9489 -0.0363 -0.7818
 3719TIP3    H211122   3.551   4.792   5.203 -1.1854  0.1994  0.3741
 3720TIP3   OH211123   3.745   6.710   2.552  0.0264 -0.1736 -0.3692
 3720TIP3    H111124   3.757   6.802   2.572  1.7838  0.0675 -2.2437
 3720TIP3    H211125   3.655   6.704   2.519 -0.3139  0.7137  0.3461
 3721TIP3   OH211126   2.752   1.396   5.244  0.0292  0.6150  0.0219
 3721TIP3    H111127   2.774   1.306   5.218 -0.9061  1.0179 -2.4599
 3721TIP3    H211128   2.675   1.386   5.301  0.2024 -0.1662  0.1379
 3722TIP3   OH211129   7.052   2.658   4.733 -0.1412 -0.0932 -0.0148
 3722TIP3    H111130   7.010   2.662   4.647 -1.0927 -2.6037  0.2529
 3722TIP3    H211131   7.122   2.594   4.722  1.0607  1.0670  0.6122
 3723TIP3   OH211132   6.223   1.601   2.859  0.0335 -0.1715  0.0240
 3723TIP3    H111133   6.238   1.676   2.802  0.3387 -0.2242  0.0348
 3723TIP3    H211134   6.282   1.615   2.933  0.2487 -0.5336 -0.0772
 3724TIP3   OH211135   6.285   2.224   0.128  0.0991 -0.2389  0.1857
 3724TIP3    H111136   6.251   2.285   0.063  0.3513 -0.9841 -0.6543
 3724TIP3    H211137   6.338   2.163   0.078 -1.0750 -1.8505  0.8447
 3725TIP3   OH211138   5.875   6.198   5.383  0.3733 -0.2139 -0.5918
 3725TIP3    H111139   5.886   6.160   5.470  1.7014 -0.6359 -0.9245
 3725TIP3    H211140   5.919   6.137   5.324  0.4086  0.5980 -1.4285
 3726TIP3   OH211141   3.371   4.708   5.175 -0.0604  0.1782  0.0201
 3726TIP3    H111142   3.384   4.617   5.199  2.0886  0.0472 -1.3500
 3726TIP3    H211143   3.346   4.705   5.082  2.9624  0.9961 -0.9342
 3727TIP3   OH211144   6.030   0.690   4.870 -0.0387  0.0135  0.3011
 3727TIP3    H111145   6.046   0.605   4.912 -1.6630  0.6546  2.4016
 3727TIP3    H211146   6.029   0.753   4.943  1.7991  2.0051 -1.2517
 3728TIP3   OH211147   1.010   0.573   4.555 -0.4856 -0.1745 -0.4794
 3728TIP3    H111148   0.938   0.622   4.595  0.0409  0.0898  0.1743
 3728TIP3    H211149   0.975   0.542   4.472 -1.0327  0.8117 -0.6354
 3729TIP3   OH211150   0.792   6.371   0.556  0.0456 -0.3186  0.1662
 3729TIP3    H111151   0.796   6.276   0.546  0.2400 -0.2454 -0.5267
 3729TIP3    H211152   0.723   6.386   0.620  0.5889 -0.9639  0.9363
 3730TIP3   OH211153   5.541   4.242   3.285 -0.3079 -0.1153  0.9090
 3730TIP3    H111154   5.525   4.331   3.253 -0.5322 -0.7468 -0.8511
 3730TIP3    H211155   5.632   4.243   3.314  0.1023  0.3802 -0.3180
 3731TIP3   OH211156   6.577   4.695   5.571  0.3248  0.0121 -0.0560
 3731TIP3    H111157   6.592   4.745   5.490  1.3965  0.1380  0.2144
 3731TIP3    H211158   6.593   4.758   5.641  0.5986 -0.4254  0.2754
 3732TIP3   OH211159   4.615   4.670   3.446  0.2764 -0.1415 -0.1448
 3732TIP3    H111160   4.655   4.644   3.363  1.4540 -0.0923  0.3785
 3732TIP3    H211161   4.555   4.599   3.467 -0.1590 -0.0675 -1.1241
 3733TIP3   OH211162   1.350   1.865   1.492 -0.1515 -0.4188 -0.8650
 3733TIP3    H111163   1.291   1.876   1.566  0.2195  2.4455 -0.8502
 3733TIP3    H211164   1.405   1.791   1.515 -0.1573  0.2746  1.6666
 3734TIP3   OH211165   3.060   2.790   3.773 -0.6780  0.4443 -0.1739
 3734TIP3    H111166   2.976   2.755   3.803 -0.0121 -1.3787 -0.3133
 3734TIP3    H211167   3.096   2.834   3.850 -0.9153 -0.4478  0.4706
 3735TIP3   OH211168   2.813   4.672   5.516 -0.6150  0.0597  0.0653
 3735TIP3    H111169   2.836   4.711   5.431  0.1005 -0.5455 -0.0329
 3735TIP3    H211170   2.895   4.672   5.565 -0.8752 -0.2219  0.5039
 3736TIP3   OH211171   1.228   0.187   1.419 -0.4833 -0.4841 -0.3162
 3736TIP3    H111172   1.228   0.143   1.504 -2.0413 -0.3543 -0.2219
 3736TIP3    H211173   1.273   0.270   1.435 -0.4620 -0.6106  0.3032
 3737TIP3   OH211174   7.250   5.299   3.763  0.4139  0.3672  0.0956
 3737TIP3    H111175   7.206   5.376   3.799  0.4113 -1.0147  3.3605
 3737TIP3    H211176   7.179   5.243   3.731  0.3387  1.0951 -1.0700
 3738TIP3   OH211177   4.547   2.723   4.583  0.2167  0.0560 -0.3579
 3738TIP3    H111178   4.491   2.745   4.658  1.0217  0.5637  0.1065
 3738TIP3    H211179   4.622   2.782   4.590  1.0408 -0.9033 -0.7110
 3739TIP3   OH211180   6.388   4.408   3.361  0.3861 -0.0655 -0.1004
 3739TIP3    H111181   6.365   4.475   3.425  1.3393  0.5139 -0.3560
 3739TIP3    H211182   6.304   4.385   3.320 -0.1576 -0.0965  1.0006
 3740TIP3   OH211183   3.730   5.121   0.607 -0.5222 -0.5181  0.2447
 3740TIP3    H111184   3.813   5.078   0.587 -0.9326 -0.9410 -0.5926
 3740TIP3    H211185   3.664   5.065   0.568 -1.1757  0.0534  0.5128
 3741TIP3   OH211186   1.341   4.362   5.281 -0.5435  0.1036  0.2913
 3741TIP3    H111187   1.390   4.410   5.214 -1.4411 -0.0401 -0.4895
 3741TIP3    H211188   1.281   4.427   5.317  0.4592  0.3798  1.5173
 3742TIP3   OH211189   3.079   5.985   2.420  0.2550  0.1012 -0.4437
 3742TIP3    H111190   3.055   5.964   2.510 -1.7704  0.7837 -0.7599
 3742TIP3    H211191   3.066   5.904   2.371 -1.4272  0.4104 -0.5743
 3743TIP3   OH211192   6.232   0.275   1.971 -0.1807 -0.2767  0.4399
 3743TIP3    H111193   6.237   0.235   2.057  0.7255 -3.8198 -1.1012
 3743TIP3    H211194   6.140   0.266   1.945 -0.7606  2.0341  1.4758
 3744TIP3   OH211195   0.943   5.702   0.190 -0.4941  0.9013 -0.3584
 3744TIP3    H111196   0.905   5.688   0.277 -0.3721 -0.1555 -0.4640
 3744TIP3    H211197   1.037   5.690   0.202 -0.4307  1.2008 -0.5494
 3745TIP3   OH211198   1.491   1.045   0.261 -0.4501 -0.8030 -0.3818
 3745TIP3    H111199   1.567   1.091   0.225 -1.2627  1.0534  0.1574
 3745TIP3    H211200   1.516   0.953   0.261  0.8713 -0.5020 -2.4795
 3746TIP3   OH211201   7.077   0.905   5.007 -0.4223  0.2677 -0.2073
 3746TIP3    H111202   7.069   0.982   4.950  0.0356  1.3882  1.1707
 3746TIP3    H211203   7.140   0.848   4.962 -0.6124  0.7906 -1.1622
 3747TIP3   OH211204   3.848   2.987   2.452 -0.1819 -0.1280 -0.5895
 3747TIP3    H111205   3.870   2.909   2.400 -4.1828  0.4631 -3.7266
 3747TIP3    H211206   3.891   3.059   2.407 -0.9466  0.0054 -1.1388
 3748TIP3   OH211207   3.081   2.063   4.648 -0.0594 -0.1655  0.0659
 3748TIP3    H111208   2.996   2.020   4.633 -0.1521 -0.9404  2.4323
 3748TIP3    H211209   3.145   2.002   4.613 -0.4149 -0.0602 -0.7910
 3749TIP3   OH211210   2.176   1.669   1.583  0.4454  0.4413  0.2191
 3749TIP3    H111211   2.191   1.591   1.529 -0.6382  1.4138 -1.6257
 3749TIP3    H211212   2.103   1.645   1.640  1.8018 -0.7120  1.5291
 3750TIP3   OH211213   5.095   3.654   0.606 -0.7756 -0.7343 -0.3715
 3750TIP3    H111214   5.006   3.689   0.605 -0.7923 -0.7668 -0.0714
 3750TIP3    H211215   5.086   3.565   0.572 -1.2640 -1.6751  2.0361
 3751TIP3   OH211216   3.188   2.902   3.527  0.5054 -0.3780  0.1373
 3751TIP3    H111217   3.148   2.854   3.600 -1.5786  1.4991  0.3254
 3751TIP3    H211218   3.244   2.967   3.569 -0.2024  0.2807  0.1010
 3752TIP3   OH211219   1.784   0.389   1.182  0.5774  0.4616 -0.0257
 3752TIP3    H111220   1.708   0.368   1.126  0.1381 -1.1962  1.1089
 3752TIP3    H211221   1.750   0.453   1.244  0.3084  0.2818  0.0165
 3753TIP3   OH211222   1.011   2.903   5.426 -0.0463  0.6408 -0.6956
 3753TIP3    H111223   1.106   2.915   5.415  0.0985 -1.5289 -2.7026
 3753TIP3    H211224   0.971   2.976   5.380  0.6493  1.1452 -0.5099
 3754TIP3   OH211225   5.715   1.037   3.099 -0.4337  0.6379 -0.5460
 3754TIP3    H111226   5.623   1.058   3.082 -1.2083 -2.7744 -1.2569
 3754TIP3    H211227   5.732   0.960   3.046  2.1729 -0.2107  1.3391
 3755TIP3   OH211228   0.647   3.601   4.034  0.0423  0.2535 -0.5398
 3755TIP3    H111229   0.560   3.587   4.071  0.2135  0.1045 -0.1919
 3755TIP3    H211230   0.692   3.517   4.045 -0.2705 -0.1531 -2.0855
 3756TIP3   OH211231   4.010   0.932   4.048 -0.3514 -0.4904 -0.2562
 3756TIP3    H111232   3.935   0.896   4.094 -0.4452  0.6996  0.5713
 3756TIP3    H211233   4.067   0.857   4.030 -1.0215 -1.1759  0.4598
 3757TIP3   OH211234   1.673   3.409   3.600 -0.1201  0.2963 -0.2958
 3757TIP3    H111235   1.614   3.387   3.527  0.7230 -0.3476 -0.8024
 3757TIP3    H211236   1.689   3.503   3.590 -1.1519  0.5109 -0.0724
 3758TIP3   OH211237   7.102   2.149   2.018  0.2993  0.0397  0.2847
 3758TIP3    H111238   7.061   2.195   1.944 -0.0921 -0.2194  0.3358
 3758TIP3    H211239   7.087   2.206   2.093  1.4741  0.7354  0.0204
 3759TIP3   OH211240   4.955   5.722   1.398  0.1074  0.6099  0.0774
 3759TIP3    H111241   4.928   5.630   1.387  3.1623 -0.2479 -1.4868
 3759TIP3    H211242   4.993   5.726   1.486 -0.3346  0.4556  0.2748
 3760TIP3   OH211243   4.708   4.574   0.325 -0.6213 -0.2856  0.0709
 3760TIP3    H111244   4.770   4.536   0.262 -0.1270  1.2967 -0.4270
 3760TIP3    H211245   4.626   4.528   0.309 -0.0414 -1.1578 -0.4838
 3761TIP3   OH211246   6.710   2.547   1.489  0.0322 -0.2140 -0.3375
 3761TIP3    H111247   6.675   2.522   1.575  0.4359 -1.1439 -0.4325
 3761TIP3    H211248   6.751   2.468   1.456 -1.0410 -0.1748 -1.8686
 3762TIP3   OH211249   6.180   2.463   5.765 -0.1702  0.3490  0.2123
 3762TIP3    H111250   6.166   2.470   5.670 -0.9532  1.3835  0.3747
 3762TIP3    H211251   6.107   2.512   5.803  0.3772  0.3248  1.3402
 3763TIP3   OH211252   4.410   3.226   2.196  0.0864 -0.2490 -0.0937
 3763TIP3    H111253   4.399   3.190   2.284 -0.8684 -1.0364 -0.5143
 3763TIP3    H211254   4.473   3.297   2.206 -0.4472  0.0415  1.3205
 3764TIP3   OH211255   6.491   3.272   0.644  0.2892 -0.2002  0.1529
 3764TIP3    H111256   6.572   3.275   0.594  0.2690 -0.0124  0.1321
 3764TIP3    H211257   6.481   3.179   0.667 -0.3649 -0.5261 -1.2855
 3765TIP3   OH211258   4.863   5.785   1.917 -0.4029 -0.2496  0.0309
 3765TIP3    H111259   4.909   5.823   1.992 -0.6092  0.2648 -0.0936
 3765TIP3    H211260   4.789   5.844   1.903 -0.0340  0.0068 -0.9472
 3766TIP3   OH211261   7.214   2.035   5.562 -0.2537  0.4638  0.3148
 3766TIP3    H111262   7.259   1.951   5.568 -1.1045  0.0125  0.7279
 3766TIP3    H211263   7.151   2.033   5.635  0.8423  2.1684  1.3691
 3767TIP3   OH211264   2.885   0.360   0.231 -0.3088  0.0797  0.1788
 3767TIP3    H111265   2.833   0.395   0.304 -0.3943 -0.0812  0.1934
 3767TIP3    H211266   2.884   0.430   0.165 -1.5155 -0.3707 -0.3038
 3768TIP3   OH211267   2.633   0.930   2.898 -0.7239  0.7308 -0.2297
 3768TIP3    H111268   2.622   1.018   2.935  1.2931  0.7471  0.4240
 3768TIP3    H211269   2.710   0.936   2.842  1.0906 -1.2047  1.8960
 3769TIP3   OH211270   5.557   0.828   3.951 -0.1091  0.6337 -0.7523
 3769TIP3    H111271   5.542   0.771   3.875  1.1859  0.1123 -0.6348
 3769TIP3    H211272   5.628   0.886   3.923  1.4515 -0.5495  0.5395
 3770TIP3   OH211273   4.763   6.446   5.476  0.2371 -0.4020  0.2298
 3770TIP3    H111274   4.717   6.519   5.435 -0.5577 -1.1289 -0.2176
 3770TIP3    H211275   4.697   6.401   5.528  0.7832 -0.6459  0.7360
 3771TIP3   OH211276   3.418   1.526   4.608 -0.6268 -0.6358 -0.0695
 3771TIP3    H111277   3.498   1.494   4.651 -1.8840 -4.0427 -0.0056
 3771TIP3    H211278   3.363   1.556   4.681 -0.1930 -0.1118  0.0532
 3772TIP3   OH211279   2.175   4.034   3.966  0.2808 -0.1546  0.1331
 3772TIP3    H111280   2.095   3.987   3.946  0.0897  0.4643 -0.6016
 3772TIP3    H211281   2.241   3.996   3.908  0.0683  0.6379 -0.6404
 3773TIP3   OH211282   1.426   3.900   4.990  0.2156 -0.3177 -0.7242
 3773TIP3    H111283   1.387   3.921   4.905 -0.7012 -0.8608 -0.4527
 3773TIP3    H211284   1.464   3.983   5.021  1.0256 -0.2342 -1.8895
 3774TIP3   OH211285   2.284   2.944   5.491  0.5776  0.4790 -0.0908
 3774TIP3    H111286   2.335   2.946   5.411  2.3961 -2.7026  0.8218
 3774TIP3    H211287   2.218   2.876   5.476  1.1227 -0.3648  1.1496
 3775TIP3   OH211288   4.305   6.138   2.546  0.1654 -0.6312 -0.0912
 3775TIP3    H111289   4.311   6.232   2.564 -0.9277 -0.8075  1.3585
 3775TIP3    H211290   4.267   6.133   2.458 -0.7537  0.2926  0.2372
 3776TIP3   OH211291   2.366   4.602   5.713  0.1322 -0.2533 -0.1387
 3776TIP3    H111292   2.314   4.535   5.668 -0.1959 -0.5308  0.6392
 3776TIP3    H211293   2.416   4.553   5.778  1.4237  0.0036 -0.8926
 3777TIP3   OH211294   0.029   0.408   4.219  0.4527 -0.5671 -0.1211
 3777TIP3    H111295   0.094   0.447   4.160 -0.6657 -0.6307 -1.4557
 3777TIP3    H211296  -0.047   0.465   4.211  0.4624 -0.2389  1.7641
 3778TIP3   OH211297   2.873   5.649   3.808 -0.4977 -0.3786 -0.7743
 3778TIP3    H111298   2.864   5.735   3.767  0.0392  1.7743  3.0944
 3778TIP3    H211299   2.786   5.631   3.844 -0.6177 -1.5119 -1.6105
 3779TIP3   OH211300   4.226   2.170   3.739  0.0676  0.0471 -0.0231
 3779TIP3    H111301   4.321   2.176   3.729 -0.0654  0.1364 -1.4078
 3779TIP3    H211302   4.200   2.256   3.772  0.6193 -0.4979  1.9841
 3780TIP3   OH211303   1.141   6.224   5.184  0.2407 -0.0291 -0.3656
 3780TIP3    H111304   1.204   6.198   5.117  0.1478 -0.4170 -0.3022
 3780TIP3    H211305   1.056   6.224   5.139  0.4825  2.4086 -0.9911
 3781TIP3   OH211306   6.803   2.587   4.807  0.0126  0.4955 -0.0801
 3781TIP3    H111307   6.897   2.573   4.815 -0.1438 -0.0564  1.0574
 3781TIP3    H211308   6.795   2.664   4.751  1.0619 -0.7630 -2.0900
 3782TIP3   OH211309   1.688   2.667   5.452 -0.5877  0.5330  0.0469
 3782TIP3    H111310   1.616   2.681   5.390  0.1220  1.3078 -0.6290
 3782TIP3    H211311   1.755   2.730   5.426  0.5807 -0.5555  0.2997
 3783TIP3   OH211312   2.047   6.583   1.426 -0.2754  0.3676  0.0247
 3783TIP3    H111313   2.035   6.520   1.354  3.5398 -0.7463  0.1829
 3783TIP3    H211314   2.002   6.543   1.500 -3.2244  0.9600 -1.2596
 3784TIP3   OH211315   7.000   4.779   3.259  0.0693  0.1650 -0.4560
 3784TIP3    H111316   7.008   4.870   3.287  1.1267 -0.2817  0.8334
 3784TIP3    H211317   6.919   4.749   3.299  1.4233 -0.3822  2.0994
 3785TIP3   OH211318   2.240   3.360   2.162  0.4717  0.2028 -0.5107
 3785TIP3    H111319   2.233   3.316   2.077 -1.0231  1.6031 -1.1727
 3785TIP3    H211320   2.261   3.451   2.140  0.0256  0.5917  0.6190
 3786TIP3   OH211321   4.109   6.059   4.095 -0.0754 -0.2476 -0.2594
 3786TIP3    H111322   4.105   6.136   4.152  0.5630 -1.5282  1.6208
 3786TIP3    H211323   4.031   6.009   4.118 -0.6245 -0.0763 -1.6530
 3787TIP3   OH211324   0.606   1.447   1.065 -0.5882 -0.2997 -0.4229
 3787TIP3    H111325   0.647   1.523   1.108  0.0989 -0.8743 -0.0447
 3787TIP3    H211326   0.659   1.434   0.986 -0.0809 -0.9895  0.0208
 3788TIP3   OH211327   3.786   5.987   1.152 -0.2636 -0.3533  0.0701
 3788TIP3    H111328   3.818   5.935   1.227 -3.3363 -1.2750  0.8959
 3788TIP3    H211329   3.702   6.022   1.182  0.1235  2.3856 -1.7134
 3789TIP3   OH211330   6.183   1.520   4.777 -0.0623  0.0693  0.1113
 3789TIP3    H111331   6.182   1.572   4.697 -0.6731 -1.9565 -1.2997
 3789TIP3    H211332   6.269   1.534   4.815 -0.2304  2.0856 -0.1735
 3790TIP3   OH211333   6.499   3.851   1.874 -0.3937  0.2892  0.1659
 3790TIP3    H111334   6.552   3.820   1.801 -0.8701 -1.3176  0.4714
 3790TIP3    H211335   6.533   3.803   1.950 -2.2475 -0.7595  0.3718
 3791TIP3   OH211336   3.908   5.329   1.580  0.5854 -0.7020  0.1567
 3791TIP3    H111337   3.856   5.335   1.500  0.9006  1.6361  0.0631
 3791TIP3    H211338   3.867   5.259   1.630 -0.5155 -1.2230 -1.4089
 3792TIP3   OH211339   6.176   6.600   4.197 -0.3726  0.3994 -0.0108
 3792TIP3    H111340   6.153   6.654   4.121  1.7428  1.8530  0.2910
 3792TIP3    H211341   6.140   6.647   4.272 -2.1671 -0.8647  0.0016
 3793TIP3   OH211342   4.208   5.850   4.489  0.0616 -0.7416 -0.1025
 3793TIP3    H111343   4.176   5.764   4.460 -0.7740 -0.8441  1.0451
 3793TIP3    H211344   4.231   5.837   4.580  0.1006  0.2095  0.0302
 3794TIP3   OH211345   1.826   4.709   1.310  0.1039  0.0420 -0.2860
 3794TIP3    H111346   1.800   4.621   1.335  2.3087 -0.4458  0.5488
 3794TIP3    H211347   1.747   4.762   1.323 -0.8459 -1.5251  0.6672
 3795TIP3   OH211348   6.277   1.298   2.699 -0.1791 -0.3045 -0.1759
 3795TIP3    H111349   6.269   1.377   2.753  1.7206 -1.8654  2.6138
 3795TIP3    H211350   6.190   1.258   2.703  0.2487 -1.2359  3.3790
 3796TIP3   OH211351   0.647   3.547   1.853 -0.8311 -0.0157  0.5393
 3796TIP3    H111352   0.668   3.635   1.882 -1.3058 -0.0977  1.1496
 3796TIP3    H211353   0.703   3.533   1.777 -0.5460  0.7023  0.6087
 3797TIP3   OH211354   5.718   0.669   3.154  0.2651 -0.6326 -0.3115
 3797TIP3    H111355   5.756   0.619   3.227  0.6563 -0.0345 -0.1007
 3797TIP3    H211356   5.791   0.721   3.120 -0.5806  1.4303  0.8361
 3798TIP3   OH211357   4.661   0.620   4.040 -0.7843  0.0664  0.1154
 3798TIP3    H111358   4.617   0.651   3.960  1.1659  1.4970 -0.4811
 3798TIP3    H211359   4.660   0.696   4.098  1.1470  0.2729 -0.0639
 3799TIP3   OH211360   7.099   3.731   2.408 -0.2191  0.2651 -0.0162
 3799TIP3    H111361   7.124   3.797   2.343 -0.6988  0.5728  0.1017
 3799TIP3    H211362   7.045   3.669   2.359  2.0230 -1.2727 -0.6364
 3800TIP3   OH211363   6.881   4.978   2.898  0.0386  0.5583 -0.2318
 3800TIP3    H111364   6.825   4.948   2.826  0.3192 -0.1061 -0.1887
 3800TIP3    H211365   6.962   4.926   2.888  1.2534  2.5281 -1.1899
 3801TIP3   OH211366   7.077   6.551   3.558  0.9623  0.6310 -0.4528
 3801TIP3    H111367   7.097   6.573   3.467 -0.7018  1.2047 -0.7121
 3801TIP3    H211368   7.004   6.609   3.581  0.9714  0.0792  1.0588
 3802TIP3   OH211369   0.823   6.438   0.958 -0.2495  0.1150  0.1875
 3802TIP3    H111370   0.830   6.367   1.022  0.4179 -0.8238 -0.9007
 3802TIP3    H211371   0.881   6.413   0.886  0.0808  1.8188 -0.1904
 3803TIP3   OH211372   0.164   2.507   2.647  0.3971  0.2598 -0.4314
 3803TIP3    H111373   0.209   2.587   2.620  0.3597 -0.0288 -1.3699
 3803TIP3    H211374   0.208   2.437   2.598 -0.2697 -0.1704 -0.4203
 3804TIP3   OH211375   4.052   4.895   0.796  0.3526 -0.4432  0.2262
 3804TIP3    H111376   4.091   4.963   0.741 -2.3517  0.3480 -0.9282
 3804TIP3    H211377   4.073   4.813   0.751  2.7396 -0.3640  1.0559
 3805TIP3   OH211378   0.748   5.878   0.689  0.2665 -0.9253 -0.5352
 3805TIP3    H111379   0.685   5.808   0.706  1.4347 -1.6648  1.0032
 3805TIP3    H211380   0.834   5.837   0.700  0.9881  0.5659 -0.3595
 3806TIP3   OH211381   0.186   3.582   1.204 -0.4849  0.2516 -0.1534
 3806TIP3    H111382   0.222   3.538   1.281 -2.0197 -0.2905  0.2945
 3806TIP3    H211383   0.092   3.587   1.221 -0.9339 -0.2879 -2.1959
 3807TIP3   OH211384   4.890   6.154   4.406 -0.3606 -0.2010  0.0814
 3807TIP3    H111385   4.968   6.098   4.412  0.9817  1.6636  0.8518
 3807TIP3    H211386   4.821   6.103   4.448  1.1348 -0.7632  2.0019
 3808TIP3   OH211387   6.713   2.815   1.357 -0.1097  0.0035 -0.0688
 3808TIP3    H111388   6.652   2.750   1.392 -0.3049 -0.5698 -1.4086
 3808TIP3    H211389   6.800   2.776   1.372 -0.0907  0.4731  1.1456
 3809TIP3   OH211390   6.608   4.130   0.125  0.1098  0.1867 -0.1280
 3809TIP3    H111391   6.548   4.109   0.053  0.5058 -1.6368  0.0298
 3809TIP3    H211392   6.665   4.199   0.090 -0.4941  0.1891 -1.1263
 3810TIP3   OH211393   1.740   1.385   5.124 -0.6780  0.2579  0.1342
 3810TIP3    H111394   1.667   1.359   5.068 -0.6817  0.4752  0.0336
 3810TIP3    H211395   1.809   1.411   5.063 -1.4492  2.6765  0.1691
 3811TIP3   OH211396   4.793   1.258   1.908  0.1795  0.5520  0.8103
 3811TIP3    H111397   4.800   1.283   1.816  0.8074  2.0990  1.2534
 3811TIP3    H211398   4.699   1.261   1.926  0.1789  2.0714  0.6799
 3812TIP3   OH211399   0.139   1.291   1.603 -0.0016  0.0929  0.2386
 3812TIP3    H111400   0.212   1.346   1.576  0.2028 -0.5376 -0.5526
 3812TIP3    H211401   0.165   1.202   1.577 -1.0592 -0.1382 -0.0934
 3813TIP3   OH211402   3.335   4.164   4.157  0.3749  0.3625 -0.2684
 3813TIP3    H111403   3.247   4.174   4.195  0.4854 -2.2941  0.8795
 3813TIP3    H211404   3.389   4.228   4.204 -0.5948  0.8367  0.2243
 3814TIP3   OH211405   6.137   6.354   3.530 -0.2326  0.0355 -0.0852
 3814TIP3    H111406   6.185   6.336   3.611  0.7895 -0.5187 -0.7888
 3814TIP3    H211407   6.173   6.438   3.500  0.0742 -0.2244 -0.4495
 3815TIP3   OH211408   4.626   2.665   1.575 -0.4739  0.4352  0.2568
 3815TIP3    H111409   4.591   2.703   1.494  4.9606 -0.4629 -3.0163
 3815TIP3    H211410   4.643   2.741   1.631  0.6140  1.7925 -1.7848
 3816TIP3   OH211411   4.322   0.434   5.617  0.2662  0.4413  0.5306
 3816TIP3    H111412   4.263   0.478   5.555  1.0880  0.3533 -0.3319
 3816TIP3    H211413   4.331   0.345   5.583 -0.5549 -0.1235  1.6917
 3817TIP3   OH211414   1.423   4.356   4.210  0.1187  1.0237  0.1156
 3817TIP3    H111415   1.362   4.312   4.269 -2.2408  2.0758 -1.4137
 3817TIP3    H211416   1.411   4.313   4.126  2.4542  0.4495 -0.0047
 3818TIP3   OH211417   3.084   3.117   2.298  0.1836 -0.0633  0.0559
 3818TIP3    H111418   3.135   3.168   2.235  1.0924  0.4961  1.2142
 3818TIP3    H211419   3.012   3.081   2.246  1.7498 -0.9134 -1.6369
 3819TIP3   OH211420   4.648   6.602   1.543  0.4113 -0.2683  0.1736
 3819TIP3    H111421   4.595   6.560   1.475 -0.1659 -2.1898  1.7045
 3819TIP3    H211422   4.585   6.626   1.611  1.2941 -1.5075  1.5069
 3820TIP3   OH211423   3.470   4.343   5.441 -0.1047  0.1143 -0.1569
 3820TIP3    H111424   3.556   4.311   5.465  0.8180  2.3510 -0.2399
 3820TIP3    H211425   3.424   4.266   5.407  1.1412 -1.5317  1.6888
 3821TIP3   OH211426   6.709   6.402   1.729  0.1259  0.3015 -0.1534
 3821TIP3    H111427   6.717   6.330   1.666 -0.3227 -0.1626  0.3141
 3821TIP3    H211428   6.666   6.472   1.679 -0.7303 -0.2548 -0.2210
 3822TIP3   OH211429   3.269   4.481   1.799  0.0434  0.0254  0.0068
 3822TIP3    H111430   3.206   4.506   1.732  0.8995 -1.4738 -1.4185
 3822TIP3    H211431   3.349   4.529   1.777 -0.2678  1.1889  1.2584
 3823TIP3   OH211432   2.592   4.968   1.127  0.1425  0.1739  0.5751
 3823TIP3    H111433   2.544   4.946   1.048  1.1368  0.7505 -0.2268
 3823TIP3    H211434   2.528   5.009   1.185 -0.0310  2.5915 -1.1732
 3824TIP3   OH211435   3.490   3.231   5.743 -0.6200  0.3413  0.4084
 3824TIP3    H111436   3.567   3.268   5.786  0.4447 -1.4023  0.1252
 3824TIP3    H211437   3.415   3.270   5.789  0.3508  3.0321 -0.1091
 3825TIP3   OH211438   1.696   3.914   2.556  0.0141 -0.0597  0.3763
 3825TIP3    H111439   1.719   3.869   2.638  5.2737 -0.0992 -0.7940
 3825TIP3    H211440   1.731   4.002   2.566 -0.4254  0.3464 -1.3343
 3826TIP3   OH211441   0.793   3.985   5.129 -0.1270  0.6899  0.1108
 3826TIP3    H111442   0.710   3.937   5.128  0.0224  0.4029  0.8274
 3826TIP3    H211443   0.782   4.052   5.062  0.0339 -0.9700 -1.6618
 3827TIP3   OH211444   4.266   1.053   3.576 -0.2226  0.6570  0.1624
 3827TIP3    H111445   4.223   1.058   3.491  1.2559 -1.5501 -0.8167
 3827TIP3    H211446   4.199   1.019   3.636 -0.8801  0.8823 -0.4439
 3828TIP3   OH211447   6.109   1.859   4.725 -0.1490 -0.0182 -0.0585
 3828TIP3    H111448   6.173   1.866   4.795 -1.0018  0.0364  0.7302
 3828TIP3    H211449   6.045   1.928   4.743 -0.6465 -0.3218 -0.6011
 3829TIP3   OH211450   2.001   3.148   3.915  0.4264  0.0820 -0.4953
 3829TIP3    H111451   1.912   3.180   3.901 -0.1100 -1.2567 -0.2492
 3829TIP3    H211452   2.008   3.069   3.861  1.2586 -0.1764 -0.0349
 3830TIP3   OH211453   1.697   1.703   1.251  0.1072  0.2443 -0.3147
 3830TIP3    H111454   1.667   1.752   1.174  3.4414  2.0835 -0.6141
 3830TIP3    H211455   1.726   1.619   1.215  1.1224  0.8801 -1.0520
 3831TIP3   OH211456   3.547   6.041   1.305 -0.4435 -0.1884 -0.2290
 3831TIP3    H111457   3.507   6.127   1.297 -1.0801 -0.5315 -0.8924
 3831TIP3    H211458   3.573   6.035   1.397 -1.6839  0.1596  0.1718
 3832TIP3   OH211459   1.464   6.292   3.840 -0.1972 -0.6468  0.1754
 3832TIP3    H111460   1.527   6.245   3.896 -1.5745 -0.5513  1.8912
 3832TIP3    H211461   1.484   6.384   3.854 -0.4653 -0.6257  0.4260
 3833TIP3   OH211462   3.579   1.600   3.071  0.4968 -0.1670  0.1323
 3833TIP3    H111463   3.601   1.675   3.016 -3.4127 -1.0092 -3.0573
 3833TIP3    H211464   3.515   1.633   3.133  0.5026 -0.4066  0.2685
 3834TIP3   OH211465   1.168   4.236   0.286  0.1455 -0.3528 -0.2822
 3834TIP3    H111466   1.132   4.306   0.341  0.6494 -0.2611 -0.0609
 3834TIP3    H211467   1.123   4.157   0.315  0.2114 -0.2598  0.0795
 3835TIP3   OH211468   0.514   2.728   4.922  0.3802 -0.0145  0.3251
 3835TIP3    H111469   0.562   2.781   4.986  0.6345  0.4328 -0.2302
 3835TIP3    H211470   0.431   2.775   4.910  0.0771 -0.4223  0.7713
 3836TIP3   OH211471   4.390   5.236   0.332 -0.1419 -0.1007  0.1663
 3836TIP3    H111472   4.450   5.284   0.388 -0.6622 -1.9212  2.4232
 3836TIP3    H211473   4.315   5.295   0.320  0.7612  1.0068 -0.1858
 3837TIP3   OH211474   0.344   0.891   5.634  0.5093 -0.2881  0.0490
 3837TIP3    H111475   0.314   0.978   5.607  1.0522 -0.7899 -2.3947
 3837TIP3    H211476   0.265   0.838   5.636  0.4055 -0.1459 -0.2068
 3838TIP3   OH211477   0.179   5.464   0.050 -0.3392  0.3740  0.6947
 3838TIP3    H111478   0.102   5.511   0.080 -0.8530 -1.9444  3.4399
 3838TIP3    H211479   0.150   5.373   0.043  1.2392 -0.0458 -1.9543
 3839TIP3   OH211480   2.714   4.486   5.226  0.0710  0.1285  0.0664
 3839TIP3    H111481   2.768   4.548   5.176  0.8044 -0.4777  0.0902
 3839TIP3    H211482   2.703   4.528   5.312 -0.7035  0.9051 -0.3900
 3840TIP3   OH211483   7.085   1.413   1.536 -0.1306  0.4910 -0.5557
 3840TIP3    H111484   7.046   1.328   1.557 -1.1031  0.9348 -0.4960
 3840TIP3    H211485   7.176   1.406   1.565 -0.4311 -0.2336  0.2385
 3841TIP3   OH211486   3.110   4.183   4.315  0.0256 -0.5264 -0.0617
 3841TIP3    H111487   3.034   4.172   4.257  0.7655  0.4129 -1.2746
 3841TIP3    H211488   3.094   4.267   4.358  0.4360 -0.2548 -0.4327
 3842TIP3   OH211489   0.282   6.200   3.250 -0.1816  0.2257  0.0095
 3842TIP3    H111490   0.199   6.211   3.203 -1.0634 -0.6625  1.2648
 3842TIP3    H211491   0.298   6.106   3.249 -0.0569  0.2141  1.1494
 3843TIP3   OH211492   5.955   5.309   2.490 -0.5205  0.2507  0.6705
 3843TIP3    H111493   6.040   5.319   2.448 -0.3825 -1.5864  0.3998
 3843TIP3    H211494   5.908   5.389   2.470  0.6205  0.6793 -0.4385
 3844TIP3   OH211495   1.825   4.285   2.198 -0.0698  0.3975 -0.2288
 3844TIP3    H111496   1.866   4.200   2.180 -2.1701 -0.7853  0.2210
 3844TIP3    H211497   1.847   4.339   2.122 -0.4841 -1.2777 -1.6056
 3845TIP3   OH211498   0.431   2.263   0.510 -0.3036 -0.4753  0.2295
 3845TIP3    H111499   0.526   2.272   0.502 -0.2331 -0.8880  0.5514
 3845TIP3    H211500   0.401   2.243   0.422 -0.0670 -0.5548  0.1660
 3846TIP3   OH211501   5.653   4.271   3.694  0.2095 -0.3931 -0.1614
 3846TIP3    H111502   5.635   4.357   3.657  0.3666 -0.4714 -0.4234
 3846TIP3    H211503   5.620   4.209   3.629 -1.3723 -0.5468  0.7357
 3847TIP3   OH211504   6.966   2.315   3.822 -0.3567 -0.7211 -0.0836
 3847TIP3    H111505   7.053   2.352   3.805 -0.8331  1.0378  1.0654
 3847TIP3    H211506   6.978   2.261   3.900 -0.3306 -0.3094  0.2004
 3848TIP3   OH211507   0.965   1.641   0.812  0.0608  0.3570  0.2792
 3848TIP3    H111508   1.010   1.713   0.857 -0.3136  1.2193 -0.6797
 3848TIP3    H211509   0.883   1.680   0.780  1.2432  0.4528 -3.0302
 3849TIP3   OH211510   2.334   0.186   5.747  0.0721 -0.5113  0.6750
 3849TIP3    H111511   2.405   0.251   5.750 -0.9191  0.6888 -0.4430
 3849TIP3    H211512   2.361   0.118   5.809  2.0503  0.0425  0.4963
 3850TIP3   OH211513   3.860   3.731   1.357 -0.0922  0.4589  0.0083
 3850TIP3    H111514   3.795   3.796   1.331 -0.1041  0.1799 -0.6800
 3850TIP3    H211515   3.822   3.647   1.331 -0.2961  0.1125  1.3174
 3851TIP3   OH211516   2.583   3.959   1.641 -0.4783  0.4220  0.1616
 3851TIP3    H111517   2.618   3.970   1.730 -0.3086  0.2556  0.1168
 3851TIP3    H211518   2.503   3.909   1.653 -1.3727  1.8419  0.3909
 3852TIP3   OH211519   0.483   4.346   5.749 -0.0083 -0.3097 -0.7499
 3852TIP3    H111520   0.567   4.334   5.794  0.8118  0.0582 -2.1106
 3852TIP3    H211521   0.457   4.257   5.724  0.0929 -0.4051 -0.5145
 3853TIP3   OH211522   0.957   3.128   1.756  0.2316  0.6872  0.1483
 3853TIP3    H111523   1.013   3.186   1.705  0.6136  1.3432  1.2697
 3853TIP3    H211524   0.868   3.157   1.737  0.4406  2.1628  1.2569
 3854TIP3   OH211525   5.627   1.255   0.905 -0.5001  0.3395  0.3670
 3854TIP3    H111526   5.613   1.205   0.825 -0.7981 -1.2696  1.3835
 3854TIP3    H211527   5.584   1.204   0.974  2.6520 -0.1535  2.1467
 3855TIP3   OH211528   5.625   0.087   5.369  0.3155  0.2734 -0.2901
 3855TIP3    H111529   5.651   0.010   5.318  1.4325 -0.9560  1.9804
 3855TIP3    H211530   5.634   0.059   5.460 -2.4600  2.0729  0.6381
 3856TIP3   OH211531   6.602   0.484   4.767 -0.3120 -0.2975 -0.1823
 3856TIP3    H111532   6.655   0.408   4.792  0.5668  0.5331  0.5397
 3856TIP3    H211533   6.647   0.521   4.692 -0.5024 -0.2493 -0.2724
 3857TIP3   OH211534   6.457   4.287   2.941  0.3325 -0.0782  0.0889
 3857TIP3    H111535   6.372   4.267   2.902  0.8328 -1.0376 -0.5526
 3857TIP3    H211536   6.461   4.382   2.943 -0.3142 -0.0158 -0.8991
 3858TIP3   OH211537   4.176   0.367   4.625 -0.5648  0.1445  0.4440
 3858TIP3    H111538   4.099   0.423   4.640 -0.0543  0.6661  1.1923
 3858TIP3    H211539   4.233   0.420   4.570 -0.7764 -0.2766 -0.1800
 3859TIP3   OH211540   2.811   6.050   0.663  0.4918  0.4137 -0.1732
 3859TIP3    H111541   2.728   6.096   0.655  1.7443  2.8226 -0.1077
 3859TIP3    H211542   2.817   5.995   0.584 -1.1821  0.0756 -0.0932
 3860TIP3   OH211543   5.124   2.077   0.243  0.2078 -0.0584  0.0817
 3860TIP3    H111544   5.156   2.145   0.302  0.5781  0.5851 -0.8387
 3860TIP3    H211545   5.175   1.999   0.267  0.9445  0.4083  0.0595
 3861TIP3   OH211546   2.649   6.399   5.687  0.3615 -0.1572 -0.0111
 3861TIP3    H111547   2.601   6.324   5.653 -1.4585  1.4156 -1.1075
 3861TIP3    H211548   2.615   6.411   5.776  0.7420 -0.6871  0.2093
 3862TIP3   OH211549   2.534   0.103   0.609 -0.0046  0.1309  0.2188
 3862TIP3    H111550   2.487   0.148   0.680  0.2125  0.8671 -0.0987
 3862TIP3    H211551   2.622   0.089   0.644 -0.5963 -1.8198  1.0575
 3863TIP3   OH211552   2.431   4.246   0.842 -0.1646 -0.6645  0.1043
 3863TIP3    H111553   2.445   4.319   0.782  0.7947 -1.2395 -0.4043
 3863TIP3    H211554   2.504   4.186   0.824  0.7945 -0.3567  2.5893
 3864TIP3   OH211555   1.893   3.511   5.793 -0.6490  0.8726 -0.2768
 3864TIP3    H111556   1.809   3.542   5.758 -1.3387  0.4089  0.9027
 3864TIP3    H211557   1.882   3.417   5.802 -1.0448  1.0989  2.4536
 3865TIP3   OH211558   2.979   2.416   3.605  0.1120 -0.6321 -0.0506
 3865TIP3    H111559   3.044   2.467   3.654 -0.6964  0.3006  0.0781
 3865TIP3    H211560   2.989   2.444   3.514 -0.0636 -0.5485 -0.0436
 3866TIP3   OH211561   3.247   2.128   2.459  0.2207  0.3167 -0.0636
 3866TIP3    H111562   3.267   2.172   2.376  0.1846  0.0690 -0.2057
 3866TIP3    H211563   3.163   2.085   2.444  0.5832 -0.3794 -0.1646
 3867TIP3   OH211564   3.119   4.837   0.484 -0.0143  0.4441 -0.0266
 3867TIP3    H111565   3.054   4.857   0.417 -0.1650  0.0620  0.0012
 3867TIP3    H211566   3.203   4.839   0.438 -0.1107  0.2622 -0.2104
 3868TIP3   OH211567   2.617   4.894   4.932  0.5925 -0.3849 -0.3117
 3868TIP3    H111568   2.666   4.975   4.949 -0.6535  0.5520 -0.9455
 3868TIP3    H211569   2.525   4.921   4.937  0.1478 -1.7966 -0.4526
 3869TIP3   OH211570   1.293   3.380   3.551 -0.6922 -0.1466 -0.6925
 3869TIP3    H111571   1.306   3.321   3.625 -0.7018  0.3373 -0.2940
 3869TIP3    H211572   1.217   3.433   3.575  0.7542  1.6755  0.0791
 3870TIP3   OH211573   1.588   0.440   0.069  0.4402  0.6003  0.3054
 3870TIP3    H111574   1.651   0.510   0.055  0.2879  0.5346 -0.8144
 3870TIP3    H211575   1.638   0.360   0.055 -0.0600  0.5630 -1.4322
 3871TIP3   OH211576   3.092   4.737   2.675  0.1472  0.7467  0.3057
 3871TIP3    H111577   3.145   4.815   2.689  0.9435  0.3354 -0.3653
 3871TIP3    H211578   3.080   4.733   2.580  0.8021 -0.3872  0.2555
 3872TIP3   OH211579   2.829   3.415   5.637 -0.0928 -0.5573 -0.3145
 3872TIP3    H111580   2.832   3.371   5.553 -1.4940 -1.5338  0.1083
 3872TIP3    H211581   2.911   3.389   5.681  0.2784 -0.6608 -1.0592
 3873TIP3   OH211582   1.098   4.089   4.666  0.1803  0.3389 -0.7499
 3873TIP3    H111583   1.163   4.019   4.665 -0.7444 -0.6675  1.6391
 3873TIP3    H211584   1.143   4.162   4.709  0.5620  0.5735 -1.5427
 3874TIP3   OH211585   1.680   3.930   5.724 -0.1983 -0.1018 -0.1140
 3874TIP3    H111586   1.641   4.004   5.677 -1.4153 -0.1613  0.7614
 3874TIP3    H211587   1.721   3.877   5.655 -1.0129  0.3648 -0.9740
 3875TIP3   OH211588   2.643   1.975   0.177  0.2265 -0.0020 -0.0219
 3875TIP3    H111589   2.654   2.068   0.197  0.3731  0.1146 -0.6532
 3875TIP3    H211590   2.718   1.952   0.122  0.0854 -0.4481 -0.0365
 3876TIP3   OH211591   1.613   4.724   0.992  0.4157 -0.7154  0.3871
 3876TIP3    H111592   1.703   4.697   0.977  1.0504  1.3975 -0.0363
 3876TIP3    H211593   1.596   4.788   0.922 -1.2832 -0.8029  0.6864
 3877TIP3   OH211594   4.935   0.313   2.262 -1.2769 -0.0307  0.1284
 3877TIP3    H111595   4.924   0.295   2.169 -0.4214  1.5629 -0.3300
 3877TIP3    H211596   4.931   0.409   2.268 -3.7246 -0.1658  2.0836
 3878TIP3   OH211597   3.712   5.734   0.937 -0.4201 -0.2180 -0.2621
 3878TIP3    H111598   3.717   5.736   1.032 -0.2007  0.2095 -0.2768
 3878TIP3    H211599   3.720   5.642   0.914  2.3080 -0.1311 -0.0006
 3879TIP3   OH211600   5.860   2.187   3.162 -0.1657  0.6685 -0.7823
 3879TIP3    H111601   5.835   2.181   3.070  1.7552  0.9754 -1.3789
 3879TIP3    H211602   5.834   2.103   3.200  0.0226  0.0959 -1.8800
 3880TIP3   OH211603   0.436   1.849   3.116 -0.5141  0.2146 -0.3117
 3880TIP3    H111604   0.459   1.911   3.047 -0.8800 -0.0022 -0.6293
 3880TIP3    H211605   0.460   1.763   3.081  0.5161  0.2182  0.3515
 3881TIP3   OH211606   1.935   1.778   1.373 -0.3897  0.0021 -0.0821
 3881TIP3    H111607   1.844   1.750   1.359 -0.5522  0.2560  0.4530
 3881TIP3    H211608   1.986   1.698   1.360 -0.8866 -0.7166  1.9398
 3882TIP3   OH211609   3.145   1.298   1.463  0.1979  0.1907  0.2782
 3882TIP3    H111610   3.154   1.348   1.382  0.3432  0.0846  0.2292
 3882TIP3    H211611   3.218   1.325   1.517  0.5325 -0.2975  0.0755
 3883TIP3   OH211612   6.809   6.039   1.270  0.0247  0.5093 -0.0846
 3883TIP3    H111613   6.872   6.010   1.205  0.7226  1.5765  0.0952
 3883TIP3    H211614   6.822   6.134   1.276  1.1028  0.2869  2.7587
 3884TIP3   OH211615   3.526   5.621   4.159  0.2396 -0.0049  0.0602
 3884TIP3    H111616   3.446   5.572   4.142 -0.9027  1.4757  0.8898
 3884TIP3    H211617   3.543   5.609   4.252  0.2172  0.7413  0.1714
 3885TIP3   OH211618   1.286   1.574   0.627  0.3122  0.1205 -0.3255
 3885TIP3    H111619   1.222   1.544   0.692  0.8353  0.4117  0.3298
 3885TIP3    H211620   1.354   1.507   0.628  0.3588  0.1652 -0.5272
 3886TIP3   OH211621   1.864   1.407   3.628 -0.4299 -0.4709 -0.5151
 3886TIP3    H111622   1.906   1.393   3.712 -1.0793 -2.3729 -0.4672
 3886TIP3    H211623   1.843   1.319   3.596 -2.7567  0.2938 -1.3456
 3887TIP3   OH211624   5.222   4.258   3.836  0.4119  0.1073 -0.2664
 3887TIP3    H111625   5.147   4.200   3.831  1.0568 -0.8302  0.5726
 3887TIP3    H211626   5.209   4.321   3.765 -0.7667 -0.4932 -0.6014
 3888TIP3   OH211627   0.963   0.113   5.405  0.0401 -0.5044  0.2441
 3888TIP3    H111628   0.995   0.176   5.340  1.9170 -0.2568  1.3425
 3888TIP3    H211629   0.900   0.162   5.457  0.9132  0.2505  0.6034
 3889TIP3   OH211630   3.952   4.064   4.279  0.1954 -1.0276  0.3933
 3889TIP3    H111631   3.970   4.147   4.233  0.2003 -0.3072  1.6562
 3889TIP3    H211632   3.949   4.088   4.371 -1.5682 -2.1364  0.6632
 3890TIP3   OH211633   6.489   0.684   5.735  0.4044 -0.1353  0.2858
 3890TIP3    H111634   6.393   0.690   5.741  0.5587  1.9859  1.3024
 3890TIP3    H211635   6.504   0.639   5.651 -1.4543  0.7707 -0.6004
 3891TIP3   OH211636   1.544   3.313   5.227  0.4594 -0.3323 -0.2302
 3891TIP3    H111637   1.512   3.382   5.169  0.3487  0.6864  1.0280
 3891TIP3    H211638   1.465   3.276   5.266  0.4940 -1.4010 -1.1212
 3892TIP3   OH211639   2.318   6.431   1.264 -0.0801  0.2338  0.3589
 3892TIP3    H111640   2.360   6.446   1.179  1.2241 -1.7745  0.5868
 3892TIP3    H211641   2.225   6.425   1.244  0.1166  0.7274 -0.7723
 3893TIP3   OH211642   5.273   0.396   2.122  0.8662 -0.7108 -0.6060
 3893TIP3    H111643   5.347   0.437   2.165  1.0168 -2.2196  0.6707
 3893TIP3    H211644   5.298   0.391   2.030  1.3154  0.9199 -0.6005
 3894TIP3   OH211645   2.089   1.173   1.003 -0.3496 -0.6949 -0.3176
 3894TIP3    H111646   2.112   1.247   0.946 -1.0761  0.6031  0.9819
 3894TIP3    H211647   2.136   1.099   0.967  1.2923  0.6455 -1.0629
 3895TIP3   OH211648   5.442   3.850   2.483 -0.2882  0.3585 -0.6349
 3895TIP3    H111649   5.453   3.766   2.440  1.0031  1.0701 -1.7748
 3895TIP3    H211650   5.490   3.912   2.428 -0.5039  1.6979  0.6151
 3896TIP3   OH211651   4.694   4.736   2.061  0.0817 -0.3708 -0.5794
 3896TIP3    H111652   4.757   4.682   2.015  0.1478 -0.2278 -0.6587
 3896TIP3    H211653   4.636   4.674   2.104  0.3419 -0.5011 -0.4168
 3897TIP3   OH211654   3.165   5.281   3.926  0.6980 -0.7185 -0.4664
 3897TIP3    H111655   3.119   5.198   3.916 -0.9550  0.1335 -0.1915
 3897TIP3    H211656   3.096   5.348   3.923  2.0722  0.7230 -1.6204
 3898TIP3   OH211657   6.077   1.666   3.888  0.5424 -0.0087 -0.8405
 3898TIP3    H111658   6.041   1.717   3.815  0.5770  0.3452 -0.6104
 3898TIP3    H211659   6.042   1.578   3.875 -0.5886  0.3783 -0.4999
 3899TIP3   OH211660   2.214   5.193   2.429 -0.0732  0.1263 -0.6000
 3899TIP3    H111661   2.232   5.213   2.521 -2.6686  0.6159 -0.1464
 3899TIP3    H211662   2.300   5.198   2.387  1.1603  0.0537  1.7424
 3900TIP3   OH211663   0.995   1.837   0.546  0.0078  0.3608  0.0774
 3900TIP3    H111664   0.997   1.746   0.573 -2.0476  0.5408  1.0961
 3900TIP3    H211665   0.903   1.863   0.559  0.5719  2.5961 -0.0416
 3901TIP3   OH211666   6.154   4.619   2.536 -0.0228  0.3456 -0.1661
 3901TIP3    H111667   6.226   4.564   2.504 -1.4317 -0.8720 -1.4239
 3901TIP3    H211668   6.190   4.707   2.537  2.1081 -0.4652  1.2723
 3902TIP3   OH211669   3.870   0.650   2.435  0.0203 -0.1760 -0.4758
 3902TIP3    H111670   3.928   0.726   2.430 -1.6722  1.1284 -0.9355
 3902TIP3    H211671   3.822   0.662   2.517  0.2590 -1.1644 -0.1789
 3903TIP3   OH211672   3.792   1.910   0.422  0.4484  0.5943  0.6455
 3903TIP3    H111673   3.824   1.960   0.497 -0.0566  0.7918  0.7336
 3903TIP3    H211674   3.808   1.966   0.346 -0.5317  1.1007  0.7935
 3904TIP3   OH211675   2.372   6.757   0.146 -0.0689 -0.1003  0.3989
 3904TIP3    H111676   2.350   6.828   0.085 -2.6280 -0.8716  0.2826
 3904TIP3    H211677   2.364   6.797   0.233 -1.1265 -0.1193  0.3234
 3905TIP3   OH211678   7.241   1.690   0.827 -0.3561 -0.0307 -0.5074
 3905TIP3    H111679   7.212   1.599   0.834 -0.8993  0.1630 -0.2041
 3905TIP3    H211680   7.161   1.741   0.837  0.1733  0.5398  1.0755
 3906TIP3   OH211681   0.952   2.645   0.047 -0.0211 -0.1523 -0.4073
 3906TIP3    H111682   1.015   2.587   0.091 -0.7049 -0.3931  0.2848
 3906TIP3    H211683   1.001   2.726   0.034  0.5316 -0.4320 -0.1516
 3907TIP3   OH211684   6.166   2.816   3.766 -0.1991  1.1297 -0.4869
 3907TIP3    H111685   6.215   2.850   3.841 -0.3157 -1.1908  0.7460
 3907TIP3    H211686   6.229   2.761   3.719 -0.8205  0.5017 -0.5998
 3908TIP3   OH211687   0.087   2.310   5.233  0.0210 -0.2448  0.0287
 3908TIP3    H111688   0.053   2.319   5.144 -0.0236 -0.9879 -0.0362
 3908TIP3    H211689   0.099   2.400   5.263 -0.8593  0.0279 -0.3850
 3909TIP3   OH211690   3.675   4.770   0.900 -0.4355 -0.0758 -0.0449
 3909TIP3    H111691   3.634   4.804   0.820  1.9703 -0.7923 -1.7004
 3909TIP3    H211692   3.747   4.717   0.869  1.3884  0.6104  2.6575
 3910TIP3   OH211693   2.781   3.619   4.659  0.1416 -1.1600 -0.1684
 3910TIP3    H111694   2.767   3.627   4.753 -0.1238  0.1390 -0.2952
 3910TIP3    H211695   2.697   3.588   4.625  0.5772 -2.7226  0.1321
 3911TIP3   OH211696   4.122   6.105   0.304 -0.1703 -0.0098  0.9800
 3911TIP3    H111697   4.075   6.187   0.319  1.8691  1.0770  1.8035
 3911TIP3    H211698   4.117   6.059   0.388  1.1800  0.6429  1.4351
 3912TIP3   OH211699   5.580   3.595   1.927 -0.3348  0.0776 -0.7695
 3912TIP3    H111700   5.583   3.512   1.974 -2.6292  0.0773 -0.4808
 3912TIP3    H211701   5.613   3.575   1.840 -2.3848 -1.6131 -1.2370
 3913TIP3   OH211702   2.731   5.399   1.979  0.1279  0.1212  0.6158
 3913TIP3    H111703   2.781   5.330   2.023  0.4464 -0.5414 -0.7295
 3913TIP3    H211704   2.645   5.361   1.965 -0.0295  0.4001  0.8115
 3914TIP3   OH211705   6.485   3.982   0.316 -0.0399  0.7150  0.4009
 3914TIP3    H111706   6.526   4.044   0.256 -1.6949 -0.8266 -2.5992
 3914TIP3    H211707   6.535   3.901   0.304  0.4906  0.7183  2.2962
 3915TIP3   OH211708   1.391   1.010   3.169  0.5065 -0.0677  0.2349
 3915TIP3    H111709   1.311   0.999   3.118  1.0544 -0.6602 -0.5128
 3915TIP3    H211710   1.360   1.028   3.258 -0.4518 -0.0826 -0.0802
 3916TIP3   OH211711   5.178   3.407   0.096 -0.5591 -0.1933 -0.0245
 3916TIP3    H111712   5.149   3.473   0.033 -1.6344  0.4970  1.1233
 3916TIP3    H211713   5.157   3.323   0.055 -2.7854  0.2567  0.0279
 3917TIP3   OH211714   4.979   4.449   5.373 -0.6804 -0.6001 -0.0355
 3917TIP3    H111715   4.951   4.443   5.464 -0.6819 -1.7249 -0.0978
 3917TIP3    H211716   5.041   4.522   5.372 -1.3138 -0.0327  0.6900
 3918TIP3   OH211717   5.863   5.420   5.856 -0.0351  0.1039 -0.0081
 3918TIP3    H111718   5.787   5.372   5.822 -0.5931  1.1043 -0.2091
 3918TIP3    H211719   5.847   5.511   5.831  2.5431  0.0085 -2.4526
 3919TIP3   OH211720   5.474   2.348   4.583  0.2043  0.0530 -0.2636
 3919TIP3    H111721   5.469   2.380   4.673  1.9880  0.8647 -0.4192
 3919TIP3    H211722   5.450   2.423   4.529 -0.4288 -0.3093 -0.5012
 3920TIP3   OH211723   0.467   0.972   4.568 -0.0582  0.2303  0.3761
 3920TIP3    H111724   0.498   0.940   4.483 -1.8513  0.0996 -0.2768
 3920TIP3    H211725   0.408   1.044   4.546  2.5739  2.9965  1.7229
 3921TIP3   OH211726   3.973   1.320   2.377 -0.2574 -0.1883  0.1843
 3921TIP3    H111727   3.961   1.409   2.343 -1.6013  1.1900  3.7285
 3921TIP3    H211728   3.899   1.270   2.341  0.1537  0.2399 -1.3361
 3922TIP3   OH211729   4.808   6.283   0.099 -0.4745  0.1813  0.6201
 3922TIP3    H111730   4.815   6.190   0.122  0.0073 -0.2296 -1.1001
 3922TIP3    H211731   4.774   6.283   0.010  0.9550  1.6187  0.0468
 3923TIP3   OH211732   0.289   0.586   3.548  0.0915 -0.1654 -0.6323
 3923TIP3    H111733   0.297   0.491   3.557  1.5890  0.0342  0.7821
 3923TIP3    H211734   0.380   0.617   3.548 -0.3927  1.3529  0.2888
 3924TIP3   OH211735   4.485   3.177   3.266 -0.1894 -0.0956  0.0550
 3924TIP3    H111736   4.511   3.262   3.301 -0.2710  0.8625 -2.0524
 3924TIP3    H211737   4.392   3.187   3.246 -0.0801 -0.4964 -0.6764
 3925TIP3   OH211738   5.538   0.413   4.648  0.0622 -0.1072  0.4501
 3925TIP3    H111739   5.601   0.474   4.687 -0.5164  0.4128  0.5792
 3925TIP3    H211740   5.453   0.445   4.675 -0.2677 -0.8436  0.3199
 3926TIP3   OH211741   4.913   0.695   3.650  0.0484 -0.2233  0.0132
 3926TIP3    H111742   4.927   0.600   3.655 -1.4103 -0.4574  0.2757
 3926TIP3    H211743   4.959   0.722   3.571 -1.1294 -1.5048 -1.1759
 3927TIP3   OH211744   1.465   3.500   4.132 -0.2822 -0.8370 -0.5678
 3927TIP3    H111745   1.559   3.514   4.126 -0.2146 -1.0809 -0.0854
 3927TIP3    H211746   1.431   3.580   4.171 -0.1713 -1.0956  0.0604
 3928TIP3   OH211747   5.741   0.577   4.394 -0.8305  0.2892 -0.1480
 3928TIP3    H111748   5.746   0.621   4.309  0.3563 -0.8130 -0.6808
 3928TIP3    H211749   5.686   0.500   4.378 -0.9275  0.2864  0.1873
 3929TIP3   OH211750   6.687   3.455   2.022  0.5482  0.6161  0.3837
 3929TIP3    H111751   6.776   3.421   2.015 -0.5105 -2.2951 -0.6757
 3929TIP3    H211752   6.650   3.408   2.097 -1.2019 -1.3266 -1.5556
 3930TIP3   OH211753   4.655   5.373   3.520  0.2689 -0.2557  0.0544
 3930TIP3    H111754   4.724   5.439   3.510  1.4990 -1.6279 -1.0213
 3930TIP3    H211755   4.613   5.370   3.434  1.4867 -2.1651 -0.5266
 3931TIP3   OH211756   1.673   3.063   5.157  0.1361  0.0294  0.4536
 3931TIP3    H111757   1.596   3.022   5.118 -1.2122  1.2677  1.6575
 3931TIP3    H211758   1.639   3.143   5.198  2.1707  0.9231  0.5419
 3932TIP3   OH211759   4.390   6.593   3.970  0.2892  0.2418 -0.2091
 3932TIP3    H111760   4.393   6.683   3.935 -0.7463  0.8681  1.2107
 3932TIP3    H211761   4.339   6.544   3.905 -2.3918  1.5929  0.7083
 3933TIP3   OH211762   5.086   3.298   3.923 -0.2085 -0.4158 -0.5349
 3933TIP3    H111763   5.146   3.364   3.957 -0.6749 -0.1370 -0.2377
 3933TIP3    H211764   5.091   3.307   3.828  1.1061 -1.1956 -0.5634
 3934TIP3   OH211765   3.199   6.533   3.952 -0.0763 -0.6825  0.2752
 3934TIP3    H111766   3.233   6.573   4.031 -0.1678 -2.3942  1.2395
 3934TIP3    H211767   3.111   6.502   3.977 -1.0555  0.7664 -1.1885
 3935TIP3   OH211768   0.855   1.283   4.092 -0.2292 -0.1458 -0.2280
 3935TIP3    H111769   0.924   1.341   4.059  0.7264 -1.4498 -0.5815
 3935TIP3    H211770   0.878   1.268   4.184 -0.1791 -0.4002 -0.2832
 3936TIP3   OH211771   1.822   5.907   2.043  0.1880  0.3082 -0.4747
 3936TIP3    H111772   1.779   5.910   2.129 -0.6866  1.4795 -0.9145
 3936TIP3    H211773   1.914   5.927   2.061  0.0603  0.3028  0.2177
 3937TIP3   OH211774   3.796   2.817   0.513 -0.1179  0.7253  0.2099
 3937TIP3    H111775   3.866   2.764   0.548  0.1215  1.0645  0.2537
 3937TIP3    H211776   3.787   2.890   0.574 -1.0903  0.2399  0.6694
 3938TIP3   OH211777   2.183   3.950   3.595 -0.3041  0.0380  0.3175
 3938TIP3    H111778   2.088   3.949   3.608 -0.2970  1.6764  0.7926
 3938TIP3    H211779   2.198   3.893   3.520 -1.6481 -0.3619  0.3245
 3939TIP3   OH211780   4.487   6.401   4.128  0.2418  0.0702  0.0514
 3939TIP3    H111781   4.450   6.480   4.088 -1.3384 -1.5422 -1.8928
 3939TIP3    H211782   4.522   6.351   4.055 -2.1324 -2.7012  0.5880
 3940TIP3   OH211783   3.254   0.267   1.639 -0.1571 -0.2738 -0.2714
 3940TIP3    H111784   3.175   0.259   1.692 -0.9192 -0.1445 -1.3628
 3940TIP3    H211785   3.223   0.282   1.550  1.0984 -0.1112 -0.7118
 3941TIP3   OH211786   2.393   1.682   5.626 -0.2928  0.2918  0.1422
 3941TIP3    H111787   2.334   1.614   5.660 -0.1838  0.0400 -0.1758
 3941TIP3    H211788   2.359   1.763   5.664 -0.8086  0.1396  0.0137
 3942TIP3   OH211789   1.120   2.684   2.538 -0.1416 -0.2513 -0.3832
 3942TIP3    H111790   1.200   2.635   2.557  0.2700  0.1638 -1.0126
 3942TIP3    H211791   1.148   2.754   2.479 -0.9350  0.0210 -0.4486
 3943TIP3   OH211792   5.921   6.182   1.668 -0.2086 -0.2445 -0.5308
 3943TIP3    H111793   5.851   6.247   1.663 -0.8275 -0.9659 -1.7007
 3943TIP3    H211794   6.000   6.229   1.643 -0.6420  0.0754 -1.3080
 3944TIP3   OH211795   0.602   1.961   0.966 -0.1660  0.4000 -0.2146
 3944TIP3    H111796   0.679   1.922   1.007 -0.4117  1.2931  1.1609
 3944TIP3    H211797   0.528   1.916   1.008 -0.4266  1.5038  0.5562
 3945TIP3   OH211798   0.452   0.343   4.934  0.0859 -1.6330  0.1951
 3945TIP3    H111799   0.425   0.407   4.868 -1.6810 -2.6552 -0.1525
 3945TIP3    H211800   0.548   0.344   4.931  0.1054  0.6430 -0.0863
 3946TIP3   OH211801   6.858   3.510   1.281  0.8234  0.5783 -0.1190
 3946TIP3    H111802   6.910   3.507   1.361  1.0671  1.1411 -0.2514
 3946TIP3    H211803   6.768   3.528   1.311  0.4901 -1.3793  0.1907
 3947TIP3   OH211804   1.054   5.159   4.196  0.7529  0.2917  0.0668
 3947TIP3    H111805   1.064   5.105   4.275 -1.7879  0.9549  0.9392
 3947TIP3    H211806   0.967   5.138   4.164  1.6733  0.1550 -2.5539
 3948TIP3   OH211807   4.442   1.039   4.267 -0.5819  0.1884 -0.2646
 3948TIP3    H111808   4.530   1.060   4.297 -0.8312  1.2959 -0.2672
 3948TIP3    H211809   4.450   0.953   4.226 -0.1261 -1.1484  2.4082
 3949TIP3   OH211810   0.256   5.783   1.520  0.3711  0.1709 -0.4832
 3949TIP3    H111811   0.320   5.854   1.529  0.4509 -0.0432  0.8124
 3949TIP3    H211812   0.278   5.722   1.590  0.0206 -0.9208 -1.3037
 3950TIP3   OH211813   0.618   0.881   4.375 -0.0368 -0.0133 -0.1476
 3950TIP3    H111814   0.666   0.827   4.312 -0.9816 -0.4213 -0.5406
 3950TIP3    H211815   0.588   0.956   4.324 -2.0598 -1.0592 -0.5951
 3951TIP3   OH211816   6.048   5.734   0.799  0.4109 -0.2269  0.2522
 3951TIP3    H111817   5.988   5.660   0.802 -0.3582  0.2116 -2.1219
 3951TIP3    H211818   5.992   5.811   0.793  1.2128  0.3522 -0.0281
 3952TIP3   OH211819   0.741   4.732   1.361 -0.6928 -0.2843  0.2176
 3952TIP3    H111820   0.777   4.648   1.331 -0.9279  0.0942 -1.2317
 3952TIP3    H211821   0.740   4.726   1.456 -0.9378 -2.0287  0.1387
 3953TIP3   OH211822   2.150   5.091   3.673  0.4059 -0.1634  0.4067
 3953TIP3    H111823   2.220   5.035   3.639  0.9144  0.7712 -0.1319
 3953TIP3    H211824   2.071   5.038   3.664  0.3729  0.2419 -2.9395
 3954TIP3   OH211825   2.427   4.090   4.652 -0.0780 -0.3948  0.1549
 3954TIP3    H111826   2.345   4.091   4.700 -0.9951  1.0848 -1.3205
 3954TIP3    H211827   2.493   4.065   4.716 -1.6958 -2.0055  1.3020
 3955TIP3   OH211828   4.573   6.757   4.842 -0.4444 -0.0622  0.0462
 3955TIP3    H111829   4.639   6.699   4.805 -0.8479  0.2221 -1.1556
 3955TIP3    H211830   4.621   6.835   4.867 -0.4599  0.5948 -1.8505
 3956TIP3   OH211831   2.255   5.042   4.696  0.3308 -0.1408  0.2904
 3956TIP3    H111832   2.297   4.976   4.641  0.1166  0.8252 -1.0936
 3956TIP3    H211833   2.176   4.999   4.730  0.2328 -0.6211 -0.5340
 3957TIP3   OH211834   3.115   4.351   2.426  0.7878  0.2213  0.2938
 3957TIP3    H111835   3.182   4.286   2.407 -0.9873 -1.5468 -0.3608
 3957TIP3    H211836   3.121   4.415   2.355  0.0975 -1.3807 -1.2815
 3958TIP3   OH211837   2.803   4.206   1.575  0.0071 -0.1170 -0.2836
 3958TIP3    H111838   2.778   4.117   1.551 -1.7514  0.6097 -1.3598
 3958TIP3    H211839   2.772   4.216   1.666 -0.8973 -0.2280 -0.5705
 3959TIP3   OH211840   3.802   1.948   1.818 -0.0134 -0.1854  0.3200
 3959TIP3    H111841   3.758   1.960   1.902  1.5890  0.4107  1.0998
 3959TIP3    H211842   3.849   1.865   1.826 -0.1957 -0.3439 -0.1611
 3960TIP3   OH211843   2.835   1.260   4.187 -0.7746 -0.4284  0.3933
 3960TIP3    H111844   2.776   1.200   4.140 -0.5460  0.1426 -0.6438
 3960TIP3    H211845   2.797   1.346   4.173 -1.0652 -0.3133  1.8308
 3961TIP3   OH211846   5.083   4.569   3.457  0.1622  0.0274 -0.2249
 3961TIP3    H111847   5.120   4.654   3.478  0.2858  0.0093 -0.3671
 3961TIP3    H211848   5.109   4.513   3.530 -2.3469  0.7748  1.3697
 3962TIP3   OH211849   4.415   3.440   3.413  0.4077  0.6092  0.4031
 3962TIP3    H111850   4.411   3.506   3.482  0.6803  1.1295 -0.0774
 3962TIP3    H211851   4.433   3.489   3.333 -0.8039  0.1093 -0.1956
 3963TIP3   OH211852   6.279   5.660   5.737 -0.3216  0.2199 -0.1290
 3963TIP3    H111853   6.221   5.635   5.809 -0.5352  2.7329  0.6428
 3963TIP3    H211854   6.235   5.627   5.658 -0.7656 -1.3577  0.7233
 3964TIP3   OH211855   1.368   0.104   2.708  0.3195  0.6507 -0.3104
 3964TIP3    H111856   1.422   0.153   2.770  1.6470 -0.5635 -0.4546
 3964TIP3    H211857   1.382   0.149   2.624  0.5194  0.7830 -0.2079
 3965TIP3   OH211858   0.320   5.149   1.099  0.8434  0.2906 -0.5100
 3965TIP3    H111859   0.339   5.147   1.193  1.4181  0.8619 -0.6026
 3965TIP3    H211860   0.315   5.243   1.078 -1.0875  0.1895 -0.7085
 3966TIP3   OH211861   3.897   6.010   2.113  0.3483  0.0605 -0.5403
 3966TIP3    H111862   3.891   6.090   2.166  0.0782  0.0419 -0.5444
 3966TIP3    H211863   3.814   6.006   2.065 -0.9500 -1.8129  1.6711
 3967TIP3   OH211864   4.281   6.030   5.657 -0.2029  0.1615  0.0183
 3967TIP3    H111865   4.369   5.997   5.642  0.1626  0.3299  1.5795
 3967TIP3    H211866   4.294   6.114   5.701 -1.0880 -0.7606  2.2057
 3968TIP3   OH211867   3.355   4.947   2.281 -0.2543  0.2568 -0.7962
 3968TIP3    H111868   3.403   4.865   2.277  0.0520  0.4381 -0.8799
 3968TIP3    H211869   3.333   4.967   2.190 -2.1004 -0.7505 -0.6351
 3969TIP3   OH211870   0.432   3.800   5.092 -0.7551 -0.2154  0.1219
 3969TIP3    H111871   0.409   3.843   5.174  1.9729  0.9250  0.3987
 3969TIP3    H211872   0.392   3.713   5.099 -3.2763  0.9347  1.1848
 3970TIP3   OH211873   3.466   0.492   5.062 -0.3838 -0.1279 -1.0651
 3970TIP3    H111874   3.540   0.469   5.005 -0.0591  0.7610 -1.0056
 3970TIP3    H211875   3.402   0.422   5.046  1.2005 -2.0009  0.3003
 3971TIP3   OH211876   3.208   5.246   5.575 -0.4631  0.7036 -0.1721
 3971TIP3    H111877   3.140   5.190   5.612 -0.4842  0.7344 -0.1632
 3971TIP3    H211878   3.287   5.226   5.625 -0.2711  0.0881 -0.7106
 3972TIP3   OH211879   3.640   0.606   0.543 -0.0036  0.2610  0.1317
 3972TIP3    H111880   3.587   0.533   0.511  1.0183 -0.0291 -0.9397
 3972TIP3    H211881   3.626   0.676   0.479  1.0669  0.1122 -0.2781
 3973TIP3   OH211882   2.762   2.503   0.695  0.2794 -0.1525  0.3846
 3973TIP3    H111883   2.737   2.453   0.773 -1.2688  2.0554  1.4103
 3973TIP3    H211884   2.755   2.594   0.722 -1.1921  0.7254 -2.6070
 3974TIP3   OH211885   3.497   4.087   5.044  0.2620 -0.0124 -0.6642
 3974TIP3    H111886   3.568   4.126   4.993  0.8023 -1.1538 -0.8134
 3974TIP3    H211887   3.443   4.043   4.978  0.0195 -0.0574 -0.4330
 3975TIP3   OH211888   6.908   5.089   5.256  0.2196 -0.1657 -0.1071
 3975TIP3    H111889   6.843   5.143   5.211 -1.9916 -2.5580 -0.0498
 3975TIP3    H211890   6.955   5.046   5.185 -0.7365 -1.1073 -0.2025
 3976TIP3   OH211891   1.525   0.188   4.756  0.1203  0.2475  0.2568
 3976TIP3    H111892   1.491   0.116   4.704  1.4793 -0.8056  0.7786
 3976TIP3    H211893   1.448   0.242   4.774 -0.4745  0.4750 -2.4801
 3977TIP3   OH211894   2.819   4.664   5.047 -0.2320  0.1139  0.0755
 3977TIP3    H111895   2.753   4.716   5.001 -0.4130 -0.7836 -0.6957
 3977TIP3    H211896   2.872   4.625   4.978  0.2607 -0.2721  0.6618
 3978TIP3   OH211897   0.515   1.826   5.384  0.3110  0.3947 -0.2980
 3978TIP3    H111898   0.582   1.779   5.435 -0.5365 -1.2016 -0.6182
 3978TIP3    H211899   0.530   1.799   5.294 -0.0603  0.9109 -0.5173
 3979TIP3   OH211900   0.506   2.136   2.683 -0.0863  0.0091 -0.0611
 3979TIP3    H111901   0.438   2.169   2.625  1.1440  1.5688 -0.6900
 3979TIP3    H211902   0.562   2.082   2.627 -1.0333 -1.7171  0.5663
 3980TIP3   OH211903   6.897   5.521   5.258  0.3559 -0.0074  0.0843
 3980TIP3    H111904   6.810   5.552   5.282  0.5319  0.2566  0.3889
 3980TIP3    H211905   6.956   5.593   5.281  0.5069  0.3928 -1.4312
 3981TIP3   OH211906   3.613   5.754   0.462  0.1478 -0.1717  0.0354
 3981TIP3    H111907   3.596   5.683   0.400  1.7929 -0.8045  0.2567
 3981TIP3    H211908   3.700   5.787   0.438  1.0323 -0.7129  2.2112
 3982TIP3   OH211909   6.289   5.611   0.804  0.1442 -0.8548  0.2312
 3982TIP3    H111910   6.302   5.621   0.898  0.0991  0.1557  0.1397
 3982TIP3    H211911   6.207   5.658   0.785  0.4434 -0.5690 -0.3954
 3983TIP3   OH211912   5.991   4.966   5.623  0.0178  0.3713 -0.1819
 3983TIP3    H111913   6.048   4.889   5.623  1.2913  1.2688  0.5848
 3983TIP3    H211914   5.967   4.977   5.715 -1.0436  0.2728 -0.4420
 3984TIP3   OH211915   2.093   5.273   0.756 -0.6691 -0.0973 -0.4847
 3984TIP3    H111916   2.117   5.188   0.792 -0.5993 -0.1173 -0.5774
 3984TIP3    H211917   2.155   5.335   0.796 -0.2661 -0.1911 -0.9492
 3985TIP3   OH211918   6.079   3.150   2.080 -0.6393 -0.5068  0.1893
 3985TIP3    H111919   6.153   3.208   2.098 -0.8306  0.0148 -0.6247
 3985TIP3    H211920   6.089   3.078   2.141  0.6339 -0.5180 -0.0082
 3986TIP3   OH211921   0.149   2.303   0.398  0.3076 -0.3095  0.4065
 3986TIP3    H111922   0.147   2.240   0.327 -0.3118 -0.2789  0.3863
 3986TIP3    H211923   0.058   2.305   0.430  0.4573  0.1039  0.8119
 3987TIP3   OH211924   0.512   5.299   1.450  0.4520 -0.0305  0.1971
 3987TIP3    H111925   0.543   5.339   1.531  0.1633 -0.9401  0.7803
 3987TIP3    H211926   0.419   5.323   1.446  0.4958  0.1158  0.0784
 3988TIP3   OH211927   3.532   3.345   5.363  0.8589 -0.4653 -0.1617
 3988TIP3    H111928   3.494   3.274   5.312 -1.2946  0.0788  0.5715
 3988TIP3    H211929   3.457   3.390   5.401  2.2858 -0.7018  3.3066
 3989TIP3   OH211930   0.038   3.747   1.557 -0.4099 -0.2994  0.4860
 3989TIP3    H111931   0.036   3.753   1.461  0.1094 -0.5103  0.4599
 3989TIP3    H211932   0.083   3.826   1.585 -1.0245  0.0180  0.5864
 3990TIP3   OH211933   6.565   6.488   5.397 -0.5364 -0.1277 -0.2444
 3990TIP3    H111934   6.554   6.394   5.409  2.7855 -0.6276 -0.2751
 3990TIP3    H211935   6.501   6.528   5.456 -0.0070 -2.4208  2.0181
 3991TIP3   OH211936   5.470   6.548   1.677  0.4803  0.4998 -0.6322
 3991TIP3    H111937   5.448   6.486   1.608 -2.0826  0.9486 -0.2912
 3991TIP3    H211938   5.565   6.559   1.670  0.8365 -2.3854 -1.5789
 3992TIP3   OH211939   5.720   4.614   1.980 -0.0790  0.1436  0.3853
 3992TIP3    H111940   5.784   4.674   2.019  0.0337 -0.1444  0.6444
 3992TIP3    H211941   5.668   4.583   2.054  0.0381 -0.2876  0.2880
 3993TIP3   OH211942   2.590   2.589   2.842  0.3005 -0.1555  0.0763
 3993TIP3    H111943   2.497   2.596   2.825  0.3754  2.0330  0.3061
 3993TIP3    H211944   2.621   2.679   2.847  2.0043 -0.7504  2.3535
 3994TIP3   OH211945   2.949   2.647   2.788  0.1798  0.3842  0.3464
 3994TIP3    H111946   3.010   2.708   2.747 -0.0345 -0.4156 -1.2644
 3994TIP3    H211947   2.864   2.691   2.783 -0.4473 -0.8697 -3.0554
 3995TIP3   OH211948   0.934   1.022   2.122  0.4088 -0.1985 -0.4232
 3995TIP3    H111949   0.966   1.109   2.143  3.1644 -0.5590 -2.4539
 3995TIP3    H211950   0.985   0.963   2.179 -0.7018 -0.5580  0.2237
 3996TIP3   OH211951   7.079   2.056   2.971 -0.0977 -0.1016 -0.3524
 3996TIP3    H111952   7.106   2.006   2.894 -2.0690 -1.1144 -0.4517
 3996TIP3    H211953   6.989   2.082   2.952 -0.2532  0.5742  1.1688
 3997TIP3   OH211954   5.857   6.469   4.423  0.1681  0.0139  0.2870
 3997TIP3    H111955   5.939   6.514   4.446  1.5003 -1.6446 -1.0625
 3997TIP3    H211956   5.878   6.418   4.345 -1.8784 -1.2880  0.5279
 3998TIP3   OH211957   2.899   3.080   1.284  0.2488 -0.6469 -0.5804
 3998TIP3    H111958   2.875   3.166   1.247  0.7480  0.0769  0.7393
 3998TIP3    H211959   2.842   3.070   1.360  2.4062  0.0075  1.1931
 3999TIP3   OH211960   6.112   4.062   5.446 -0.1542 -0.1423 -0.6060
 3999TIP3    H111961   6.022   4.072   5.413 -0.2145  0.2922 -0.3141
 3999TIP3    H211962   6.109   3.983   5.500 -0.3081 -0.2556 -0.7763
 4000TIP3   OH211963   2.991   1.014   2.917 -0.1213 -0.3248 -0.0215
 4000TIP3    H111964   3.004   1.108   2.932 -1.0343  0.1815 -1.9475
 4000TIP3    H211965   3.074   0.973   2.944  0.1632  0.9717  1.1796
 4001TIP3   OH211966   3.779   1.162   5.567  0.1404  0.1976 -0.0692
 4001TIP3    H111967   3.865   1.142   5.529  0.1400 -0.2699  0.1692
 4001TIP3    H211968   3.728   1.083   5.554  0.6507 -0.6357  2.3777
 4002TIP3   OH211969   1.593   2.975   1.320  0.2554  0.5357  0.4231
 4002TIP3    H111970   1.544   2.897   1.345  1.8244  0.0049  2.0164
 4002TIP3    H211971   1.628   3.009   1.403  0.3915  2.3990 -0.3531
 4003TIP3   OH211972   0.121   0.517   1.379  0.3425 -0.9548  0.9839
 4003TIP3    H111973   0.164   0.581   1.435  1.4155  0.0312 -0.8526
 4003TIP3    H211974   0.083   0.453   1.439  3.6564 -1.4551  2.8195
 4004TIP3   OH211975   4.964   2.936   5.643 -0.3691 -0.2225  0.2214
 4004TIP3    H111976   4.953   2.864   5.706 -0.5377  0.7322  1.3173
 4004TIP3    H211977   4.880   2.939   5.596  0.7265 -2.8228 -2.1815
 4005TIP3   OH211978   5.103   0.780   2.232  0.5113 -0.0880 -0.1526
 4005TIP3    H111979   5.082   0.872   2.213  0.2661  0.3961  2.1813
 4005TIP3    H211980   5.021   0.733   2.221  0.3767  0.1656 -0.2331
 4006TIP3   OH211981   4.511   6.058   5.164 -0.0284 -0.2130  0.8615
 4006TIP3    H111982   4.607   6.066   5.165 -0.0206 -0.2862  0.7687
 4006TIP3    H211983   4.483   6.120   5.097 -0.0991  0.3287  1.3814
 4007TIP3   OH211984   0.102   0.273   1.214  0.4238 -0.2970 -0.3888
 4007TIP3    H111985   0.099   0.358   1.258 -0.6819  0.6761 -2.1848
 4007TIP3    H211986   0.191   0.242   1.227  0.3554  0.2931  1.7921
 4008TIP3   OH211987   3.631   2.423   0.237  0.1786  0.0223 -0.7795
 4008TIP3    H111988   3.714   2.452   0.273  0.7216 -1.8765 -0.3868
 4008TIP3    H211989   3.577   2.402   0.313 -0.0036 -0.4641 -1.0379
 4009TIP3   OH211990   3.434   4.957   1.028  0.0926 -1.0397  0.1148
 4009TIP3    H111991   3.362   4.958   0.964 -0.2079  3.5733  0.1468
 4009TIP3    H211992   3.494   5.026   0.997  2.4508 -2.0014  2.2535
 4010TIP3   OH211993   2.765   2.016   1.517 -0.2262 -0.5866 -0.1507
 4010TIP3    H111994   2.758   1.947   1.582  2.5552 -0.7916  0.0666
 4010TIP3    H211995   2.747   1.973   1.433  1.5098 -1.6447 -0.0262
 4011TIP3   OH211996   7.000   2.327   2.196  0.4847 -0.5997  0.0031
 4011TIP3    H111997   6.984   2.417   2.169 -1.7596 -1.1441 -0.6209
 4011TIP3    H211998   7.024   2.334   2.288 -1.2711  0.5450  0.4211
 4012TIP3   OH211999   0.133   5.458   3.355  0.0388  1.1138  0.1070
 4012TIP3    H112000   0.136   5.376   3.305  0.0663  1.6823 -0.8620
 4012TIP3    H212001   0.170   5.436   3.440  0.5259  0.2388 -0.3161
 4013TIP3   OH212002   0.433   5.205   5.376 -0.3162 -0.5350 -0.0576
 4013TIP3    H112003   0.390   5.123   5.352  1.3438 -1.2635 -0.7087
 4013TIP3    H212004   0.489   5.226   5.301 -0.9964  1.4237 -0.0708
 4014TIP3   OH212005   5.011   6.743   1.036 -0.1795  0.6072 -0.2549
 4014TIP3    H112006   4.985   6.712   1.123  1.1704 -3.6296 -1.1339
 4014TIP3    H212007   5.081   6.805   1.052  2.1053 -2.2386  1.7991
 4015TIP3   OH212008   3.387   1.408   1.044  0.0589  0.4081  0.5294
 4015TIP3    H112009   3.451   1.372   0.983  0.1599 -0.4650  1.1315
 4015TIP3    H212010   3.421   1.387   1.131 -0.6662  0.5986  0.8726
 4016TIP3   OH212011   1.873   4.011   4.172  0.2085 -0.1314 -0.3419
 4016TIP3    H112012   1.897   3.940   4.113  1.2472  0.0871 -0.1929
 4016TIP3    H212013   1.895   4.091   4.123  0.2043  0.0686 -0.0174
 4017TIP3   OH212014   1.183   2.834   2.331 -0.0622  0.1265  0.2874
 4017TIP3    H112015   1.240   2.910   2.338 -1.0844  0.7386  3.7738
 4017TIP3    H212016   1.108   2.865   2.281  0.8177  0.4799 -0.8675
 4018TIP3   OH212017   5.631   0.463   5.687  0.0245 -0.2673  0.5057
 4018TIP3    H112018   5.608   0.472   5.594  0.3456 -2.0281  0.2134
 4018TIP3    H212019   5.549   0.442   5.731  0.0490 -0.5132  0.4371
 4019TIP3   OH212020   0.618   1.878   2.555 -0.0603  0.0633  0.2570
 4019TIP3    H112021   0.557   1.868   2.628 -1.3067  0.6382 -0.6589
 4019TIP3    H212022   0.607   1.798   2.503 -0.9110  0.6772 -0.5268
 4020TIP3   OH212023   0.919   4.789   0.683  0.1447 -0.2496 -0.1444
 4020TIP3    H112024   0.833   4.828   0.666  0.6209  1.4762  1.1056
 4020TIP3    H212025   0.971   4.861   0.718  1.6100 -1.6576  0.6959
 4021TIP3   OH212026   7.099   0.808   0.039  0.3826  0.4190  0.0765
 4021TIP3    H112027   7.166   0.795   0.106 -0.5491 -1.6062  0.6842
 4021TIP3    H212028   7.039   0.872   0.077 -0.0150 -0.5412  1.1161
 4022TIP3   OH212029   0.600   0.556   3.966 -0.0424  0.0970  0.2215
 4022TIP3    H112030   0.537   0.607   3.915 -0.4803  0.2731  0.9214
 4022TIP3    H212031   0.632   0.489   3.906 -1.9072 -0.8476  0.2176
 4023TIP3   OH212032   0.826   6.017   0.351  0.0276 -0.3347 -0.0526
 4023TIP3    H112033   0.836   6.097   0.299  0.0480 -0.0734  0.3498
 4023TIP3    H212034   0.816   6.048   0.441 -0.5451 -0.7587  0.0328
 4024TIP3   OH212035   5.518   1.989   3.955 -0.6111  0.0404  0.5008
 4024TIP3    H112036   5.510   2.019   3.865 -1.0050  0.0378  0.5318
 4024TIP3    H212037   5.566   2.058   4.000 -1.6859  0.7215  0.6206
 4025TIP3   OH212038   1.540   5.848   5.172 -0.4220  0.6267  0.1937
 4025TIP3    H112039   1.542   5.814   5.083 -0.9093  1.8544 -0.3091
 4025TIP3    H212040   1.449   5.874   5.186 -0.8790 -1.5511  1.8785
 4026TIP3   OH212041   5.385   1.302   3.451 -0.1210  0.6687 -0.0458
 4026TIP3    H112042   5.459   1.290   3.510  0.4243 -0.3175 -0.8981
 4026TIP3    H212043   5.328   1.365   3.497 -0.0715 -0.5795  1.8621
 4027TIP3   OH212044   3.995   1.694   4.512 -0.4558 -0.4826  0.1030
 4027TIP3    H112045   3.944   1.613   4.520 -0.7474 -0.2395  0.7322
 4027TIP3    H212046   3.945   1.748   4.450 -2.0255  0.5329  2.1303
 4028TIP3   OH212047   1.187   2.815   3.309 -0.1033  0.0837 -0.2134
 4028TIP3    H112048   1.260   2.817   3.372  1.3509  1.0204 -1.8466
 4028TIP3    H212049   1.172   2.722   3.293  1.3577 -0.1194 -0.5278
 4029TIP3   OH212050   2.523   4.927   0.601  0.4554 -0.0937 -0.3455
 4029TIP3    H112051   2.574   4.971   0.669  0.0759  1.1831 -0.8558
 4029TIP3    H212052   2.563   4.956   0.519  0.2611 -0.7990 -0.6955
 4030TIP3   OH212053   4.205   2.153   2.332 -0.6792  0.0935  0.4113
 4030TIP3    H112054   4.237   2.156   2.242 -2.1154  0.3952 -0.1176
 4030TIP3    H212055   4.258   2.086   2.375  0.0678  0.0001 -0.6359
 4031TIP3   OH212056   5.167   0.570   0.889  0.2596  0.1859  0.0311
 4031TIP3    H112057   5.170   0.660   0.920 -0.5928 -0.0025  0.7166
 4031TIP3    H212058   5.081   0.538   0.916  0.9072 -1.1234  0.6585
 4032TIP3   OH212059   2.860   1.043   0.047 -0.2078 -0.3487 -0.3229
 4032TIP3    H112060   2.770   1.017   0.028  0.0333 -1.9662  0.5942
 4032TIP3    H212061   2.860   1.139   0.038 -2.1295 -0.2659  0.1590
 4033TIP3   OH212062   7.083   5.962   4.253 -0.0589 -0.0459  0.5122
 4033TIP3    H112063   7.043   5.934   4.335 -0.1096  0.7071  0.7516
 4033TIP3    H212064   7.033   5.916   4.185 -0.6763  0.1046  0.8582
 4034TIP3   OH212065   4.390   0.121   3.041  0.0856 -0.4302  0.0889
 4034TIP3    H112066   4.369   0.214   3.054  1.1162 -0.2508  0.5527
 4034TIP3    H212067   4.401   0.111   2.946 -0.0313 -0.0774  0.0380
 4035TIP3   OH212068   3.885   5.272   3.036 -0.2286 -0.1961 -0.4918
 4035TIP3    H112069   3.973   5.265   2.999 -0.0785  2.2236 -0.7262
 4035TIP3    H212070   3.835   5.318   2.969 -1.4395 -0.6889  0.0551
 4036TIP3   OH212071   4.150   0.282   2.795  0.0691 -0.5483  0.2028
 4036TIP3    H112072   4.241   0.278   2.826  0.3465 -0.0217 -0.5165
 4036TIP3    H212073   4.133   0.194   2.762  0.5366 -0.4812 -0.2358
 4037TIP3   OH212074   1.324   4.352   2.982 -0.4587 -0.3693 -0.0839
 4037TIP3    H112075   1.313   4.259   3.003 -1.8787 -0.0619  0.6597
 4037TIP3    H212076   1.308   4.397   3.065 -1.8779  0.6320 -0.8609
 4038TIP3   OH212077   6.982   3.823   5.445 -0.0445 -0.1007 -0.0135
 4038TIP3    H112078   7.058   3.841   5.390 -0.3692  0.4033 -0.3081
 4038TIP3    H212079   6.992   3.732   5.471  1.9980  0.6249  2.0751
 4039TIP3   OH212080   5.682   5.522   1.811  0.3245 -0.6217  0.0710
 4039TIP3    H112081   5.685   5.435   1.849 -0.6172  0.0964  1.8930
 4039TIP3    H212082   5.589   5.539   1.796  0.5437 -0.1457 -0.8344
 4040TIP3   OH212083   1.534   2.696   2.982  0.0276  0.0071  0.0337
 4040TIP3    H112084   1.526   2.757   2.909  0.9969  0.4027  0.2431
 4040TIP3    H212085   1.534   2.751   3.060 -2.1236 -0.4873  0.4417
 4041TIP3   OH212086   1.371   6.591   5.716  0.3534  0.2491 -0.6988
 4041TIP3    H112087   1.310   6.556   5.781  2.0518 -1.0369  0.3063
 4041TIP3    H212088   1.446   6.622   5.768 -0.3653  4.1440 -1.6511
 4042TIP3   OH212089   4.897   1.009   2.400 -0.1356  0.8219 -0.0255
 4042TIP3    H112090   4.917   0.927   2.445  1.6463  1.9728  1.4230
 4042TIP3    H212091   4.910   0.989   2.307 -0.3211 -0.6661  0.2421
 4043TIP3   OH212092   1.683   1.967   1.006 -0.6288 -0.0708 -0.9824
 4043TIP3    H112093   1.651   2.051   1.041 -0.1947  0.2502 -1.3455
 4043TIP3    H212094   1.608   1.908   1.014 -1.0250  0.4246 -0.9748
 4044TIP3   OH212095   1.704   6.326   5.208 -0.1864  0.2361 -0.3654
 4044TIP3    H112096   1.623   6.276   5.208 -0.9740  1.4847 -0.3924
 4044TIP3    H212097   1.772   6.260   5.194 -1.2556 -0.7238 -1.2708
 4045TIP3   OH212098   3.694   6.602   3.719 -0.1930  0.0850  0.4118
 4045TIP3    H112099   3.626   6.625   3.782  0.8693  0.0430  1.6223
 4045TIP3    H212100   3.688   6.668   3.651 -1.0458  0.4249  0.8048
 4046TIP3   OH212101   5.894   3.596   1.692 -0.3931 -0.0957  0.2784
 4046TIP3    H112102   5.914   3.599   1.785 -0.8724  1.1401  0.3602
 4046TIP3    H212103   5.978   3.610   1.649 -0.3212  0.2568  0.5332
 4047TIP3   OH212104   1.866   4.961   1.874  0.1721 -0.1503  0.0031
 4047TIP3    H112105   1.870   5.049   1.913 -1.1425  0.1461 -0.4669
 4047TIP3    H212106   1.958   4.935   1.865  0.6001  1.2277  0.0501
 4048TIP3   OH212107   6.078   6.145   2.508  0.3341  0.1543 -0.1362
 4048TIP3    H112108   6.131   6.177   2.435  0.9473  0.5437  0.4693
 4048TIP3    H212109   6.118   6.061   2.532 -1.7995 -1.6273 -2.2934
 4049TIP3   OH212110   6.544   1.874   3.509  0.5269 -0.2244 -0.0834
 4049TIP3    H112111   6.576   1.962   3.531 -1.2284  0.4231  0.0265
 4049TIP3    H212112   6.575   1.859   3.420  0.2028  0.8412 -0.3924
 4050TIP3   OH212113   3.148   3.045   5.314 -0.4199 -0.3959  0.0006
 4050TIP3    H112114   3.161   3.086   5.399  0.2452 -0.8019  0.1093
 4050TIP3    H212115   3.215   3.085   5.258  0.0084 -1.0567  0.0197
 4051TIP3   OH212116   2.876   6.280   0.349  0.0795  0.0315  0.6406
 4051TIP3    H112117   2.872   6.307   0.441 -0.4700  0.6511  0.4420
 4051TIP3    H212118   2.834   6.351   0.301 -2.7666 -1.7966  0.2112
 4052TIP3   OH212119   0.298   2.315   1.387  0.2030 -0.5928  0.0307
 4052TIP3    H112120   0.306   2.238   1.331  1.8020 -2.0585  2.1181
 4052TIP3    H212121   0.387   2.333   1.417 -0.5271  0.3758  1.7775
 4053TIP3   OH212122   4.905   5.561   4.479  0.3496 -0.3306  0.4946
 4053TIP3    H112123   4.814   5.577   4.504  0.2771 -1.1349  0.7774
 4053TIP3    H212124   4.955   5.585   4.557  0.5743  1.8700 -0.2437
 4054TIP3   OH212125   1.675   3.589   5.335 -0.5955 -0.4846 -0.2034
 4054TIP3    H112126   1.754   3.586   5.281  1.1222 -1.2070  2.1432
 4054TIP3    H212127   1.610   3.541   5.285  0.5628 -0.2492 -2.0418
 4055TIP3   OH212128   3.580   5.908   2.659  0.2093  0.4801  0.5514
 4055TIP3    H112129   3.595   5.815   2.676 -0.7464  0.2969  0.4398
 4055TIP3    H212130   3.666   5.942   2.635  0.0527 -1.1509 -3.1037
 4056TIP3   OH212131   5.941   3.076   3.098 -0.2022 -0.0963 -0.0700
 4056TIP3    H112132   5.994   3.151   3.072 -1.0133 -0.1947 -2.2075
 4056TIP3    H212133   5.885   3.059   3.023 -0.8012 -2.1923  0.7784
 4057TIP3   OH212134   5.939   4.018   0.386  0.2303  0.2352 -0.2920
 4057TIP3    H112135   5.930   4.035   0.479 -2.8122 -1.8152 -0.0569
 4057TIP3    H212136   6.029   3.987   0.375  1.4575  2.8989  1.4302
 4058TIP3   OH212137   2.019   5.266   3.035 -0.1281 -0.0746  1.0801
 4058TIP3    H112138   1.944   5.207   3.022  2.1332 -2.9923  0.2341
 4058TIP3    H212139   2.050   5.247   3.123  1.3873 -1.2261  0.3507
 4059TIP3   OH212140   0.583   0.620   5.457  0.5068  0.1140 -0.6771
 4059TIP3    H112141   0.664   0.571   5.441  0.0581 -0.9591  0.2699
 4059TIP3    H212142   0.610   0.691   5.516  0.8214  0.0159 -0.6981
 4060TIP3   OH212143   0.159   0.452   4.812 -0.8314  0.3316 -0.1015
 4060TIP3    H112144   0.213   0.521   4.775 -2.0530  0.6528 -1.3770
 4060TIP3    H212145   0.103   0.496   4.876 -0.1342  0.1306  0.6612
 4061TIP3   OH212146   4.531   3.648   2.385 -0.2955 -0.0248 -0.2559
 4061TIP3    H112147   4.571   3.722   2.338 -0.6292  0.0790 -0.3816
 4061TIP3    H212148   4.522   3.580   2.319  1.0077 -0.5749  0.1074
 4062TIP3   OH212149   2.571   2.618   4.391  0.7013  0.3784  0.2502
 4062TIP3    H112150   2.557   2.563   4.314 -3.2753  2.4151 -0.6998
 4062TIP3    H212151   2.660   2.652   4.381  1.6129 -2.2250 -1.4424
 4063TIP3   OH212152   4.049   0.190   3.884 -0.1048  0.3969 -0.5350
 4063TIP3    H112153   4.042   0.126   3.814 -1.1482  0.0705 -0.1610
 4063TIP3    H212154   4.109   0.256   3.851 -1.9328  1.1809 -2.4780
 4064TIP3   OH212155   1.947   4.036   0.694 -0.0079  0.5752  0.1651
 4064TIP3    H112156   1.859   4.062   0.670 -1.2206 -2.5814  0.6909
 4064TIP3    H212157   1.942   4.018   0.788  0.9965 -0.2756  0.0722
 4065TIP3   OH212158   1.646   4.580   5.870 -0.0902  0.0130 -0.0321
 4065TIP3    H112159   1.608   4.543   5.790  0.2649  0.6017 -0.4821
 4065TIP3    H212160   1.658   4.504   5.928  0.3972 -0.5482 -0.8424
 4066TIP3   OH212161   1.375   0.422   2.207 -0.0951  0.2810 -0.0943
 4066TIP3    H112162   1.444   0.480   2.239 -0.2036 -0.1098  0.9030
 4066TIP3    H212163   1.420   0.357   2.154  0.1271  0.7885 -0.5378
 4067TIP3   OH212164   1.301   6.568   3.368 -0.3058  0.0428 -0.2269
 4067TIP3    H112165   1.320   6.557   3.461  1.6778  1.0379 -0.4536
 4067TIP3    H212166   1.291   6.478   3.335  2.5401 -0.5678  0.3222
 4068TIP3   OH212167   3.759   1.281   1.845 -0.0127  0.1913  0.7206
 4068TIP3    H112168   3.823   1.240   1.903  0.4135 -0.2236 -0.0196
 4068TIP3    H212169   3.688   1.217   1.839  1.2432 -1.1368 -1.4942
 4069TIP3   OH212170   4.875   1.803   3.234  0.1318  0.4600  0.3591
 4069TIP3    H112171   4.850   1.841   3.150 -0.3185 -0.7965 -0.1035
 4069TIP3    H212172   4.941   1.863   3.269 -1.0707  2.0320  0.0335
 4070TIP3   OH212173   4.246   6.662   2.432  0.1045  0.2266 -0.5520
 4070TIP3    H112174   4.280   6.650   2.343  2.7913 -2.5807  0.6799
 4070TIP3    H212175   4.261   6.755   2.450  1.9579  0.3194 -2.1792
 4071TIP3   OH212176   0.096   6.491   0.273  0.4989 -0.6004 -1.0740
 4071TIP3    H112177   0.117   6.399   0.258 -0.1397 -1.0281  0.5195
 4071TIP3    H212178   0.105   6.503   0.367 -1.6023  0.4024 -0.9453
 4072TIP3   OH212179   2.132   4.287   2.408  0.1526  0.8077  0.0721
 4072TIP3    H112180   2.064   4.344   2.444 -1.0985 -0.6978  0.1856
 4072TIP3    H212181   2.191   4.270   2.481 -0.5657  0.3874  0.5658
 4073TIP3   OH212182   5.705   2.889   0.485 -0.5968  0.7049  0.1288
 4073TIP3    H112183   5.611   2.896   0.467 -0.4817  0.6953 -0.5083
 4073TIP3    H212184   5.717   2.800   0.516 -0.8214  0.7494  0.3461
 4074TIP3   OH212185   3.815   1.798   4.260  0.4637 -0.1279 -0.2325
 4074TIP3    H112186   3.740   1.850   4.289 -0.0117 -0.5863 -0.6344
 4074TIP3    H212187   3.778   1.716   4.228  1.2308 -0.8568  0.6770
 4075TIP3   OH212188   5.641   5.653   4.249 -0.4911  0.1250 -0.2732
 4075TIP3    H112189   5.730   5.652   4.284 -0.8194 -2.0184  0.6661
 4075TIP3    H212190   5.619   5.560   4.236 -1.8363  0.6755 -2.4865
 4076TIP3   OH212191   5.535   6.657   1.038 -0.2057  0.0029 -0.2372
 4076TIP3    H112192   5.578   6.575   1.063  0.2190  0.6535  1.2819
 4076TIP3    H212193   5.457   6.629   0.990 -1.4940 -1.4739  2.4575
 4077TIP3   OH212194   0.230   3.901   1.314 -0.6390  0.0040  0.1716
 4077TIP3    H112195   0.151   3.923   1.265  0.1120 -0.3803 -1.2791
 4077TIP3    H212196   0.274   3.985   1.329 -0.0848 -0.0091 -1.2555
 4078TIP3   OH212197   4.340   3.702   1.128  0.4608  0.3585  0.0687
 4078TIP3    H112198   4.262   3.653   1.153  1.0977 -0.3010  0.8322
 4078TIP3    H212199   4.388   3.643   1.070  0.6291  0.5690 -0.0090
 4079TIP3   OH212200   6.355   3.682   4.964 -0.1086  0.3738 -0.1391
 4079TIP3    H112201   6.284   3.747   4.970  0.6471  1.1936  0.2716
 4079TIP3    H212202   6.421   3.725   4.910  0.1293 -0.3317 -0.4108
 4080TIP3   OH212203   2.028   0.846   4.010 -0.7440 -0.4992 -0.5477
 4080TIP3    H112204   2.018   0.914   4.077 -0.3483 -1.1703  0.2002
 4080TIP3    H212205   2.032   0.895   3.928 -0.4183  0.3912 -0.0204
 4081TIP3   OH212206   4.327   5.219   1.827 -0.5304 -0.0172 -0.5749
 4081TIP3    H112207   4.301   5.128   1.819  1.0626 -0.8068  1.8740
 4081TIP3    H212208   4.269   5.267   1.768 -1.2580 -2.6134 -2.1048
 4082TIP3   OH212209   0.342   6.191   4.058  0.1339 -0.0349 -0.1044
 4082TIP3    H112210   0.324   6.106   4.098 -2.4394  0.6866  0.4251
 4082TIP3    H212211   0.259   6.238   4.063  1.2774  2.2302 -1.1192
 4083TIP3   OH212212   5.519   6.824   5.122  0.2088  0.3887 -0.9015
 4083TIP3    H112213   5.460   6.768   5.071  0.3269  0.7127 -1.3996
 4083TIP3    H212214   5.606   6.803   5.089  0.8502 -2.5507  2.0534
 4084TIP3   OH212215   7.043   3.046   4.671 -0.4897  0.2415  0.9129
 4084TIP3    H112216   6.975   3.032   4.737  0.1176  0.3547  1.5799
 4084TIP3    H212217   7.120   3.071   4.722  0.2860 -0.7382  0.2432
 4085TIP3   OH212218   3.404   5.354   1.556  0.8578  0.2037  0.3934
 4085TIP3    H112219   3.384   5.369   1.464  3.2835  0.5909 -0.1298
 4085TIP3    H212220   3.352   5.420   1.603 -0.2918  0.0914 -0.6774
 4086TIP3   OH212221   5.547   5.099   3.280  0.1123 -0.1602 -0.4157
 4086TIP3    H112222   5.620   5.140   3.327 -0.8138  1.0290  0.0424
 4086TIP3    H212223   5.556   5.005   3.297  0.4660  0.1426  1.1882
 4087TIP3   OH212224   4.459   5.315   5.603 -0.1400  0.1473  0.1464
 4087TIP3    H112225   4.427   5.360   5.525  1.5523  0.9173 -0.1382
 4087TIP3    H212226   4.554   5.327   5.601 -0.0141 -0.1664  2.1129
 4088TIP3   OH212227   2.232   6.719   4.406  0.0962  0.1143 -0.6998
 4088TIP3    H112228   2.269   6.762   4.329 -0.0365 -1.1506 -1.4952
 4088TIP3    H212229   2.167   6.658   4.371 -0.3499 -0.1068  0.4526
 4089TIP3   OH212230   6.907   0.348   1.335  0.1223  0.5058  0.1336
 4089TIP3    H112231   6.958   0.268   1.336 -0.5115  0.0143 -1.6634
 4089TIP3    H212232   6.822   0.323   1.372  0.1668  0.5244  0.2474
 4090TIP3   OH212233   1.074   0.606   1.024  0.1410  0.2856 -0.2720
 4090TIP3    H112234   0.992   0.589   0.978  0.2571 -1.0402 -0.0509
 4090TIP3    H212235   1.049   0.659   1.100 -0.7456 -1.1586  0.4935
 4091TIP3   OH212236   6.705   5.363   3.612  0.2720 -0.2355  0.4930
 4091TIP3    H112237   6.700   5.267   3.606 -0.3400 -0.1113 -2.3934
 4091TIP3    H212238   6.619   5.393   3.583  0.0656  1.2441  2.4081
 4092TIP3   OH212239   3.122   3.585   3.752 -0.4809  0.2451  0.1751
 4092TIP3    H112240   3.189   3.519   3.732 -0.6504 -0.3755  1.4967
 4092TIP3    H212241   3.161   3.668   3.724 -0.2949 -0.3990 -1.5905
 4093TIP3   OH212242   3.106   2.869   0.105  0.6007  0.4026  0.1729
 4093TIP3    H112243   3.149   2.953   0.121 -0.9305  1.2883 -0.2465
 4093TIP3    H212244   3.134   2.814   0.178  2.4142  0.9305 -0.0703
 4094TIP3   OH212245   0.998   4.309   3.148  0.1756  0.2834  0.1899
 4094TIP3    H112246   0.998   4.397   3.111 -1.7528  0.5559  0.7057
 4094TIP3    H212247   1.000   4.251   3.073 -0.8121  0.8010 -0.2571
 4095TIP3   OH212248   0.002   1.586   1.929  0.4922 -0.3800 -0.3230
 4095TIP3    H112249   0.086   1.549   1.901  0.7628  1.2585 -1.8755
 4095TIP3    H212250   0.020   1.621   2.016  0.9625 -1.4215  0.0227
 4096TIP3   OH212251   6.082   4.955   4.738 -0.1061  1.0117  0.2985
 4096TIP3    H112252   6.097   4.982   4.828  0.8635  0.7264  0.2339
 4096TIP3    H212253   6.085   4.859   4.740 -1.8450  0.9414  0.2495
 4097TIP3   OH212254   3.669   0.017   1.229 -0.5803 -0.1781  0.2311
 4097TIP3    H112255   3.704   0.005   1.140  0.7532  3.2080  0.1723
 4097TIP3    H212256   3.665   0.111   1.241  1.8261 -0.3929  4.7104
 4098TIP3   OH212257   3.655   1.897   1.107  0.4349 -0.0018 -0.3111
 4098TIP3    H112258   3.642   1.931   1.019  1.5142  1.1283 -0.0504
 4098TIP3    H212259   3.592   1.945   1.161 -1.3863 -1.8235 -0.6552
 4099TIP3   OH212260   4.051   6.232   1.440 -0.2302 -0.0227 -0.2267
 4099TIP3    H112261   4.120   6.284   1.481 -0.3216  1.0329 -1.3441
 4099TIP3    H212262   4.079   6.224   1.348 -0.6743 -1.1816 -0.2737
 4100TIP3   OH212263   2.616   3.857   2.262  0.0778  0.1304 -0.3274
 4100TIP3    H112264   2.534   3.898   2.290  0.6526  1.1202 -0.0335
 4100TIP3    H212265   2.667   3.929   2.226  1.0174 -0.3749 -0.0344
 4101TIP3   OH212266   1.466   6.262   4.683  0.8230 -0.8122 -0.1022
 4101TIP3    H112267   1.450   6.167   4.683 -0.8520 -0.5832 -1.8043
 4101TIP3    H212268   1.537   6.275   4.620  0.5799 -0.8617 -0.3840
 4102TIP3   OH212269   2.293   2.567   3.873  0.0369  0.6315  0.0604
 4102TIP3    H112270   2.285   2.612   3.957  0.0156 -0.7386  0.8214
 4102TIP3    H212271   2.207   2.528   3.859  0.0682  0.7839 -0.5698
 4103TIP3   OH212272   4.985   4.281   1.863 -0.5985 -0.2420  0.4238
 4103TIP3    H112273   4.904   4.279   1.812 -0.4965 -0.5976  0.2682
 4103TIP3    H212274   4.957   4.266   1.953 -0.7428  0.0179  0.4236
 4104TIP3   OH212275   0.215   2.021   4.935 -0.4803 -0.3143 -0.5479
 4104TIP3    H112276   0.128   2.055   4.953 -0.1857  0.8141 -1.1557
 4104TIP3    H212277   0.218   2.012   4.839 -0.2199 -1.1752 -0.4691
 4105TIP3   OH212278   4.265   4.349   3.930  0.4386 -0.7563 -0.4159
 4105TIP3    H112279   4.187   4.393   3.962  0.6113 -1.5411  1.1791
 4105TIP3    H212280   4.248   4.256   3.944  0.9194 -1.0780 -1.7793
 4106TIP3   OH212281   2.753   2.600   5.707  0.1254  0.3536 -0.1754
 4106TIP3    H112282   2.728   2.508   5.712 -0.4374  0.4125 -1.4247
 4106TIP3    H212283   2.770   2.626   5.797  0.1682 -0.9354  0.2037
 4107TIP3   OH212284   4.906   4.802   2.770  0.2158  0.9768 -0.1250
 4107TIP3    H112285   4.957   4.882   2.784 -1.3633  1.9239  0.5065
 4107TIP3    H212286   4.882   4.805   2.678  2.6470 -0.3646 -0.8916
 4108TIP3   OH212287   1.145   1.482   4.259  0.3295 -0.2898 -0.0696
 4108TIP3    H112288   1.055   1.467   4.289  0.1614 -0.5678 -0.6856
 4108TIP3    H212289   1.193   1.406   4.290  0.5230  0.2280  0.9173
 4109TIP3   OH212290   6.939   6.194   4.548  0.5606  0.3116  0.3578
 4109TIP3    H112291   6.851   6.166   4.573  0.6325  0.0788  0.3449
 4109TIP3    H212292   6.966   6.253   4.618  0.7594 -0.3304  0.8180
 4110TIP3   OH212293   2.680   3.506   0.951  0.3289  0.0247 -0.0390
 4110TIP3    H112294   2.773   3.529   0.956  0.0592  1.0324  0.6068
 4110TIP3    H212295   2.636   3.588   0.929 -0.5639 -0.0700  1.3096
 4111TIP3   OH212296   3.519   3.599   5.629 -0.0017  0.5918 -0.3833
 4111TIP3    H112297   3.459   3.529   5.601  0.9947 -0.2046 -0.5911
 4111TIP3    H212298   3.468   3.649   5.693 -1.3416  0.7437 -1.5212
 4112TIP3   OH212299   4.524   2.114   3.040  0.3933 -0.1287 -0.2754
 4112TIP3    H112300   4.452   2.151   3.092 -0.5692  0.2623 -1.8347
 4112TIP3    H212301   4.600   2.119   3.098  0.0598  3.1124  0.0824
 4113TIP3   OH212302   0.064   5.128   2.972  0.2843 -0.5149  0.6365
 4113TIP3    H112303   0.158   5.123   2.960  0.2550 -0.6812  0.4690
 4113TIP3    H212304   0.033   5.038   2.957 -0.4298  0.2571 -3.5769
 4114TIP3   OH212305   7.025   1.970   3.234  0.2485 -0.0626 -0.4918
 4114TIP3    H112306   7.034   1.996   3.142 -0.5181  0.3661 -0.4565
 4114TIP3    H212307   7.038   1.875   3.233  0.3349 -0.0490 -1.0315
 4115TIP3   OH212308   5.472   6.238   3.522 -0.3770 -0.4110 -0.0713
 4115TIP3    H112309   5.424   6.202   3.597 -0.7363  1.1678  0.4861
 4115TIP3    H212310   5.410   6.234   3.450 -0.0158 -1.9832 -0.3370
 4116TIP3   OH212311   4.652   6.466   5.041  0.1305  0.3445  0.0937
 4116TIP3    H112312   4.724   6.492   4.982  1.4473 -1.2399  0.9263
 4116TIP3    H212313   4.670   6.515   5.122  1.4752 -1.4935  0.9794
 4117TIP3   OH212314   4.146   2.551   1.636  0.3562  0.2596  0.3310
 4117TIP3    H112315   4.217   2.510   1.684  1.6190 -0.6496 -2.1163
 4117TIP3    H212316   4.173   2.545   1.544 -2.1206  1.4225 -0.5646
 4118TIP3   OH212317   4.076   4.223   2.810 -0.1632 -0.0641  0.5088
 4118TIP3    H112318   4.067   4.192   2.719 -0.2762  0.3555  0.3762
 4118TIP3    H212319   3.991   4.205   2.849 -0.3488  0.4211  0.3270
 4119TIP3   OH212320   4.765   2.894   4.650  0.0144  0.0485 -0.3616
 4119TIP3    H112321   4.824   2.923   4.580  0.3060  2.8099  0.9150
 4119TIP3    H212322   4.824   2.874   4.723 -0.5116  1.4675  0.4723
 4120TIP3   OH212323   5.092   5.809   5.141  0.4573 -0.0124  0.1689
 4120TIP3    H112324   5.043   5.882   5.180 -0.2411 -0.6260  0.4609
 4120TIP3    H212325   5.120   5.842   5.056  0.7388  0.8379  0.5812
 4121TIP3   OH212326   2.661   2.319   1.211  0.1271  0.1149 -0.1206
 4121TIP3    H112327   2.571   2.287   1.214 -0.1622  0.9439  0.3604
 4121TIP3    H212328   2.679   2.350   1.300  0.3522  1.3519 -0.5712
 4122TIP3   OH212329   4.356   4.740   1.986 -0.0278 -0.1226  0.0899
 4122TIP3    H112330   4.324   4.814   2.037 -1.2126 -0.7198  0.2564
 4122TIP3    H212331   4.279   4.683   1.975  0.9843 -1.6468  0.5227
 4123TIP3   OH212332   6.064   0.811   2.672  0.3901  0.2394  0.2841
 4123TIP3    H112333   6.145   0.848   2.636  0.4256  0.0725  0.1864
 4123TIP3    H212334   5.996   0.873   2.647  0.4972  0.4129  0.4203
 4124TIP3   OH212335   6.071   4.226   4.031  0.1302  0.3976  0.4566
 4124TIP3    H112336   6.006   4.261   3.970  1.0437 -0.7969 -1.2659
 4124TIP3    H212337   6.019   4.191   4.104 -0.9875  1.8061  0.3803
 4125TIP3   OH212338   2.523   5.162   0.831 -0.4642 -0.1227 -0.1543
 4125TIP3    H112339   2.461   5.191   0.898  0.6212 -1.0045  1.3111
 4125TIP3    H212340   2.600   5.217   0.844  0.3012 -1.2599  0.3397
 4126TIP3   OH212341   2.203   6.013   0.402  0.5054  0.0122  0.4733
 4126TIP3    H112342   2.183   6.010   0.308 -0.1696  0.8834  0.5726
 4126TIP3    H212343   2.251   5.932   0.419 -0.4742 -0.7663 -0.3652
 4127TIP3   OH212344   6.687   3.388   0.012 -0.6227 -0.4986  0.0500
 4127TIP3    H112345   6.735   3.411  -0.068 -0.1073 -2.3051 -0.2107
 4127TIP3    H212346   6.711   3.455   0.075  1.1408 -0.5718 -0.5050
 4128TIP3   OH212347   1.671   0.669   5.655 -0.5046  0.3653 -0.0157
 4128TIP3    H112348   1.606   0.722   5.609 -0.5547 -0.1352 -0.5299
 4128TIP3    H212349   1.631   0.651   5.740 -1.2936 -0.4113 -0.5324
 4129TIP3   OH212350   4.663   5.076   3.329 -0.0597 -0.1481 -0.2149
 4129TIP3    H112351   4.651   5.150   3.269 -0.8978 -1.1842 -1.3777
 4129TIP3    H212352   4.709   5.010   3.277  0.1371 -0.6838  0.6189
 4130TIP3   OH212353   2.584   6.208   0.757 -0.5045  0.2394  0.2526
 4130TIP3    H112354   2.619   6.287   0.798  0.0831  1.5221 -2.4665
 4130TIP3    H212355   2.611   6.136   0.814  0.5416  1.8413  1.8467
 4131TIP3   OH212356   0.258   3.539   2.904 -0.6034 -0.4269 -0.0244
 4131TIP3    H112357   0.254   3.452   2.942  0.6756 -0.4414  0.1303
 4131TIP3    H212358   0.339   3.539   2.852  0.2973  1.1605  1.2848
 4132TIP3   OH212359   2.671   3.471   3.870 -0.2880  0.1494  0.0020
 4132TIP3    H112360   2.671   3.460   3.965  4.0258 -0.5479  0.1426
 4132TIP3    H212361   2.719   3.552   3.855 -2.3733  1.1727 -1.6618
 4133TIP3   OH212362   2.589   0.527   5.193 -0.6367  0.3138  0.3170
 4133TIP3    H112363   2.535   0.508   5.269 -0.5025  0.9535  0.5802
 4133TIP3    H212364   2.559   0.612   5.163  0.2745  0.7287  0.5279
 4134TIP3   OH212365   2.929   1.465   2.337 -0.0827  0.1024  0.0855
 4134TIP3    H112366   2.845   1.443   2.379 -1.1513  1.8784 -0.9904
 4134TIP3    H212367   2.926   1.418   2.253 -0.1691  0.4480 -0.1061
 4135TIP3   OH212368   1.930   3.188   5.084  0.0983 -0.3754 -0.3631
 4135TIP3    H112369   1.854   3.145   5.123  1.1010  0.3077  2.5981
 4135TIP3    H212370   1.893   3.262   5.035 -1.2334 -1.0062 -0.3584
 4136TIP3   OH212371   4.971   2.869   1.468  0.2366 -0.1765 -0.3061
 4136TIP3    H112372   5.022   2.950   1.477 -0.3344  0.0866  0.8476
 4136TIP3    H212373   4.890   2.897   1.425  0.3046 -0.2502 -0.4804
 4137TIP3   OH212374   0.361   2.690   3.645  0.1389 -0.2054 -0.4097
 4137TIP3    H112375   0.376   2.754   3.715  0.6612  0.6692 -1.3067
 4137TIP3    H212376   0.434   2.702   3.585 -0.9962 -0.0175 -1.7947
 4138TIP3   OH212377   2.652   4.097   5.394  0.0449  0.1251 -0.4363
 4138TIP3    H112378   2.609   4.033   5.450  1.7149 -2.6550 -2.0878
 4138TIP3    H212379   2.580   4.139   5.346 -1.0848 -1.3356 -0.1007
 4139TIP3   OH212380   0.285   4.066   0.785  0.3390 -0.0811  0.0205
 4139TIP3    H112381   0.228   3.990   0.774  1.1842 -0.7516  0.2242
 4139TIP3    H212382   0.245   4.117   0.855  0.1359 -0.6893  0.3497
 4140TIP3   OH212383   2.937   6.693   3.161 -0.4659 -0.4635  0.3935
 4140TIP3    H112384   2.945   6.597   3.161 -1.1890 -0.5301 -0.1492
 4140TIP3    H212385   2.937   6.717   3.068 -0.0658  0.0900  0.5312
 4141TIP3   OH212386   4.271   0.592   4.467  0.2871 -0.2067 -1.1239
 4141TIP3    H112387   4.318   0.665   4.507  2.8263 -2.1739 -0.1355
 4141TIP3    H212388   4.180   0.621   4.461  0.0907  1.2257  3.9819
 4142TIP3   OH212389   6.277   1.877   2.787  0.3956  0.4838  0.1128
 4142TIP3    H112390   6.238   1.934   2.853  2.8356 -0.2179  2.3032
 4142TIP3    H212391   6.368   1.905   2.782  1.2328 -2.0452 -0.0147
 4143TIP3   OH212392   2.817   1.945   1.052 -0.2627  0.0806 -0.0603
 4143TIP3    H112393   2.826   2.026   1.001  0.0928 -0.3432 -0.6749
 4143TIP3    H212394   2.748   1.896   1.006  1.8629 -1.4953 -1.7588
 4144TIP3   OH212395   3.219   1.873   5.152 -0.3894  0.2553  0.2981
 4144TIP3    H112396   3.296   1.882   5.095  1.0693 -1.8120  1.7878
 4144TIP3    H212397   3.228   1.944   5.216  0.7028 -0.3748  0.8724
 4145TIP3   OH212398   6.690   3.738   2.021 -0.2748  0.0094  0.1346
 4145TIP3    H112399   6.677   3.645   2.002 -0.6077  0.4604 -2.1960
 4145TIP3    H212400   6.761   3.739   2.086  0.1899 -1.8434 -0.2700
 4146TIP3   OH212401   5.967   2.624   5.600 -0.1227 -0.4476  0.0469
 4146TIP3    H112402   5.940   2.595   5.687  1.6069 -1.6733  0.2184
 4146TIP3    H212403   5.937   2.555   5.541 -0.3992 -0.1154 -0.2052
 4147TIP3   OH212404   3.194   0.199   3.755  0.8035 -0.4333  0.7295
 4147TIP3    H112405   3.174   0.171   3.666 -0.6385  0.5175  0.7164
 4147TIP3    H212406   3.110   0.228   3.790  1.2476 -1.2562  2.5909
 4148TIP3   OH212407   3.065   1.121   3.899  0.0078  0.1201  0.4801
 4148TIP3    H112408   3.006   1.047   3.910 -0.0257 -0.1003 -0.9169
 4148TIP3    H212409   3.007   1.194   3.875  0.2023  0.1515  0.0965
 4149TIP3   OH212410   4.378   5.525   1.370 -0.7103 -0.5386  0.1362
 4149TIP3    H112411   4.397   5.462   1.440  0.5029 -2.0187 -1.4456
 4149TIP3    H212412   4.455   5.582   1.369 -0.3977 -0.9530 -0.4033
 4150TIP3   OH212413   6.066   3.977   3.286 -0.2053  0.0592 -0.3759
 4150TIP3    H112414   5.992   3.962   3.346 -0.9812 -0.3327 -1.3991
 4150TIP3    H212415   6.131   3.912   3.312 -0.8036 -0.5522 -0.3765
 4151TIP3   OH212416   3.462   3.083   4.132  0.2774 -0.3505  0.3229
 4151TIP3    H112417   3.445   3.135   4.211  0.8347  0.8504 -0.3152
 4151TIP3    H212418   3.541   3.122   4.094  0.2161 -1.1233 -0.6449
 4152TIP3   OH212419   5.219   1.621   4.252  0.1992 -0.0813  0.2678
 4152TIP3    H112420   5.233   1.672   4.172  0.2707  0.3727  0.5651
 4152TIP3    H212421   5.175   1.681   4.312  1.8854  0.2256  1.2712
 4153TIP3   OH212422   4.909   4.606   1.708  0.0107 -0.1363  0.1833
 4153TIP3    H112423   4.976   4.558   1.660 -1.3690 -0.9666 -0.9951
 4153TIP3    H212424   4.836   4.544   1.716 -1.1554  1.1847  0.1617
 4154TIP3   OH212425   7.014   6.283   1.549  0.2730  0.4699  0.3608
 4154TIP3    H112426   7.025   6.188   1.551 -1.7077  0.2082  0.8240
 4154TIP3    H212427   6.934   6.297   1.499 -1.9436  1.5596  3.8496
 4155TIP3   OH212428   1.395   3.539   5.093  0.6067 -0.1310 -0.3785
 4155TIP3    H112429   1.430   3.597   5.026  0.9476  1.7077  1.2980
 4155TIP3    H212430   1.345   3.597   5.151  0.4391 -1.6149  1.0317
 4156TIP3   OH212431   3.533   0.161   2.143  0.3714  0.1138  0.0811
 4156TIP3    H112432   3.526   0.163   2.048 -2.2372  0.3638  0.1956
 4156TIP3    H212433   3.626   0.171   2.161  1.1026 -1.3189 -2.4508
 4157TIP3   OH212434   6.259   5.906   2.560  0.4434 -0.0838  0.8226
 4157TIP3    H112435   6.259   5.813   2.585 -1.3067 -0.8539 -1.6958
 4157TIP3    H212436   6.341   5.918   2.513  0.0544 -0.7937 -0.0881
 4158TIP3   OH212437   4.273   4.201   0.669 -0.4968  0.0326  0.5631
 4158TIP3    H112438   4.332   4.276   0.654  1.8249 -1.6228  0.8671
 4158TIP3    H212439   4.276   4.152   0.587 -1.6604 -0.0032  0.5242
 4159TIP3   OH212440   6.740   3.405   1.058  0.2012 -0.2355 -0.0699
 4159TIP3    H112441   6.791   3.460   1.116  0.5298 -0.8471  0.2282
 4159TIP3    H212442   6.649   3.423   1.081  0.3312 -1.0411  1.1930
 4160TIP3   OH212443   2.810   0.350   1.430 -0.0971 -0.0244  0.5922
 4160TIP3    H112444   2.754   0.278   1.402 -1.2311 -0.0284  2.6776
 4160TIP3    H212445   2.899   0.314   1.429 -0.6438 -1.5198  1.6792
 4161TIP3   OH212446   3.977   4.732   5.053 -0.1874  0.1593 -0.1418
 4161TIP3    H112447   3.994   4.703   5.142  1.2510 -0.8140 -0.6925
 4161TIP3    H212448   3.895   4.688   5.029  1.0994 -2.2961 -0.3886
 4162TIP3   OH212449   6.878   1.737   3.563 -0.2751  0.3979 -0.2380
 4162TIP3    H112450   6.897   1.646   3.540  0.9367  0.9679 -1.6917
 4162TIP3    H212451   6.964   1.780   3.560 -1.0034  1.8657 -0.9536
 4163TIP3   OH212452   0.145   3.216   4.518  0.2299  0.2377  0.2833
 4163TIP3    H112453   0.133   3.203   4.612 -1.6359 -1.2328 -0.0966
 4163TIP3    H212454   0.161   3.129   4.483 -0.9956  0.4721 -0.9664
 4164TIP3   OH212455   0.113   3.925   0.345 -0.5413  0.1537 -0.0945
 4164TIP3    H112456   0.023   3.958   0.337 -1.0527 -0.7717  1.3033
 4164TIP3    H212457   0.160   3.996   0.389 -0.4535  0.8336 -1.2581
 4165TIP3   OH212458   3.188   5.527   1.003 -0.5042 -0.1770  0.0431
 4165TIP3    H112459   3.257   5.524   0.937 -0.0261  3.7659  0.1015
 4165TIP3    H212460   3.235   5.533   1.086 -0.9895 -0.2568  0.3272
 4166TIP3   OH212461   3.642   2.253   4.927 -0.0035 -0.2975  1.3734
 4166TIP3    H112462   3.562   2.305   4.924 -0.1536 -0.5512  0.3315
 4166TIP3    H212463   3.707   2.307   4.883  0.1063 -0.5562  1.2177
 4167TIP3   OH212464   3.835   6.498   4.009 -0.3188  0.1305  0.1846
 4167TIP3    H112465   3.928   6.506   4.029  0.3522 -1.1049 -2.0866
 4167TIP3    H212466   3.832   6.468   3.918 -2.8694 -1.9835  0.8071
 4168TIP3   OH212467   6.470   5.510   5.023  1.0114  0.0279  0.0801
 4168TIP3    H112468   6.497   5.418   5.023  1.2039  0.0596 -1.4573
 4168TIP3    H212469   6.386   5.511   4.978  1.5642  0.7321 -0.9698
 4169TIP3   OH212470   1.718   2.844   1.815 -0.9711  0.1225 -0.2205
 4169TIP3    H112471   1.707   2.762   1.863 -1.5618 -0.1393 -0.7906
 4169TIP3    H212472   1.730   2.911   1.883  1.6483 -0.6982  0.2399
 4170TIP3   OH212473   0.116   2.868   4.161  0.9098 -0.0707  0.2676
 4170TIP3    H112474   0.039   2.859   4.217  0.1530  1.3130 -0.4885
 4170TIP3    H212475   0.126   2.782   4.120 -0.3590 -0.2279  0.2427
 4171TIP3   OH212476   0.454   4.088   3.944  0.1606 -0.4442  0.5554
 4171TIP3    H112477   0.505   4.013   3.972 -1.1107 -0.9638  1.5690
 4171TIP3    H212478   0.459   4.150   4.017  0.1417 -0.0883  0.2592
 4172TIP3   OH212479   6.654   5.555   0.893  0.1031  0.1548 -0.0025
 4172TIP3    H112480   6.586   5.593   0.948 -0.3333  1.8746 -1.6211
 4172TIP3    H212481   6.736   5.586   0.931 -0.1008 -0.2316  0.7650
 4173TIP3   OH212482   1.852   1.239   4.060  0.1052  0.1202 -0.3009
 4173TIP3    H112483   1.936   1.195   4.054  0.5872  1.0832 -0.9596
 4173TIP3    H212484   1.790   1.178   4.021  0.0093 -1.6691  2.3950
 4174TIP3   OH212485   5.291   0.179   4.901  0.0652  0.0927  0.1383
 4174TIP3    H112486   5.372   0.148   4.941  0.1275 -0.9406 -0.7453
 4174TIP3    H212487   5.317   0.211   4.815 -0.1314  1.8935  0.7235
 4175TIP3   OH212488   4.483   1.106   2.430 -0.4485 -0.2632  0.4368
 4175TIP3    H112489   4.477   1.019   2.471  0.5618  0.1156  1.4355
 4175TIP3    H212490   4.404   1.152   2.460 -0.9344 -0.7923 -0.0117
 4176TIP3   OH212491   4.508   5.615   2.085 -0.1776  0.0277  0.1283
 4176TIP3    H112492   4.552   5.551   2.029  0.6302 -0.1470  0.9558
 4176TIP3    H212493   4.429   5.571   2.115  1.4352 -1.4543  2.4695
 4177TIP3   OH212494   0.435   2.445   2.047 -0.3769  0.7429 -0.3449
 4177TIP3    H112495   0.450   2.500   2.124  0.2992  0.6732 -0.4147
 4177TIP3    H212496   0.390   2.503   1.985  0.5591  1.3267 -0.5181
 4178TIP3   OH212497   3.818   1.186   2.649 -0.0746  0.1014  0.3322
 4178TIP3    H112498   3.765   1.253   2.605 -0.1681  0.7804  1.4428
 4178TIP3    H212499   3.887   1.235   2.693  1.3957 -0.7554 -0.8933
 4179TIP3   OH212500   1.177   3.310   1.159 -0.0150  0.5952  0.3872
 4179TIP3    H112501   1.249   3.248   1.173  0.8741  1.0437 -1.8014
 4179TIP3    H212502   1.098   3.260   1.181  0.9166  0.0591  2.7449
 4180TIP3   OH212503   2.189   5.464   4.745 -0.1365  0.1011 -0.3070
 4180TIP3    H112504   2.136   5.436   4.820  0.8745  1.0346  0.8079
 4180TIP3    H212505   2.129   5.514   4.691 -0.9154 -0.6808 -0.1914
 4181TIP3   OH212506   7.025   3.052   4.150  0.4621 -0.1393  0.1684
 4181TIP3    H112507   6.979   3.132   4.126 -0.6481 -0.5397  0.8785
 4181TIP3    H212508   7.082   3.078   4.223  0.4499  0.1004  0.0929
 4182TIP3   OH212509   0.670   1.491   1.939  0.1278 -0.2727  0.0244
 4182TIP3    H112510   0.733   1.524   2.002 -0.8777  0.4630  0.6807
 4182TIP3    H212511   0.722   1.441   1.876  1.2172 -0.5595  1.1232
 4183TIP3   OH212512   1.038   6.471   0.225  0.8921  0.3940  0.1226
 4183TIP3    H112513   1.030   6.514   0.140  0.3061 -2.1171 -1.2205
 4183TIP3    H212514   0.986   6.524   0.285  0.0267  1.3936 -1.4548
 4184TIP3   OH212515   6.913   0.532   4.683  0.0620 -1.2017  0.7434
 4184TIP3    H112516   6.875   0.520   4.596  2.7039  0.4269 -0.7761
 4184TIP3    H212517   6.875   0.613   4.715 -0.1470 -1.2688  0.6655
 4185TIP3   OH212518   5.293   2.658   0.107 -0.2552 -0.0725  0.1707
 4185TIP3    H112519   5.228   2.614   0.054  1.5022 -2.4543 -0.1653
 4185TIP3    H212520   5.377   2.635   0.067  1.0351 -0.5584  2.9162
 4186TIP3   OH212521   0.373   1.403   2.482 -0.9496 -0.4942  0.6299
 4186TIP3    H112522   0.435   1.475   2.473 -1.1488 -0.3030  0.7977
 4186TIP3    H212523   0.389   1.348   2.404 -2.9265  1.3462 -1.1956
 4187TIP3   OH212524   5.408   5.629   1.578  0.0483 -0.1378 -0.5529
 4187TIP3    H112525   5.395   5.604   1.670 -0.6369 -1.1234 -0.9065
 4187TIP3    H212526   5.416   5.546   1.531  0.4500  0.3583 -1.3913
 4188TIP3   OH212527   5.599   5.074   4.556 -0.3531 -0.1759 -0.0307
 4188TIP3    H112528   5.586   5.060   4.650 -2.6756  0.2567 -0.2451
 4188TIP3    H212529   5.693   5.090   4.547 -0.0917 -0.1967  2.2177
 4189TIP3   OH212530   5.788   3.858   5.249 -0.5240 -0.2457  0.3294
 4189TIP3    H112531   5.819   3.835   5.161 -0.0954  0.7699  0.2038
 4189TIP3    H212532   5.695   3.879   5.238 -0.8457 -1.5366  0.3909
 4190TIP3   OH212533   3.871   6.005   2.656  0.5560  0.0893 -0.0577
 4190TIP3    H112534   3.943   6.012   2.719  2.0972 -0.4325 -1.6796
 4190TIP3    H212535   3.905   6.046   2.576 -0.2302 -1.8546 -1.4582
 4191TIP3   OH212536   0.877   3.429   4.174  0.1427  0.0355  0.2802
 4191TIP3    H112537   0.920   3.489   4.235 -0.9420  0.6820  0.4277
 4191TIP3    H212538   0.877   3.345   4.219  0.5699  0.1984  0.5907
 4192TIP3   OH212539   6.067   3.644   1.452  0.4570  0.0583 -0.2465
 4192TIP3    H112540   6.037   3.733   1.437 -1.3084 -0.6834 -1.5353
 4192TIP3    H212541   6.059   3.601   1.366 -0.0243 -1.6583  0.5972
 4193TIP3   OH212542   1.354   5.690   0.115 -0.3442  0.3095  0.3717
 4193TIP3    H112543   1.372   5.753   0.185 -0.0986 -0.1887  0.7625
 4193TIP3    H212544   1.359   5.741   0.034 -0.6050  0.8835  0.7156
 4194TIP3   OH212545   6.211   4.226   1.314 -0.1863  0.4558 -0.3410
 4194TIP3    H112546   6.211   4.135   1.346  0.0714  0.2239 -0.9873
 4194TIP3    H212547   6.184   4.277   1.390 -0.4746 -0.1756 -0.0050
 4195TIP3   OH212548   6.201   0.632   1.120  0.0793  0.3009  0.0809
 4195TIP3    H112549   6.123   0.613   1.171 -1.0591  0.3749 -1.5485
 4195TIP3    H212550   6.204   0.562   1.054  1.1831  0.4976 -0.0975
 4196TIP3   OH212551   0.137   4.523   0.216 -0.6727  0.0076 -0.1263
 4196TIP3    H112552   0.125   4.448   0.158 -1.2224 -0.7833  0.9976
 4196TIP3    H212553   0.120   4.490   0.304 -0.3207  1.3037  0.4584
 4197TIP3   OH212554   3.270   4.840   5.420 -0.4940 -0.0957  0.9127
 4197TIP3    H112555   3.211   4.914   5.401  1.4337  1.3821  0.3692
 4197TIP3    H212556   3.301   4.812   5.334  0.8181  0.2239  1.2653
 4198TIP3   OH212557   0.939   3.783   5.518 -0.3668 -0.7049  0.3757
 4198TIP3    H112558   0.955   3.833   5.438  1.7552  1.1560  1.8242
 4198TIP3    H212559   1.000   3.709   5.512 -1.4093 -1.5411 -0.4213
 4199TIP3   OH212560   5.224   0.889   2.443 -0.6726 -0.3321 -0.7802
 4199TIP3    H112561   5.261   0.968   2.403 -1.5634 -0.6016 -2.2157
 4199TIP3    H212562   5.233   0.822   2.375 -1.7081 -0.9649 -0.3030
 4200TIP3   OH212563   3.936   1.522   2.154 -0.2393  0.4382  0.0850
 4200TIP3    H112564   3.844   1.537   2.178 -1.1128  0.8735 -3.0719
 4200TIP3    H212565   3.931   1.463   2.078  2.0955  0.5481 -0.2156
 4201TIP3   OH212566   5.342   5.561   5.450 -0.2640  0.1474 -0.5378
 4201TIP3    H112567   5.317   5.591   5.537 -0.0258  0.9402 -0.7325
 4201TIP3    H212568   5.311   5.629   5.391 -2.3107 -1.3857 -1.3170
 4202TIP3   OH212569   6.427   5.362   0.360 -0.1620  0.5251  0.2874
 4202TIP3    H112570   6.383   5.285   0.325  1.9791 -0.3090 -0.7386
 4202TIP3    H212571   6.393   5.371   0.449 -1.0194 -1.1349  0.1555
 4203TIP3   OH212572   0.499   4.405   1.848  0.3399  0.5633  0.1158
 4203TIP3    H112573   0.434   4.372   1.911 -0.8821 -0.9399 -1.8297
 4203TIP3    H212574   0.513   4.333   1.787  2.2359  1.6175 -0.8022
 4204TIP3   OH212575   2.172   0.175   4.003  0.6447  0.4500  0.0587
 4204TIP3    H112576   2.113   0.141   4.070  1.6520  0.7460  1.1147
 4204TIP3    H212577   2.145   0.266   3.991 -0.5670 -0.0207 -1.1291
 4205TIP3   OH212578   0.060   4.381   1.661 -0.7075  0.3094  0.5359
 4205TIP3    H112579   0.057   4.444   1.588 -0.2678  0.6545  0.8076
 4205TIP3    H212580   0.107   4.428   1.731 -0.0314 -0.4573  0.6096
 4206TIP3   OH212581   3.882   4.101   2.589  0.0274 -0.1089 -0.0371
 4206TIP3    H112582   3.962   4.067   2.551 -0.6329 -3.2437  1.0567
 4206TIP3    H212583   3.827   4.123   2.514  1.2432  0.4443 -0.7933
 4207TIP3   OH212584   0.274   1.026   1.153  0.5355 -0.1045 -0.0743
 4207TIP3    H112585   0.196   0.979   1.122  0.3798  0.0434  0.0892
 4207TIP3    H212586   0.328   1.037   1.075  0.8704 -1.1160 -0.0020
 4208TIP3   OH212587   1.904   2.502   4.687 -0.0580  0.2770 -0.3458
 4208TIP3    H112588   1.970   2.469   4.626 -1.4573 -1.5863 -0.9393
 4208TIP3    H212589   1.925   2.595   4.697  1.4224  0.1863 -2.0801
 4209TIP3   OH212590   5.354   5.766   2.414 -0.0881 -0.6335 -0.0118
 4209TIP3    H112591   5.401   5.762   2.498 -0.1168 -0.2998  0.0224
 4209TIP3    H212592   5.264   5.742   2.436  0.2654 -2.3177 -0.2538
 4210TIP3   OH212593   0.463   3.276   4.129  0.0193 -0.1205  0.7466
 4210TIP3    H112594   0.385   3.224   4.149  0.2754 -0.7597  0.1490
 4210TIP3    H212595   0.430   3.365   4.116 -0.8387 -0.6271 -0.8692
 4211TIP3   OH212596   4.584   5.310   5.003  0.5037 -0.1917  0.3851
 4211TIP3    H112597   4.489   5.313   5.014  0.4869 -0.8045  0.4529
 4211TIP3    H212598   4.597   5.274   4.915  0.6720  0.7589  0.0077
 4212TIP3   OH212599   2.720   2.362   3.947  0.2132 -0.1559  0.3735
 4212TIP3    H112600   2.735   2.334   4.037 -1.2174 -3.2900 -0.2220
 4212TIP3    H212601   2.736   2.284   3.895 -0.2577  1.2313 -1.9831
 4213TIP3   OH212602   4.477   1.668   3.172  0.3492 -0.1910 -0.1166
 4213TIP3    H112603   4.512   1.722   3.242 -1.6335  1.1309 -0.0438
 4213TIP3    H212604   4.483   1.578   3.204  0.9011  0.2607  1.0760
 4214TIP3   OH212605   2.967   5.042   5.624 -0.1261  0.1746  0.6860
 4214TIP3    H112606   2.935   5.129   5.646 -0.1671  0.6303 -1.0348
 4214TIP3    H212607   2.888   4.990   5.610 -0.1001 -0.0730  1.4134
 4215TIP3   OH212608   0.486   2.220   0.234 -0.0123 -0.4771  0.0468
 4215TIP3    H112609   0.532   2.140   0.259  0.9882 -1.0708 -3.2133
 4215TIP3    H212610   0.422   2.191   0.169 -0.7758  1.1737  0.0148
 4216TIP3   OH212611   2.617   5.646   4.541  0.0913  0.1165  0.0486
 4216TIP3    H112612   2.548   5.709   4.521 -0.4184 -0.2270  0.6839
 4216TIP3    H212613   2.691   5.700   4.569 -1.2228  0.4238  3.3515
 4217TIP3   OH212614   4.285   3.734   3.421  0.1315  0.3637  0.4500
 4217TIP3    H112615   4.307   3.791   3.494  0.3718  0.1527  0.5449
 4217TIP3    H212616   4.217   3.676   3.456  2.4249 -1.8737  1.5611
 4218TIP3   OH212617   1.236   5.503   4.937 -0.5630  0.8987  0.4841
 4218TIP3    H112618   1.300   5.574   4.944 -0.4705  0.9626 -0.7101
 4218TIP3    H212619   1.246   5.453   5.018  0.7530  1.1023  0.4677
 4219TIP3   OH212620   1.059   6.477   3.074  0.1492  0.3255 -0.3397
 4219TIP3    H112621   1.148   6.454   3.049  0.0255 -1.1443  0.4438
 4219TIP3    H212622   1.021   6.518   2.996  1.4537  0.8476 -0.7180
 4220TIP3   OH212623   5.544   0.133   1.278 -0.0703  0.1935 -0.5095
 4220TIP3    H112624   5.529   0.041   1.257 -0.3344  0.0447  0.3256
 4220TIP3    H212625   5.457   0.173   1.278  0.1659  0.8530 -2.6389
 4221TIP3   OH212626   3.336   2.401   2.582 -0.2266  0.2633 -0.4920
 4221TIP3    H112627   3.384   2.449   2.515  0.6956 -1.1043 -0.8555
 4221TIP3    H212628   3.265   2.358   2.534  0.2371 -0.4509 -0.5533
 4222TIP3   OH212629   1.862   0.372   5.859 -0.3428 -0.2384  0.3399
 4222TIP3    H112630   1.772   0.397   5.884 -0.0531 -0.0884  1.2615
 4222TIP3    H212631   1.863   0.381   5.763 -0.7146  1.7966  0.4715
 4223TIP3   OH212632   0.907   2.306   2.536  0.0435  0.4627  0.1976
 4223TIP3    H112633   0.902   2.262   2.621 -2.1331  0.6837  0.2446
 4223TIP3    H212634   0.873   2.394   2.553 -0.9561  0.3268 -0.9822
 4224TIP3   OH212635   6.453   1.052   5.726 -0.0414  0.0907 -0.2439
 4224TIP3    H112636   6.536   1.098   5.718  0.3386 -0.1659  1.6186
 4224TIP3    H212637   6.408   1.097   5.798  0.0172 -1.8925  1.1093
 4225TIP3   OH212638   5.426   1.579   3.686 -0.2208 -0.4488 -0.3364
 4225TIP3    H112639   5.487   1.651   3.698 -0.5620 -0.3792  1.1734
 4225TIP3    H212640   5.478   1.509   3.647  0.4791  0.0904 -0.3884
 4226TIP3   OH212641   3.873   1.260   0.607 -0.2841  0.5196 -0.3838
 4226TIP3    H112642   3.928   1.186   0.632 -2.5024 -1.7183 -1.6777
 4226TIP3    H212643   3.819   1.277   0.684 -0.7147 -0.1668 -0.5262
 4227TIP3   OH212644   4.628   2.892   3.990 -0.0095  0.1413  0.3802
 4227TIP3    H112645   4.546   2.942   3.984 -0.8712 -1.2818 -0.4915
 4227TIP3    H212646   4.697   2.958   3.989 -1.0287  1.3069 -2.0628
 4228TIP3   OH212647   1.215   2.552   0.769  0.5634  0.1715 -0.6017
 4228TIP3    H112648   1.287   2.515   0.718  1.4361  0.8958  0.0710
 4228TIP3    H212649   1.249   2.558   0.859 -0.2409  0.7559 -0.3180
 4229TIP3   OH212650   6.041   0.341   0.346  0.5468 -0.1525 -0.2923
 4229TIP3    H112651   6.002   0.429   0.347 -0.6366 -0.6581  1.3834
 4229TIP3    H212652   5.979   0.288   0.296  0.0768 -0.5280  0.6791
 4230TIP3   OH212653   6.266   1.045   4.439  1.1471  0.3736  0.0965
 4230TIP3    H112654   6.291   1.078   4.353  0.2483 -1.1647 -0.7918
 4230TIP3    H212655   6.242   0.954   4.424  0.5803  0.1815  1.9150
 4231TIP3   OH212656   1.991   0.803   3.234 -0.1113 -0.1943  0.3329
 4231TIP3    H112657   1.983   0.749   3.312  0.4339  0.8129  1.1111
 4231TIP3    H212658   2.008   0.740   3.163 -1.4726 -1.1933  0.8519
 4232TIP3   OH212659   5.024   1.073   5.357 -0.1120  0.0859  0.0375
 4232TIP3    H112660   5.001   1.026   5.277  1.1140  1.1085 -0.9564
 4232TIP3    H212661   4.968   1.034   5.424 -0.8350 -1.1259 -1.2073
 4233TIP3   OH212662   4.965   3.119   5.002  0.3335  0.2129 -0.4691
 4233TIP3    H112663   5.009   3.204   5.011  0.3688 -0.0164  3.0881
 4233TIP3    H212664   4.916   3.126   4.921  1.6034  3.0319 -1.1239
 4234TIP3   OH212665   6.611   0.464   2.306 -0.5800 -0.1553 -0.3041
 4234TIP3    H112666   6.694   0.417   2.313 -0.8941 -0.6926 -0.1108
 4234TIP3    H212667   6.630   0.538   2.249  0.7607  1.4187  2.0251
 4235TIP3   OH212668   5.285   2.831   0.567  0.1158  0.1644  0.3630
 4235TIP3    H112669   5.355   2.870   0.619  1.6552 -2.0206  0.0495
 4235TIP3    H212670   5.208   2.837   0.624  0.4576  2.7185  0.6691
 4236TIP3   OH212671   1.240   1.815   2.031  0.5932  0.3125 -0.7782
 4236TIP3    H112672   1.208   1.905   2.019 -1.9653 -0.2167  1.0386
 4236TIP3    H212673   1.316   1.824   2.088 -0.8749  1.3078  1.1780
 4237TIP3   OH212674   3.009   0.081   2.292  0.1289 -0.4054 -0.2017
 4237TIP3    H112675   3.068   0.008   2.280  1.1973  0.3040  0.5073
 4237TIP3    H212676   2.924   0.050   2.260  0.2743 -2.3459  1.1304
 4238TIP3   OH212677   2.124   2.180   5.485 -0.3875  0.2665 -0.5615
 4238TIP3    H112678   2.034   2.159   5.461  0.2104 -0.0598 -2.7574
 4238TIP3    H212679   2.123   2.187   5.580 -1.6343 -5.2548  0.1343
 4239TIP3   OH212680   6.849   3.857   3.918 -0.2182 -0.1111 -0.2447
 4239TIP3    H112681   6.932   3.820   3.889  0.3150  0.4057  0.5771
 4239TIP3    H212682   6.873   3.916   3.989 -1.3217 -0.1569  0.1785
 4240TIP3   OH212683   2.406   0.421   5.392 -0.2089  0.0313  0.4031
 4240TIP3    H112684   2.417   0.358   5.321  0.7734 -2.0285  2.2684
 4240TIP3    H212685   2.490   0.420   5.438 -1.1739  0.3598  2.2942
 4241TIP3   OH212686   0.492   0.339   3.069 -0.0353  0.0929  0.5941
 4241TIP3    H112687   0.539   0.322   2.987 -0.7804 -1.0105  0.3606
 4241TIP3    H212688   0.489   0.434   3.077  0.7552  0.1970 -0.2457
 4242TIP3   OH212689   2.055   0.618   3.031 -0.1849  0.0256 -0.5173
 4242TIP3    H112690   2.020   0.648   2.947 -1.8361  0.0833  0.1566
 4242TIP3    H212691   1.999   0.544   3.055  1.0161 -0.7449 -0.0200
 4243TIP3   OH212692   5.714   2.270   2.939 -0.0224 -0.0167 -0.1878
 4243TIP3    H112693   5.644   2.333   2.958 -2.0821 -1.5746 -2.0101
 4243TIP3    H212694   5.670   2.185   2.941  2.0987 -1.1641 -0.3245
 4244TIP3   OH212695   4.110   0.943   5.777 -1.0484  0.2838  0.2811
 4244TIP3    H112696   4.071   0.990   5.702  0.6305  0.6815 -0.3940
 4244TIP3    H212697   4.086   0.852   5.763  0.0719  0.1895 -1.3553
 4245TIP3   OH212698   1.047   5.767   4.599 -0.0786  0.5412 -0.1764
 4245TIP3    H112699   0.975   5.815   4.641  0.2970  0.9873 -0.0427
 4245TIP3    H212700   1.076   5.825   4.528 -0.5046 -0.0668 -0.8727
 4246TIP3   OH212701   2.726   4.075   5.115 -0.2596  0.1045  0.4166
 4246TIP3    H112702   2.811   4.114   5.136  0.3481 -0.4908 -0.8625
 4246TIP3    H212703   2.683   4.063   5.200  0.4822  1.4031  0.9988
 4247TIP3   OH212704   2.719   2.778   0.747 -0.4935 -0.2768 -0.2253
 4247TIP3    H112705   2.672   2.841   0.801 -0.2978  1.3446 -1.8384
 4247TIP3    H212706   2.810   2.806   0.752 -0.1566 -1.4165  0.2881
 4248TIP3   OH212707   4.735   5.154   2.565 -0.2305 -0.9525 -0.4958
 4248TIP3    H112708   4.776   5.185   2.485 -0.6069 -2.0441 -1.1355
 4248TIP3    H212709   4.755   5.060   2.568 -0.5239 -1.0012  0.5044
 4249TIP3   OH212710   0.164   4.262   3.906 -0.0405  0.2391  0.9274
 4249TIP3    H112711   0.206   4.337   3.947  0.2961  0.3609  0.3782
 4249TIP3    H212712   0.197   4.186   3.954 -0.9231  0.4804  1.9381
 4250TIP3   OH212713   3.617   0.988   0.724  0.6791  0.1040  0.1210
 4250TIP3    H112714   3.565   1.028   0.655  0.6401 -1.5737 -0.8736
 4250TIP3    H212715   3.700   0.965   0.681  1.9392  1.8804  1.4405
 4251TIP3   OH212716   1.339   1.956   4.009  0.3750  0.2857 -0.2186
 4251TIP3    H112717   1.387   1.987   3.932  0.9214  1.3770  0.5449
 4251TIP3    H212718   1.398   1.894   4.051 -0.1455 -0.7541 -0.9462
 4252TIP3   OH212719   0.220   5.121   3.867  0.0792  0.1453  0.1467
 4252TIP3    H112720   0.154   5.190   3.856  1.1109  1.1218 -0.0439
 4252TIP3    H212721   0.169   5.040   3.867 -0.9821  0.7615 -1.5448
 4253TIP3   OH212722   0.879   5.595   2.882  0.5321 -0.5961 -0.1756
 4253TIP3    H112723   0.785   5.615   2.888  0.3823 -1.4944  0.5589
 4253TIP3    H212724   0.884   5.500   2.889  1.4692 -0.6003 -0.7508
 4254TIP3   OH212725   4.160   4.561   2.103 -0.0312  0.2423  0.1481
 4254TIP3    H112726   4.172   4.473   2.138  0.7118  0.1152 -0.4115
 4254TIP3    H212727   4.143   4.615   2.180  2.3895  0.1105  0.8567
 4255TIP3   OH212728   4.298   5.601   2.472  0.3181 -0.1857  0.1704
 4255TIP3    H112729   4.303   5.543   2.397 -0.1702  0.4718 -0.3827
 4255TIP3    H212730   4.230   5.665   2.449  0.2508  0.1053  1.1106
 4256TIP3   OH212731   3.475   5.361   2.937  0.3783  0.3437 -0.2454
 4256TIP3    H112732   3.423   5.359   2.856 -0.8278 -0.4007  0.5074
 4256TIP3    H212733   3.564   5.339   2.910  0.1717  0.9563 -1.4819
 4257TIP3   OH212734   2.075   2.444   0.361  0.3531 -0.4564 -0.2286
 4257TIP3    H112735   1.997   2.407   0.320  0.3600  0.3594 -1.0075
 4257TIP3    H212736   2.143   2.378   0.348  0.3930 -0.1457 -1.6929
 4258TIP3   OH212737   6.290   0.801   4.954 -0.7351  0.1592  0.8021
 4258TIP3    H112738   6.263   0.732   4.893 -1.4026 -0.2467  1.5408
 4258TIP3    H212739   6.248   0.880   4.919  0.2667  0.2649 -0.2103
 4259TIP3   OH212740   0.297   0.794   0.932 -0.0297 -0.4130  0.0186
 4259TIP3    H112741   0.372   0.755   0.887 -0.1313 -0.2837 -0.2628
 4259TIP3    H212742   0.307   0.766   1.023  0.1937 -0.6493 -0.0763
 4260TIP3   OH212743   4.343   3.393   4.428 -0.2393  0.4628  0.0845
 4260TIP3    H112744   4.278   3.369   4.495 -1.8043 -0.4752 -1.6725
 4260TIP3    H212745   4.297   3.456   4.372  1.1362  1.4467  0.0349
 4261TIP3   OH212746   0.469   3.762   3.069  0.1760 -0.2683  0.2611
 4261TIP3    H112747   0.464   3.849   3.029 -1.0771  0.1850  1.3209
 4261TIP3    H212748   0.491   3.703   2.997  3.2916  1.1654 -0.1369
 4262TIP3   OH212749   5.041   1.028   4.927 -0.1111 -0.1642 -0.3901
 4262TIP3    H112750   5.102   0.956   4.940 -0.1505 -0.2640 -0.7344
 4262TIP3    H212751   4.994   1.035   5.010 -0.1172 -0.5453 -0.3596
 4263TIP3   OH212752   5.014   0.490   0.069  0.7473  0.3560 -0.2732
 4263TIP3    H112753   5.016   0.403   0.109  0.2423  1.2035  1.7443
 4263TIP3    H212754   4.976   0.476  -0.017  2.9489 -1.7551 -1.0319
 4264TIP3   OH212755   0.347   2.699   2.527  0.0365 -0.3043 -0.0328
 4264TIP3    H112756   0.340   2.793   2.544 -1.5749 -0.6681  1.6711
 4264TIP3    H212757   0.441   2.684   2.517  0.5592  1.1706  1.8977
 4265TIP3   OH212758   3.738   1.156   2.263  1.0280 -0.2838 -0.1447
 4265TIP3    H112759   3.670   1.218   2.290  1.2799 -0.8040  1.8466
 4265TIP3    H212760   3.715   1.133   2.173  1.8629  3.9301 -1.6771
 4266TIP3   OH212761   5.838   1.339   1.049 -0.4412 -0.6838 -0.1060
 4266TIP3    H112762   5.785   1.412   1.081  0.3889  0.6141 -1.5000
 4266TIP3    H212763   5.786   1.301   0.978 -0.4157 -0.7580 -0.0850
 4267TIP3   OH212764   1.520   4.468   0.349 -0.1693  0.2210 -0.1812
 4267TIP3    H112765   1.486   4.434   0.432  0.3685  0.9358  0.3482
 4267TIP3    H212766   1.442   4.483   0.296 -0.4755 -0.9495 -0.0993
 4268TIP3   OH212767   5.841   1.703   1.866 -0.1758  0.4146  0.4994
 4268TIP3    H112768   5.886   1.643   1.926 -2.3072 -0.9335  0.8576
 4268TIP3    H212769   5.766   1.653   1.834  0.2988  1.4312 -2.5633
 4269TIP3   OH212770   0.282   2.589   5.117 -0.4755  0.7500 -0.2723
 4269TIP3    H112771   0.312   2.675   5.148  0.7499  0.1104  0.3965
 4269TIP3    H212772   0.300   2.530   5.190 -0.4402 -0.2378 -1.0619
 4270TIP3   OH212773   4.267   3.761   5.641  0.2474  0.1919 -0.0343
 4270TIP3    H112774   4.207   3.701   5.686  0.9072  0.0403  0.6641
 4270TIP3    H212775   4.323   3.795   5.710  0.6003  0.7760 -0.5946
 4271TIP3   OH212776   1.817   0.273   3.810 -0.2169  0.6528  0.1671
 4271TIP3    H112777   1.815   0.198   3.751  0.2699 -0.3810  1.4249
 4271TIP3    H212778   1.749   0.255   3.875  0.4021  0.9307  0.9072
 4272TIP3   OH212779   7.194   0.973   2.132  0.4423 -0.1868 -0.4877
 4272TIP3    H112780   7.279   0.967   2.087 -0.5524  1.1116 -2.7193
 4272TIP3    H212781   7.130   0.952   2.064 -1.0971  0.7402  0.6319
 4273TIP3   OH212782   0.601   6.095   3.917 -0.4865 -0.9118 -0.0846
 4273TIP3    H112783   0.524   6.069   3.967  0.3959 -2.3185  0.6384
 4273TIP3    H212784   0.642   6.163   3.970 -0.0129 -1.8014  0.7367
 4274TIP3   OH212785   1.021   2.272   5.627  0.1593 -0.4839  0.1202
 4274TIP3    H112786   1.092   2.286   5.565  0.5329  0.0964  0.6660
 4274TIP3    H212787   0.944   2.309   5.584  0.6013  0.8060  0.3906
 4275TIP3   OH212788   5.233   6.147   5.741 -0.8728 -0.3190  0.1402
 4275TIP3    H112789   5.160   6.095   5.776 -0.1552 -1.0021  0.6451
 4275TIP3    H212790   5.201   6.237   5.743 -1.4707 -0.5362  0.9746
 4276TIP3   OH212791   1.480   1.089   2.885 -0.3068 -0.2445  0.9508
 4276TIP3    H112792   1.566   1.046   2.890 -0.9426 -1.5574  1.0562
 4276TIP3    H212793   1.492   1.171   2.933  1.1254  0.0200  0.2131
 4277TIP3   OH212794   5.548   1.550   5.462  0.1929  0.0714  0.3436
 4277TIP3    H112795   5.611   1.506   5.517 -0.1656  0.5623  1.1737
 4277TIP3    H212796   5.465   1.544   5.510  0.0139  1.0990  0.2000
 4278TIP3   OH212797   0.617   4.125   2.946 -0.5982  0.1697  0.0304
 4278TIP3    H112798   0.645   4.094   3.033 -1.4409  1.0129  0.6211
 4278TIP3    H212799   0.693   4.173   2.912 -0.3233 -0.0175  0.3677
 4279TIP3   OH212800   7.116   0.477   2.948  0.0982 -0.1386 -0.0328
 4279TIP3    H112801   7.095   0.431   3.029  1.4062 -0.1759  0.3036
 4279TIP3    H212802   7.166   0.554   2.976 -0.0970  0.2630 -0.7573
 4280TIP3   OH212803   3.561   2.753   4.739  0.6463 -0.2083  0.2682
 4280TIP3    H112804   3.645   2.794   4.719  1.9135 -1.4715  2.5506
 4280TIP3    H212805   3.566   2.666   4.701 -0.6501  0.4799 -1.6143
 4281TIP3   OH212806   4.912   1.135   3.178 -0.8251 -0.3873  0.1787
 4281TIP3    H112807   4.867   1.071   3.234 -1.6831 -0.8781 -1.0333
 4281TIP3    H212808   4.955   1.081   3.111 -0.1629  0.2175  0.1101
 4282TIP3   OH212809   0.577   0.948   3.130 -0.0376 -0.3446  0.5030
 4282TIP3    H112810   0.491   0.931   3.169 -0.9048  1.5584 -0.4278
 4282TIP3    H212811   0.567   0.923   3.038 -0.2869  1.6623 -0.0823
 4283TIP3   OH212812   3.013   0.884   5.267  0.2286  0.2148 -0.2544
 4283TIP3    H112813   2.946   0.896   5.335  1.0580 -0.3151  0.6874
 4283TIP3    H212814   2.964   0.851   5.191 -0.8662  1.7230 -0.2636
 4284TIP3   OH212815   3.858   4.252   5.137  0.1021 -0.7942 -0.0928
 4284TIP3    H112816   3.827   4.316   5.200  0.8297 -1.0699  0.5555
 4284TIP3    H212817   3.786   4.243   5.074 -0.8237 -0.8733  0.9576
 4285TIP3   OH212818   2.712   1.402   0.477 -0.0517 -0.4096  0.2159
 4285TIP3    H112819   2.663   1.426   0.556  0.1880  0.5589  0.0845
 4285TIP3    H212820   2.762   1.324   0.502  0.0545 -0.0873  1.0265
 4286TIP3   OH212821   5.517   4.557   0.629 -0.3388  0.2067  0.0825
 4286TIP3    H112822   5.571   4.618   0.579 -0.3487  0.3764  0.2777
 4286TIP3    H212823   5.577   4.518   0.693 -0.4877  0.5443  0.4330
 4287TIP3   OH212824   5.562   2.957   2.389 -0.2778  0.1904 -0.5320
 4287TIP3    H112825   5.494   3.024   2.381 -1.5935 -1.1612 -1.0444
 4287TIP3    H212826   5.581   2.953   2.482  0.5388  1.9369 -0.5796
 4288TIP3   OH212827   5.257   5.473   3.727 -0.0778  0.7522 -0.4497
 4288TIP3    H112828   5.179   5.481   3.783  0.1418 -1.3634  0.2344
 4288TIP3    H212829   5.293   5.562   3.724 -1.2739  1.3371  1.0659
 4289TIP3   OH212830   5.409   1.957   3.389 -0.1514  0.6927 -0.2341
 4289TIP3    H112831   5.348   1.888   3.365 -0.3842 -0.0405  2.1366
 4289TIP3    H212832   5.358   2.017   3.444  0.5718  1.6054 -0.5232
 4290TIP3   OH212833   1.647   3.248   4.027 -0.0103  0.3067  0.4183
 4290TIP3    H112834   1.679   3.247   4.118  0.4083  0.7364  0.2800
 4290TIP3    H212835   1.582   3.178   4.024  0.6751 -0.3609  0.8031
 4291TIP3   OH212836   4.380   1.373   2.990 -0.2043  0.1212  0.1172
 4291TIP3    H112837   4.442   1.364   3.062  0.1723 -1.3199 -0.3500
 4291TIP3    H212838   4.419   1.322   2.918 -0.1436  2.1980 -1.4209
 4292TIP3   OH212839   2.992   3.167   1.695  0.5880  0.3814  0.2364
 4292TIP3    H112840   2.955   3.180   1.782 -1.6970  0.0630 -0.6046
 4292TIP3    H212841   3.035   3.250   1.674  1.2087  0.4434  1.6560
 4293TIP3   OH212842   3.517   0.862   4.863 -0.1350  0.3725  0.3177
 4293TIP3    H112843   3.508   0.810   4.783 -0.5849  0.7110  0.1434
 4293TIP3    H212844   3.609   0.888   4.864  0.4908 -1.7318  1.2353
 4294TIP3   OH212845   3.071   3.923   1.545  0.1240  0.2107 -0.4027
 4294TIP3    H112846   3.118   3.861   1.601  0.0466 -0.4232 -1.0246
 4294TIP3    H212847   3.023   3.867   1.484  2.6661  0.8532 -3.2144
 4295TIP3   OH212848   5.817   3.431   5.520 -0.0252 -0.1038  0.1945
 4295TIP3    H112849   5.805   3.487   5.597 -0.2768 -0.1307  0.1745
 4295TIP3    H212850   5.857   3.489   5.455  1.1131 -0.3298  0.6686
 4296TIP3   OH212851   6.263   3.770   2.540 -0.6315  0.2027 -0.0151
 4296TIP3    H112852   6.326   3.716   2.491  0.0066  0.2139  0.7774
 4296TIP3    H212853   6.244   3.843   2.481 -2.6473 -1.5823 -1.7344
 4297TIP3   OH212854   4.811   2.429   3.070  0.3307  0.0034  0.4292
 4297TIP3    H112855   4.875   2.492   3.038  1.1452 -1.1805 -0.3171
 4297TIP3    H212856   4.727   2.461   3.034  0.6224  0.9890  0.5801
 4298TIP3   OH212857   3.378   4.654   0.616 -0.7177  0.2533  0.6564
 4298TIP3    H112858   3.364   4.639   0.710 -0.9074  0.6206  0.6917
 4298TIP3    H212859   3.400   4.568   0.581  0.8125  0.3660  1.2814
 4299TIP3   OH212860   3.627   4.564   5.747 -0.0937  0.6082 -0.6143
 4299TIP3    H112861   3.684   4.641   5.745  0.2017  0.4299 -3.2562
 4299TIP3    H212862   3.678   4.498   5.795  0.5314  1.4200 -0.1221
 4300TIP3   OH212863   2.428   3.125   3.086  0.1493  0.2482 -0.1613
 4300TIP3    H112864   2.495   3.069   3.047  0.6060 -0.0325  0.9897
 4300TIP3    H212865   2.394   3.074   3.160 -0.5989  0.8171 -0.0976
 4301TIP3   OH212866   4.453   6.587   4.642  0.5849  0.0432  0.4814
 4301TIP3    H112867   4.497   6.668   4.667  1.6009 -0.5187  0.5887
 4301TIP3    H212868   4.468   6.580   4.548  1.9873 -0.8508  0.7384
 4302TIP3   OH212869   1.630   5.681   5.767  0.3470 -0.3259  0.2611
 4302TIP3    H112870   1.676   5.759   5.797 -1.1823 -0.1108  2.2468
 4302TIP3    H212871   1.586   5.709   5.686  0.9448  0.4386  0.1848
 4303TIP3   OH212872   5.739   4.480   2.656  0.6320 -0.0794  0.5973
 4303TIP3    H112873   5.790   4.518   2.727  1.5541 -1.5048  0.7299
 4303TIP3    H212874   5.800   4.476   2.582  0.2646 -0.3941  0.3084
 4304TIP3   OH212875   2.651   0.035   3.994  0.5909  0.1917  0.2296
 4304TIP3    H112876   2.674   0.105   4.054  1.7076 -0.3429  0.4394
 4304TIP3    H212877   2.557   0.022   4.008  0.3625  1.6451  0.1632
 4305TIP3   OH212878   6.998   1.387   2.768 -0.0021  0.2850  0.3160
 4305TIP3    H112879   7.088   1.402   2.740  0.7379 -2.6507  0.8199
 4305TIP3    H212880   6.946   1.392   2.688  0.5576  1.9185  0.0109
 4306TIP3   OH212881   3.131   5.355   4.593 -0.1223  0.0165 -0.0292
 4306TIP3    H112882   3.204   5.311   4.550  0.6266  0.2794  0.9405
 4306TIP3    H212883   3.122   5.438   4.546  0.2590  0.0230 -0.0883
 4307TIP3   OH212884   0.069   5.359   1.305 -0.3243 -0.0662  0.0106
 4307TIP3    H112885   0.142   5.356   1.367 -0.4605 -1.3061  0.1203
 4307TIP3    H212886   0.025   5.275   1.315  0.8358 -1.2111 -3.2151
 4308TIP3   OH212887   0.466   4.985   1.782  0.2641  0.0366  1.2348
 4308TIP3    H112888   0.556   5.008   1.804  0.4113 -0.6006  1.3296
 4308TIP3    H212889   0.457   4.894   1.811 -0.1005 -0.2357  0.2922
 4309TIP3   OH212890   1.389   4.094   0.691 -0.1366 -0.8441 -0.7271
 4309TIP3    H112891   1.317   4.122   0.747  0.5784 -2.9451  1.3979
 4309TIP3    H212892   1.434   4.175   0.668 -1.7987  0.2926 -0.2134
 4310TIP3   OH212893   0.771   3.996   5.677 -0.1038 -0.0440  0.0403
 4310TIP3    H112894   0.782   4.016   5.770 -0.4173  0.5124 -0.0395
 4310TIP3    H212895   0.832   3.924   5.661 -0.2140 -0.2988  0.7252
 4311TIP3   OH212896   1.834   0.614   3.804  0.7587 -0.2148  0.2175
 4311TIP3    H112897   1.904   0.662   3.759 -0.5639 -0.1667 -1.8925
 4311TIP3    H212898   1.878   0.540   3.846  2.0302 -0.3880 -1.3624
 4312TIP3   OH212899   2.426   2.889   1.129  0.3441  0.1526 -0.0892
 4312TIP3    H112900   2.405   2.981   1.142  0.1650  0.1689 -0.4763
 4312TIP3    H212901   2.341   2.844   1.138  0.4360  0.0204  0.1373
 4313TIP3   OH212902   5.258   2.178   1.531 -0.1940 -1.0525  0.7657
 4313TIP3    H112903   5.227   2.206   1.444 -1.2502 -0.6586  1.2502
 4313TIP3    H212904   5.289   2.089   1.517 -0.3628 -1.0016 -0.0196
 4314TIP3   OH212905   1.852   1.806   4.883 -0.0641 -0.2212  0.3573
 4314TIP3    H112906   1.857   1.900   4.863 -0.9948 -0.1313  0.4799
 4314TIP3    H212907   1.760   1.792   4.907 -0.4289 -1.5451 -1.5603
 4315TIP3   OH212908   0.231   0.182   1.541  0.1099 -0.2094 -0.0109
 4315TIP3    H112909   0.266   0.143   1.621  2.3923 -0.4670 -1.0530
 4315TIP3    H212910   0.150   0.133   1.524 -0.3353 -0.2398  2.0205
 4316TIP3   OH212911   1.347   3.215   3.766 -0.1984  0.0074 -0.3260
 4316TIP3    H112912   1.258   3.183   3.781  0.0217 -0.6091 -0.3441
 4316TIP3    H212913   1.401   3.137   3.763  0.6422  0.4662  1.6135
 4317TIP3   OH212914   7.059   6.472   5.851  0.5018  0.0061 -0.4195
 4317TIP3    H112915   7.036   6.561   5.878  0.2941  0.0815 -0.8486
 4317TIP3    H212916   7.056   6.474   5.756 -1.2468 -0.9077 -0.4189
 4318TIP3   OH212917   1.304   2.890   0.101 -0.0127 -0.0898 -0.0774
 4318TIP3    H112918   1.358   2.909   0.024 -0.4348 -1.5963 -0.7886
 4318TIP3    H212919   1.271   2.975   0.129  0.2327  0.5050 -1.5196
 4319TIP3   OH212920   3.630   5.135   3.748  0.1586 -0.4256 -0.1048
 4319TIP3    H112921   3.643   5.127   3.654 -1.8219 -0.8709 -0.3800
 4319TIP3    H212922   3.635   5.045   3.781  3.7139 -0.0688  0.7262
 4320TIP3   OH212923   0.218   0.045   4.303 -0.4030 -0.4176  0.5505
 4320TIP3    H112924   0.253   0.115   4.358 -0.5600 -0.9463  1.3396
 4320TIP3    H212925   0.255   0.061   4.217 -0.8349  0.9352  0.5892
 4321TIP3   OH212926   6.503   6.319   1.301 -0.3041  0.4759 -0.0658
 4321TIP3    H112927   6.592   6.284   1.305 -0.3963  0.0175 -1.5750
 4321TIP3    H212928   6.509   6.394   1.243 -0.9081  0.4420 -0.1781
 4322TIP3   OH212929   4.067   1.641   3.217 -0.7135 -0.1397  0.0784
 4322TIP3    H112930   3.980   1.612   3.190 -1.0175  2.0024 -1.4784
 4322TIP3    H212931   4.053   1.722   3.265  0.3261 -0.6926  1.3773
 4323TIP3   OH212932   4.513   3.877   5.151  0.7432 -0.5549 -0.7541
 4323TIP3    H112933   4.462   3.953   5.124  0.7660 -1.1565 -2.6403
 4323TIP3    H212934   4.478   3.854   5.237 -1.3019 -0.1609 -1.4149
 4324TIP3   OH212935   2.572   0.342   2.608  0.0221  0.3411 -0.1354
 4324TIP3    H112936   2.572   0.432   2.642 -0.1325  0.1181  0.4685
 4324TIP3    H212937   2.553   0.288   2.684  0.4411 -0.2323 -0.4307
 4325TIP3   OH212938   5.333   0.516   4.814  0.3326  0.2197  0.4565
 4325TIP3    H112939   5.240   0.493   4.826 -0.4478  2.0230 -1.5198
 4325TIP3    H212940   5.358   0.555   4.897 -1.2198  1.2399  0.5005
 4326TIP3   OH212941   1.333   3.903   4.699  0.4559 -0.3892  0.4371
 4326TIP3    H112942   1.337   3.902   4.603  1.3203 -1.8882  0.4588
 4326TIP3    H212943   1.356   3.993   4.722  1.7677 -0.3829 -0.7406
 4327TIP3   OH212944   3.812   3.122   1.308 -0.0461  0.1822 -0.4276
 4327TIP3    H112945   3.724   3.149   1.336 -0.1621  0.5890 -1.1504
 4327TIP3    H212946   3.820   3.032   1.339 -0.8582  0.0235 -0.6396
 4328TIP3   OH212947   5.811   0.170   1.305 -0.1069  0.3351  0.1049
 4328TIP3    H112948   5.716   0.157   1.299 -0.2531  1.3842 -0.1477
 4328TIP3    H212949   5.830   0.235   1.237  0.9476 -0.5444 -0.4782
 4329TIP3   OH212950   6.731   4.563   0.026  0.7241 -0.1576  0.1275
 4329TIP3    H112951   6.720   4.507   0.103  1.9932 -1.3287 -0.4962
 4329TIP3    H212952   6.770   4.505  -0.040  1.4307  1.2980 -0.7787
 4330TIP3   OH212953   3.054   5.049   3.399  0.3472  0.1150 -0.5183
 4330TIP3    H112954   3.044   5.087   3.312  0.9435  0.6910 -0.3419
 4330TIP3    H212955   2.972   5.001   3.414 -0.2737  1.0397 -0.8846
 4331TIP3   OH212956   2.039   4.915   1.118 -0.4006  0.0706  0.5222
 4331TIP3    H112957   2.016   4.833   1.074  2.4354  0.3505 -1.8315
 4331TIP3    H212958   1.956   4.962   1.127 -1.8835 -2.4077  0.5826
 4332TIP3   OH212959   4.302   2.273   2.029  0.3385  0.0253 -0.8260
 4332TIP3    H112960   4.286   2.352   2.081 -0.0451 -1.3860  1.3333
 4332TIP3    H212961   4.214   2.241   2.006  0.4535 -0.3605 -0.7411
 4333TIP3   OH212962   4.741   4.936   1.206 -0.1451  0.2388 -0.6236
 4333TIP3    H112963   4.793   4.858   1.226 -1.7950 -0.8878 -0.5050
 4333TIP3    H212964   4.724   4.929   1.112  1.7616  1.8292 -1.1559
 4334TIP3   OH212965   0.720   1.421   5.916 -0.3582 -0.3332 -0.2129
 4334TIP3    H112966   0.741   1.368   5.838  1.0182  0.2748 -0.2881
 4334TIP3    H212967   0.746   1.510   5.892  0.9852 -0.2870  1.2581
 4335TIP3   OH212968   6.800   5.904   0.826 -0.0813 -0.3118  0.3643
 4335TIP3    H112969   6.850   5.920   0.746 -0.3081  1.2555  0.5209
 4335TIP3    H212970   6.714   5.875   0.795  0.4413 -1.6627  0.0875
 4336TIP3   OH212971   5.405   0.690   1.424  0.4281  0.5808  0.4164
 4336TIP3    H112972   5.458   0.666   1.500 -0.6801  2.5930  1.9439
 4336TIP3    H212973   5.321   0.647   1.439 -0.7809  3.1843  1.9763
 4337TIP3   OH212974   2.868   4.678   3.333 -0.0463 -0.3849  0.1061
 4337TIP3    H112975   2.951   4.713   3.299  0.1167 -0.2110  0.6666
 4337TIP3    H212976   2.830   4.751   3.382 -1.1584 -0.0424 -1.1972
 4338TIP3   OH212977   4.811   4.027   4.658 -0.3568 -0.0429 -0.4174
 4338TIP3    H112978   4.838   4.051   4.746  1.7459 -0.1938 -0.9587
 4338TIP3    H212979   4.822   3.931   4.655 -0.5036 -0.0492 -0.8131
 4339TIP3   OH212980   2.807   4.870   3.684 -1.0119  0.3043  0.1571
 4339TIP3    H112981   2.727   4.825   3.656 -0.8180  0.1000 -0.0845
 4339TIP3    H212982   2.798   4.878   3.779  0.3331 -3.1161  0.7325
 4340TIP3   OH212983   4.470   3.210   0.266  0.1063 -0.3361 -0.2188
 4340TIP3    H112984   4.401   3.185   0.326  0.0317  1.9865  0.7929
 4340TIP3    H212985   4.424   3.241   0.188  0.1303 -1.4518 -0.6857
 4341TIP3   OH212986   5.048   0.349   5.259 -0.3776 -0.0748  0.0427
 4341TIP3    H112987   5.059   0.314   5.348 -1.5728 -3.4076 -0.9576
 4341TIP3    H212988   5.132   0.390   5.239  0.1888  0.0763  2.4171
 4342TIP3   OH212989   0.653   6.119   1.321  0.0055  0.2326 -0.0320
 4342TIP3    H112990   0.632   6.191   1.381  0.1044  0.7806 -0.6450
 4342TIP3    H212991   0.590   6.128   1.250 -0.6253 -0.8902  0.3600
 4343TIP3   OH212992   2.604   3.810   1.221  0.2304  0.3898 -0.2036
 4343TIP3    H112993   2.525   3.863   1.209  0.1599 -0.0038 -1.6804
 4343TIP3    H212994   2.625   3.778   1.133  0.8110 -1.2548  0.4998
 4344TIP3   OH212995   6.919   0.713   1.734 -0.1928  0.0974 -0.1944
 4344TIP3    H112996   6.853   0.658   1.692 -0.7810 -1.3032  2.3067
 4344TIP3    H212997   6.882   0.801   1.734 -0.8179 -0.1557 -1.2289
 4345TIP3   OH212998   3.701   3.561   4.322 -0.4191  0.3115  0.4984
 4345TIP3    H112999   3.710   3.508   4.243  2.0341  1.7540 -0.3157
 4345TIP3    H213000   3.722   3.650   4.294  0.0315  0.9527  2.6522
 4346TIP3   OH213001   6.239   5.421   1.096 -0.0412  0.1712  0.0882
 4346TIP3    H113002   6.241   5.515   1.081 -0.4264 -0.0352 -1.4244
 4346TIP3    H213003   6.212   5.384   1.012  1.2852 -1.3718  0.3018
 4347TIP3   OH213004   1.256   6.414   2.647 -0.6090 -0.3403  0.5881
 4347TIP3    H113005   1.260   6.374   2.734 -0.5071  0.0105  0.7446
 4347TIP3    H213006   1.245   6.340   2.587 -1.8093 -0.5017  0.9845
 4348TIP3   OH213007   2.331   6.186   1.450  0.6528 -0.0593 -0.3185
 4348TIP3    H113008   2.365   6.139   1.374 -2.0477 -1.8715 -0.5270
 4348TIP3    H213009   2.321   6.276   1.420  1.1320 -0.4064 -1.5804
 4349TIP3   OH213010   2.170   2.768   3.205 -0.3942  0.6097 -0.3395
 4349TIP3    H113011   2.207   2.681   3.220  1.5392  1.4722  0.2824
 4349TIP3    H213012   2.141   2.797   3.292 -2.9889 -0.1797 -0.8645
 4350TIP3   OH213013   1.738   2.353   0.785 -0.3954  0.3121 -0.4703
 4350TIP3    H113014   1.779   2.356   0.698  0.2196 -2.0519 -0.3504
 4350TIP3    H213015   1.806   2.320   0.843 -1.9866 -2.6543 -0.0456
 4351TIP3   OH213016   2.304   4.557   4.089 -0.3243 -0.3863  0.3637
 4351TIP3    H113017   2.325   4.464   4.089  0.2146 -0.2824 -0.7348
 4351TIP3    H213018   2.373   4.598   4.037 -0.3752  0.6783  1.0992
 4352TIP3   OH213019   5.926   6.578   4.743 -0.1672  0.4813 -0.5563
 4352TIP3    H113020   5.867   6.566   4.668 -1.2392  1.0386  0.1706
 4352TIP3    H213021   5.875   6.629   4.805  1.5546  2.1609 -0.4275
 4353TIP3   OH213022   4.937   0.899   0.291 -1.0447  0.5254 -0.2873
 4353TIP3    H113023   4.918   0.954   0.215 -0.8101  0.2775 -0.5309
 4353TIP3    H213024   4.922   0.810   0.259  1.5419  0.2175 -0.8378
 4354TIP3   OH213025   3.025   5.611   1.737 -0.2543  0.4803  0.8190
 4354TIP3    H113026   2.990   5.535   1.691 -2.5467  0.6981  2.0705
 4354TIP3    H213027   3.032   5.678   1.669 -0.7561 -0.0671  0.2173
 4355TIP3   OH213028   5.238   5.344   4.762 -0.2493  0.2007 -0.0578
 4355TIP3    H113029   5.230   5.436   4.787 -2.4129 -0.3035  1.3338
 4355TIP3    H213030   5.250   5.346   4.667 -1.9489  1.8746 -0.2856
 4356TIP3   OH213031   1.721   2.200   4.197  0.1045 -0.8448  0.4436
 4356TIP3    H113032   1.762   2.269   4.248 -0.2267 -0.3502  0.0493
 4356TIP3    H213033   1.642   2.178   4.245 -0.6097  0.1590 -0.2370
 4357TIP3   OH213034   1.169   5.026   0.559  0.1094 -0.1710  0.0136
 4357TIP3    H113035   1.171   4.991   0.648 -1.2082 -0.1607  0.0669
 4357TIP3    H213036   1.233   4.973   0.511  1.6567  0.5528  1.1974
 4358TIP3   OH213037   1.936   4.622   4.397  0.3882  0.2288 -0.0840
 4358TIP3    H113038   1.881   4.562   4.448  0.4720 -1.6846 -2.0936
 4358TIP3    H213039   2.017   4.574   4.384  1.6833  2.0605  0.7677
 4359TIP3   OH213040   6.736   4.451   2.191 -0.2022 -0.1116 -0.1299
 4359TIP3    H113041   6.757   4.444   2.098  1.4677  0.4344  0.1806
 4359TIP3    H213042   6.728   4.360   2.221  1.6520 -0.3734 -0.3202
 4360TIP3   OH213043   3.637   6.056   0.541 -0.4711  0.9809 -0.0149
 4360TIP3    H113044   3.677   6.118   0.602 -1.5659  0.5860  1.1408
 4360TIP3    H213045   3.667   5.970   0.570 -1.0885  0.7791  0.0364
 4361TIP3   OH213046   3.264   6.081   4.730  0.7532 -0.0299 -1.0016
 4361TIP3    H113047   3.174   6.112   4.719  0.3488 -0.5926  0.4283
 4361TIP3    H213048   3.318   6.158   4.715 -0.0537  0.6352 -0.5941
 4362TIP3   OH213049   5.748   2.130   2.465  0.2395 -0.6079  0.5205
 4362TIP3    H113050   5.791   2.059   2.417 -0.2188 -0.9392  0.5998
 4362TIP3    H213051   5.813   2.200   2.466  0.8979 -1.2059  0.8916
 4363TIP3   OH213052   3.537   3.722   5.141 -1.3325 -0.1342 -0.1548
 4363TIP3    H113053   3.471   3.775   5.185  0.3020  2.0630 -0.1624
 4363TIP3    H213054   3.620   3.763   5.165  0.0420 -2.5939 -0.3761
 4364TIP3   OH213055   6.254   0.048   1.758 -0.2821 -0.1881 -0.4113
 4364TIP3    H113056   6.333   0.059   1.705  0.9038  1.4219  1.5330
 4364TIP3    H213057   6.218   0.137   1.765 -1.3117 -0.6316  0.1430
 4365TIP3   OH213058   1.467   3.810   2.424 -0.1200 -0.7210 -0.4269
 4365TIP3    H113059   1.397   3.859   2.468 -0.8158 -1.7168 -0.3935
 4365TIP3    H213060   1.544   3.823   2.480 -0.5213 -0.4091  0.0679
 4366TIP3   OH213061   0.726   0.534   5.217  0.4736 -0.2111 -0.3858
 4366TIP3    H113062   0.724   0.439   5.228  0.5900 -0.0148  1.7751
 4366TIP3    H213063   0.637   0.563   5.234  0.7359  0.1611  0.4603
 4367TIP3   OH213064   0.666   2.972   0.112  0.0575  0.0476 -0.5212
 4367TIP3    H113065   0.629   2.901   0.164  1.9647  0.6213  1.7783
 4367TIP3    H213066   0.683   2.932   0.026 -0.8732 -1.6481  0.0449
 4368TIP3   OH213067   0.938   1.679   5.647  0.2702 -0.0274 -0.0944
 4368TIP3    H113068   0.903   1.648   5.563 -1.1480  0.9529  0.0883
 4368TIP3    H213069   0.861   1.702   5.698  1.1549  0.7516  0.9463
 4369TIP3   OH213070   1.576   4.111   5.480 -0.2957  0.8150 -0.4972
 4369TIP3    H113071   1.614   4.028   5.450  0.7295  0.3295  1.9029
 4369TIP3    H213072   1.640   4.177   5.456  0.6679  0.3949  0.8487
 4370TIP3   OH213073   0.829   1.847   4.779 -0.2127 -0.4668 -0.5673
 4370TIP3    H113074   0.775   1.916   4.742 -0.5395 -0.0532  0.6324
 4370TIP3    H213075   0.899   1.894   4.825 -0.4338 -0.9252  0.2544
 4371TIP3   OH213076   1.078   5.154   4.914 -0.0776 -0.8676 -0.2397
 4371TIP3    H113077   1.047   5.245   4.915  1.5064 -0.2977 -0.6427
 4371TIP3    H213078   0.998   5.102   4.925 -0.9520  0.5744  0.6421
 4372TIP3   OH213079   1.818   6.078   1.805 -0.1616  1.0018 -0.1051
 4372TIP3    H113080   1.822   6.021   1.882 -1.5222 -1.2987 -1.6395
 4372TIP3    H213081   1.906   6.115   1.799  0.8056 -0.9481  0.9805
 4373TIP3   OH213082   0.951   3.182   2.280 -0.2702 -0.0866 -0.5656
 4373TIP3    H113083   1.021   3.247   2.272 -1.6227  1.6489  0.9062
 4373TIP3    H213084   0.931   3.157   2.189  0.4005  1.4376 -1.1713
 4374TIP3   OH213085   4.763   1.761   1.187  0.5159  0.6382  0.6939
 4374TIP3    H113086   4.777   1.856   1.191 -0.1266  1.0494 -2.9367
 4374TIP3    H213087   4.671   1.752   1.160  0.5542 -1.0382  1.0171
 4375TIP3   OH213088   5.278   6.719   3.228 -0.3666  0.2366 -0.0079
 4375TIP3    H113089   5.275   6.801   3.178  0.9376  0.1499 -0.2864
 4375TIP3    H213090   5.329   6.660   3.172  0.3842 -0.1368  1.0337
 4376TIP3   OH213091   3.618   2.299   3.432  0.5425  0.0711  0.4708
 4376TIP3    H113092   3.665   2.379   3.409 -0.6523  0.4464 -0.7936
 4376TIP3    H213093   3.541   2.298   3.374  0.7272 -2.1888  0.1733
 4377TIP3   OH213094   1.600   2.022   2.015  0.7411  0.1210  0.0856
 4377TIP3    H113095   1.632   1.961   2.082 -0.4640 -0.0712  0.5064
 4377TIP3    H213096   1.505   2.017   2.021  0.6075  0.4647 -1.3212
 4378TIP3   OH213097   4.819   4.869   2.529 -0.7403 -0.1540 -0.0747
 4378TIP3    H113098   4.890   4.875   2.465  0.3075  1.6374  1.1588
 4378TIP3    H213099   4.740   4.857   2.476  0.3506 -1.2265 -1.5375
 4379TIP3   OH213100   0.297   4.350   2.337 -0.7984 -0.2595  0.3193
 4379TIP3    H113101   0.222   4.376   2.391 -1.8145 -1.5225 -0.4207
 4379TIP3    H213102   0.322   4.264   2.370 -0.3923 -0.3374 -0.1702
 4380TIP3   OH213103   2.393   1.911   4.470 -0.2776  0.1318  1.0370
 4380TIP3    H113104   2.362   1.873   4.552 -2.2027  0.1174  0.3630
 4380TIP3    H213105   2.368   1.848   4.402 -1.3130  1.3846  0.1727
 4381TIP3   OH213106   2.966   2.890   1.700  0.3989 -0.2973 -0.2984
 4381TIP3    H113107   2.976   2.981   1.674 -0.7679 -0.1898 -0.3908
 4381TIP3    H213108   2.879   2.884   1.738  0.6154 -1.2877  0.0967
 4382TIP3   OH213109   0.816   4.096   0.323 -0.0558  0.3699  0.3638
 4382TIP3    H113110   0.856   4.137   0.247 -2.3663  0.7423 -0.7459
 4382TIP3    H213111   0.883   4.038   0.359  1.0539  0.0922 -2.0265
 4383TIP3   OH213112   6.245   2.075   3.855 -0.2988  0.0372  0.1310
 4383TIP3    H113113   6.265   2.005   3.918 -1.4642 -0.7306 -0.3269
 4383TIP3    H213114   6.223   2.150   3.909  1.2690  0.1733  0.6352
 4384TIP3   OH213115   1.128   4.059   1.238  0.2719 -0.0217 -0.0783
 4384TIP3    H113116   1.187   4.121   1.195  1.3606 -0.9083  0.0665
 4384TIP3    H213117   1.108   4.100   1.323  3.3069 -1.0441  1.2802
 4385TIP3   OH213118   2.528   6.638   2.751  0.7255  0.3098 -0.3156
 4385TIP3    H113119   2.577   6.681   2.681 -0.7587  0.1258 -1.5107
 4385TIP3    H213120   2.449   6.604   2.708 -0.0462 -0.1390  1.3789
 4386TIP3   OH213121   4.666   5.581   1.215  0.7308 -0.5491  0.4033
 4386TIP3    H113122   4.691   5.489   1.205  1.5909 -0.3125  0.2457
 4386TIP3    H213123   4.674   5.598   1.309  0.5003 -0.6559  0.4422
 4387TIP3   OH213124   3.590   4.341   1.881 -0.1267 -0.2225  0.0567
 4387TIP3    H113125   3.670   4.316   1.835 -1.1761 -0.2130 -1.8459
 4387TIP3    H213126   3.520   4.325   1.819 -1.5943  0.1466  1.5452
 4388TIP3   OH213127   1.450   5.198   4.523 -0.1399 -0.1407  0.4515
 4388TIP3    H113128   1.463   5.103   4.528 -0.7235 -0.1833  4.6713
 4388TIP3    H213129   1.379   5.216   4.585  0.8057  3.1807  0.7570
 4389TIP3   OH213130   4.389   4.759   4.877 -0.0964  0.1468 -0.3132
 4389TIP3    H113131   4.294   4.764   4.862 -0.8102 -1.6549  2.6629
 4389TIP3    H213132   4.412   4.671   4.845  0.5428  0.5051 -0.8400
 4390TIP3   OH213133   2.417   1.018   3.795  0.3095 -0.2671  0.2591
 4390TIP3    H113134   2.410   0.974   3.879  1.3718 -0.7075  0.1294
 4390TIP3    H213135   2.372   0.961   3.733 -0.9928  0.3443  0.6125
 4391TIP3   OH213136   3.674   0.433   0.248  0.3887 -0.4063 -0.0167
 4391TIP3    H113137   3.695   0.521   0.217 -0.7589  0.2758  1.0250
 4391TIP3    H213138   3.742   0.414   0.312 -0.6938  0.7973  1.5826
 4392TIP3   OH213139   4.709   2.128   3.747 -0.0974 -0.3537  0.5126
 4392TIP3    H113140   4.694   2.072   3.671 -2.1891 -1.0528  1.3638
 4392TIP3    H213141   4.701   2.217   3.713 -0.1551 -0.6351 -0.2316
 4393TIP3   OH213142   4.212   0.187   3.449 -0.1543  0.7125  0.3913
 4393TIP3    H113143   4.282   0.137   3.406 -0.5378  0.8310 -0.3954
 4393TIP3    H213144   4.139   0.182   3.388  0.0616  2.9318 -0.1285
 4394TIP3   OH213145   6.471   0.146   4.239 -0.5750 -0.0687  0.1841
 4394TIP3    H113146   6.456   0.237   4.267 -0.2759 -0.2012  0.8043
 4394TIP3    H213147   6.521   0.107   4.311  1.0239 -0.1855 -0.9273
 4395TIP3   OH213148   6.296   0.981   5.518 -0.3798 -0.2506 -0.3797
 4395TIP3    H113149   6.347   1.001   5.440  0.4342 -0.6609  0.0391
 4395TIP3    H213150   6.354   1.001   5.591 -1.1345  0.1418  0.1293
 4396TIP3   OH213151   6.218   3.453   3.575  0.0858 -0.0239  0.6028
 4396TIP3    H113152   6.139   3.456   3.630  0.2170  0.0170  0.7880
 4396TIP3    H213153   6.238   3.360   3.567 -0.8335 -0.1415 -0.6627
 4397TIP3   OH213154   6.196   3.303   3.147  0.2907 -0.1007 -0.5951
 4397TIP3    H113155   6.142   3.378   3.171  0.7999 -0.6679  2.8191
 4397TIP3    H213156   6.166   3.279   3.060 -1.0205  3.0112 -1.1525
 4398TIP3   OH213157   6.978   3.218   0.864 -0.5416  0.2219 -0.0654
 4398TIP3    H113158   7.041   3.193   0.797  1.7242  1.6861  1.3849
 4398TIP3    H213159   6.929   3.291   0.826 -0.3511  0.0287 -0.6818
 4399TIP3   OH213160   0.281   3.238   1.636  0.1004 -0.2620 -0.2223
 4399TIP3    H113161   0.261   3.150   1.604  1.1099 -0.8363  0.6539
 4399TIP3    H213162   0.366   3.229   1.679 -0.6135  0.7343  1.5039
 4400TIP3   OH213163   4.923   3.131   2.716  0.1967 -0.0612 -0.0759
 4400TIP3    H113164   4.894   3.220   2.738 -0.7067 -0.6928  1.4837
 4400TIP3    H213165   4.954   3.095   2.799 -0.6407 -1.6090 -0.3933
 4401TIP3   OH213166   5.918   6.552   5.485  0.3142  0.2264 -0.5484
 4401TIP3    H113167   5.926   6.468   5.528 -0.9570  0.5530  0.3764
 4401TIP3    H213168   5.958   6.615   5.545  0.2921  0.4243 -0.7364
 4402TIP3   OH213169   0.882   5.747   3.783 -0.0160  0.2343 -0.2385
 4402TIP3    H113170   0.811   5.765   3.845  0.9034 -1.7091  1.4912
 4402TIP3    H213171   0.952   5.806   3.810 -0.5620  1.4143 -1.2937
 4403TIP3   OH213172   5.278   2.046  -0.011  0.5779  0.4334  0.4926
 4403TIP3    H113173   5.198   1.993  -0.004  0.6161 -0.0717 -2.0171
 4403TIP3    H213174   5.258   2.125   0.039 -2.5115  1.4332 -1.9761
 4404TIP3   OH213175   3.981   6.037   0.724 -0.0876  0.3786  0.3149
 4404TIP3    H113176   4.063   6.057   0.680 -1.0023  1.9264 -0.7396
 4404TIP3    H213177   3.998   5.954   0.770  1.5256 -0.1975 -1.2435
 4405TIP3   OH213178   0.509   0.448   2.314 -0.3399  0.6147  0.1775
 4405TIP3    H113179   0.568   0.394   2.262 -2.5598  0.4887 -2.4190
 4405TIP3    H213180   0.492   0.397   2.394 -0.9747 -1.7617 -1.3765
 4406TIP3   OH213181   2.577   1.032   5.324 -0.1223  0.5620 -0.0804
 4406TIP3    H113182   2.554   1.022   5.417 -0.1785  0.9899 -0.0493
 4406TIP3    H213183   2.669   1.056   5.324  0.6244 -1.9615 -0.2338
 4407TIP3   OH213184   6.491   4.354   0.678  0.6640  0.3137 -0.2853
 4407TIP3    H113185   6.411   4.307   0.659  0.5139 -0.5203  2.0726
 4407TIP3    H213186   6.499   4.350   0.773  1.1543  4.2284  0.0162
 4408TIP3   OH213187   4.393   6.496   5.828  0.4917 -0.0657 -0.1401
 4408TIP3    H113188   4.397   6.565   5.761 -0.2214  0.4385  0.3309
 4408TIP3    H213189   4.423   6.538   5.908 -1.2612  0.0968  0.4632
 4409TIP3   OH213190   6.414   3.145   4.444 -0.6077  0.4351  0.5846
 4409TIP3    H113191   6.482   3.120   4.381 -0.1073  0.7473  0.9984
 4409TIP3    H213192   6.452   3.129   4.530 -0.9332  0.9275  0.8272
 4410TIP3   OH213193   0.594   1.225   4.023 -0.6498 -0.1076 -0.5511
 4410TIP3    H113194   0.690   1.232   4.022 -0.5900 -0.8688 -2.1443
 4410TIP3    H213195   0.564   1.312   4.052  0.5199 -0.1944  1.0400
 4411TIP3   OH213196   2.354   6.222   0.503  0.0218  0.5171 -0.3392
 4411TIP3    H113197   2.275   6.179   0.470  0.5910 -2.0686  1.3621
 4411TIP3    H213198   2.426   6.182   0.454  0.4738  0.6843  0.1795
 4412TIP3   OH213199   5.695   4.326   5.412 -0.3451  0.1340 -0.0781
 4412TIP3    H113200   5.741   4.405   5.440 -0.8619  0.1095  0.8662
 4412TIP3    H213201   5.626   4.358   5.354 -2.1484  0.6727  2.2383
 4413TIP3   OH213202   5.687   3.795   1.230  0.0017 -0.2450 -0.3402
 4413TIP3    H113203   5.615   3.857   1.217  1.0125  0.7738 -1.3172
 4413TIP3    H213204   5.713   3.807   1.321  0.7276  1.4303 -0.7248
 4414TIP3   OH213205   6.917   5.257   3.194 -0.7452 -0.2292 -0.1833
 4414TIP3    H113206   6.961   5.340   3.177  0.4665 -0.8574 -0.1832
 4414TIP3    H213207   6.932   5.205   3.116 -1.2075 -0.5778 -0.0433
 4415TIP3   OH213208   3.137   2.184   3.558  0.2907 -0.0034  0.1760
 4415TIP3    H113209   3.174   2.193   3.646  0.6109  0.2173  0.0184
 4415TIP3    H213210   3.060   2.242   3.559  0.3497  0.0727  0.2782
 4416TIP3   OH213211   2.174   6.363   5.864 -0.5390  0.0432  0.2581
 4416TIP3    H113212   2.108   6.433   5.866 -0.4489  0.1724 -0.9275
 4416TIP3    H213213   2.172   6.330   5.774  0.6851 -0.2799  0.3315
 4417TIP3   OH213214   4.972   1.633   3.446 -0.2313  0.0886  0.1864
 4417TIP3    H113215   5.063   1.631   3.415 -0.1168 -0.3880  0.5473
 4417TIP3    H213216   4.925   1.682   3.378  0.1572 -0.3009 -0.3684
 4418TIP3   OH213217   3.558   5.359   2.535 -0.5603 -0.2152 -0.6320
 4418TIP3    H113218   3.628   5.418   2.560 -0.0361 -0.9767 -0.2462
 4418TIP3    H213219   3.538   5.381   2.444 -0.8133  0.9586 -0.3061
 4419TIP3   OH213220   3.272   5.587   0.414  0.0074  0.3944 -0.1642
 4419TIP3    H113221   3.193   5.557   0.368 -0.1945  1.8216 -0.7882
 4419TIP3    H213222   3.338   5.522   0.393 -0.8099 -0.4518 -0.2044
 4420TIP3   OH213223   3.139   4.068   0.527 -0.1593 -0.0245 -0.6242
 4420TIP3    H113224   3.084   4.132   0.484 -0.8637 -0.1639  0.0477
 4420TIP3    H213225   3.222   4.071   0.479 -0.2544  1.2311 -0.7296
 4421TIP3   OH213226   6.200   6.241   4.595  0.4480 -0.3101 -0.4018
 4421TIP3    H113227   6.108   6.228   4.618  0.7633 -0.0928  1.1542
 4421TIP3    H213228   6.205   6.333   4.569  0.5068  0.2047  1.2815
 4422TIP3   OH213229   0.710   3.650   3.508 -0.1957  0.1194 -0.2409
 4422TIP3    H113230   0.629   3.599   3.516 -2.3890  3.3687  0.0777
 4422TIP3    H213231   0.745   3.652   3.597 -1.3749  1.0268  0.2290
 4423TIP3   OH213232   4.532   3.668   1.571 -0.2942 -0.1157 -0.0120
 4423TIP3    H113233   4.504   3.758   1.588  0.5330  0.2908 -0.7161
 4423TIP3    H213234   4.472   3.636   1.504 -0.9429 -0.2965  0.6379
 4424TIP3   OH213235   4.833   2.029   1.243 -0.1605 -0.3245 -0.3249
 4424TIP3    H113236   4.817   2.080   1.322 -0.6793  0.9534 -1.2305
 4424TIP3    H213237   4.917   1.986   1.259  0.6533  1.3686  0.1988
 4425TIP3   OH213238   4.289   1.896   4.288  0.1005 -0.0231  0.1086
 4425TIP3    H113239   4.214   1.878   4.230  0.6233 -0.8401 -0.3284
 4425TIP3    H213240   4.323   1.980   4.257  0.0323 -0.1810 -0.4167
 4426TIP3   OH213241   6.569   0.776   2.399 -0.3456 -0.3435 -0.1336
 4426TIP3    H113242   6.642   0.715   2.402  0.3463  0.3461 -1.5374
 4426TIP3    H213243   6.523   0.764   2.481  0.2236 -2.1774 -0.0515
 4427TIP3   OH213244   2.753   4.969   3.930  0.4701 -0.2501 -0.1149
 4427TIP3    H113245   2.755   4.963   4.026 -0.4711 -0.0657 -0.0691
 4427TIP3    H213246   2.662   4.993   3.910  0.6391 -0.3687 -1.0590
 4428TIP3   OH213247   2.882   2.351   0.018 -0.3149 -0.0496  0.3790
 4428TIP3    H113248   2.872   2.434   0.065  0.2960 -0.1733  0.7346
 4428TIP3    H213249   2.829   2.363  -0.062  0.5279  1.0364 -0.0467
 4429TIP3   OH213250   5.887   5.950   0.854  0.0225 -0.0547  0.1028
 4429TIP3    H113251   5.914   6.030   0.811 -1.5370  0.0195 -0.7968
 4429TIP3    H213252   5.911   5.963   0.946  2.4248  0.2120 -0.4945
 4430TIP3   OH213253   0.116   4.086   5.571 -0.6106  0.4049 -0.2121
 4430TIP3    H113254   0.069   4.022   5.517  0.4437  1.1840 -2.1322
 4430TIP3    H213255   0.128   4.162   5.514  2.6209  0.3837  0.2749
 4431TIP3   OH213256   3.606   5.851   4.610  0.2790  0.6058  0.7509
 4431TIP3    H113257   3.673   5.805   4.661  0.4696  0.3543  0.2867
 4431TIP3    H213258   3.530   5.793   4.613  0.9897 -0.5386 -1.1045
 4432TIP3   OH213259   1.901   3.102   4.297  0.1279 -0.6311  0.3115
 4432TIP3    H113260   1.963   3.169   4.326  1.2762 -0.6623 -1.8952
 4432TIP3    H213261   1.950   3.021   4.300 -0.7755 -1.1613  1.4353
 4433TIP3   OH213262   1.970   0.208   5.323  0.2776 -0.2211 -0.3155
 4433TIP3    H113263   2.045   0.168   5.368  0.5349 -1.4465 -1.7434
 4433TIP3    H213264   1.899   0.144   5.332 -0.3005  0.4732  0.1462
 4434TIP3   OH213265   3.947   3.442   2.405 -0.1259  0.3397  0.2299
 4434TIP3    H113266   3.972   3.531   2.380 -2.0827  0.8838  0.0420
 4434TIP3    H213267   4.028   3.391   2.397  0.9600  2.0177  0.0238
 4435TIP3   OH213268   5.814   0.870   2.606 -0.3019  0.0740 -0.2998
 4435TIP3    H113269   5.740   0.826   2.648 -0.0768 -2.4372 -2.3403
 4435TIP3    H213270   5.775   0.914   2.530  0.2549 -1.2769 -1.3936
 4436TIP3   OH213271   7.116   4.391  -0.004  0.0336 -0.3402 -0.5879
 4436TIP3    H113272   7.202   4.349   0.003  0.2933  0.3958  1.1301
 4436TIP3    H213273   7.056   4.331   0.039 -0.2069 -0.5096 -1.1443
 4437TIP3   OH213274   3.020   5.222   5.035  0.3734 -0.3291  0.1589
 4437TIP3    H113275   3.096   5.264   5.076  0.0422  0.4629 -0.0143
 4437TIP3    H213276   3.016   5.260   4.947  1.4970 -2.5347 -0.9040
 4438TIP3   OH213277   5.294   1.912   4.837 -0.2128 -0.3781 -0.0751
 4438TIP3    H113278   5.326   1.958   4.760  0.3931  0.8862  0.8936
 4438TIP3    H213279   5.337   1.956   4.911 -1.7853 -0.6754  1.0665
 4439TIP3   OH213280   5.349   2.510   2.047  0.2732  0.1224  0.4091
 4439TIP3    H113281   5.429   2.461   2.066  0.4084 -0.0341 -0.5268
 4439TIP3    H213282   5.281   2.464   2.096  0.5223 -0.5986  0.0951
 4440TIP3   OH213283   6.999   4.318   5.861 -0.3987  0.1392 -0.3433
 4440TIP3    H113284   6.945   4.352   5.932 -1.5124 -3.2458  0.5970
 4440TIP3    H213285   7.081   4.368   5.867 -1.5110  1.9058  1.4220
 4441TIP3   OH213286   1.714   3.288   4.321  0.5706  0.4212  0.2650
 4441TIP3    H113287   1.757   3.206   4.300  0.5704  1.1261 -3.0327
 4441TIP3    H213288   1.782   3.354   4.312 -0.3313  1.1710 -1.3481
 4442TIP3   OH213289   1.108   2.533   3.269  0.7837 -0.0828  0.0272
 4442TIP3    H113290   1.058   2.567   3.195  0.6674  1.8715  0.9504
 4442TIP3    H213291   1.139   2.447   3.239 -3.6738 -1.8420 -0.3858
 4443TIP3   OH213292   5.327   4.829   2.883  0.4093  0.2700 -0.3234
 4443TIP3    H113293   5.371   4.848   2.800  1.6178  0.9943  0.4426
 4443TIP3    H213294   5.322   4.914   2.926  1.0407 -0.2894  0.9089
 4444TIP3   OH213295   4.906   4.901   4.367  0.6183  0.1916 -0.5630
 4444TIP3    H113296   4.896   4.908   4.462 -0.9436  0.2833 -0.6993
 4444TIP3    H213297   4.984   4.952   4.347  1.0882 -0.0016  0.6897
 4445TIP3   OH213298   3.452   0.143   3.840 -0.5472  0.0813  0.0757
 4445TIP3    H113299   3.362   0.176   3.834 -0.5598  0.0203 -0.0795
 4445TIP3    H213300   3.491   0.166   3.756 -0.1321  0.9463  0.4930
 4446TIP3   OH213301   5.652   1.027   1.465  0.3620 -0.6494 -0.0611
 4446TIP3    H113302   5.596   1.050   1.391 -0.2710  1.2513  0.9480
 4446TIP3    H213303   5.592   0.987   1.529  0.8376 -1.9324 -0.3804
 4447TIP3   OH213304   6.897   6.345   3.520  0.3794  0.2512 -0.2277
 4447TIP3    H113305   6.832   6.373   3.455  0.7991 -1.6323 -1.5663
 4447TIP3    H213306   6.963   6.414   3.520  0.7765 -0.0511 -2.4612
 4448TIP3   OH213307   0.926   6.182   3.775  0.5317 -0.2984  0.1034
 4448TIP3    H113308   0.986   6.247   3.740 -0.1437 -0.5481 -1.6295
 4448TIP3    H213309   0.864   6.232   3.828 -1.1012  0.8567 -2.6732
 4449TIP3   OH213310   3.721   6.613   2.822 -0.2102 -0.7957 -0.4581
 4449TIP3    H113311   3.704   6.617   2.728 -0.7004 -1.1374 -0.3917
 4449TIP3    H213312   3.660   6.676   2.860  0.4462 -0.1762 -0.4209
 4450TIP3   OH213313   0.630   5.925   2.632 -0.2180 -0.6303 -0.9144
 4450TIP3    H113314   0.647   5.985   2.705 -0.6791 -1.3252 -0.2245
 4450TIP3    H213315   0.643   5.979   2.554  2.0982 -0.3073 -0.4032
 4451TIP3   OH213316   6.900   2.285   0.897 -0.4461  0.1826 -0.5886
 4451TIP3    H113317   6.811   2.252   0.885 -0.4385 -0.0783  0.0660
 4451TIP3    H213318   6.917   2.335   0.817 -0.1985 -1.9433 -1.9542
 4452TIP3   OH213319   0.518   2.125   5.684 -0.0096  0.0835 -0.0308
 4452TIP3    H113320   0.520   2.144   5.590 -0.7808  1.1457  0.1548
 4452TIP3    H213321   0.582   2.185   5.723  0.3757 -0.4173  0.1220
 4453TIP3   OH213322   4.555   2.224   2.692 -0.9095  0.5547 -0.1202
 4453TIP3    H113323   4.534   2.140   2.731 -0.0119 -0.1342 -1.0616
 4453TIP3    H213324   4.470   2.263   2.672 -1.3355 -0.0107  0.5712
 4454TIP3   OH213325   0.328   0.108   4.872  0.3329  0.2881  0.2314
 4454TIP3    H113326   0.361   0.188   4.913 -1.0643  0.7121  0.5784
 4454TIP3    H213327   0.289   0.059   4.945  0.9327 -0.5911 -0.0251
 4455TIP3   OH213328   2.359   5.782   0.450 -0.1338  0.1940 -0.0903
 4455TIP3    H113329   2.288   5.736   0.406  0.0260 -0.9452  0.7968
 4455TIP3    H213330   2.331   5.786   0.542  1.4687 -1.3728  0.5125
 4456TIP3   OH213331   5.493   2.607   5.715  0.2837  0.4495 -0.3017
 4456TIP3    H113332   5.579   2.636   5.746  0.5400  0.0582 -0.6447
 4456TIP3    H213333   5.447   2.688   5.691  0.4283  0.6841  0.2052
 4457TIP3   OH213334   4.918   0.511   3.985 -0.5554  0.2996  0.8002
 4457TIP3    H113335   4.826   0.530   4.003 -0.5021 -0.4714  1.9471
 4457TIP3    H213336   4.967   0.572   4.041 -0.3407  1.1529 -0.2769
 4458TIP3   OH213337   6.627   4.769   0.353 -0.4325 -0.2095  0.3523
 4458TIP3    H113338   6.686   4.844   0.360  0.0625 -0.4798 -0.6888
 4458TIP3    H213339   6.614   4.739   0.443 -0.6762  1.1458  0.7924
 4459TIP3   OH213340   0.957   6.431   5.838 -0.0682  0.3037 -0.4464
 4459TIP3    H113341   0.929   6.341   5.851  0.3688 -0.0205 -1.6914
 4459TIP3    H213342   1.037   6.425   5.786 -0.0882  1.4090 -0.6347
 4460TIP3   OH213343   6.976   3.072   2.936  0.8470  0.4076  0.3535
 4460TIP3    H113344   7.008   3.105   3.020  1.4484 -2.9761  1.6159
 4460TIP3    H213345   7.054   3.034   2.895 -0.0411 -0.8090 -0.2380
 4461TIP3   OH213346   3.206   6.670   1.189 -0.6265 -0.7552  0.3316
 4461TIP3    H113347   3.212   6.677   1.284  0.8553 -1.2698  0.3043
 4461TIP3    H213348   3.221   6.577   1.171  2.1275 -0.2382 -0.5350
 4462TIP3   OH213349   4.402   4.619   5.407 -0.6223 -0.8948 -0.0126
 4462TIP3    H113350   4.485   4.662   5.425 -0.2801 -1.4760 -0.1858
 4462TIP3    H213351   4.338   4.690   5.404  0.3718  0.0448 -3.2371
 4463TIP3   OH213352   4.568   4.011   3.568  0.0991 -0.2132 -0.2751
 4463TIP3    H113353   4.652   3.967   3.555  0.4981  0.5332 -0.2595
 4463TIP3    H213354   4.591   4.097   3.603 -0.6178  0.3799 -1.2271
 4464TIP3   OH213355   3.038   1.151   5.060 -0.6724 -0.3821  0.0736
 4464TIP3    H113356   3.062   1.115   4.975  1.0820 -1.0545  0.8157
 4464TIP3    H213357   3.074   1.239   5.060  1.6735 -1.2762  1.0598
 4465TIP3   OH213358   1.125   4.198   0.782 -0.0268 -0.5192  0.1426
 4465TIP3    H113359   1.058   4.130   0.772  0.2921 -0.8554  0.3014
 4465TIP3    H213360   1.087   4.259   0.845 -0.4288 -0.4009 -0.2072
 4466TIP3   OH213361   2.068   6.234   0.068  0.8185 -0.3996  0.4437
 4466TIP3    H113362   2.086   6.315   0.019  1.1040 -0.3333  0.6528
 4466TIP3    H213363   1.980   6.209   0.041  1.1205 -0.5806 -0.4176
 4467TIP3   OH213364   1.912   5.561   1.420 -0.5090 -0.1172 -0.0916
 4467TIP3    H113365   1.993   5.525   1.384 -0.1677 -2.2976  2.4729
 4467TIP3    H213366   1.940   5.606   1.500 -1.7372 -0.3438  0.4852
 4468TIP3   OH213367   0.583   5.041   3.421  0.0398 -0.0199 -0.0501
 4468TIP3    H113368   0.666   5.088   3.431  1.0683 -1.9416  0.9538
 4468TIP3    H213369   0.520   5.094   3.470  1.0936  0.4352  0.8663
 4469TIP3   OH213370   3.264   3.267   1.312  0.3277 -0.2635 -0.2475
 4469TIP3    H113371   3.236   3.337   1.254 -1.0345  0.4819  1.2128
 4469TIP3    H213372   3.333   3.307   1.366  1.3979 -0.8676 -1.1382
 4470TIP3   OH213373   4.887   0.237   4.010 -0.2086  0.3671 -0.3583
 4470TIP3    H113374   4.899   0.331   3.994  1.0748 -0.0939 -2.7239
 4470TIP3    H213375   4.871   0.200   3.923  0.9998 -1.7910  0.2435
 4471TIP3   OH213376   0.878   6.445   4.598  0.3642 -0.2829  0.3557
 4471TIP3    H113377   0.832   6.494   4.530  2.1783  1.0207 -0.0349
 4471TIP3    H213378   0.939   6.389   4.551  0.0335 -1.0874  0.8713
 4472TIP3   OH213379   5.554   1.670   2.977 -0.2009  0.1630 -0.4505
 4472TIP3    H113380   5.526   1.615   2.904  0.1008 -0.3070 -0.2166
 4472TIP3    H213381   5.610   1.613   3.030  0.6957  0.8992 -0.5787
 4473TIP3   OH213382   0.031   1.982   2.223  0.3680 -0.1642  0.6512
 4473TIP3    H113383   0.115   2.029   2.222  0.9065 -1.0470  1.9700
 4473TIP3    H213384  -0.023   2.029   2.159  1.0051  2.0090  1.6020
 4474TIP3   OH213385   1.338   2.222   1.298  0.4415 -0.4323  0.6029
 4474TIP3    H113386   1.252   2.187   1.274  0.5759 -0.9110  0.8006
 4474TIP3    H213387   1.400   2.155   1.267  0.8698  0.7016 -1.1128
 4475TIP3   OH213388   5.195   1.671   4.667 -0.0707 -0.4307 -0.0485
 4475TIP3    H113389   5.235   1.586   4.646 -0.3278 -0.6928  0.4944
 4475TIP3    H213390   5.116   1.648   4.716 -0.0869  0.1304  0.1900
 4476TIP3   OH213391   5.715   5.124   3.007  0.0339  0.4163  0.1843
 4476TIP3    H113392   5.792   5.175   3.031 -0.9048  1.5856  0.8317
 4476TIP3    H213393   5.681   5.091   3.090  0.4828 -1.0938 -0.2020
 4477TIP3   OH213394   6.783   3.965   5.911 -0.1052  0.4035  0.1468
 4477TIP3    H113395   6.791   3.929   5.823 -1.1839  1.7758 -0.5428
 4477TIP3    H213396   6.866   4.009   5.928  0.0185  0.3312 -0.2864
 4478TIP3   OH213397   2.902   2.624   2.349 -0.2992  0.0341 -0.2035
 4478TIP3    H113398   2.942   2.684   2.286  2.4740 -0.4959  0.8808
 4478TIP3    H213399   2.863   2.682   2.415 -0.5196  0.6058 -0.8211
 4479TIP3   OH213400   3.632   3.565   3.122  0.4615  0.4508  0.7084
 4479TIP3    H113401   3.632   3.489   3.063  0.2976  0.3812  0.7986
 4479TIP3    H213402   3.645   3.640   3.064 -0.3877  0.4455  0.4954
 4480TIP3   OH213403   1.631   2.269   1.170  0.0273  0.2058  0.2835
 4480TIP3    H113404   1.559   2.264   1.233 -1.2140 -1.3688 -1.1717
 4480TIP3    H213405   1.710   2.274   1.224 -1.0778  0.9734  1.9296
 4481TIP3   OH213406   6.315   2.657   4.870 -0.5004  0.2256 -0.0634
 4481TIP3    H113407   6.267   2.708   4.936  0.4773  1.0413  0.0404
 4481TIP3    H213408   6.321   2.569   4.907 -1.6507  0.1832  0.0483
 4482TIP3   OH213409   3.703   1.705   0.598 -0.0973 -0.3508 -0.3421
 4482TIP3    H113410   3.612   1.676   0.598 -0.4824  0.7893  0.2674
 4482TIP3    H213411   3.710   1.764   0.523  0.2844 -0.8353 -0.6945
 4483TIP3   OH213412   0.768   4.884   0.264  0.1248  0.5003  0.3758
 4483TIP3    H113413   0.819   4.926   0.333 -0.6760  1.2640  0.5268
 4483TIP3    H213414   0.746   4.955   0.204  0.2580 -0.0400 -0.3320
 4484TIP3   OH213415   6.989   6.644   1.691  0.4420 -0.8543 -0.5529
 4484TIP3    H113416   7.040   6.715   1.731 -0.7215 -1.3026  1.8768
 4484TIP3    H213417   6.926   6.689   1.634 -0.3286  0.1138  1.0079
 4485TIP3   OH213418   4.539   6.170   0.907  0.3575 -0.3028  0.1230
 4485TIP3    H113419   4.543   6.202   0.997 -0.3947 -0.1911  0.1317
 4485TIP3    H213420   4.603   6.100   0.903  0.5115 -0.2025  0.7052
 4486TIP3   OH213421   6.675   1.095   1.128 -0.5113 -0.3370 -0.2033
 4486TIP3    H113422   6.719   1.172   1.163  0.0462 -0.6668 -0.1723
 4486TIP3    H213423   6.714   1.083   1.041  1.5952 -2.3161  0.9120
 4487TIP3   OH213424   0.133   3.076   2.046 -0.2776  0.0533  0.0233
 4487TIP3    H113425   0.156   3.116   2.130 -2.6466  0.6069  0.4572
 4487TIP3    H213426   0.055   3.024   2.063 -0.3985 -0.4221 -1.7064
 4488TIP3   OH213427   3.668   3.904   2.226  0.4325  0.1349 -0.1021
 4488TIP3    H113428   3.620   3.822   2.226 -0.3764  0.5522 -1.6548
 4488TIP3    H213429   3.625   3.956   2.157  2.4226  0.9405 -0.8001
 4489TIP3   OH213430   4.292   2.144   5.630  0.2909 -0.0398 -0.1233
 4489TIP3    H113431   4.358   2.093   5.583  0.7321 -1.1503  1.6011
 4489TIP3    H213432   4.208   2.107   5.601  0.6087 -2.1839  1.4175
 4490TIP3   OH213433   4.921   5.835   4.312 -0.2018  0.2812 -0.3703
 4490TIP3    H113434   4.844   5.873   4.356 -0.1256  0.3633 -0.3078
 4490TIP3    H213435   4.930   5.748   4.351 -0.8871 -0.1427 -1.1172
 4491TIP3   OH213436   0.865   2.919   3.145  0.2384  0.5576 -0.0379
 4491TIP3    H113437   0.960   2.913   3.159  0.3361 -1.7025 -1.3153
 4491TIP3    H213438   0.851   2.885   3.057 -2.0058 -1.5674  1.0310
 4492TIP3   OH213439   3.038   3.646   1.219 -0.3011  0.3914 -0.5269
 4492TIP3    H113440   3.028   3.741   1.226 -2.0272  0.1925  0.4699
 4492TIP3    H213441   3.047   3.616   1.310  0.9393 -0.3582 -0.8695
 4493TIP3   OH213442   4.710   2.866   1.752 -0.4918  0.5255  0.2212
 4493TIP3    H113443   4.638   2.829   1.803 -0.2742  0.7794  0.7276
 4493TIP3    H213444   4.789   2.837   1.798 -0.2553 -0.0890 -0.5637
 4494TIP3   OH213445   1.469   0.927   1.750  0.1035  0.2770  0.1542
 4494TIP3    H113446   1.449   0.979   1.827 -2.2126  0.3158 -0.3914
 4494TIP3    H213447   1.565   0.925   1.746  0.2906  0.5695  2.7868
 4495TIP3   OH213448   5.650   0.475   0.370  0.0791  0.2022 -0.7748
 4495TIP3    H113449   5.556   0.457   0.380  0.4631 -0.7700  2.4320
 4495TIP3    H213450   5.687   0.392   0.340  0.0934  0.0576 -0.3670
 4496TIP3   OH213451   5.388   0.221   2.323 -0.3235  0.0559 -0.3721
 4496TIP3    H113452   5.317   0.251   2.267 -0.9948  0.3609  0.6051
 4496TIP3    H213453   5.357   0.240   2.412  0.7578 -0.2972  0.0909
 4497TIP3   OH213454   4.824   4.461   1.373  0.7670  0.4776  0.0004
 4497TIP3    H113455   4.882   4.438   1.446  0.2081  1.3190  0.7356
 4497TIP3    H213456   4.736   4.444   1.407  0.5047  0.8130 -0.5082
 4498TIP3   OH213457   4.002   3.087   3.808  0.0406 -0.2864 -0.2330
 4498TIP3    H113458   3.944   3.108   3.735  1.1254 -0.3688 -1.1426
 4498TIP3    H213459   4.039   3.171   3.834 -0.7371 -0.1835  0.5828
 4499TIP3   OH213460   3.350   5.834   0.512  0.2596  0.2474  0.4455
 4499TIP3    H113461   3.444   5.845   0.520  0.4010 -0.2740 -0.3515
 4499TIP3    H213462   3.339   5.755   0.458 -0.6138  0.7475 -0.1535
 4500TIP3   OH213463   5.419   5.850   0.062  0.2908  0.3497  0.2135
 4500TIP3    H113464   5.477   5.829   0.136  0.7670 -1.5378 -0.6462
 4500TIP3    H213465   5.348   5.786   0.069  1.3225 -1.1825 -1.9953
 4501TIP3   OH213466   6.474   1.666   4.797 -0.5444  0.3137  0.3498
 4501TIP3    H113467   6.549   1.721   4.820 -0.8084  0.3328  1.1814
 4501TIP3    H213468   6.467   1.674   4.702 -3.0231  5.0446  0.6257
 4502TIP3   OH213469   2.276   3.198   5.631 -0.4323 -0.1609  0.1317
 4502TIP3    H113470   2.370   3.200   5.613 -0.7522  2.8969 -2.0672
 4502TIP3    H213471   2.252   3.106   5.627  2.0244 -0.8139 -2.1019
 4503TIP3   OH213472   6.341   2.294   2.745  0.2768 -0.8233  0.2318
 4503TIP3    H113473   6.340   2.303   2.649 -0.2346  1.3261  0.3910
 4503TIP3    H213474   6.426   2.329   2.771 -0.3663  0.4921  0.6660
 4504TIP3   OH213475   2.625   4.086   2.675 -0.6233  0.3997 -0.1299
 4504TIP3    H113476   2.605   4.175   2.646 -1.7714  0.2506  0.1829
 4504TIP3    H213477   2.662   4.043   2.597 -3.0233  0.2035 -1.2463
 4505TIP3   OH213478   1.302   4.951   5.365  0.0735  0.0414 -0.0391
 4505TIP3    H113479   1.383   4.997   5.388 -0.2687  1.2637 -1.1849
 4505TIP3    H213480   1.330   4.883   5.303  0.4708 -0.8643  1.0863
 4506TIP3   OH213481   1.974   2.764   2.046  0.8897  0.0438 -0.5858
 4506TIP3    H113482   1.972   2.675   2.081  0.4876  0.3631  0.2385
 4506TIP3    H213483   1.915   2.761   1.970 -1.5117  0.2576  1.1472
 4507TIP3   OH213484   2.565   0.493   3.709  0.0924 -0.3554 -0.1494
 4507TIP3    H113485   2.494   0.436   3.737  0.5616 -0.6609  0.4393
 4507TIP3    H213486   2.605   0.447   3.635  0.8011 -1.0652  0.6541
 4508TIP3   OH213487   1.075   6.038   2.020  0.3361 -0.0511 -0.4493
 4508TIP3    H113488   1.080   6.050   2.115 -0.3564  2.8081 -0.6516
 4508TIP3    H213489   1.161   6.005   1.994  1.4844  1.6354  0.9509
 4509TIP3   OH213490   4.741   2.935   5.267 -0.3587  0.5778 -0.3905
 4509TIP3    H113491   4.741   3.023   5.228 -2.6292  0.1906 -1.4341
 4509TIP3    H213492   4.722   2.950   5.359 -0.0448  1.2043 -0.4184
 4510TIP3   OH213493   6.325   2.738   0.584  0.0642 -0.1840  0.4235
 4510TIP3    H113494   6.377   2.736   0.504 -1.2178  1.3577 -0.5264
 4510TIP3    H213495   6.365   2.672   0.641  0.9686 -1.3867 -1.5011
 4511TIP3   OH213496   5.076   1.516   1.967  0.1807  0.3707 -0.5013
 4511TIP3    H113497   5.005   1.520   2.032 -0.6127  1.9116 -1.4104
 4511TIP3    H213498   5.099   1.423   1.963 -2.8392 -0.4718 -1.2219
 4512TIP3   OH213499   4.867   0.222   1.218  0.1659 -0.0173  0.3345
 4512TIP3    H113500   4.831   0.295   1.267  0.4373 -1.3568  2.7152
 4512TIP3    H213501   4.793   0.163   1.203  0.6078 -1.1171  2.1094
 4513TIP3   OH213502   1.474   5.149   3.124  0.3220  0.5082 -0.7780
 4513TIP3    H113503   1.489   5.179   3.214  0.2027 -0.3807 -0.4482
 4513TIP3    H213504   1.544   5.190   3.073 -0.5796  2.3923 -0.6037
 4514TIP3   OH213505   6.357   5.082   2.761 -0.1310 -0.5023 -0.1126
 4514TIP3    H113506   6.310   5.028   2.825  0.6896 -1.5008 -0.3089
 4514TIP3    H213507   6.387   5.019   2.695  0.7721  0.2179 -0.4111
 4515TIP3   OH213508   3.551   4.728   2.466  0.6109 -0.7097 -0.2904
 4515TIP3    H113509   3.511   4.745   2.551  1.0376  1.2383 -0.4275
 4515TIP3    H213510   3.643   4.713   2.484  1.1613  1.9067 -0.5090
 4516TIP3   OH213511   3.351   2.428   3.345  0.9106  0.2440 -0.1750
 4516TIP3    H113512   3.296   2.351   3.338  1.9187 -0.4290 -0.9559
 4516TIP3    H213513   3.344   2.471   3.260  1.4061  0.2708 -0.2070
 4517TIP3   OH213514   1.150   1.852   5.573 -0.3640  0.1321  0.6846
 4517TIP3    H113515   1.131   1.779   5.631 -1.2031 -0.2165 -0.0021
 4517TIP3    H213516   1.067   1.871   5.529  0.4753 -0.4215 -1.2851
 4518TIP3   OH213517   5.924   1.319   2.382 -0.0333  0.2800 -0.3448
 4518TIP3    H113518   5.855   1.317   2.448 -1.3082 -0.9970 -1.6301
 4518TIP3    H213519   5.968   1.403   2.396 -2.4747  1.6241 -0.0640
 4519TIP3   OH213520   1.216   2.171   3.716 -0.0009 -0.0206 -0.2505
 4519TIP3    H113521   1.143   2.154   3.656  0.3558  0.4610 -0.8359
 4519TIP3    H213522   1.209   2.265   3.735  1.8804  0.5970 -2.2534
 4520TIP3   OH213523   0.756   6.603   2.178 -0.0886  0.3725  0.3278
 4520TIP3    H113524   0.827   6.665   2.165 -0.6907  0.7033 -1.7737
 4520TIP3    H213525   0.730   6.576   2.090 -2.6862  0.4290  0.9659
 4521TIP3   OH213526   6.809   3.079   1.676 -0.4857 -0.2828 -0.6322
 4521TIP3    H113527   6.825   3.120   1.591  2.0529  0.5886  0.1800
 4521TIP3    H213528   6.801   2.985   1.656 -0.5088 -0.0408 -1.8660
 4522TIP3   OH213529   3.671   2.156   5.173  0.6022  0.1841 -0.4161
 4522TIP3    H113530   3.669   2.212   5.096  0.4683 -0.0532 -0.5884
 4522TIP3    H213531   3.605   2.089   5.155  1.6840 -0.8094 -0.8132
 4523TIP3   OH213532   3.241   4.942   5.804  0.3261 -0.3718 -0.2556
 4523TIP3    H113533   3.316   4.882   5.804 -1.1902 -2.3593  0.7493
 4523TIP3    H213534   3.264   5.008   5.869  1.4886 -0.5523 -0.4486
 4524TIP3   OH213535   5.384   2.042   3.028 -0.1706  0.1805  0.2991
 4524TIP3    H113536   5.392   2.042   2.933 -0.2369  0.1649  0.2933
 4524TIP3    H213537   5.348   1.956   3.050 -0.9218  0.4800  0.2683
 4525TIP3   OH213538   1.488   3.322   2.894 -0.1848  0.0090  0.8230
 4525TIP3    H113539   1.552   3.322   2.964  1.7521 -2.1521 -0.7729
 4525TIP3    H213540   1.434   3.244   2.911 -0.3992  0.0910  0.5333
 4526TIP3   OH213541   3.800   3.881   2.717 -0.2902  0.3903  0.1197
 4526TIP3    H113542   3.891   3.858   2.735 -0.0068  2.0238  0.9486
 4526TIP3    H213543   3.805   3.964   2.670 -1.2759 -0.8845 -2.4338
 4527TIP3   OH213544   4.075   4.384   5.036  0.3355 -0.1075  0.1280
 4527TIP3    H113545   4.013   4.339   5.095 -0.1699 -0.0305 -0.3359
 4527TIP3    H213546   4.019   4.428   4.972  0.8603  0.4091  0.0190
 4528TIP3   OH213547   4.840   3.390   5.662 -0.0884 -0.3841  0.3030
 4528TIP3    H113548   4.894   3.467   5.644 -0.0625 -0.4676  0.0222
 4528TIP3    H213549   4.902   3.324   5.693  0.1361 -0.8099 -0.9703
 4529TIP3   OH213550   2.308   6.124   4.120 -0.3248 -0.1854  0.4350
 4529TIP3    H113551   2.347   6.175   4.192  0.8211 -0.9507  0.3938
 4529TIP3    H213552   2.379   6.067   4.091 -1.0452 -0.5178 -0.7253
 4530TIP3   OH213553   1.660   4.283   3.675  0.4868 -0.0260  0.3234
 4530TIP3    H113554   1.604   4.355   3.705  0.5609 -0.6211  1.9968
 4530TIP3    H213555   1.731   4.280   3.739  0.9056 -1.0815 -0.1734
 4531TIP3   OH213556   5.245   3.759   2.101 -0.1861 -0.0772  0.7491
 4531TIP3    H113557   5.321   3.783   2.153 -0.7585  2.7029  0.4441
 4531TIP3    H213558   5.228   3.836   2.046 -1.9334 -1.4363 -0.7439
 4532TIP3   OH213559   0.920   1.295   4.370 -0.2348 -0.1829 -0.2297
 4532TIP3    H113560   0.992   1.233   4.360 -0.3291 -0.0343 -2.5161
 4532TIP3    H213561   0.946   1.352   4.442  0.5169 -1.9444  0.9522
 4533TIP3   OH213562   6.719   4.274   5.180  0.8126  0.0753  0.6915
 4533TIP3    H113563   6.789   4.252   5.242  0.5641  0.5562  1.1560
 4533TIP3    H213564   6.729   4.212   5.109  2.7249  1.1423 -0.0375
 4534TIP3   OH213565   2.340   1.577   3.477 -0.3254  0.0484  0.3391
 4534TIP3    H113566   2.303   1.619   3.399 -0.3654 -0.3125  0.1615
 4534TIP3    H213567   2.288   1.497   3.488  0.7251 -0.7381 -0.2116
 4535TIP3   OH213568   3.886   6.623   0.567  0.1713  0.2943 -0.1520
 4535TIP3    H113569   3.868   6.686   0.498  0.7102  0.3481 -0.2537
 4535TIP3    H213570   3.801   6.586   0.589  0.0940 -0.4219 -1.5225
 4536TIP3   OH213571   3.022   5.993   1.966  0.2618  0.2025  0.1645
 4536TIP3    H113572   3.108   6.034   1.968  0.4895 -0.0307 -2.1071
 4536TIP3    H213573   3.040   5.899   1.964  0.0926  0.1753 -2.3418
 4537TIP3   OH213574   3.634   0.800   4.438 -0.1501  0.4252  0.4323
 4537TIP3    H113575   3.572   0.735   4.404  0.4724 -0.2163  0.5196
 4537TIP3    H213576   3.582   0.881   4.444 -0.3682  0.5160 -1.7877
 4538TIP3   OH213577   4.000   5.258   0.440 -1.2146  0.0566 -0.1241
 4538TIP3    H113578   3.970   5.172   0.409  2.4635 -0.4751 -2.9562
 4538TIP3    H213579   4.074   5.238   0.496 -0.1201  1.3038 -1.0643
 4539TIP3   OH213580   6.550   5.882   4.702 -0.1753 -0.4493 -0.2503
 4539TIP3    H113581   6.563   5.793   4.735 -0.8556 -0.0387  1.1977
 4539TIP3    H213582   6.526   5.869   4.610 -2.3395 -1.9260  0.4283
 4540TIP3   OH213583   3.320   1.284   3.006 -0.1254  0.5587  0.2587
 4540TIP3    H113584   3.288   1.244   3.087  0.1712 -0.2427 -0.0047
 4540TIP3    H213585   3.409   1.311   3.027 -0.0017  0.2311  0.1720
 4541TIP3   OH213586   5.390   4.097   0.122  0.2063  0.2732 -0.3352
 4541TIP3    H113587   5.463   4.158   0.132  0.6073 -0.4540  1.4830
 4541TIP3    H213588   5.339   4.106   0.203 -0.8178 -0.4041 -0.8793
 4542TIP3   OH213589   0.883   5.629   0.447 -0.6697  0.1786  0.2668
 4542TIP3    H113590   0.950   5.561   0.439 -0.4799  0.4658 -0.5803
 4542TIP3    H213591   0.891   5.659   0.538  0.2643  0.1251  0.2084
 4543TIP3   OH213592   4.758   4.123   5.178  0.4360  0.3939 -0.2594
 4543TIP3    H113593   4.683   4.115   5.118 -0.9450 -0.6077  1.4996
 4543TIP3    H213594   4.748   4.211   5.216  1.3030  1.0234 -1.4103
 4544TIP3   OH213595   0.745   2.551   3.601 -0.0995 -0.2263 -0.2510
 4544TIP3    H113596   0.740   2.609   3.677 -1.7700 -0.8601  0.1757
 4544TIP3    H213597   0.811   2.590   3.544  1.7565 -0.1194  1.8389
 4545TIP3   OH213598   2.331   3.689   0.707  0.6934  0.2002 -0.4644
 4545TIP3    H113599   2.351   3.640   0.628  1.0984 -1.1682  0.4629
 4545TIP3    H213600   2.245   3.657   0.734  2.2341 -2.4226  1.8513
 4546TIP3   OH213601   1.572   1.811   5.276  0.4336 -0.5712  0.6260
 4546TIP3    H113602   1.510   1.883   5.289 -0.3696 -0.9573 -0.8351
 4546TIP3    H213603   1.658   1.854   5.275 -0.1286  0.6931 -1.9284
 4547TIP3   OH213604   7.037   4.735   4.855  0.1760 -0.2894  0.0433
 4547TIP3    H113605   6.994   4.814   4.888 -0.5800 -0.6694 -0.0251
 4547TIP3    H213606   7.098   4.768   4.788 -1.5572  0.0816 -1.4190
 4548TIP3   OH213607   2.530   1.373   5.392  0.3993  0.2821  0.3531
 4548TIP3    H113608   2.503   1.453   5.347  0.0949  1.0564  1.8381
 4548TIP3    H213609   2.453   1.316   5.388 -0.1122  0.8947  1.0645
 4549TIP3   OH213610   5.882   2.420   5.427  0.2815  0.4371 -0.5813
 4549TIP3    H113611   5.788   2.432   5.441  0.0406  1.7454 -2.8125
 4549TIP3    H213612   5.890   2.331   5.391 -0.0118  0.0835  0.2129
 4550TIP3   OH213613   4.703   5.758   2.222 -0.1786 -0.6075  0.1486
 4550TIP3    H113614   4.653   5.706   2.158  2.1222 -1.7425 -0.8559
 4550TIP3    H213615   4.724   5.696   2.291  0.5540 -0.3829  0.1292
 4551TIP3   OH213616   4.217   4.897   1.510 -0.0248 -0.7608  0.1173
 4551TIP3    H113617   4.240   4.805   1.524  2.5169  0.0977  2.7145
 4551TIP3    H213618   4.284   4.930   1.450 -0.2491 -0.3629  0.0803
 4552TIP3   OH213619   0.577   5.692   2.372 -0.2649 -0.3463  0.0618
 4552TIP3    H113620   0.561   5.786   2.369 -0.1776 -0.3572 -1.6703
 4552TIP3    H213621   0.672   5.684   2.380 -0.3932 -0.3091  1.9832
 4553TIP3   OH213622   6.184   1.933   4.460 -0.3208  0.1166 -0.6825
 4553TIP3    H113623   6.173   1.934   4.555 -0.9844  0.9331 -0.7613
 4553TIP3    H213624   6.248   2.002   4.443 -1.9128  1.5495 -1.0142
 4554TIP3   OH213625   2.999   4.191   5.880 -0.1855  0.2574  0.5293
 4554TIP3    H113626   3.085   4.169   5.844 -0.9730 -2.0631 -0.1220
 4554TIP3    H213627   2.940   4.183   5.805 -1.1995  0.0160  1.3378
 4555TIP3   OH213628   1.597   0.297   3.376  0.1214 -0.0658 -0.8533
 4555TIP3    H113629   1.543   0.307   3.298  0.6444 -0.0918 -1.2243
 4555TIP3    H213630   1.660   0.369   3.372 -0.7258  0.7872  0.2906
 4556TIP3   OH213631   4.442   1.691   2.351 -0.2422 -0.4583 -0.1230
 4556TIP3    H113632   4.519   1.644   2.384  3.0871  2.0952 -3.3503
 4556TIP3    H213633   4.412   1.638   2.277  2.1367  1.0682 -2.3705
 4557TIP3   OH213634   5.272   4.163   2.459  0.0366 -0.6716  0.4864
 4557TIP3    H113635   5.191   4.213   2.469  0.0879 -0.4708 -0.0631
 4557TIP3    H213636   5.291   4.131   2.547 -2.1876 -3.1900  0.1577
 4558TIP3   OH213637   4.606   6.215   0.643  0.3886  0.4242  0.4648
 4558TIP3    H113638   4.601   6.119   0.642  0.3548  0.4194 -0.8894
 4558TIP3    H213639   4.591   6.239   0.735  1.2661 -0.9065  0.9911
 4559TIP3   OH213640   3.210   4.281   2.793  0.0403  0.0209  0.2245
 4559TIP3    H113641   3.245   4.194   2.812  0.4555  0.3564  1.0393
 4559TIP3    H213642   3.217   4.290   2.698 -1.7709 -1.5842 -0.1103
 4560TIP3   OH213643   1.124   2.773   5.065 -0.1444 -0.9260  0.0739
 4560TIP3    H113644   1.161   2.712   5.001  2.3360  1.9648 -1.5053
 4560TIP3    H213645   1.051   2.814   5.020  0.2254 -0.4591 -0.1107
 4561TIP3   OH213646   1.658   1.637   3.964  0.4760 -0.0440  0.1362
 4561TIP3    H113647   1.680   1.711   3.907  0.4194 -0.2198 -0.1184
 4561TIP3    H213648   1.583   1.595   3.921  1.5563 -1.2572 -0.6609
 4562TIP3   OH213649   4.711   2.956   5.562  0.0782  0.0629 -0.1779
 4562TIP3    H113650   4.716   3.043   5.522  0.4331 -0.4124 -1.1849
 4562TIP3    H213651   4.631   2.959   5.615  0.2309  1.0874  0.0197
 4563TIP3   OH213652   7.045   4.226   3.489 -0.0034 -0.0632 -0.5864
 4563TIP3    H113653   7.133   4.216   3.453  0.2968  0.5802 -0.0504
 4563TIP3    H213654   7.056   4.211   3.583 -0.8876 -2.4369 -0.7714
 4564TIP3   OH213655   5.407   6.197   0.670 -0.3609 -0.2553 -0.4351
 4564TIP3    H113656   5.312   6.183   0.665 -0.6589  0.9761  1.0609
 4564TIP3    H213657   5.423   6.269   0.609 -0.5185  0.0792 -0.0839
 4565TIP3   OH213658   3.564   6.744   1.348  0.1522  0.0007 -0.1576
 4565TIP3    H113659   3.486   6.789   1.316  0.0076 -0.2759 -0.2010
 4565TIP3    H213660   3.535   6.653   1.360  0.7128 -0.3135 -1.0757
 4566TIP3   OH213661   6.977   1.955   1.167  0.0892 -0.3401  0.1209
 4566TIP3    H113662   7.012   1.877   1.211  2.3687 -0.3098 -1.4804
 4566TIP3    H213663   6.932   2.003   1.237  0.5091 -2.0035  1.6182
 4567TIP3   OH213664   1.710   6.260   0.378 -0.2661  0.3054 -0.5784
 4567TIP3    H113665   1.722   6.195   0.309 -1.1196  0.3026 -0.7270
 4567TIP3    H213666   1.781   6.241   0.441  0.6614  0.4591 -1.5525
 4568TIP3   OH213667   3.681   5.412   3.808 -0.0213  0.2776 -0.1881
 4568TIP3    H113668   3.673   5.507   3.820  1.0947  0.3106  0.4702
 4568TIP3    H213669   3.744   5.402   3.737 -0.0695  0.0286 -0.1970
 4569TIP3   OH213670   6.288   3.074   3.304  0.2823 -0.4096  0.0276
 4569TIP3    H113671   6.227   3.128   3.253  0.9908  1.0472  0.6643
 4569TIP3    H213672   6.374   3.091   3.265  0.7655  0.3351  1.3360
 4570TIP3   OH213673   4.852   6.393   4.560  0.0342  0.3128  0.4062
 4570TIP3    H113674   4.874   6.303   4.533 -1.2847  0.4489 -1.3494
 4570TIP3    H213675   4.836   6.439   4.477 -2.5713  1.2762  1.3505
 4571TIP3   OH213676   3.649   1.455   5.119  0.3402 -0.0944  0.3076
 4571TIP3    H113677   3.583   1.389   5.139  0.1133 -0.4220 -1.3647
 4571TIP3    H213678   3.720   1.437   5.180 -0.2719 -1.0203  0.7800
 4572TIP3   OH213679   6.245   0.655   4.333 -0.4446  0.0626 -0.2717
 4572TIP3    H113680   6.332   0.678   4.367 -0.4361 -0.4817  0.0802
 4572TIP3    H213681   6.192   0.639   4.411 -0.7564  0.0067 -0.4950
 4573TIP3   OH213682   4.399   3.870   4.634  0.5668  0.7941  0.1613
 4573TIP3    H113683   4.314   3.865   4.679  0.4046 -1.2055 -0.2606
 4573TIP3    H213684   4.464   3.864   4.704  0.3192 -0.6181  0.2980
 4574TIP3   OH213685   6.259   5.703   1.096  0.1282 -0.1859 -0.4084
 4574TIP3    H113686   6.208   5.718   1.175  0.3769  2.7256 -0.6911
 4574TIP3    H213687   6.348   5.688   1.128  0.1070  0.3056 -0.1105
 4575TIP3   OH213688   5.462   2.123   0.585  0.1170 -0.3180 -0.9490
 4575TIP3    H113689   5.504   2.039   0.601 -0.1545 -0.1439  0.9377
 4575TIP3    H213690   5.369   2.108   0.603  0.0169  0.3037 -0.9087
 4576TIP3   OH213691   3.004   5.992   5.593  0.8828  0.3843 -0.0173
 4576TIP3    H113692   3.061   6.019   5.665  1.5909 -0.8951 -0.0541
 4576TIP3    H213693   2.969   6.073   5.557  0.7918  1.0713  1.5446
 4577TIP3   OH213694   7.046   2.766   0.530 -0.3402 -0.2598  0.6417
 4577TIP3    H113695   7.052   2.773   0.435  0.7851  0.1520  0.7310
 4577TIP3    H213696   7.117   2.707   0.555 -1.4704 -1.4714  1.1260
 4578TIP3   OH213697   2.075   3.232   0.163 -0.3682  0.5269 -0.3897
 4578TIP3    H113698   2.110   3.319   0.184  2.9974 -1.0800  1.5526
 4578TIP3    H213699   2.010   3.215   0.230 -1.3470  1.6546 -1.0217
 4579TIP3   OH213700   1.075   0.326   0.138  0.3250 -0.0483 -0.4000
 4579TIP3    H113701   1.149   0.351   0.193  2.8967 -1.7841 -2.7492
 4579TIP3    H213702   1.087   0.376   0.057 -1.1209 -0.3495 -0.8409
 4580TIP3   OH213703   6.523   3.282   3.197 -0.1014 -0.2553  0.1457
 4580TIP3    H113704   6.604   3.245   3.232 -0.2384 -2.7642 -1.9174
 4580TIP3    H213705   6.551   3.341   3.127 -0.0164  1.0442  1.2335
 4581TIP3   OH213706   0.665   6.611   2.437  0.0847 -0.2867 -0.3467
 4581TIP3    H113707   0.699   6.593   2.349  0.6981  3.6260 -1.0867
 4581TIP3    H213708   0.710   6.691   2.464 -2.8890  0.8001  1.9236
 4582TIP3   OH213709   4.687   2.443   2.099  0.3599  0.5514  0.6195
 4582TIP3    H113710   4.673   2.381   2.170  2.6591 -2.3078 -1.1993
 4582TIP3    H213711   4.762   2.408   2.050 -0.8833  2.4628 -3.0644
 4583TIP3   OH213712   1.518   1.511   3.401 -0.2534  0.1895  0.0234
 4583TIP3    H113713   1.455   1.579   3.378 -0.0840  1.3539  2.7617
 4583TIP3    H213714   1.487   1.434   3.352 -2.6859  1.2011 -0.2067
 4584TIP3   OH213715   4.820   2.868   3.576 -0.2593  0.3395 -0.2990
 4584TIP3    H113716   4.758   2.813   3.624 -1.7611  0.0536 -2.4771
 4584TIP3    H213717   4.768   2.914   3.511  1.6599  0.8184 -1.6025
 4585TIP3   OH213718   4.952   2.752   0.049  0.4345 -0.4506 -0.0644
 4585TIP3    H113719   4.992   2.730  -0.035  0.0234  1.3301 -0.7774
 4585TIP3    H213720   5.023   2.741   0.113  1.0213 -0.9018 -0.7728
 4586TIP3   OH213721   3.125   4.536   4.589  0.0224 -0.1043 -0.0793
 4586TIP3    H113722   3.092   4.617   4.551 -2.0389  0.1066  1.9609
 4586TIP3    H213723   3.073   4.467   4.548 -1.8181  0.0830  1.7565
 4587TIP3   OH213724   6.831   6.687   3.484  0.4417 -0.0294 -0.1015
 4587TIP3    H113725   6.795   6.625   3.420  0.9985 -0.0011 -0.4474
 4587TIP3    H213726   6.836   6.770   3.436 -0.9646  0.4764  0.5666
 4588TIP3   OH213727   2.784   4.657   3.081  0.2773  0.2876 -0.2389
 4588TIP3    H113728   2.858   4.628   3.027 -0.6760 -0.2272 -1.3152
 4588TIP3    H213729   2.819   4.661   3.170  1.5311 -0.1682 -0.6876
 4589TIP3   OH213730   0.073   1.803   1.079 -0.0041 -0.2794 -0.3333
 4589TIP3    H113731  -0.021   1.815   1.093 -0.0683 -1.6508  0.5637
 4589TIP3    H213732   0.080   1.780   0.986 -0.9474 -3.2220  0.2172
 4590TIP3   OH213733   6.033   5.972   4.121  0.0245 -0.4012 -0.5503
 4590TIP3    H113734   6.053   5.881   4.100 -1.4861 -0.7264 -0.6934
 4590TIP3    H213735   6.008   6.011   4.037  1.9486  0.5489 -0.7483
 4591TIP3   OH213736   4.896   1.575   0.448  0.7168 -0.3685 -0.1857
 4591TIP3    H113737   4.985   1.610   0.438  1.0548 -0.9631  0.6146
 4591TIP3    H213738   4.904   1.483   0.423  0.2306 -0.3216 -0.5130
 4592TIP3   OH213739   4.498   4.502   5.139 -0.0428  0.8728  0.3211
 4592TIP3    H113740   4.551   4.581   5.126 -0.7667  1.4732  0.8834
 4592TIP3    H213741   4.463   4.511   5.227  0.8238 -0.6851  0.8577
 4593TIP3   OH213742   6.822   2.095   0.218 -0.7890 -0.1172 -0.5345
 4593TIP3    H113743   6.831   2.046   0.136 -1.1605 -0.3740 -0.4253
 4593TIP3    H213744   6.786   2.031   0.279 -0.4971  0.0677 -0.1655
 4594TIP3   OH213745   2.352   2.732   4.121 -0.2632 -0.3191 -0.0798
 4594TIP3    H113746   2.433   2.761   4.162  0.5742 -0.5906 -1.4602
 4594TIP3    H213747   2.330   2.802   4.058 -1.3468 -0.0472  0.5620
 4595TIP3   OH213748   3.982   1.273   2.011  0.0163  0.4230 -0.3154
 4595TIP3    H113749   4.070   1.271   1.974 -0.0864  1.1284 -0.6108
 4595TIP3    H213750   3.986   1.213   2.085  0.9825  1.0808  0.1944
 4596TIP3   OH213751   2.773   3.718   0.717 -0.4006  0.1525  0.3638
 4596TIP3    H113752   2.737   3.746   0.801 -1.3568 -1.8829  0.6818
 4596TIP3    H213753   2.840   3.654   0.739  0.8690  1.1699 -0.3854
 4597TIP3   OH213754   5.764   4.515   3.509  0.0842  0.2789  0.1303
 4597TIP3    H113755   5.804   4.582   3.565 -0.4292 -0.1950  1.0895
 4597TIP3    H213756   5.785   4.543   3.420  0.1959  1.5211  0.5242
 4598TIP3   OH213757   0.458   6.156   0.465  0.5012 -0.3492 -0.0210
 4598TIP3    H113758   0.458   6.179   0.372  0.3353  0.8410  0.2635
 4598TIP3    H213759   0.380   6.101   0.475  0.9735 -1.1878 -0.7335
 4599TIP3   OH213760   6.443   6.054   5.701 -0.5247 -0.1249  0.6689
 4599TIP3    H113761   6.380   6.035   5.631 -0.4837 -1.1801  0.9021
 4599TIP3    H213762   6.389   6.059   5.780 -0.4999  0.4802  0.6468
 4600TIP3   OH213763   5.889   4.676   5.781 -0.5416  0.1818  0.1745
 4600TIP3    H113764   5.831   4.604   5.805  0.3392 -0.2066  1.2281
 4600TIP3    H213765   5.929   4.703   5.863 -2.2397  3.1800  0.1725
 4601TIP3   OH213766   3.680   4.292   0.528 -0.0460 -0.4173 -0.9784
 4601TIP3    H113767   3.730   4.221   0.489 -1.3031 -2.1365  0.3525
 4601TIP3    H213768   3.741   4.333   0.591  0.2822 -1.2349 -0.7546
 4602TIP3   OH213769   5.736   2.866   5.614  0.0005  0.0031 -0.1203
 4602TIP3    H113770   5.823   2.905   5.605 -0.6451  1.2602 -1.2024
 4602TIP3    H213771   5.733   2.834   5.704  1.3883  0.4088  0.0938
 4603TIP3   OH213772   1.859   1.319   1.924 -0.0983  0.0953 -0.0053
 4603TIP3    H113773   1.809   1.241   1.902 -1.3478  0.9812 -0.3666
 4603TIP3    H213774   1.833   1.340   2.014 -2.2734  1.8988 -0.9497
 4604TIP3   OH213775   5.578   0.627   1.908  0.0404 -0.3128  0.2525
 4604TIP3    H113776   5.519   0.681   1.960 -0.1788 -0.3329  0.0274
 4604TIP3    H213777   5.546   0.538   1.921 -1.0656 -0.1606 -1.2522
 4605TIP3   OH213778   3.784   5.376   0.684  0.5257 -0.3110 -0.7067
 4605TIP3    H113779   3.877   5.360   0.668  0.5294 -0.4896 -0.5017
 4605TIP3    H213780   3.741   5.294   0.660  0.6545 -1.0593  1.3757
 4606TIP3   OH213781   2.703   0.236   3.693 -0.6316 -0.4490 -0.0266
 4606TIP3    H113782   2.757   0.157   3.693  0.9231  0.5386  1.2337
 4606TIP3    H213783   2.713   0.272   3.605  0.1671 -0.6688 -0.0327
 4607TIP3   OH213784   1.996   3.842   2.426  0.2214 -0.1175  0.1898
 4607TIP3    H113785   2.064   3.778   2.405  1.4738  0.9112  0.9378
 4607TIP3    H213786   2.008   3.861   2.519 -1.9560 -0.8596  0.6934
 4608TIP3   OH213787   5.603   2.705   5.410 -0.3972  0.2981  0.0183
 4608TIP3    H113788   5.631   2.758   5.484 -1.6077 -1.4963  1.8755
 4608TIP3    H213789   5.593   2.617   5.446 -1.1594 -0.6267 -2.2643
 4609TIP3   OH213790   2.155   4.732   5.797 -0.5338  0.0762  0.2560
 4609TIP3    H113791   2.174   4.796   5.866 -0.7915  0.4962 -0.0560
 4609TIP3    H213792   2.241   4.707   5.762 -0.4832  1.2112 -0.4772
 4610TIP3   OH213793   1.435   4.433   1.938 -0.3213 -0.0278 -0.0133
 4610TIP3    H113794   1.382   4.512   1.928 -1.5486 -0.7325  0.6987
 4610TIP3    H213795   1.513   4.462   1.985 -0.1281  0.9951 -0.9341
 4611TIP3   OH213796   0.373   3.550   1.802  0.5129 -0.2842 -0.1075
 4611TIP3    H113797   0.453   3.570   1.851  0.7805 -0.5304 -0.4415
 4611TIP3    H213798   0.402   3.541   1.712 -0.4096  3.3986 -0.9311
 4612TIP3   OH213799   6.163   4.810   2.281  0.8176 -0.6379  0.0382
 4612TIP3    H113800   6.155   4.843   2.370  0.7900  2.0438 -0.8520
 4612TIP3    H213801   6.227   4.739   2.287  1.1523 -0.2203  2.1075
 4613TIP3   OH213802   5.172   4.398   5.630  0.2405  0.4441  0.2557
 4613TIP3    H113803   5.148   4.308   5.605 -0.3607  1.5719 -4.1735
 4613TIP3    H213804   5.103   4.425   5.691  1.1419 -2.3471  2.7678
 4614TIP3   OH213805   2.008   3.652   5.570  0.5733 -0.1830 -0.3340
 4614TIP3    H113806   2.053   3.669   5.653 -0.3998  2.4840 -0.2672
 4614TIP3    H213807   2.009   3.556   5.561  5.9015 -0.4612 -0.1769
 4615TIP3   OH213808   1.325   5.923   1.948  0.0457  0.3253  0.2716
 4615TIP3    H113809   1.354   5.932   1.857  0.4775  1.3216  0.4975
 4615TIP3    H213810   1.352   5.835   1.973  0.8394  0.4071 -0.2576
 4616TIP3   OH213811   1.296   5.652   2.060  0.5094 -0.9914  0.4299
 4616TIP3    H113812   1.273   5.562   2.084  1.1535 -1.4601 -0.6096
 4616TIP3    H213813   1.285   5.702   2.141  1.7079 -2.3113  1.4746
 4617TIP3   OH213814   4.792   6.116   5.104 -0.1025  0.5851  0.4486
 4617TIP3    H113815   4.833   6.179   5.046  1.6416  0.4420  1.4598
 4617TIP3    H213816   4.865   6.068   5.143 -1.2971 -0.5948  1.3152
 4618TIP3   OH213817   3.574   6.141   4.002 -0.1382  0.2372 -0.2961
 4618TIP3    H113818   3.597   6.196   4.077 -2.0381  0.2819  0.3199
 4618TIP3    H213819   3.653   6.138   3.949  0.8875  1.2018  1.1045
 4619TIP3   OH213820   6.726   2.613   5.618  0.1032 -0.1279 -0.0861
 4619TIP3    H113821   6.644   2.568   5.597  0.0914 -0.5337  0.7654
 4619TIP3    H213822   6.760   2.643   5.534 -0.6839 -0.3607 -0.4981
 4620TIP3   OH213823   0.018   3.237   0.307 -0.8006  0.5130 -0.0491
 4620TIP3    H113824   0.104   3.267   0.277 -1.4097  2.6441  0.1825
 4620TIP3    H213825   0.031   3.144   0.327  1.1343  0.5011 -1.1288
 4621TIP3   OH213826   3.653   4.101   0.170  0.5640  0.3466  0.9367
 4621TIP3    H113827   3.660   4.192   0.144  1.5716  0.2720  0.8790
 4621TIP3    H213828   3.650   4.052   0.088 -2.4604  0.4194  0.8975
 4622TIP3   OH213829   2.257   3.914   2.118  0.3156 -0.5675 -0.1552
 4622TIP3    H113830   2.310   3.950   2.190 -2.3674 -0.2070  1.7730
 4622TIP3    H213831   2.190   3.980   2.102 -1.0932 -2.0781 -0.7395
 4623TIP3   OH213832   1.768   5.561   4.010  0.8224 -0.1982  0.1448
 4623TIP3    H113833   1.785   5.575   3.917  0.3702  1.3208  0.2690
 4623TIP3    H213834   1.795   5.642   4.053 -2.3049  0.5982  0.8811
 4624TIP3   OH213835   5.885   1.597   4.833  0.3073  0.3402  0.0187
 4624TIP3    H113836   5.897   1.635   4.920 -0.4607 -1.1254  0.7797
 4624TIP3    H213837   5.973   1.567   4.808  0.8915  2.2893 -0.4976
 4625TIP3   OH213838   2.780   5.110   4.999 -0.0302 -0.8045 -0.1869
 4625TIP3    H113839   2.861   5.150   5.030 -0.4232  0.1594 -0.3650
 4625TIP3    H213840   2.768   5.145   4.911 -0.8824 -0.5479  0.0190
 4626TIP3   OH213841   1.797   2.367   5.063  0.3633 -0.0064 -0.4414
 4626TIP3    H113842   1.802   2.344   5.155  2.1112 -2.4155 -1.0495
 4626TIP3    H213843   1.873   2.424   5.048 -0.2509  0.8700 -0.3069
 4627TIP3   OH213844   3.326   4.417   3.590  0.1011  0.2679  0.1024
 4627TIP3    H113845   3.410   4.373   3.605 -0.3591 -1.2915 -1.5201
 4627TIP3    H213846   3.333   4.452   3.502  0.0307  2.6171  0.9647
 4628TIP3   OH213847   5.038   4.476   0.804  0.2172 -0.4538 -0.5590
 4628TIP3    H113848   5.005   4.559   0.835 -1.1046 -1.2287  0.1847
 4628TIP3    H213849   5.105   4.499   0.739 -0.7907  1.1644 -1.0707
 4629TIP3   OH213850   6.442   6.310   1.932  0.1627 -0.3525  0.4780
 4629TIP3    H113851   6.381   6.237   1.941 -1.2778  0.6820 -0.3704
 4629TIP3    H213852   6.386   6.388   1.936  1.6235  0.7100  1.1450
 4630TIP3   OH213853   2.129   6.260   3.871  0.3446  0.1062  1.0457
 4630TIP3    H113854   2.091   6.293   3.790 -1.6958 -0.2695  1.8006
 4630TIP3    H213855   2.119   6.332   3.933 -1.7427 -0.9397  1.9914
 4631TIP3   OH213856   7.149   2.870   3.404  0.1226 -0.0850  0.0004
 4631TIP3    H113857   7.222   2.810   3.422  1.0332  1.4372  1.7696
 4631TIP3    H213858   7.147   2.877   3.309  1.4631 -1.1498 -0.1403
 4632TIP3   OH213859   3.191   3.873   2.644 -0.1178 -0.9134  0.9377
 4632TIP3    H113860   3.113   3.928   2.652  0.3751 -0.3184  1.9725
 4632TIP3    H213861   3.259   3.921   2.693  1.8266  0.2598 -2.5199
 4633TIP3   OH213862   5.156   4.868   3.497 -0.1215  0.5402  0.2968
 4633TIP3    H113863   5.247   4.898   3.492 -0.3040  1.7114  2.7803
 4633TIP3    H213864   5.104   4.948   3.499 -1.3057 -0.1134 -1.5058
 4634TIP3   OH213865   5.649   2.760   5.119  0.2898  0.3410  0.8087
 4634TIP3    H113866   5.640   2.715   5.203 -0.0312 -0.8340  0.1679
 4634TIP3    H213867   5.633   2.852   5.139  0.4325  0.1059  2.0663
 4635TIP3   OH213868   3.921   4.704   1.521  0.0018  0.5457 -0.1641
 4635TIP3    H113869   3.985   4.724   1.589  0.3548  0.1811 -0.3850
 4635TIP3    H213870   3.956   4.747   1.442  0.1672  0.0461 -0.3690
 4636TIP3   OH213871   0.712   2.087   4.743  0.1904 -0.1125 -0.2820
 4636TIP3    H113872   0.620   2.106   4.761  0.0507 -2.1124  1.4249
 4636TIP3    H213873   0.760   2.127   4.815  0.4541 -0.8473 -0.0424
 4637TIP3   OH213874   2.544   5.643   3.361  0.3442 -0.3200 -0.1053
 4637TIP3    H113875   2.572   5.554   3.385 -1.6711 -1.2005 -0.7566
 4637TIP3    H213876   2.520   5.636   3.268  0.8976  1.1228 -0.3854
 4638TIP3   OH213877   1.396   6.724   1.578  0.0728  0.1699  0.3533
 4638TIP3    H113878   1.367   6.693   1.664 -0.6638  0.6951  0.3141
 4638TIP3    H213879   1.322   6.706   1.520  0.2136  0.6157  0.0257
 4639TIP3   OH213880   4.679   0.416   4.828  0.3878  0.0140  0.2888
 4639TIP3    H113881   4.593   0.447   4.799  0.2809 -1.0020 -0.5305
 4639TIP3    H213882   4.662   0.374   4.912  0.6462  2.6889  1.7895
 4640TIP3   OH213883   2.688   2.248   0.230 -0.6215 -0.2542 -0.3785
 4640TIP3    H113884   2.770   2.267   0.184 -0.4422 -0.1728 -0.0291
 4640TIP3    H213885   2.695   2.296   0.313  0.0219 -2.1495  0.7247
 4641TIP3   OH213886   4.294   2.673   5.611 -0.3424 -0.1817 -0.0229
 4641TIP3    H113887   4.302   2.581   5.589 -0.0222  0.0832 -1.0903
 4641TIP3    H213888   4.383   2.709   5.599 -0.0980 -0.0311  1.9008
 4642TIP3   OH213889   0.482   6.670   5.577 -0.1865  0.2315 -0.2860
 4642TIP3    H113890   0.497   6.577   5.592 -2.2733  0.0171  0.8710
 4642TIP3    H213891   0.564   6.712   5.604  0.2205 -1.1543  0.7286
 4643TIP3   OH213892   4.886   5.350   1.770 -0.1749  0.1524  0.4097
 4643TIP3    H113893   4.866   5.426   1.824 -0.4136  0.0168  0.5107
 4643TIP3    H213894   4.960   5.379   1.715 -2.3892  1.6752 -2.0159
 4644TIP3   OH213895   5.923   6.231   0.397  0.5319  0.9451  0.1608
 4644TIP3    H113896   5.963   6.283   0.327 -0.0300  0.4958 -0.5057
 4644TIP3    H213897   5.997   6.185   0.437  0.6137 -0.8007 -1.8258
 4645TIP3   OH213898   5.623   4.262   5.656  0.3174  0.0293 -0.1621
 4645TIP3    H113899   5.638   4.169   5.673  0.8270 -0.0504 -0.9868
 4645TIP3    H213900   5.649   4.275   5.565  1.3492  1.2089  0.2634
 4646TIP3   OH213901   2.379   2.824   5.712 -0.0190 -0.1731 -0.1632
 4646TIP3    H113902   2.344   2.864   5.633  0.4969  2.0497  0.6615
 4646TIP3    H213903   2.469   2.800   5.689  0.9301  2.5473  0.2779
 4647TIP3   OH213904   1.206   1.105   1.459 -0.5791  0.4316 -0.5698
 4647TIP3    H113905   1.182   1.053   1.383 -0.2655  1.1545 -1.1732
 4647TIP3    H213906   1.281   1.157   1.431 -1.0225  1.3801 -0.0615
 4648TIP3   OH213907   7.099   5.459   2.382  0.6334 -0.1352 -0.1211
 4648TIP3    H113908   7.023   5.404   2.362  1.1948 -1.1497  0.4178
 4648TIP3    H213909   7.174   5.407   2.353  1.1122  1.0350 -1.0399
 4649TIP3   OH213910   5.138   6.476   2.431  0.3871 -0.8844  0.2137
 4649TIP3    H113911   5.051   6.516   2.434  0.2459 -1.0526 -1.1476
 4649TIP3    H213912   5.198   6.549   2.448  0.0983 -0.1939 -1.5545
 4650TIP3   OH213913   0.942   0.455   3.136 -0.0784 -0.2340  0.1336
 4650TIP3    H113914   0.914   0.461   3.045 -0.2238 -0.1655  0.1824
 4650TIP3    H213915   0.999   0.531   3.149 -0.1499 -0.1800  0.1320
 4651TIP3   OH213916   4.494   6.407   2.827 -0.2071 -0.2262 -0.3933
 4651TIP3    H113917   4.453   6.323   2.848 -0.7829  0.4822  1.5504
 4651TIP3    H213918   4.423   6.460   2.791 -0.8349  0.5859  1.8221
 4652TIP3   OH213919   5.340   5.956   5.113 -0.5606 -0.1763 -0.0958
 4652TIP3    H113920   5.401   5.984   5.181 -1.6726 -0.0119  0.8839
 4652TIP3    H213921   5.287   6.033   5.095 -0.2821 -0.2174 -1.1768
 4653TIP3   OH213922   3.039   0.218   2.826 -0.3590  0.3823  0.0599
 4653TIP3    H113923   3.058   0.135   2.783  3.0607  0.5795  0.8956
 4653TIP3    H213924   3.030   0.196   2.919  0.5795  0.8928  0.2890
 4654TIP3   OH213925   5.618   6.587   4.335 -0.3947  0.0281  0.0133
 4654TIP3    H113926   5.615   6.541   4.251  1.9552  1.1883 -0.8094
 4654TIP3    H213927   5.689   6.545   4.383 -0.1167  0.9156  0.4123
 4655TIP3   OH213928   3.340   1.702   2.373  0.9488 -0.0373  0.0496
 4655TIP3    H113929   3.246   1.686   2.378  0.5428  1.9784 -0.2676
 4655TIP3    H213930   3.372   1.636   2.311 -0.4577 -0.0398 -0.7280
 4656TIP3   OH213931   3.770   5.859   4.388 -0.3928 -0.3490 -0.2504
 4656TIP3    H113932   3.702   5.849   4.454 -0.0983 -0.9638 -0.0310
 4656TIP3    H213933   3.840   5.908   4.433 -0.3591 -0.4183 -0.2267
 4657TIP3   OH213934   3.072   1.436   4.406 -0.8278 -0.1512 -0.0469
 4657TIP3    H113935   3.019   1.509   4.376  0.9618  1.4503  0.4497
 4657TIP3    H213936   3.027   1.404   4.484 -1.6166  0.4677 -0.2403
 4658TIP3   OH213937   6.722   3.867   5.318 -0.4003  0.6863  0.1060
 4658TIP3    H113938   6.786   3.851   5.388 -2.5622 -1.0641  1.8698
 4658TIP3    H213939   6.703   3.960   5.324 -0.4667  0.6037  1.8636
 4659TIP3   OH213940   3.049   0.745   2.284  0.0675 -0.2922  0.0890
 4659TIP3    H113941   3.144   0.730   2.288 -0.0950 -1.3529  0.2214
 4659TIP3    H213942   3.019   0.736   2.374 -0.1441  0.2069  0.0727
 4660TIP3   OH213943   2.376   4.993   5.732 -0.1747 -0.4139 -0.3722
 4660TIP3    H113944   2.429   5.070   5.711  0.4501 -1.4406 -3.0624
 4660TIP3    H213945   2.396   4.974   5.824  1.8185  0.9884 -0.4545
 4661TIP3   OH213946   5.435   3.842   1.551 -0.0870  0.2004 -0.4512
 4661TIP3    H113947   5.506   3.778   1.544  0.4678  0.8375 -0.7509
 4661TIP3    H213948   5.359   3.791   1.577  0.5599 -0.4447  0.2073
 4662TIP3   OH213949   5.621   0.068   2.325  0.2396  0.0578  0.0563
 4662TIP3    H113950   5.539   0.117   2.329  1.1072  1.5527  0.0833
 4662TIP3    H213951   5.611   0.011   2.249 -1.0552 -0.2315  0.4155
 4663TIP3   OH213952   4.187   6.306   0.792  0.2734  0.2292  0.1585
 4663TIP3    H113953   4.218   6.373   0.853 -0.7006  1.2659 -0.4483
 4663TIP3    H213954   4.246   6.312   0.717  0.2716  0.3094  0.1637
 4664TIP3   OH213955   2.910   6.448   1.167 -0.2785  0.3706  0.1730
 4664TIP3    H113956   2.950   6.399   1.095  0.2323  0.6446  0.2676
 4664TIP3    H213957   2.903   6.537   1.135 -1.6373  0.1620 -0.1700
 4665TIP3   OH213958   5.318   1.820   0.249 -0.2828 -0.4645 -0.2243
 4665TIP3    H113959   5.386   1.758   0.276  0.5074  0.5219  0.0939
 4665TIP3    H213960   5.364   1.885   0.196 -0.6761  1.0112  1.1628
 4666TIP3   OH213961   3.304   1.667   0.994  0.0671  0.4799 -0.7556
 4666TIP3    H113962   3.208   1.674   0.998  0.0746  0.4802 -0.5592
 4666TIP3    H213963   3.322   1.573   0.994  0.1248  0.4540  0.9228
 4667TIP3   OH213964   5.419   6.343   1.494  0.4570  0.2573 -0.1719
 4667TIP3    H113965   5.429   6.304   1.407 -0.0274  0.0711 -0.1442
 4667TIP3    H213966   5.328   6.373   1.498  0.2110 -0.5415  0.5907
 4668TIP3   OH213967   4.482   1.724   0.987  0.0672  0.6072 -0.0307
 4668TIP3    H113968   4.474   1.819   0.981 -1.7960  0.5573  0.8190
 4668TIP3    H213969   4.456   1.704   1.077  1.5479 -0.6265  0.1537
 4669TIP3   OH213970   6.702   0.410   2.650 -0.0306  0.1292 -0.3002
 4669TIP3    H113971   6.707   0.501   2.621 -0.4209  0.6406  1.1543
 4669TIP3    H213972   6.608   0.393   2.656  0.0148 -0.8048 -1.7951
 4670TIP3   OH213973   3.279   2.187   3.780 -0.1550 -0.1661  0.1978
 4670TIP3    H113974   3.216   2.123   3.813  0.3011 -0.3146  0.8111
 4670TIP3    H213975   3.362   2.140   3.777 -0.3774 -0.4997 -2.3360
 4671TIP3   OH213976   6.947   5.140   0.584 -0.0892 -0.5296 -0.2110
 4671TIP3    H113977   7.039   5.157   0.603 -0.2223 -2.0939  2.2237
 4671TIP3    H213978   6.900   5.207   0.634 -0.3206  0.3003 -1.4928
 4672TIP3   OH213979   5.490   0.417   2.808  0.4072  0.3310  0.0805
 4672TIP3    H113980   5.573   0.450   2.841  0.8531  0.5499 -1.1759
 4672TIP3    H213981   5.446   0.380   2.884  0.9752  1.5976  1.0637
 4673TIP3   OH213982   6.684   1.090   3.999 -0.2534 -0.1272  0.2093
 4673TIP3    H113983   6.771   1.091   3.960  1.9873 -0.3118  4.5943
 4673TIP3    H213984   6.681   1.169   4.053 -2.0887 -1.0241  1.5179
 4674TIP3   OH213985   6.953   4.154   0.472 -0.7919 -0.0988 -0.4716
 4674TIP3    H113986   6.995   4.239   0.466  0.5657 -0.8444 -2.3547
 4674TIP3    H213987   6.915   4.152   0.560  2.0607  1.1039  0.9020
 4675TIP3   OH213988   4.556   0.347   2.178  0.1777 -0.0357  0.2221
 4675TIP3    H113989   4.464   0.332   2.157  0.1873  0.0497  0.1151
 4675TIP3    H213990   4.583   0.270   2.228 -0.3398  0.5873  1.5056
 4676TIP3   OH213991   2.219   1.801   5.831 -0.1736  0.0830 -0.2013
 4676TIP3    H113992   2.274   1.817   5.907  0.0157  1.0430 -0.5187
 4676TIP3    H213993   2.133   1.780   5.867  0.3342 -1.2308  0.2965
 4677TIP3   OH213994   5.112   4.717   0.393  0.2411  0.0868 -0.2654
 4677TIP3    H113995   5.090   4.729   0.301 -0.7853  0.1732 -0.0145
 4677TIP3    H213996   5.174   4.788   0.412  1.9013 -0.9928 -1.3317
 4678TIP3   OH213997   3.184   6.455   4.687  0.0533  0.1034  0.3395
 4678TIP3    H113998   3.207   6.496   4.771  1.0658  0.3102 -0.0350
 4678TIP3    H213999   3.258   6.400   4.665 -0.5977 -0.6692  0.0146
 4679TIP3   OH214000   1.319   1.227   0.916  0.7554  0.1302  0.3912
 4679TIP3    H114001   1.388   1.217   0.982  1.9429  1.1907 -0.6621
 4679TIP3    H214002   1.338   1.159   0.852 -0.6623 -1.1966  1.3013
 4680TIP3   OH214003   3.108   2.322   1.092 -0.3197 -0.5444  0.6758
 4680TIP3    H114004   3.084   2.397   1.146  0.9529 -0.4156  1.1181
 4680TIP3    H214005   3.053   2.251   1.123 -2.1563  0.3804 -0.3309
 4681TIP3   OH214006   6.749   3.115   0.018  0.3351 -0.2004  0.1174
 4681TIP3    H114007   6.758   3.207  -0.009  0.8358 -0.5247 -0.8786
 4681TIP3    H214008   6.729   3.119   0.111  1.7479  0.8840  0.4077
 4682TIP3   OH214009   5.964   3.210   5.443  0.0452 -0.1033 -0.0554
 4682TIP3    H114010   5.912   3.288   5.459 -0.3274 -0.1408 -1.0335
 4682TIP3    H214011   5.957   3.194   5.349  3.1749  0.8742 -0.5956
 4683TIP3   OH214012   6.929   1.861   4.157  0.2106 -0.1009 -0.9158
 4683TIP3    H114013   6.866   1.932   4.147  0.9498  1.0746  1.8860
 4683TIP3    H214014   6.889   1.801   4.219  1.1777 -0.1194 -0.2855
 4684TIP3   OH214015   6.458   2.647   2.707  0.3208  0.3132 -0.7558
 4684TIP3    H114016   6.379   2.619   2.754 -0.8179 -0.0551 -2.7865
 4684TIP3    H214017   6.434   2.730   2.667  0.8822  0.1037 -1.5579
 4685TIP3   OH214018   6.038   3.655   3.167 -0.3185 -0.7452  0.1159
 4685TIP3    H114019   5.977   3.714   3.212  1.8552  0.0306  2.3023
 4685TIP3    H214020   6.039   3.577   3.222  1.9669 -0.0104  1.2143
 4686TIP3   OH214021   0.326   3.412   4.550 -0.2969 -0.1005  0.1407
 4686TIP3    H114022   0.261   3.341   4.540 -0.0204 -0.2682 -0.5913
 4686TIP3    H214023   0.343   3.440   4.460  1.4593 -0.8028  0.2086
 4687TIP3   OH214024   1.194   1.510   2.148 -0.0814  0.7724 -0.7274
 4687TIP3    H114025   1.232   1.537   2.065  0.7869  0.8361 -0.3190
 4687TIP3    H214026   1.245   1.434   2.175  0.3807  1.4110  0.2735
 4688TIP3   OH214027   6.860   4.222   5.633 -0.0259  0.2566  0.4327
 4688TIP3    H114028   6.875   4.248   5.724  1.5821  1.8039 -0.2002
 4688TIP3    H214029   6.917   4.280   5.583 -0.0514 -1.2887 -1.4945
 4689TIP3   OH214030   6.222   5.798   3.370 -0.7989  0.1896 -0.4132
 4689TIP3    H114031   6.289   5.856   3.332 -0.5357  0.7736  0.8731
 4689TIP3    H214032   6.141   5.849   3.365 -0.6927  0.4187  0.1243
 4690TIP3   OH214033   1.950   4.710   4.136  0.0473  0.1133  0.0671
 4690TIP3    H114034   1.987   4.695   4.224  0.3062  3.0275  0.5620
 4690TIP3    H214035   1.873   4.764   4.152 -1.7065 -1.8159 -1.3617
 4691TIP3   OH214036   4.435   3.687   3.943  0.2478 -0.2547  0.3485
 4691TIP3    H114037   4.447   3.625   4.015  1.3975 -0.0230  0.3869
 4691TIP3    H214038   4.393   3.762   3.984 -1.1128 -0.9734  0.3107
 4692TIP3   OH214039   5.414   0.441   4.192 -0.6538 -0.0080  0.1747
 4692TIP3    H114040   5.451   0.528   4.176 -1.2600  0.7527  2.5354
 4692TIP3    H214041   5.470   0.403   4.260 -1.2728 -0.8665  0.2260
 4693TIP3   OH214042   2.911   5.992   2.656  0.9351  0.2615  0.2638
 4693TIP3    H114043   2.822   5.983   2.691  0.6581  0.3123 -0.4256
 4693TIP3    H214044   2.964   5.934   2.711  0.3058 -0.5082  0.0664
 4694TIP3   OH214045   6.123   3.210   4.428 -0.0745 -0.1404  0.7293
 4694TIP3    H114046   6.065   3.161   4.370 -0.1208  3.0084 -2.2445
 4694TIP3    H214047   6.208   3.166   4.420 -0.6955 -1.3148  0.3503
 4695TIP3   OH214048   1.378   3.077   2.947 -0.2017  0.8550 -0.1576
 4695TIP3    H114049   1.423   3.001   2.910 -0.9632 -0.0040  0.6367
 4695TIP3    H214050   1.285   3.055   2.941 -0.3810  0.9624  1.6118
 4696TIP3   OH214051   5.421   3.847   3.482  0.3812  0.4026  0.3477
 4696TIP3    H114052   5.452   3.787   3.414  0.7019  1.4282 -0.4447
 4696TIP3    H214053   5.460   3.814   3.563 -0.5030 -1.2028  0.1615
 4697TIP3   OH214054   3.206   4.376   2.053 -0.0477 -0.5395  0.1008
 4697TIP3    H114055   3.238   4.441   1.990  0.2969 -0.1640  0.6597
 4697TIP3    H214056   3.167   4.428   2.123  0.7823 -0.9150  0.8538
 4698TIP3   OH214057   4.510   3.987   2.744  0.1112  0.1017  0.1023
 4698TIP3    H114058   4.531   3.925   2.674  1.2024  1.4443 -0.8159
 4698TIP3    H214059   4.520   3.937   2.824  0.4490 -1.0525 -0.6358
 4699TIP3   OH214060   3.885   2.914   4.852 -0.8257  0.0392  0.2275
 4699TIP3    H114061   3.883   2.836   4.907  1.6165  0.2825  0.7653
 4699TIP3    H214062   3.976   2.942   4.852 -1.2031  1.5759 -1.8418
 4700TIP3   OH214063   4.884   1.300   5.544  0.0257  0.5911  0.3205
 4700TIP3    H114064   4.954   1.237   5.565 -1.1302 -0.0413  2.5756
 4700TIP3    H214065   4.840   1.262   5.469  1.6574  0.6717 -0.7422
 4701TIP3   OH214066   0.338   0.101   3.733  0.4084 -0.5577 -0.0934
 4701TIP3    H114067   0.338   0.153   3.813 -0.6171  2.6646 -1.9610
 4701TIP3    H214068   0.249   0.065   3.727 -0.3286  1.2264 -0.8322
 4702TIP3   OH214069   0.652   2.527   4.342  0.2221 -0.1547  0.2896
 4702TIP3    H114070   0.616   2.585   4.409  0.1784 -0.2725  0.3673
 4702TIP3    H214071   0.740   2.562   4.325 -0.4142  0.9564 -0.8828
 4703TIP3   OH214072   1.260   6.307   3.326  0.3091  0.1980 -0.4824
 4703TIP3    H114073   1.280   6.321   3.419 -1.9730  0.9083 -0.0467
 4703TIP3    H214074   1.253   6.212   3.317 -1.8426  0.2044  0.6624
 4704TIP3   OH214075   2.436   2.728   3.391  0.4173  0.1210 -0.1925
 4704TIP3    H114076   2.507   2.721   3.328  2.5279 -0.7432  2.1043
 4704TIP3    H214077   2.393   2.643   3.389  0.7500 -0.0480 -0.1763
 4705TIP3   OH214078   3.822   6.139   3.886 -0.0166 -0.1170 -0.1210
 4705TIP3    H114079   3.891   6.183   3.836 -0.7208 -0.2791 -1.2571
 4705TIP3    H214080   3.868   6.096   3.958  1.0863 -0.3396 -0.9388
 4706TIP3   OH214081   6.456   4.377   0.384  0.7917 -0.0210 -0.6318
 4706TIP3    H114082   6.391   4.326   0.433  0.5085  0.5519 -0.4014
 4706TIP3    H214083   6.467   4.457   0.436  1.8977 -0.2349 -0.5211
 4707TIP3   OH214084   1.931   5.858   3.645 -0.2485 -0.8201 -0.3363
 4707TIP3    H114085   1.913   5.945   3.679 -0.3996 -0.2274 -1.8402
 4707TIP3    H214086   2.025   5.859   3.624 -0.1606 -1.1624  0.0328
 4708TIP3   OH214087   0.035   1.936   4.005  0.2563 -0.5239  0.0955
 4708TIP3    H114088   0.065   1.954   3.916 -0.6199 -0.8011 -0.2647
 4708TIP3    H214089  -0.039   1.994   4.017  0.9218  0.1633  0.9805
 4709TIP3   OH214090   1.467   5.835   0.947 -0.3701  0.6755  0.5249
 4709TIP3    H114091   1.560   5.855   0.953  0.0983 -1.0572 -0.1230
 4709TIP3    H214092   1.439   5.823   1.038  0.5612 -0.7430  0.6690
 4710TIP3   OH214093   0.063   2.162   3.139  0.7081  0.6992  0.0104
 4710TIP3    H114094  -0.003   2.124   3.082 -1.6169  1.5025  2.0020
 4710TIP3    H214095   0.131   2.095   3.145 -0.2028 -0.4382 -1.6178
 4711TIP3   OH214096   4.591   6.365   3.350 -0.5874  0.2138 -0.0980
 4711TIP3    H114097   4.668   6.314   3.325  1.0459  2.2268  0.5135
 4711TIP3    H214098   4.520   6.301   3.354  1.4220 -2.1151  1.2101
 4712TIP3   OH214099   0.740   0.281   3.218  0.3214  0.2910 -0.5335
 4712TIP3    H114100   0.805   0.347   3.192 -1.7638  2.8062  0.2003
 4712TIP3    H214101   0.686   0.269   3.140  2.6496 -3.3177 -1.8145
 4713TIP3   OH214102   0.252   1.011   2.568 -0.2815  0.0696  0.0713
 4713TIP3    H114103   0.176   1.025   2.624 -0.6702 -2.2596  0.2441
 4713TIP3    H214104   0.224   1.039   2.481  0.1953  3.3495  0.8431
 4714TIP3   OH214105   5.934   3.069   0.658  0.0604  0.6747 -0.9362
 4714TIP3    H114106   6.027   3.051   0.641  0.2289 -1.4688  1.5908
 4714TIP3    H214107   5.935   3.133   0.730 -0.1854 -1.9398  1.6051
 4715TIP3   OH214108   3.677   6.229   4.247 -0.4755  0.9439 -0.4264
 4715TIP3    H114109   3.663   6.184   4.330  2.2452  2.1605  0.8479
 4715TIP3    H214110   3.764   6.199   4.219 -1.0253  1.1366 -2.4933
 4716TIP3   OH214111   2.369   6.771   0.420 -0.0083 -0.0204 -0.0637
 4716TIP3    H114112   2.329   6.684   0.419 -1.2200  0.5164  0.2002
 4716TIP3    H214113   2.381   6.790   0.513  0.8105 -0.1350 -0.1348
 4717TIP3   OH214114   6.895   1.565   1.109 -0.0768  0.0123  0.3618
 4717TIP3    H114115   6.946   1.490   1.080 -1.0865 -0.5805  0.0541
 4717TIP3    H214116   6.898   1.561   1.205 -0.3401 -0.5820  0.3497
 4718TIP3   OH214117   5.238   0.815   0.312  0.1605  0.1842  0.3089
 4718TIP3    H114118   5.245   0.886   0.248 -2.4047 -1.1395 -1.6478
 4718TIP3    H214119   5.144   0.807   0.328  0.4637 -1.9400  1.4325
 4719TIP3   OH214120   6.820   0.800   5.046 -0.6503  1.1575 -0.2597
 4719TIP3    H114121   6.789   0.852   5.120  0.1476  1.4594 -0.1233
 4719TIP3    H214122   6.896   0.848   5.013  0.7962 -0.4466  0.5648
 4720TIP3   OH214123   1.596   0.070   4.462 -0.2520  0.0924  0.1745
 4720TIP3    H114124   1.570   0.161   4.475 -1.3633 -0.2634  0.5624
 4720TIP3    H214125   1.524   0.019   4.498  0.4601 -0.9499  0.1742
 4721TIP3   OH214126   2.677   1.897   1.277 -0.8586  0.2829  0.2398
 4721TIP3    H114127   2.598   1.948   1.260 -1.3880 -0.9138 -1.0190
 4721TIP3    H214128   2.741   1.930   1.213 -0.3906  1.0928  1.1062
 4722TIP3   OH214129   1.210   5.851   0.828 -0.0888  0.2335 -0.2646
 4722TIP3    H114130   1.297   5.838   0.866  0.1657  4.6813  1.2517
 4722TIP3    H214131   1.218   5.930   0.775 -3.3144  1.2920  0.5666
 4723TIP3   OH214132   6.203   0.416   0.035 -0.1840 -0.8618 -0.2070
 4723TIP3    H114133   6.294   0.392   0.052 -0.3046 -1.8304 -0.8066
 4723TIP3    H214134   6.159   0.405   0.119  0.2882 -0.2116  0.1269
 4724TIP3   OH214135   1.821   1.935   5.279 -0.3175  0.7025  0.1446
 4724TIP3    H114136   1.809   2.016   5.330 -0.1754 -0.0308  1.3740
 4724TIP3    H214137   1.908   1.944   5.241 -0.7508  1.6276 -0.6848
 4725TIP3   OH214138   2.401   4.180   1.910 -1.4231  0.1258  0.1070
 4725TIP3    H114139   2.330   4.233   1.945 -1.7858 -0.5264  0.3757
 4725TIP3    H214140   2.410   4.208   1.819 -3.1455 -0.9373 -0.4305
 4726TIP3   OH214141   4.321   6.276   0.230 -0.1512 -0.3602 -0.3736
 4726TIP3    H114142   4.382   6.235   0.293 -0.2936 -0.2609 -0.1699
 4726TIP3    H214143   4.244   6.220   0.232 -0.3168 -0.1276 -0.1510
 4727TIP3   OH214144   6.021   2.731   5.012 -0.0411  0.1548  0.5708
 4727TIP3    H114145   5.995   2.665   5.076 -0.0130 -1.3668 -0.9051
 4727TIP3    H214146   5.985   2.699   4.929  2.8398  0.1968 -0.8152
 4728TIP3   OH214147   4.578   6.166   1.195 -0.4215  0.1246 -0.6898
 4728TIP3    H114148   4.557   6.162   1.288 -1.0369  1.6928 -0.7317
 4728TIP3    H214149   4.641   6.095   1.181  1.7177  1.4586  1.4709
 4729TIP3   OH214150   3.630   0.621   2.275  0.2406 -0.0885  0.2139
 4729TIP3    H114151   3.698   0.627   2.341 -0.3514 -1.0078  0.9464
 4729TIP3    H214152   3.560   0.570   2.317 -0.8905  0.8066 -0.5097
 4730TIP3   OH214153   2.641   1.275   1.612  0.5064 -0.1435 -0.0257
 4730TIP3    H114154   2.725   1.302   1.573  0.3222  2.8516  1.3717
 4730TIP3    H214155   2.660   1.267   1.705 -0.3747 -1.4360  0.0728
 4731TIP3   OH214156   7.204   0.222   0.634  0.3236  0.0976  0.0293
 4731TIP3    H114157   7.170   0.135   0.656  1.1428  0.2082  1.9119
 4731TIP3    H214158   7.130   0.281   0.651 -0.4639 -0.2665 -1.9500
 4732TIP3   OH214159   5.166   6.395   1.207  0.1254  0.0532 -0.4833
 4732TIP3    H114160   5.232   6.362   1.146 -1.7895  0.1968 -2.7421
 4732TIP3    H214161   5.128   6.316   1.245  0.5963 -0.0709 -0.2613
 4733TIP3   OH214162   0.456   6.110   0.160 -0.2683  0.0170 -0.0482
 4733TIP3    H114163   0.402   6.034   0.182 -2.0870  0.8043 -1.5865
 4733TIP3    H214164   0.539   6.072   0.131  0.6454 -1.1868  3.5732
 4734TIP3   OH214165   1.742   2.806   5.841  0.2957 -0.4000  0.0119
 4734TIP3    H114166   1.693   2.862   5.901 -1.8291 -1.1480 -0.9308
 4734TIP3    H214167   1.718   2.717   5.867  1.3462 -0.7992 -0.3474
 4735TIP3   OH214168   6.876   4.676   1.855 -0.2920 -0.4442 -0.2174
 4735TIP3    H114169   6.902   4.659   1.946  0.7894 -0.8800 -0.6006
 4735TIP3    H214170   6.781   4.686   1.859 -0.1854  0.2785  1.0778
 4736TIP3   OH214171   6.629   1.432   1.449  0.8995 -0.3365  0.0348
 4736TIP3    H114172   6.602   1.441   1.357 -0.5954 -1.0628  0.3729
 4736TIP3    H214173   6.600   1.345   1.474 -1.4947  0.9094  2.0374
 4737TIP3   OH214174   0.395   3.308   2.716 -0.3721  0.4908 -0.4809
 4737TIP3    H114175   0.309   3.267   2.723 -1.0503  1.8615 -0.4057
 4737TIP3    H214176   0.389   3.365   2.640  0.3827  0.8212 -0.3073
 4738TIP3   OH214177   3.770   6.401   4.599  0.3387 -0.0108 -0.3704
 4738TIP3    H114178   3.794   6.407   4.506  1.7739  0.7508  0.0097
 4738TIP3    H214179   3.834   6.340   4.636 -0.3347 -0.4467  0.1030
 4739TIP3   OH214180   5.513   5.927   1.827  0.3482  0.2941 -0.4206
 4739TIP3    H114181   5.482   6.011   1.793 -0.4503 -0.7263 -2.3878
 4739TIP3    H214182   5.524   5.873   1.749  0.3889 -1.5818  0.8292
 4740TIP3   OH214183   6.060   5.307   3.240  0.3033  0.0232  0.8028
 4740TIP3    H114184   6.003   5.291   3.165 -0.6806  2.1931  1.0317
 4740TIP3    H214185   6.131   5.243   3.230 -2.3576 -3.2477  0.8240
 4741TIP3   OH214186   1.179   1.589   2.403  0.1931  0.0991 -0.4762
 4741TIP3    H114187   1.142   1.618   2.319 -0.8970  1.1207  0.3352
 4741TIP3    H214188   1.246   1.526   2.378  0.0971  0.5976 -2.1426
 4742TIP3   OH214189   4.147   5.128   3.952 -0.0971 -0.2988  0.8497
 4742TIP3    H114190   4.232   5.123   3.907 -0.0402 -0.4117  0.9710
 4742TIP3    H214191   4.130   5.222   3.959  0.9037 -0.1997  2.4947
 4743TIP3   OH214192   2.782   0.101   1.308 -0.2157  0.3518  0.4232
 4743TIP3    H114193   2.751   0.014   1.283 -1.7592  0.6642  1.1645
 4743TIP3    H214194   2.791   0.148   1.225 -0.0294 -0.2884  0.0728
 4744TIP3   OH214195   4.492   5.640   0.861 -0.2577 -0.4374  0.7786
 4744TIP3    H114196   4.472   5.646   0.955  0.4776 -1.9125  1.0491
 4744TIP3    H214197   4.524   5.551   0.849  2.1867  0.4906 -0.3671
 4745TIP3   OH214198   0.508   6.332   4.244  0.0970  0.1529  0.6952
 4745TIP3    H114199   0.477   6.295   4.162  0.1583 -0.1159  0.7910
 4745TIP3    H214200   0.499   6.427   4.233 -1.8610  0.0490  1.1654
 4746TIP3   OH214201   0.239   5.499   4.435  0.1714 -0.0614 -0.1487
 4746TIP3    H114202   0.207   5.419   4.392  0.7153 -0.2429 -0.2166
 4746TIP3    H214203   0.209   5.491   4.526 -0.7739  0.2083 -0.4259
 4747TIP3   OH214204   2.481   6.494   0.644  0.2910 -0.2997  0.2916
 4747TIP3    H114205   2.453   6.478   0.554  1.1695  1.9703 -0.4685
 4747TIP3    H214206   2.426   6.566   0.674  0.5667 -0.4798  1.2754
 4748TIP3   OH214207   2.129   0.438   2.590 -0.4765 -0.2066 -0.1014
 4748TIP3    H114208   2.059   0.498   2.615  0.9631  1.3406  0.4085
 4748TIP3    H214209   2.190   0.441   2.663  0.8974 -0.2440 -1.2042
 4749TIP3   OH214210   0.938   1.219   1.546  0.3057  0.8534  0.4122
 4749TIP3    H114211   0.898   1.133   1.553 -1.7094  1.6210 -0.9695
 4749TIP3    H214212   1.031   1.201   1.536  0.2519 -1.0473  2.4601
 4750TIP3   OH214213   6.355   5.639   2.650  0.5288  0.6588 -0.2366
 4750TIP3    H114214   6.264   5.641   2.679  0.3834  0.5422 -0.6728
 4750TIP3    H214215   6.400   5.586   2.716  0.2852  0.7281 -0.0119
 4751TIP3   OH214216   0.508   0.969   5.332 -0.3734 -0.4655 -0.4973
 4751TIP3    H114217   0.595   0.938   5.306 -0.5209 -1.3217 -0.0221
 4751TIP3    H214218   0.520   1.062   5.351  0.1708 -0.2901 -1.6061
 4752TIP3   OH214219   5.422   2.472   3.165 -0.0545  0.1390  0.6130
 4752TIP3    H114220   5.366   2.539   3.203 -0.4145 -0.7504  1.7119
 4752TIP3    H214221   5.510   2.491   3.198  0.1813  1.0691 -0.4805
 4753TIP3   OH214222   5.814   6.762   2.257  0.2698  0.3667  0.0396
 4753TIP3    H114223   5.865   6.689   2.293 -0.9088 -1.4592 -1.7307
 4753TIP3    H214224   5.855   6.781   2.173  0.0297  1.1494  0.0936
 4754TIP3   OH214225   1.177   4.522   4.991  0.7660  0.6877  0.7529
 4754TIP3    H114226   1.170   4.616   4.977 -1.0604  0.2112 -2.9156
 4754TIP3    H214227   1.090   4.496   5.021  0.9056  0.0535  0.6146
 4755TIP3   OH214228   5.235   4.569   2.911  0.4251  0.2667 -0.4706
 4755TIP3    H114229   5.288   4.648   2.920  2.1706 -0.7574 -1.2798
 4755TIP3    H214230   5.178   4.569   2.989 -0.8134  3.1041 -1.2544
 4756TIP3   OH214231   2.336   1.783   1.000  0.4735 -0.7274 -0.4371
 4756TIP3    H114232   2.304   1.859   1.049  1.7267 -1.3388  1.3986
 4756TIP3    H214233   2.283   1.783   0.920 -0.7763  1.0373  0.3240
 4757TIP3   OH214234   1.643   3.573   0.570  0.4910 -0.2971  0.4843
 4757TIP3    H114235   1.708   3.590   0.502  0.1843  0.4111  0.3633
 4757TIP3    H214236   1.662   3.637   0.638 -0.5835  0.4515  0.0914
 4758TIP3   OH214237   2.420   0.923   0.840  0.0048  0.4238  0.4527
 4758TIP3    H114238   2.325   0.916   0.831  0.0945  0.2113 -0.4281
 4758TIP3    H214239   2.437   1.017   0.835 -0.1217  0.4322  0.1135
 4759TIP3   OH214240   5.421   6.288   2.606 -1.4883 -0.4943  0.3134
 4759TIP3    H114241   5.408   6.304   2.699  3.2863 -0.9650  1.3057
 4759TIP3    H214242   5.438   6.194   2.600  0.7542 -0.0845 -0.5441
 4760TIP3   OH214243   6.975   6.640   3.029  0.0316 -0.1164  0.1282
 4760TIP3    H114244   7.016   6.710   3.081 -0.6452 -0.1372  0.7062
 4760TIP3    H214245   6.918   6.686   2.968 -0.3554 -0.1577  0.4571
 4761TIP3   OH214246   0.352   0.763   0.398 -0.2501 -0.0274  0.5413
 4761TIP3    H114247   0.356   0.724   0.310  1.2131 -1.0297  1.0173
 4761TIP3    H214248   0.430   0.730   0.442 -0.8634  0.6137  2.1722
 4762TIP3   OH214249   1.402   0.027   2.328 -0.2657  0.5582 -0.1303
 4762TIP3    H114250   1.484  -0.022   2.333 -1.5558 -1.8943 -1.1348
 4762TIP3    H214251   1.409   0.092   2.399  1.0594 -1.9704  2.2620
 4763TIP3   OH214252   5.499   1.670   4.780 -0.0091  0.1440 -0.0859
 4763TIP3    H114253   5.415   1.681   4.736 -1.3379 -0.5058  2.1530
 4763TIP3    H214254   5.529   1.759   4.798 -0.7709  0.3698  0.0901
 4764TIP3   OH214255   5.415   4.122   1.496  0.5208  0.0174 -0.2908
 4764TIP3    H114256   5.414   4.027   1.507  1.2653 -0.1782 -1.6693
 4764TIP3    H214257   5.332   4.142   1.452  0.1790  0.0621  0.3698
 4765TIP3   OH214258   6.801   3.929   4.403 -0.1907 -0.1999  0.0314
 4765TIP3    H114259   6.866   3.888   4.459  1.3754  1.7600 -0.2690
 4765TIP3    H214260   6.740   3.972   4.464 -0.3813 -0.7992  0.2728
 4766TIP3   OH214261   2.318   0.757   2.603 -0.2517  0.6430 -0.2122
 4766TIP3    H114262   2.334   0.682   2.660 -0.4293  1.6555  1.2065
 4766TIP3    H214263   2.273   0.721   2.527  0.5765 -0.8329 -0.0342
 4767TIP3   OH214264   0.721   2.677   3.316 -0.6666  0.5723  0.1419
 4767TIP3    H114265   0.744   2.741   3.249  0.2395  1.0625  0.8890
 4767TIP3    H214266   0.695   2.730   3.391  0.3209  0.0865  0.8433
 4768TIP3   OH214267   1.132   0.150   3.381 -0.1335 -0.5271 -0.4660
 4768TIP3    H114268   1.115   0.243   3.369  0.9909  0.2732  2.9570
 4768TIP3    H214269   1.225   0.139   3.361  0.6235 -0.0656  2.2821
 4769TIP3   OH214270   2.085   6.700   0.569  0.0031 -0.5827 -0.0519
 4769TIP3    H114271   2.076   6.605   0.562  0.7311 -0.5519 -2.3713
 4769TIP3    H214272   2.103   6.717   0.661 -3.4714 -2.3634  1.1251
 4770TIP3   OH214273   4.022   1.286   1.121  0.3102 -0.2624  0.5214
 4770TIP3    H114274   4.067   1.217   1.071  0.4465  0.1976  0.0004
 4770TIP3    H214275   3.929   1.265   1.112  0.2947  0.1266 -0.4150
 4771TIP3   OH214276   5.080   2.514   0.266 -0.1006 -0.3738 -0.1047
 4771TIP3    H114277   5.143   2.442   0.265  0.0360 -0.4602  3.1087
 4771TIP3    H214278   5.133   2.593   0.277 -0.3997 -0.1627 -0.1566
 4772TIP3   OH214279   6.357   1.625   0.462 -0.3048 -0.5659 -0.4474
 4772TIP3    H114280   6.271   1.656   0.490 -0.5877  1.0510 -2.8571
 4772TIP3    H214281   6.381   1.559   0.527 -2.3192  0.5746  1.5845
 4773TIP3   OH214282   3.561   5.377   4.442 -0.1747  0.1131 -0.1417
 4773TIP3    H114283   3.594   5.350   4.528 -0.6949  0.1164  0.0657
 4773TIP3    H214284   3.606   5.459   4.423  1.4097 -0.8603 -0.7663
 4774TIP3   OH214285   1.746   4.797   2.081 -0.4607  0.2960 -0.0673
 4774TIP3    H114286   1.776   4.872   2.030 -0.1769  0.9255  0.9875
 4774TIP3    H214287   1.744   4.829   2.172 -0.2558 -0.9968  0.4142
 4775TIP3   OH214288   0.994   5.636   4.839  0.1452  0.0468 -0.1340
 4775TIP3    H114289   0.989   5.685   4.757 -0.3500  1.5672  0.7534
 4775TIP3    H214290   1.088   5.619   4.850  0.2762  0.3242 -0.7449
 4776TIP3   OH214291   6.710   6.138   1.570 -0.3463 -0.2829  0.1554
 4776TIP3    H114292   6.767   6.068   1.601  1.3301  1.0020  0.0907
 4776TIP3    H214293   6.633   6.093   1.535 -0.7536 -1.9518  2.9059
 4777TIP3   OH214294   2.013   2.614   0.855  0.2485 -0.2040  0.1765
 4777TIP3    H114295   1.952   2.654   0.794  0.4001  1.6117  1.1546
 4777TIP3    H214296   1.969   2.618   0.940  1.4992  0.7136  0.8187
 4778TIP3   OH214297   3.245   6.481   0.996  0.0647  0.2453  0.2457
 4778TIP3    H114298   3.166   6.429   0.983 -0.6189  1.2102  0.4036
 4778TIP3    H214299   3.306   6.449   0.930 -0.8551  0.2393 -0.6253
 4779TIP3   OH214300   4.308   2.201   1.288 -0.3738  0.1970  0.4319
 4779TIP3    H114301   4.312   2.193   1.383  0.2731 -2.6797  0.2721
 4779TIP3    H214302   4.255   2.126   1.260  1.7363 -0.7027 -1.5689
 4780TIP3   OH214303   6.059   0.080   0.510  0.4147 -0.1301  0.3401
 4780TIP3    H114304   6.075   0.097   0.602 -1.3155  1.6120  0.3807
 4780TIP3    H214305   6.044   0.167   0.471 -0.0097 -0.9027 -1.3429
 4781TIP3   OH214306   3.583   4.215   2.813  0.5015  0.0575 -0.1172
 4781TIP3    H114307   3.588   4.310   2.826  2.3162 -0.1912  1.4558
 4781TIP3    H214308   3.566   4.204   2.719  1.1740  1.9338 -0.5030
 4782TIP3   OH214309   4.641   0.037   4.948  0.0971  0.0248  0.1277
 4782TIP3    H114310   4.644   0.042   4.852  1.7892  0.4012  0.1760
 4782TIP3    H214311   4.592   0.115   4.974 -1.8989 -0.9658 -0.4671
 4783TIP3   OH214312   1.414   3.602   2.965 -0.4881 -0.1926  0.2579
 4783TIP3    H114313   1.344   3.552   3.007 -0.8563  0.0657 -0.0475
 4783TIP3    H214314   1.474   3.535   2.931  0.2668 -0.4123  1.9204
 4784TIP3   OH214315   0.245   4.543   3.177 -0.6994  0.8785  0.2624
 4784TIP3    H114316   0.175   4.480   3.159 -0.0007  0.3103 -0.5396
 4784TIP3    H214317   0.295   4.502   3.248  1.2237 -0.7649 -1.8585
 4785TIP3   OH214318   1.067   1.266   1.955  0.4147 -0.0680 -0.8616
 4785TIP3    H114319   1.093   1.344   1.905  1.1494 -0.3460 -0.9246
 4785TIP3    H214320   1.020   1.301   2.031  1.6018  0.4925 -0.3615
 4786TIP3   OH214321   7.058   6.533   3.275  0.0710  0.2939 -0.0960
 4786TIP3    H114322   6.997   6.461   3.259  1.3397 -0.6764 -0.7747
 4786TIP3    H214323   7.084   6.561   3.187  0.8706  0.4625  0.1926
 4787TIP3   OH214324   6.997   0.668   5.715 -0.3130 -0.3990 -0.1237
 4787TIP3    H114325   6.960   0.749   5.750  2.0051  0.1214  1.2967
 4787TIP3    H214326   6.998   0.608   5.790  2.0234 -0.2294  0.0565
 4788TIP3   OH214327   3.449   5.562   3.143  0.1317  0.2909 -0.3001
 4788TIP3    H114328   3.463   5.503   3.069  0.0665 -0.2385  0.1042
 4788TIP3    H214329   3.436   5.504   3.218 -0.1832  0.8178  0.0598
 4789TIP3   OH214330   6.778   0.424   2.907  0.2565  0.2752 -0.1877
 4789TIP3    H114331   6.866   0.459   2.916  0.0553  0.7102  0.1322
 4789TIP3    H214332   6.765   0.414   2.813  0.6044  0.3192 -0.2403
 4790TIP3   OH214333   1.879   6.227   0.925 -0.1510  0.0099  0.2751
 4790TIP3    H114334   1.927   6.146   0.939 -0.3793 -0.0253  0.8693
 4790TIP3    H214335   1.897   6.280   1.003  0.7080  0.8892 -0.5019
 4791TIP3   OH214336   0.180   2.871   2.806  0.6882 -0.0623  0.6685
 4791TIP3    H114337   0.272   2.850   2.787  0.5996  0.0659  0.0589
 4791TIP3    H214338   0.149   2.797   2.859  1.0753 -0.2333  0.6596
 4792TIP3   OH214339   0.979   1.120   5.879 -0.6306  0.1531  0.1881
 4792TIP3    H114340   0.991   1.208   5.842  2.8347  0.0999  0.9213
 4792TIP3    H214341   0.890   1.095   5.852 -0.7666  2.7994 -2.2516
 4793TIP3   OH214342   4.772   1.005   1.372 -0.1967 -0.2289  0.3778
 4793TIP3    H114343   4.684   0.988   1.404 -0.7207 -1.0575 -1.3375
 4793TIP3    H214344   4.779   1.100   1.368 -1.4489 -0.1471 -0.4919
 4794TIP3   OH214345   4.801   0.656   4.923 -0.2184  0.3318  0.0212
 4794TIP3    H114346   4.793   0.696   4.836 -0.6738  1.0648  0.3959
 4794TIP3    H214347   4.750   0.575   4.917 -0.8798  0.7591 -0.1634
 4795TIP3   OH214348   4.309   2.506   0.241  0.1267  0.2264 -0.5684
 4795TIP3    H114349   4.392   2.544   0.271 -0.6240  0.6355  1.0962
 4795TIP3    H214350   4.332   2.417   0.214  0.9402 -0.0709  0.9715
 4796TIP3   OH214351   6.807   3.256   3.228 -0.6598  0.3043 -0.0173
 4796TIP3    H114352   6.896   3.256   3.192 -0.1381  1.7563  1.1503
 4796TIP3    H214353   6.768   3.337   3.196 -1.4050 -0.0679 -0.0907
 4797TIP3   OH214354   6.796   1.792   2.926  0.2606  0.3899 -0.3482
 4797TIP3    H114355   6.871   1.739   2.953 -0.7232 -1.2616 -0.7317
 4797TIP3    H214356   6.828   1.882   2.930  1.6918 -0.1337  1.3021
 4798TIP3   OH214357   1.058   6.746   4.328  0.3231  0.1146 -0.4769
 4798TIP3    H114358   0.981   6.800   4.315  0.5771  0.2804 -1.3409
 4798TIP3    H214359   1.112   6.795   4.391  0.1058  0.3901 -0.5051
 4799TIP3   OH214360   5.942   3.563   2.917 -0.4614 -0.1279 -0.2188
 4799TIP3    H114361   5.981   3.609   2.843 -1.0211 -0.5287 -0.7715
 4799TIP3    H214362   5.949   3.625   2.990 -0.6350  0.5926 -0.7993
 4800TIP3   OH214363   0.938   1.072   2.820 -0.8657  0.0373 -0.7532
 4800TIP3    H114364   0.886   1.152   2.819 -1.1880 -0.0890  1.4239
 4800TIP3    H214365   1.028   1.102   2.829 -1.0299  0.1874  0.6018
 4801TIP3   OH214366   2.526   5.820   2.814  0.4870  0.0980 -0.2450
 4801TIP3    H114367   2.454   5.780   2.862  2.7222 -2.9388  0.8560
 4801TIP3    H214368   2.584   5.855   2.882  1.5431 -0.2682 -0.9304
 4802TIP3   OH214369   2.152   6.458   4.847  0.1033  0.1619  0.0609
 4802TIP3    H114370   2.084   6.405   4.889  1.8214 -1.5114  0.8828
 4802TIP3    H214371   2.195   6.504   4.919  0.1957  0.7883 -0.3840
 4803TIP3   OH214372   7.214   6.372   0.974 -0.2235 -0.0559 -0.3836
 4803TIP3    H114373   7.264   6.380   1.055  1.6761 -2.9989 -1.0874
 4803TIP3    H214374   7.142   6.312   0.996 -0.1979 -0.1906 -0.6596
 4804TIP3   OH214375   5.864   0.399   1.875  0.2880 -0.2978  0.7555
 4804TIP3    H114376   5.872   0.313   1.918 -0.0330 -0.3813  0.6507
 4804TIP3    H214377   5.808   0.382   1.799  0.6605 -0.1007  0.4358
 4805TIP3   OH214378   6.414   5.423   5.521 -0.1979 -0.1529  0.2203
 4805TIP3    H114379   6.410   5.340   5.568 -1.4354  0.4840  1.3176
 4805TIP3    H214380   6.388   5.402   5.432  0.1268 -1.0353  0.3280
 4806TIP3   OH214381   1.780   4.867   2.955 -0.1811 -0.1108 -0.2103
 4806TIP3    H114382   1.856   4.846   2.901  1.0382  1.9178  0.5937
 4806TIP3    H214383   1.716   4.903   2.893 -0.1125 -0.8755 -0.7398
 4807TIP3   OH214384   3.536   4.019   4.427  0.5820 -0.4393 -0.4737
 4807TIP3    H114385   3.605   3.971   4.474  0.2553 -0.8910 -0.4528
 4807TIP3    H214386   3.530   3.974   4.342  2.4062  1.4392 -1.7020
 4808TIP3   OH214387   6.577   4.202   3.233 -0.4725  0.0243 -0.0818
 4808TIP3    H114388   6.633   4.153   3.294 -0.0591 -0.8844 -1.1380
 4808TIP3    H214389   6.527   4.262   3.288  1.7835  1.1202  0.8983
 4809TIP3   OH214390   4.167   2.430   3.830 -0.1332 -0.0956 -0.0847
 4809TIP3    H114391   4.189   2.498   3.894 -0.2307 -0.2871  0.1535
 4809TIP3    H214392   4.115   2.476   3.764  1.3809  0.4906 -0.9311
 4810TIP3   OH214393   3.760   1.011   1.618  0.1476 -0.3676 -0.3128
 4810TIP3    H114394   3.803   1.054   1.692  0.1663  0.2727 -0.6910
 4810TIP3    H214395   3.802   0.926   1.612  0.1797 -0.4065  0.3865
 4811TIP3   OH214396   6.779   1.944   0.828 -0.1783  0.2583 -0.0152
 4811TIP3    H114397   6.759   2.010   0.895  0.7115 -1.5930  2.2192
 4811TIP3    H214398   6.714   1.876   0.841  0.9869 -0.8718  0.1031
 4812TIP3   OH214399   4.962   5.434   5.302  0.1657 -0.3508 -0.2103
 4812TIP3    H114400   4.952   5.392   5.216 -2.0131 -1.5091  0.5434
 4812TIP3    H214401   4.887   5.492   5.310  0.5982  0.1022  0.7400
 4813TIP3   OH214402   3.103   0.848   3.433  0.4223 -0.1393  0.0105
 4813TIP3    H114403   3.030   0.894   3.390  0.7312  0.1734 -0.1872
 4813TIP3    H214404   3.168   0.838   3.364  0.1521 -1.3586 -0.0886
 4814TIP3   OH214405   4.675   4.438   2.595  0.3059 -0.1541  0.0811
 4814TIP3    H114406   4.704   4.479   2.676  1.7022 -0.7523 -0.0758
 4814TIP3    H214407   4.718   4.352   2.596  2.1523  0.6413 -2.2832
 4815TIP3   OH214408   0.030   0.782   5.659 -0.6272 -0.0172 -0.0456
 4815TIP3    H114409  -0.051   0.731   5.666 -0.4551 -0.2111  0.5612
 4815TIP3    H214410   0.084   0.751   5.731  0.8570 -1.4264 -1.6874
 4816TIP3   OH214411   2.811   4.479   3.710  0.0042 -0.1090  0.1445
 4816TIP3    H114412   2.768   4.461   3.626 -1.2159  3.4491 -0.1647
 4816TIP3    H214413   2.747   4.452   3.775 -0.4422  0.1126 -0.1902
 4817TIP3   OH214414   0.704   5.152   2.370  0.6584 -0.8979  0.5848
 4817TIP3    H114415   0.626   5.151   2.315  0.4974 -1.6083  0.8159
 4817TIP3    H214416   0.776   5.168   2.309  0.4079 -0.9894  0.2632
 4818TIP3   OH214417   6.402   5.265   4.101  0.2790  0.8183  0.0989
 4818TIP3    H114418   6.339   5.336   4.101 -1.1948 -0.4183 -0.5579
 4818TIP3    H214419   6.355   5.191   4.061  2.8523  0.4451 -2.5858
 4819TIP3   OH214420   0.873   2.106   2.746  0.6152  0.2722  0.3238
 4819TIP3    H114421   0.825   2.148   2.817 -0.4260  0.9183 -0.7386
 4819TIP3    H214422   0.887   2.017   2.777 -1.6008 -0.0540  0.5241
 4820TIP3   OH214423   0.766   5.171   4.689  0.5746  0.1757  0.0558
 4820TIP3    H114424   0.843   5.213   4.729  0.3914  0.0116  0.5831
 4820TIP3    H214425   0.754   5.218   4.606  0.3822  1.1697  0.6292
 4821TIP3   OH214426   6.527   4.694   2.664  0.3947 -0.1879 -0.3831
 4821TIP3    H114427   6.517   4.664   2.573  2.3778 -1.0861 -0.3634
 4821TIP3    H214428   6.557   4.617   2.712 -0.7650  0.2358  1.1007
 4822TIP3   OH214429   6.182   1.454   5.068 -0.9419  0.2276  0.3005
 4822TIP3    H114430   6.179   1.449   4.972  0.6618 -0.7662  0.2676
 4822TIP3    H214431   6.247   1.521   5.086  0.9367 -1.5703  0.6228
 4823TIP3   OH214432   5.784   2.191   1.559  0.3148 -0.2577 -0.2188
 4823TIP3    H114433   5.747   2.109   1.593 -1.7079  0.5492 -0.3268
 4823TIP3    H214434   5.723   2.219   1.491  0.9370  1.3570 -0.1708
 4824TIP3   OH214435   6.701   5.216   1.675  0.0024  0.4472  0.8716
 4824TIP3    H114436   6.752   5.293   1.652 -0.7466  0.8977  0.6823
 4824TIP3    H214437   6.617   5.250   1.706  0.4402 -0.2035  2.9058
 4825TIP3   OH214438   4.557   0.446   0.573 -0.4626  0.5831 -0.0620
 4825TIP3    H114439   4.542   0.486   0.658  1.5563  1.1577  0.0670
 4825TIP3    H214440   4.522   0.358   0.582 -0.3256  0.6459  1.3536
 4826TIP3   OH214441   2.083   0.782   4.917  0.2009 -0.2557  0.0023
 4826TIP3    H114442   2.042   0.754   4.835 -0.0757 -0.5594  0.2381
 4826TIP3    H214443   2.023   0.849   4.952  1.3437  1.3640 -1.0314
 4827TIP3   OH214444   3.062   3.800   0.891 -0.1592 -0.0426  0.2685
 4827TIP3    H114445   3.049   3.883   0.844 -0.5684 -0.0405  0.3814
 4827TIP3    H214446   3.111   3.825   0.969 -1.1424  0.2666  0.8172
 4828TIP3   OH214447   4.325   2.413   1.782  0.0966 -0.3703 -0.0904
 4828TIP3    H114448   4.383   2.454   1.846 -1.9324  1.5431  0.6630
 4828TIP3    H214449   4.289   2.337   1.828  0.5616 -0.4537  0.1324
 4829TIP3   OH214450   5.020   0.947   3.003 -0.7256 -0.2940  0.2852
 4829TIP3    H114451   4.979   0.876   2.954 -0.7563  2.2708 -3.8659
 4829TIP3    H214452   5.112   0.922   3.010 -1.0116 -1.4007  0.2496
 4830TIP3   OH214453   5.650   4.205   0.391 -0.0142  0.0449  0.0839
 4830TIP3    H114454   5.581   4.174   0.451 -1.1778 -0.8312 -1.5986
 4830TIP3    H214455   5.669   4.129   0.336  0.5783  0.9809 -1.0432
 4831TIP3   OH214456   0.704   2.243   0.568  0.2978  0.1052  0.5900
 4831TIP3    H114457   0.787   2.290   0.565  0.1649  0.6777  3.5626
 4831TIP3    H214458   0.691   2.223   0.661 -3.1482  0.4969  0.2995
 4832TIP3   OH214459   2.699   4.615   4.068  0.1212  0.3712 -0.6555
 4832TIP3    H114460   2.620   4.630   4.015  0.0871  1.5213 -0.2935
 4832TIP3    H214461   2.772   4.640   4.011  0.0218  2.9577  0.2489
 4833TIP3   OH214462   2.218   1.404   5.006  0.9551  0.6915  0.4983
 4833TIP3    H114463   2.136   1.453   5.010 -0.4068 -1.4415  0.8120
 4833TIP3    H214464   2.190   1.312   5.004  3.3443 -0.0917  0.0774
 4834TIP3   OH214465   2.358   1.407   2.570  0.1545  0.3999 -1.1368
 4834TIP3    H114466   2.426   1.449   2.621 -0.8044 -0.2607  0.7909
 4834TIP3    H214467   2.403   1.337   2.522  0.6851 -1.0593  1.3106
 4835TIP3   OH214468   2.988   4.580   0.280  0.1133  0.4701 -0.2606
 4835TIP3    H114469   2.990   4.584   0.376  1.2275  1.0537 -0.2943
 4835TIP3    H214470   2.900   4.612   0.257  0.1686  1.2283  0.5290
 4836TIP3   OH214471   3.556   5.483   5.727 -0.1513 -0.1424 -0.7141
 4836TIP3    H114472   3.534   5.471   5.635 -0.7731 -0.8304 -0.4872
 4836TIP3    H214473   3.640   5.438   5.737 -0.8605 -1.4973 -0.6074
 4837TIP3   OH214474   1.934   6.171   2.867  0.0776 -0.1927  0.0779
 4837TIP3    H114475   1.942   6.209   2.954 -0.0474  0.5035 -0.2099
 4837TIP3    H214476   1.897   6.241   2.813  0.1710 -0.6099 -0.5400
 4838TIP3   OH214477   2.834   2.250   2.516  0.4311 -0.0627  0.0231
 4838TIP3    H114478   2.762   2.289   2.465  0.3472  0.0098  0.1959
 4838TIP3    H214479   2.808   2.263   2.607 -0.4778 -2.1540  0.1056
 4839TIP3   OH214480   0.794   1.881   3.867 -0.3683 -0.0236  0.0555
 4839TIP3    H114481   0.831   1.946   3.927 -1.6816  0.7168  0.0974
 4839TIP3    H214482   0.835   1.902   3.782  1.2690 -0.8911  0.5847
 4840TIP3   OH214483   3.499   1.378   2.829  0.4686  0.3897  0.4116
 4840TIP3    H114484   3.437   1.450   2.835  0.1851  0.1221  0.7562
 4840TIP3    H214485   3.445   1.299   2.827  0.7001  0.2216 -1.5843
 4841TIP3   OH214486   0.074   3.060   0.066  0.0009  0.4757  0.3109
 4841TIP3    H114487   0.018   2.982   0.069 -0.0025  0.5123  1.6342
 4841TIP3    H214488   0.014   3.132   0.048 -0.1674  0.3310  0.2839
 4842TIP3   OH214489   1.001   6.180   0.781 -0.1106  0.2893  0.1673
 4842TIP3    H114490   1.067   6.239   0.817  0.6491 -2.0845  3.0302
 4842TIP3    H214491   1.037   6.153   0.696  0.8178  1.7466  0.0588
 4843TIP3   OH214492   0.603   6.433   0.780  0.2531  0.2593  0.3118
 4843TIP3    H114493   0.667   6.414   0.849 -1.1545  0.3907  1.7211
 4843TIP3    H214494   0.524   6.385   0.807 -0.4187  0.5225 -1.0873
 4844TIP3   OH214495   5.498   1.143   0.697  0.5401 -0.7587  0.1050
 4844TIP3    H114496   5.415   1.111   0.732 -1.0732  0.9221 -1.9427
 4844TIP3    H214497   5.514   1.088   0.621 -0.8111  1.2864 -1.7881
 4845TIP3   OH214498   3.158   0.267   4.096  0.2197 -0.1653  0.7298
 4845TIP3    H114499   3.096   0.195   4.086  0.7100 -0.6247  0.9992
 4845TIP3    H214500   3.108   0.345   4.069 -0.2174 -0.6368  0.1384
 4846TIP3   OH214501   6.736   0.300   5.044 -0.1748 -0.0377 -0.3700
 4846TIP3    H114502   6.751   0.376   5.100 -0.7020  0.7806 -1.3124
 4846TIP3    H214503   6.788   0.317   4.966  1.0586 -1.4722  0.0776
 4847TIP3   OH214504   3.196   2.133   3.289  0.4920 -0.1984  0.7085
 4847TIP3    H114505   3.183   2.147   3.382 -2.3340 -0.5662  0.4455
 4847TIP3    H214506   3.291   2.136   3.277  0.8935  0.3121  3.4894
 4848TIP3   OH214507   2.161   3.464   1.893 -0.5800  0.3148 -0.0847
 4848TIP3    H114508   2.232   3.521   1.863 -0.6325 -0.2698 -1.3942
 4848TIP3    H214509   2.182   3.378   1.855 -1.4506 -0.1049  0.3537
 4849TIP3   OH214510   1.553   4.173   2.242  0.4312 -0.6973  0.3820
 4849TIP3    H114511   1.624   4.237   2.254  0.7774 -1.0944  0.4896
 4849TIP3    H214512   1.588   4.092   2.279 -0.0169 -0.9401  0.2756
 4850TIP3   OH214513   6.851   5.511   4.616  0.1403  0.4047  0.0396
 4850TIP3    H114514   6.860   5.597   4.575 -1.0024  0.1944 -0.7017
 4850TIP3    H214515   6.861   5.448   4.543  1.8691 -0.1635  0.7058
 4851TIP3   OH214516   4.432   6.703   1.711  0.5666 -0.8243  0.3406
 4851TIP3    H114517   4.398   6.700   1.801  0.2734 -1.1716  0.2223
 4851TIP3    H214518   4.404   6.620   1.673  0.9778 -0.8195  0.0291
 4852TIP3   OH214519   1.226   1.085   2.804 -0.3614  0.3155  0.7341
 4852TIP3    H114520   1.319   1.103   2.817 -0.4603  0.8525  0.7452
 4852TIP3    H214521   1.197   1.044   2.885 -0.3827  1.2013  1.1914
 4853TIP3   OH214522   0.958   2.649   0.437  0.5509  0.6490 -0.2960
 4853TIP3    H114523   1.023   2.710   0.403  0.9348  0.5677  0.2647
 4853TIP3    H214524   0.896   2.636   0.365  2.1576 -0.7291 -1.5058
 4854TIP3   OH214525   6.912   2.193   3.362  0.4153  0.1087  0.3941
 4854TIP3    H114526   6.957   2.275   3.383 -0.1224  0.6694 -0.5591
 4854TIP3    H214527   6.980   2.138   3.321  0.3599  0.7908 -0.6507
 4855TIP3   OH214528   3.055   3.488   0.131  0.0909 -0.4094 -0.0639
 4855TIP3    H114529   3.004   3.420   0.086  1.3045 -1.0232 -0.5555
 4855TIP3    H214530   3.146   3.464   0.115  0.5488  0.3505  1.2629
 4856TIP3   OH214531   5.484   3.188   1.394  0.6881 -0.0191  0.6406
 4856TIP3    H114532   5.484   3.235   1.478  0.1658  0.3610  0.4298
 4856TIP3    H214533   5.519   3.102   1.416 -0.4524 -0.3049  1.4801
 4857TIP3   OH214534   3.417   6.295   4.590 -0.6637 -0.1886  0.2758
 4857TIP3    H114535   3.388   6.238   4.519  0.6068  0.2174 -0.6107
 4857TIP3    H214536   3.457   6.370   4.546  0.6300 -0.1718  1.4065
 4858TIP3   OH214537   3.012   5.044   3.895 -0.2195  0.3399  0.4829
 4858TIP3    H114538   3.020   4.994   3.976  0.6138  1.6795  1.2696
 4858TIP3    H214539   2.920   5.037   3.871  0.0723 -2.5432 -0.1119
 4859TIP3   OH214540   3.403   4.599   0.926  0.4327 -0.0337 -0.8779
 4859TIP3    H114541   3.497   4.613   0.937  0.3356  0.1779 -0.2770
 4859TIP3    H214542   3.388   4.510   0.957  0.1680  0.5423  0.7153
 4860TIP3   OH214543   5.778   1.659   0.515 -0.0396  0.5732  0.2635
 4860TIP3    H114544   5.824   1.602   0.454  0.5451  2.0837 -0.7773
 4860TIP3    H214545   5.696   1.681   0.470 -1.1440 -0.8908  1.4606
 4861TIP3   OH214546   3.297   5.455   4.124 -0.0117  0.7313 -0.6986
 4861TIP3    H114547   3.234   5.516   4.161 -0.3366  1.0024 -1.6687
 4861TIP3    H214548   3.254   5.419   4.047  0.6223  0.1396 -0.7915
 4862TIP3   OH214549   4.818   0.667   0.249 -0.4137  0.4278  0.2741
 4862TIP3    H114550   4.736   0.666   0.200 -0.4130  2.4023  0.1480
 4862TIP3    H214551   4.876   0.609   0.199 -1.1082  0.6026 -0.7724
 4863TIP3   OH214552   1.346   4.231   1.278 -0.8034  0.4993 -0.0720
 4863TIP3    H114553   1.344   4.228   1.373 -0.1447  1.5759 -0.0078
 4863TIP3    H214554   1.384   4.316   1.257 -0.6150  0.1388 -1.2979
 4864TIP3   OH214555   2.150   3.156   1.117  0.8861  0.1087 -0.3173
 4864TIP3    H114556   2.241   3.186   1.124  1.7690 -2.1592 -1.0348
 4864TIP3    H214557   2.151   3.092   1.045 -1.6718  1.2734 -1.5098
 4865TIP3   OH214558   5.635   5.896   0.245 -0.0773  0.7234 -0.4707
 4865TIP3    H114559   5.727   5.915   0.225 -0.1948  0.8024 -0.9534
 4865TIP3    H214560   5.627   5.802   0.231 -0.1477  0.7705 -0.7565
 4866TIP3   OH214561   4.684   0.979   0.690 -0.1737 -0.0508 -0.1647
 4866TIP3    H114562   4.706   1.065   0.654  0.2848  0.4025  1.1289
 4866TIP3    H214563   4.589   0.978   0.695 -0.2049  0.1569 -0.6958
 4867TIP3   OH214564   0.870   5.907   2.829 -0.8696  0.1508 -0.2492
 4867TIP3    H114565   0.847   5.814   2.827 -0.3278 -0.0009 -2.6863
 4867TIP3    H214566   0.786   5.953   2.838 -1.3392 -0.5488 -0.9413
 4868TIP3   OH214567   4.477   5.750   1.128 -0.5009  0.4972  0.1706
 4868TIP3    H114568   4.449   5.767   1.218 -2.6243 -2.6759  0.2866
 4868TIP3    H214569   4.547   5.685   1.137  0.1512  1.0906 -0.4803
 4869TIP3   OH214570   3.523   3.496   3.533  0.1079  0.0098 -0.0466
 4869TIP3    H114571   3.584   3.482   3.461  0.8386  2.2274  0.0530
 4869TIP3    H214572   3.533   3.589   3.555  0.0974 -0.6181  3.0944
 4870TIP3   OH214573   6.706   3.273   5.381  0.0378 -0.2907  0.1957
 4870TIP3    H114574   6.669   3.278   5.469 -1.6460  0.9112 -0.5417
 4870TIP3    H214575   6.632   3.286   5.322  1.1272 -1.0298 -1.4305
 4871TIP3   OH214576   1.838   3.348   3.845 -0.0109  0.2612 -0.0019
 4871TIP3    H114577   1.782   3.395   3.784 -2.0894 -2.0418 -0.0288
 4871TIP3    H214578   1.777   3.311   3.909  1.6438 -1.2089  0.7989
 4872TIP3   OH214579   4.504   0.827   0.478 -0.5379 -0.2765  0.2850
 4872TIP3    H114580   4.547   0.747   0.509  0.9832 -0.6310 -2.4599
 4872TIP3    H214581   4.415   0.801   0.457  0.3834 -1.7778 -2.1485
 4873TIP3   OH214582   4.885   6.206   3.259 -0.1659 -0.0165  0.1651
 4873TIP3    H114583   4.892   6.257   3.339 -3.0881 -0.2047  0.6602
 4873TIP3    H214584   4.893   6.270   3.188 -0.7692  0.6706  0.7062
 4874TIP3   OH214585   6.224   3.187   5.354  0.0256 -0.4072 -0.1491
 4874TIP3    H114586   6.204   3.242   5.278 -1.7114  0.5363  0.9235
 4874TIP3    H214587   6.140   3.175   5.398  0.6203 -2.6777  0.5141
 4875TIP3   OH214588   1.263   4.032   1.920 -0.2256 -0.5384  0.0789
 4875TIP3    H114589   1.247   3.999   1.831 -1.8594  0.3529  0.0046
 4875TIP3    H214590   1.241   4.125   1.915  0.3406 -0.3336  1.2553
 4876TIP3   OH214591   7.188   6.094   0.501  0.4684  0.1141 -0.2730
 4876TIP3    H114592   7.127   6.105   0.427  1.2079  0.5874 -0.8310
 4876TIP3    H214593   7.142   6.036   0.562 -0.6242  0.6380 -0.5789
 4877TIP3   OH214594   4.383   3.034   4.549 -0.4357 -0.0113 -0.0413
 4877TIP3    H114595   4.301   3.004   4.587  0.2656 -1.6054  0.2723
 4877TIP3    H214596   4.379   3.007   4.458  1.0986 -3.2173  0.7078
 4878TIP3   OH214597   3.833   5.710   4.637  0.3441  0.2946  0.3172
 4878TIP3    H114598   3.789   5.629   4.661 -0.8270  0.8241  0.0368
 4878TIP3    H214599   3.923   5.684   4.617 -0.6061 -1.3846 -2.3045
 4879TIP3   OH214600   1.923   0.963   3.761  0.0601  0.3668 -0.0912
 4879TIP3    H114601   1.953   1.029   3.698 -1.0339  2.1001  1.1072
 4879TIP3    H214602   1.828   0.970   3.760 -0.0033  0.1101  1.3822
 4880TIP3   OH214603   2.602   4.478   3.166 -0.3756  0.7623 -0.4188
 4880TIP3    H114604   2.657   4.556   3.172 -2.3652  2.4334 -2.2843
 4880TIP3    H214605   2.584   4.468   3.073 -2.0677 -0.5387 -0.0101
 4881TIP3   OH214606   0.208   2.344   4.584  0.2833 -0.2333 -0.1650
 4881TIP3    H114607   0.281   2.325   4.643 -0.2177 -0.4029  0.4054
 4881TIP3    H214608   0.219   2.280   4.513  3.1661  2.3919 -2.4135
 4882TIP3   OH214609   0.024   0.452   0.059  0.2760  0.2975 -0.0489
 4882TIP3    H114610  -0.043   0.520   0.057 -0.1653 -0.0773  1.1075
 4882TIP3    H214611   0.106   0.498   0.040 -0.0341  1.1463  0.5920
 4883TIP3   OH214612   0.517   0.765   2.871  0.1693 -0.2519  0.2351
 4883TIP3    H114613   0.577   0.818   2.819 -0.3481  0.2375  0.1217
 4883TIP3    H214614   0.469   0.712   2.806  1.5186 -1.7844  0.4213
 4884TIP3   OH214615   4.200   0.556   0.490 -1.2751  0.2631 -0.6716
 4884TIP3    H114616   4.217   0.501   0.566 -0.2855  0.9776 -0.3532
 4884TIP3    H214617   4.236   0.507   0.415  0.1785  0.7186 -0.3104
 4885TIP3   OH214618   5.464   1.529   3.315  0.1218  0.1591 -0.3472
 4885TIP3    H114619   5.450   1.444   3.358  0.1752 -1.8902 -3.9449
 4885TIP3    H214620   5.559   1.537   3.310  0.1298  0.7976  0.4932
 4886TIP3   OH214621   1.191   4.798   4.022  0.1171  0.2484 -0.3848
 4886TIP3    H114622   1.212   4.879   3.976  0.2752 -0.3714 -1.4375
 4886TIP3    H214623   1.243   4.801   4.102 -0.9907  1.8606  0.3109
 4887TIP3   OH214624   1.848   2.905   5.586 -0.3609  0.1638  0.3186
 4887TIP3    H114625   1.936   2.866   5.579 -0.3101  0.2809  0.2953
 4887TIP3    H214626   1.815   2.874   5.670 -0.9775 -1.2627 -0.4077
 4888TIP3   OH214627   5.044   3.708   2.937  0.2828 -0.0998 -0.7582
 4888TIP3    H114628   4.983   3.777   2.913 -1.7028 -1.8528 -1.0228
 4888TIP3    H214629   5.086   3.741   3.017 -1.8390  0.7312  0.0948
 4889TIP3   OH214630   3.535   2.095   1.848  0.2537  0.3561  0.2367
 4889TIP3    H114631   3.550   2.172   1.793  0.6233  0.6130  0.6917
 4889TIP3    H214632   3.455   2.056   1.812  0.7053  0.3001 -0.7192
 4890TIP3   OH214633   3.358   6.757   0.924 -0.1465  0.6945 -0.4761
 4890TIP3    H114634   3.340   6.715   0.840 -0.5686  0.1308 -0.1101
 4890TIP3    H214635   3.319   6.699   0.989  1.6954  0.2079  0.2569
 4891TIP3   OH214636   3.300   5.345   2.713  0.4039 -0.4132  0.5048
 4891TIP3    H114637   3.296   5.279   2.643 -0.0980 -0.0008  0.1376
 4891TIP3    H214638   3.336   5.423   2.671 -1.1632  0.2579  0.3600
 4892TIP3   OH214639   1.830   0.427   3.259  0.8388  0.2365  0.1133
 4892TIP3    H114640   1.831   0.334   3.236  2.0543  0.2287  0.1424
 4892TIP3    H214641   1.899   0.436   3.325  0.2625  1.0397  0.6342
 4893TIP3   OH214642   3.072   3.652   4.688  0.3901  0.2261  0.0674
 4893TIP3    H114643   3.157   3.674   4.652  1.1097 -1.0516  0.8882
 4893TIP3    H214644   3.046   3.572   4.642 -0.5901  0.8482 -0.4937
 4894TIP3   OH214645   2.023   3.438   0.928 -0.0891 -0.3369 -0.2337
 4894TIP3    H114646   1.966   3.366   0.956 -0.3993 -0.8737 -2.1131
 4894TIP3    H214647   2.109   3.398   0.921  0.1888  0.0366  0.8358
 4895TIP3   OH214648   2.423   2.092   0.367 -0.5992  0.4769  0.3734
 4895TIP3    H114649   2.369   2.027   0.412 -1.3677 -0.4038 -1.6819
 4895TIP3    H214650   2.513   2.073   0.394 -1.0544  0.2567  1.7898
 4896TIP3   OH214651   1.474   0.056   1.191 -0.3542 -0.1022  0.4553
 4896TIP3    H114652   1.514   0.121   1.248  2.0091 -1.3037  0.3008
 4896TIP3    H214653   1.435  -0.008   1.251  0.0247 -0.1174  0.6899
 4897TIP3   OH214654   2.999   4.049   0.778  0.4490  0.3457  0.0990
 4897TIP3    H114655   3.033   4.028   0.691  0.6823 -0.1841  0.3189
 4897TIP3    H214656   2.972   4.141   0.771  1.1705  0.5363 -0.3125
 4898TIP3   OH214657   2.403   3.624   4.380 -0.1551 -0.1247 -0.2080
 4898TIP3    H114658   2.382   3.717   4.377 -0.1083  0.0571  2.6688
 4898TIP3    H214659   2.349   3.585   4.311 -1.8518  1.7365 -0.0172
 4899TIP3   OH214660   0.095   4.145   1.816 -0.1264 -0.3254  0.3684
 4899TIP3    H114661   0.160   4.127   1.749  1.6590  1.8974  1.3443
 4899TIP3    H214662   0.061   4.232   1.793  1.2675  0.9607  2.7463
 4900TIP3   OH214663   3.894   6.432   3.745 -0.0747 -0.0741 -0.4624
 4900TIP3    H114664   3.886   6.361   3.682  2.5294  1.3934 -2.6143
 4900TIP3    H214665   3.817   6.487   3.730 -0.3055 -0.5950 -1.2133
 4901TIP3   OH214666   2.917   2.952   5.220  0.3307 -0.1704  0.2287
 4901TIP3    H114667   2.943   2.860   5.214 -0.7186 -0.3997 -1.3814
 4901TIP3    H214668   2.982   2.991   5.278  0.3914 -2.0645  1.5321
 4902TIP3   OH214669   5.572   5.135   2.664 -0.3100  0.9221  0.0835
 4902TIP3    H114670   5.485   5.098   2.680 -0.0539 -0.6133 -1.6726
 4902TIP3    H214671   5.574   5.151   2.569  1.7208 -0.2416 -0.1330
 4903TIP3   OH214672   0.665   3.978   1.164  0.4692  0.5618  0.3698
 4903TIP3    H114673   0.596   3.940   1.110 -0.1721  1.3087  0.6389
 4903TIP3    H214674   0.728   3.907   1.178  0.0680  0.0483 -0.3996
 4904TIP3   OH214675   6.194   0.810   0.340  0.3380 -0.2586 -0.4469
 4904TIP3    H114676   6.215   0.717   0.329 -1.0061 -0.5911 -0.3442
 4904TIP3    H214677   6.262   0.842   0.400  0.0504 -1.5016  0.5938
 4905TIP3   OH214678   4.528   6.590   3.507 -0.1367 -0.0378 -0.1078
 4905TIP3    H114679   4.492   6.659   3.452  0.4512 -0.2414 -0.7611
 4905TIP3    H214680   4.503   6.509   3.463  0.8066 -0.1916 -0.3962
 4906TIP3   OH214681   4.307   4.564   0.148  0.0692 -0.1485  0.3587
 4906TIP3    H114682   4.312   4.471   0.125  3.2643  0.3320 -1.4832
 4906TIP3    H214683   4.248   4.601   0.082  0.4108 -0.5760 -0.2005
 4907TIP3   OH214684   1.281   4.731   2.201  0.0877 -0.0778  0.5093
 4907TIP3    H114685   1.305   4.639   2.187 -1.2259 -0.0465 -2.7952
 4907TIP3    H214686   1.358   4.780   2.171 -0.0313 -0.0790  0.2021
 4908TIP3   OH214687   0.149   1.197   0.512 -0.2194 -0.2369  0.0110
 4908TIP3    H114688   0.212   1.175   0.580  0.7834 -0.1433 -0.8633
 4908TIP3    H214689   0.160   1.292   0.500  1.4118 -0.6104 -1.9734
 4909TIP3   OH214690   0.990   1.800   4.478  0.2123  0.4080 -0.2908
 4909TIP3    H114691   1.072   1.750   4.473  0.6559  1.1898 -1.1451
 4909TIP3    H214692   1.012   1.877   4.531 -0.0828  0.4174 -0.1821
 4910TIP3   OH214693   0.473   1.411   1.729 -0.4711 -0.2171 -0.0512
 4910TIP3    H114694   0.530   1.350   1.681  0.2709  1.0601 -0.8692
 4910TIP3    H214695   0.534   1.465   1.780 -0.9880  0.7731 -0.4588
 4911TIP3   OH214696   5.081   5.732   0.677  0.0342 -0.1610  0.2116
 4911TIP3    H114697   5.173   5.751   0.656 -0.4410 -1.9765 -4.6363
 4911TIP3    H214698   5.086   5.666   0.746  2.2892  0.6012  0.8743
 4912TIP3   OH214699   0.354   5.328   2.687  0.0847  0.5067 -0.0069
 4912TIP3    H114700   0.411   5.383   2.634 -0.4040  1.1465  0.1217
 4912TIP3    H214701   0.271   5.375   2.692 -0.3172 -0.1930  0.1893
 4913TIP3   OH214702   0.705   3.905   4.438 -0.3089  0.5583 -0.2960
 4913TIP3    H114703   0.678   3.892   4.348 -0.2304  0.7758 -0.3532
 4913TIP3    H214704   0.783   3.961   4.432 -0.2790  0.5411 -0.0973
 4914TIP3   OH214705   4.549   1.939   5.052 -0.3263  0.0956 -0.1514
 4914TIP3    H114706   4.495   1.863   5.031  1.1129 -1.3643  1.1154
 4914TIP3    H214707   4.618   1.939   4.986  1.5785 -1.7817  1.6698
 4915TIP3   OH214708   1.039   6.142   4.743 -0.3153 -0.1583 -0.4072
 4915TIP3    H114709   0.970   6.171   4.803  0.8359  1.1332  0.3569
 4915TIP3    H214710   1.004   6.161   4.655 -1.4075 -0.6591 -0.0914
 4916TIP3   OH214711   6.447   0.864   3.614  0.5747  0.3236 -0.0968
 4916TIP3    H114712   6.468   0.953   3.642 -1.1993  0.1456  2.1632
 4916TIP3    H214713   6.393   0.830   3.685 -0.2037 -1.9836 -1.6968
 4917TIP3   OH214714   2.564   2.711   1.678 -0.4416 -0.0866  0.5865
 4917TIP3    H114715   2.469   2.707   1.676 -0.4713  0.7265 -0.0070
 4917TIP3    H214716   2.590   2.638   1.734 -1.4506  0.3214  1.6093
 4918TIP3   OH214717   0.799   6.461   3.792  0.4535 -1.1965  0.6922
 4918TIP3    H114718   0.890   6.475   3.766  0.5623 -1.3895  0.9669
 4918TIP3    H214719   0.749   6.479   3.713  0.4665  1.9104  1.2522
 4919TIP3   OH214720   5.534   4.342   0.176  0.2164 -0.0202  0.3080
 4919TIP3    H114721   5.575   4.303   0.253  0.8787 -2.0690 -1.0271
 4919TIP3    H214722   5.604   4.392   0.134  0.3515 -0.4038  0.0704
 4920TIP3   OH214723   0.614   0.396   5.916 -0.1664  0.3278  0.4836
 4920TIP3    H114724   0.679   0.326   5.927 -1.3533 -0.7110  1.1769
 4920TIP3    H214725   0.603   0.404   5.821  0.6444  0.2239  0.3707
 4921TIP3   OH214726   4.057   3.739   4.470  0.2581  0.4610  0.1430
 4921TIP3    H114727   4.131   3.799   4.479  2.0625 -1.8293  1.7140
 4921TIP3    H214728   4.087   3.673   4.408 -1.3222  0.5879 -0.8138
 4922TIP3   OH214729   7.141   1.328   4.307 -0.3021 -0.0259  0.1826
 4922TIP3    H114730   7.130   1.413   4.350  0.5354 -0.0870  0.5413
 4922TIP3    H214731   7.236   1.318   4.297 -0.4193 -0.6645 -0.3773
 4923TIP3   OH214732   3.558   2.222   2.580 -0.5305  0.0232 -0.3065
 4923TIP3    H114733   3.487   2.286   2.584  1.7310  2.6859  0.3353
 4923TIP3    H214734   3.622   2.261   2.521  1.5934 -0.8929  1.2615
 4924TIP3   OH214735   3.077   4.130   2.035  0.3483 -0.4925 -0.6871
 4924TIP3    H114736   3.111   4.093   1.953  1.0006 -0.3845 -0.4735
 4924TIP3    H214737   3.097   4.224   2.028  0.8818 -0.5649 -0.1836
 4925TIP3   OH214738   5.920   2.592   1.751  0.7734 -0.1629 -0.2846
 4925TIP3    H114739   5.940   2.509   1.794  1.3725  0.1028 -0.0400
 4925TIP3    H214740   5.824   2.597   1.752  0.7285 -0.8794 -0.3621
 4926TIP3   OH214741   1.373   5.326   1.358 -0.4455 -0.0742 -0.1358
 4926TIP3    H114742   1.431   5.348   1.285 -1.3850  0.8770 -0.6203
 4926TIP3    H214743   1.394   5.234   1.378  0.4758 -0.0679 -0.9864
 4927TIP3   OH214744   3.106   0.399   4.571  0.3896 -0.4966  0.0950
 4927TIP3    H114745   3.070   0.425   4.486  2.2517  0.4865 -0.4417
 4927TIP3    H214746   3.075   0.467   4.631  1.0732  0.1804 -0.3026
 4928TIP3   OH214747   0.928   2.614   3.063 -0.1051 -0.3255 -0.2512
 4928TIP3    H114748   0.875   2.544   3.026 -0.1846 -0.0601 -0.6476
 4928TIP3    H214749   0.893   2.694   3.023 -0.5611  0.0253  0.8191
 4929TIP3   OH214750   5.003   3.902   1.281 -0.2316 -0.4246 -0.0425
 4929TIP3    H114751   4.999   3.996   1.268  0.9773 -0.3760 -0.1529
 4929TIP3    H214752   4.957   3.886   1.363 -0.5996  0.2330 -0.1197
 4930TIP3   OH214753   0.281   1.778   1.710  0.2481 -0.4658  0.0027
 4930TIP3    H114754   0.363   1.808   1.670  1.0976 -1.1978  1.1224
 4930TIP3    H214755   0.283   1.813   1.799  0.1288 -1.8031  0.5585
 4931TIP3   OH214756   1.131   3.271   3.168 -0.0938 -0.2709  0.3161
 4931TIP3    H114757   1.150   3.178   3.177 -1.1521 -0.7238 -1.8108
 4931TIP3    H214758   1.062   3.288   3.232 -2.9427 -1.9629 -2.0967
 4932TIP3   OH214759   3.519   4.488   4.839  0.1632 -0.2387  0.0112
 4932TIP3    H114760   3.472   4.460   4.760 -0.9883  0.0959  0.5588
 4932TIP3    H214761   3.475   4.443   4.910 -0.0903  0.9870  0.6576
 4933TIP3   OH214762   5.595   0.238   5.007  0.3056 -0.5785 -0.3957
 4933TIP3    H114763   5.665   0.303   5.009 -0.7833  0.6036  0.7981
 4933TIP3    H214764   5.610   0.189   4.926  0.0572  2.3792 -2.3507
 4934TIP3   OH214765   5.556   6.177   3.041  0.1988 -0.0691  0.8326
 4934TIP3    H114766   5.600   6.241   3.098  1.4462  1.8956 -2.1054
 4934TIP3    H214767   5.627   6.135   2.992 -0.8893 -0.7437 -0.2399
 4935TIP3   OH214768   2.937   4.544   1.778  0.2814 -0.2890  0.6352
 4935TIP3    H114769   2.977   4.578   1.859  1.9733 -1.1568  0.2209
 4935TIP3    H214770   2.999   4.569   1.709 -0.8684 -0.0344 -0.3392
 4936TIP3   OH214771   7.135   3.192   5.044 -0.1544  0.1229 -0.0064
 4936TIP3    H114772   7.171   3.108   5.017 -0.8938 -0.2588  0.1783
 4936TIP3    H214773   7.188   3.217   5.120  2.0156  1.2584 -1.7823
 4937TIP3   OH214774   0.566   5.739   2.019 -0.6380  0.0049 -0.0263
 4937TIP3    H114775   0.637   5.803   2.019 -0.9166  0.4599 -3.2532
 4937TIP3    H214776   0.486   5.792   2.018 -1.0373 -0.5021  1.4649
 4938TIP3   OH214777   3.606   1.687   2.485 -0.7520  0.0591  0.3966
 4938TIP3    H114778   3.648   1.759   2.531 -0.6949  0.7199 -0.6658
 4938TIP3    H214779   3.514   1.710   2.483 -0.5477  0.8900 -1.2639
 4939TIP3   OH214780   1.595   6.793   0.237 -0.1837 -0.1352 -0.0805
 4939TIP3    H114781   1.515   6.841   0.259  0.8524  1.2135  0.9035
 4939TIP3    H214782   1.564   6.709   0.202 -2.0611  1.0874 -1.5618
 4940TIP3   OH214783   0.043   4.614   5.634 -0.2337 -0.7344  0.8535
 4940TIP3    H114784   0.129   4.631   5.595  0.1449  0.6642  2.1928
 4940TIP3    H214785  -0.019   4.640   5.567  0.3941  1.9105  1.1896
 4941TIP3   OH214786   2.509   0.935   2.362  0.1953  0.5472 -0.3742
 4941TIP3    H114787   2.559   0.864   2.402  1.1527  1.7012  0.5496
 4941TIP3    H214788   2.436   0.891   2.318  0.4779 -0.9601  0.5861
 4942TIP3   OH214789   6.322   0.511   5.142  0.2822  0.3235 -0.0099
 4942TIP3    H114790   6.253   0.566   5.180 -1.1339 -1.1905 -0.2884
 4942TIP3    H214791   6.371   0.570   5.086 -0.4867  1.5561  0.5661
 4943TIP3   OH214792   4.435   5.944   0.401  0.6130 -0.1407 -0.0603
 4943TIP3    H114793   4.435   5.864   0.453  0.0631  0.6268  1.1833
 4943TIP3    H214794   4.513   5.937   0.346  0.5337 -1.5457 -0.0253
 4944TIP3   OH214795   1.112   6.026   2.292 -0.2272  0.8355  0.2002
 4944TIP3    H114796   1.128   6.083   2.367 -1.5433  0.3673  0.8753
 4944TIP3    H214797   1.020   6.003   2.299 -0.0244 -0.3718 -0.7605
 4945TIP3   OH214798   4.442   1.946   2.710 -0.1866  0.4352 -0.2785
 4945TIP3    H114799   4.506   1.908   2.770  1.4960  0.4447 -1.9795
 4945TIP3    H214800   4.360   1.946   2.759  0.9835 -0.1100  1.7740
 4946TIP3   OH214801   3.517   0.665   3.020 -0.6809 -0.1537 -0.3429
 4946TIP3    H114802   3.523   0.709   2.935 -3.3578 -0.7750 -0.9461
 4946TIP3    H214803   3.441   0.705   3.063  1.1817  0.8710  2.3003
 4947TIP3   OH214804   2.484   6.531   1.480  0.1600  0.1260  0.0211
 4947TIP3    H114805   2.448   6.620   1.481  0.7611  0.3767  1.4773
 4947TIP3    H214806   2.437   6.487   1.409  0.1623  1.7253 -1.0298
 4948TIP3   OH214807   4.949   5.652   4.749 -0.3101 -0.2991 -0.3998
 4948TIP3    H114808   4.984   5.593   4.816 -0.3400 -0.1038 -0.2098
 4948TIP3    H214809   4.862   5.676   4.782  0.0084  0.4643 -0.0880
 4949TIP3   OH214810   4.582   3.484   2.154 -0.2267  0.2617 -0.5196
 4949TIP3    H114811   4.581   3.460   2.061  0.3196  1.2219 -0.7823
 4949TIP3    H214812   4.674   3.498   2.174 -0.2948 -0.3975  0.2985
 4950TIP3   OH214813   3.243   1.056   2.487 -0.2469 -0.1953 -0.1585
 4950TIP3    H114814   3.158   1.042   2.444  0.3863 -1.3193 -1.0975
 4950TIP3    H214815   3.306   1.058   2.416  0.4843  1.1559  0.4916
 4951TIP3   OH214816   4.777   4.276   3.120 -0.1106 -0.2803  0.2801
 4951TIP3    H114817   4.683   4.262   3.131 -0.2440  0.3318 -0.0467
 4951TIP3    H214818   4.785   4.324   3.038  0.4967 -0.3956  0.2642
 4952TIP3   OH214819   6.699   2.480   4.072  0.3540 -0.3341 -0.0409
 4952TIP3    H114820   6.658   2.394   4.067  0.3412 -0.3236 -0.1103
 4952TIP3    H214821   6.736   2.484   4.160 -1.3718  0.3796  0.7047
 4953TIP3   OH214822   3.747   0.997   5.263  0.0444  0.3859 -0.3620
 4953TIP3    H114823   3.804   1.061   5.222  2.0753 -1.6292 -0.8463
 4953TIP3    H214824   3.682   0.975   5.196  0.5321  0.5246 -0.8870
 4954TIP3   OH214825   4.783   4.750   3.943  0.2094 -0.3344 -0.0172
 4954TIP3    H114826   4.703   4.767   3.992  0.0043 -0.3952 -0.3276
 4954TIP3    H214827   4.841   4.707   4.006  0.4074  0.6948  0.5142
 4955TIP3   OH214828   4.915   6.759   3.668 -0.1841 -0.0471  0.0258
 4955TIP3    H114829   4.899   6.810   3.589  2.4979 -0.1899 -0.7211
 4955TIP3    H214830   4.877   6.673   3.651 -1.3448  0.5121 -0.2762
 4956TIP3   OH214831   1.711   6.708   3.986  0.2800 -0.3497  0.5556
 4956TIP3    H114832   1.748   6.670   4.065  1.3457 -0.1722  0.1563
 4956TIP3    H214833   1.730   6.802   3.993  1.9595 -0.5471 -0.6967
 4957TIP3   OH214834   4.402   4.220   2.640 -0.1427 -0.4205  0.1021
 4957TIP3    H114835   4.432   4.149   2.697  0.7858  0.8922  1.3209
 4957TIP3    H214836   4.467   4.223   2.569  1.3134  0.8187  1.4230
 4958TIP3   OH214837   1.069   2.046   3.988  0.2132  0.1571 -0.2960
 4958TIP3    H114838   1.124   2.043   4.067  1.4382 -0.2052 -1.1376
 4958TIP3    H214839   1.107   1.980   3.930 -1.2827 -0.2778 -0.8132
 4959TIP3   OH214840   3.697   5.646   1.793 -0.3524  0.2317 -0.2616
 4959TIP3    H114841   3.666   5.592   1.720  0.5664 -0.3249 -0.2657
 4959TIP3    H214842   3.787   5.668   1.769 -0.4559  1.0927  0.1323
 4960TIP3   OH214843   6.944   2.359   2.920 -0.2984 -0.1000  0.5994
 4960TIP3    H114844   6.937   2.442   2.967  1.5309  0.7800 -0.5596
 4960TIP3    H214845   6.855   2.324   2.920 -1.0479  1.6727  1.4646
 4961TIP3   OH214846   3.707   0.334   4.944 -0.0796 -0.0203 -0.3714
 4961TIP3    H114847   3.707   0.376   4.858  1.2197  2.0241  0.5455
 4961TIP3    H214848   3.796   0.302   4.955 -0.2969 -0.4613  0.1471
 4962TIP3   OH214849   3.395   1.052   1.621  0.4594  0.2093 -0.4547
 4962TIP3    H114850   3.319   1.053   1.680  2.4872  0.6141  2.3537
 4962TIP3    H214851   3.421   0.960   1.616  1.4845  0.3793  1.0574
 4963TIP3   OH214852   2.034   2.097   0.423 -0.5596 -0.7229 -0.4905
 4963TIP3    H114853   1.978   2.160   0.378 -0.8273  0.9820  2.0332
 4963TIP3    H214854   1.975   2.049   0.481  0.1660 -0.6953  0.2996
 4964TIP3   OH214855   6.998   2.782   3.759 -0.0951 -0.6354  0.2349
 4964TIP3    H114856   7.005   2.701   3.810  0.4038 -0.5227  0.3502
 4964TIP3    H214857   6.971   2.753   3.672  0.0949 -0.9285  0.2713
 4965TIP3   OH214858   1.071   1.489   4.532  0.3760 -0.7920 -0.3961
 4965TIP3    H114859   1.146   1.514   4.478  1.3599 -1.5356  0.5856
 4965TIP3    H214860   1.068   1.555   4.601 -0.3483 -0.3432 -0.8393
 4966TIP3   OH214861   0.093   2.105   2.594 -0.1860  0.2093 -0.1557
 4966TIP3    H114862   0.035   2.139   2.663 -0.2079  0.1905 -0.1647
 4966TIP3    H214863   0.050   2.024   2.566 -0.0682  0.1088 -0.0455
 4967TIP3   OH214864   4.057   1.058   0.653 -0.2318 -0.0551 -0.0798
 4967TIP3    H114865   4.105   0.984   0.616  0.6635  0.4102  0.1464
 4967TIP3    H214866   4.124   1.117   0.686 -0.9524  0.7080  0.0501
 4968TIP3   OH214867   6.176   4.703   4.806  0.3029  0.4727  0.4663
 4968TIP3    H114868   6.143   4.621   4.842  1.8324  0.1716  1.2299
 4968TIP3    H214869   6.261   4.716   4.847  1.4043  0.9629 -1.8156
 4969TIP3   OH214870   6.127   4.312   1.606 -0.0041  0.0138  0.8343
 4969TIP3    H114871   6.031   4.308   1.601  0.0528 -0.5996 -2.2992
 4969TIP3    H214872   6.148   4.404   1.592 -0.1449 -0.0998 -0.2048
 4970TIP3   OH214873   5.866   5.606   3.002  0.1609 -0.0356 -0.5760
 4970TIP3    H114874   5.934   5.663   2.966  1.4556 -0.5996  0.8666
 4970TIP3    H214875   5.787   5.661   3.005  1.9009  2.6536  3.0423
 4971TIP3   OH214876   6.629   6.789   5.293 -0.0618 -0.7217 -0.4352
 4971TIP3    H114877   6.602   6.765   5.205  0.7259 -1.2555 -0.5393
 4971TIP3    H214878   6.567   6.744   5.351 -0.1249 -0.9704 -0.6954
 4972TIP3   OH214879   3.783   5.260   2.099  0.6027  0.7979  0.0646
 4972TIP3    H114880   3.752   5.255   2.009  0.9370  1.6654 -0.1114
 4972TIP3    H214881   3.858   5.201   2.102 -0.2406 -0.2977  0.1488
 4973TIP3   OH214882   0.546   0.106   4.123  0.3044  0.3753 -0.1361
 4973TIP3    H114883   0.562   0.090   4.030 -0.4637 -2.1387  0.0817
 4973TIP3    H214884   0.458   0.143   4.127  0.5837  1.0827 -0.4341
 4974TIP3   OH214885   6.646   3.099   4.282  0.4821 -0.1508 -0.1717
 4974TIP3    H114886   6.584   3.156   4.236  0.7239 -0.4683 -0.9084
 4974TIP3    H214887   6.719   3.156   4.303 -0.5692  0.5458  1.8473
 4975TIP3   OH214888   1.065   0.010   1.989  1.3685  0.0064  0.2845
 4975TIP3    H114889   1.018   0.061   1.922 -0.3423  0.9865  2.1326
 4975TIP3    H214890   1.139   0.064   2.013  1.5440  0.0060 -0.2303
 4976TIP3   OH214891   3.317   5.134   4.708  0.6347  0.1951  0.4414
 4976TIP3    H114892   3.348   5.148   4.798  0.1618  0.1584  0.6133
 4976TIP3    H214893   3.245   5.197   4.698 -0.7179 -1.2563  0.8015
 4977TIP3   OH214894   4.362   3.023   4.920 -0.6600 -0.0698 -0.9995
 4977TIP3    H114895   4.317   3.106   4.937 -0.3732 -0.3228  1.2643
 4977TIP3    H214896   4.444   3.048   4.878 -0.2941  0.8799  0.2162
 4978TIP3   OH214897   5.636   6.038   3.934  0.3170  0.1674 -0.3787
 4978TIP3    H114898   5.571   6.104   3.959 -0.5971 -1.0071  0.4649
 4978TIP3    H214899   5.690   6.082   3.868  0.7304  2.2855  1.2557
 4979TIP3   OH214900   4.942   6.080   1.719  0.4434  0.0054 -0.2734
 4979TIP3    H114901   4.910   6.164   1.752  0.2567  0.3139 -1.1981
 4979TIP3    H214902   5.026   6.068   1.762  0.7606  0.9757 -0.5877
 4980TIP3   OH214903   4.167   4.549   4.420  0.3231  0.0883 -0.2100
 4980TIP3    H114904   4.150   4.518   4.509 -0.1058  1.1648  0.1035
 4980TIP3    H214905   4.228   4.622   4.432  2.3200 -1.3737 -1.0219
 4981TIP3   OH214906   3.162   1.360   5.473  0.6166 -0.3352  0.0347
 4981TIP3    H114907   3.092   1.405   5.426  2.6249 -0.4163 -3.4258
 4981TIP3    H214908   3.142   1.267   5.464 -0.7376 -0.3463  2.4710
 4982TIP3   OH214909   2.608   0.916   0.010 -0.1248  0.2936  0.1832
 4982TIP3    H114910   2.596   0.821   0.012 -3.4268  0.5808  0.1628
 4982TIP3    H214911   2.609   0.941   0.102 -1.3649  0.3788  0.1909
 4983TIP3   OH214912   3.878   5.370   3.608  0.3853 -0.1876 -0.1081
 4983TIP3    H114913   3.907   5.301   3.667  1.2223  0.0538 -0.2255
 4983TIP3    H214914   3.869   5.327   3.523  0.0422 -0.3377 -0.0003
 4984TIP3   OH214915   4.712   1.875   0.171 -0.1648  0.0698 -0.1923
 4984TIP3    H114916   4.718   1.783   0.197 -0.6179 -0.0808 -0.5979
 4984TIP3    H214917   4.628   1.905   0.208 -0.3325  0.1340 -0.6222
 4985TIP3   OH214918   3.852   0.845   3.636 -0.2545  0.4714  0.0358
 4985TIP3    H114919   3.808   0.849   3.551 -1.1351 -0.5327  0.4233
 4985TIP3    H214920   3.786   0.808   3.696  1.5969 -2.7869  0.2927
 4986TIP3   OH214921   7.114   5.592   3.393 -0.2161  0.3109  0.0200
 4986TIP3    H114922   7.184   5.535   3.361 -0.5841 -1.4337  2.0698
 4986TIP3    H214923   7.158   5.655   3.450 -0.1242  0.4013 -0.1485
 4987TIP3   OH214924   3.045   3.912   1.221 -0.7573 -0.5504  0.3593
 4987TIP3    H114925   3.097   3.962   1.284 -1.1960  0.9056 -0.3880
 4987TIP3    H214926   2.957   3.949   1.228 -0.6940  0.0425 -1.4621
 4988TIP3   OH214927   2.493   2.353   1.837 -0.2032 -0.2529 -0.1586
 4988TIP3    H114928   2.483   2.433   1.887 -0.5193  0.8969 -1.9769
 4988TIP3    H214929   2.430   2.292   1.876  0.7279  0.0023  1.8776
 4989TIP3   OH214930   6.510   1.166   1.460 -0.6770  0.0137  0.4536
 4989TIP3    H114931   6.548   1.079   1.461 -2.9373 -1.0724 -0.7672
 4989TIP3    H214932   6.462   1.170   1.377 -0.5500  2.4732  0.4294
 4990TIP3   OH214933   5.466   2.630   0.723 -0.0851  0.8485 -0.0253
 4990TIP3    H114934   5.406   2.609   0.652 -1.4426  1.7803  0.7940
 4990TIP3    H214935   5.417   2.691   0.778  1.4644  1.2779  0.9286
 4991TIP3   OH214936   2.857   5.054   1.193 -0.1445  0.1505 -1.0389
 4991TIP3    H114937   2.782   5.028   1.141 -0.9401 -0.4641  0.3481
 4991TIP3    H214938   2.843   5.012   1.278  1.5684  0.3446 -0.6208
 4992TIP3   OH214939   5.289   3.595   5.826 -0.5338 -0.0993 -0.5105
 4992TIP3    H114940   5.368   3.581   5.774 -1.1771 -0.0461 -1.5362
 4992TIP3    H214941   5.299   3.538   5.902  0.4706 -0.1129 -0.6439
 4993TIP3   OH214942   6.870   6.063   5.245 -0.1747 -0.7213  0.3747
 4993TIP3    H114943   6.907   6.150   5.224  0.5871 -1.2094 -0.3894
 4993TIP3    H214944   6.807   6.047   5.174 -1.1255 -0.3364  1.1127
 4994TIP3   OH214945   3.951   4.353   3.461  0.1099  0.1041 -0.0530
 4994TIP3    H114946   3.978   4.406   3.386  0.3835  0.2898  0.1742
 4994TIP3    H214947   3.861   4.327   3.442  0.1818  0.1446 -0.4481
 4995TIP3   OH214948   0.495   3.272   2.264  0.3378 -0.3850 -0.4156
 4995TIP3    H114949   0.573   3.290   2.318  1.9578 -2.9464 -1.7170
 4995TIP3    H214950   0.508   3.326   2.186  1.2011 -1.3090 -0.9295
 4996TIP3   OH214951   5.204   4.616   5.408 -0.4884  0.6087  0.3555
 4996TIP3    H114952   5.261   4.689   5.434 -0.8108  1.2312 -0.6309
 4996TIP3    H214953   5.257   4.538   5.424 -0.5829  0.9304  2.6510
 4997TIP3   OH214954   5.047   0.187   0.136  0.4782  0.4341 -0.5183
 4997TIP3    H114955   5.097   0.173   0.055  2.0307 -0.2865  0.5101
 4997TIP3    H214956   5.005   0.103   0.153  0.2033  0.5673 -0.5329
 4998TIP3   OH214957   1.972   2.710   2.860  0.6484  0.6010 -0.0302
 4998TIP3    H114958   1.919   2.779   2.900 -1.5335 -0.7035 -0.5004
 4998TIP3    H214959   1.962   2.634   2.918  1.4408  0.0964 -0.5207
 4999TIP3   OH214960   5.890   5.566   1.151 -0.0247  0.3179  0.0962
 4999TIP3    H114961   5.808   5.612   1.132 -0.6792 -0.5640  0.7491
 4999TIP3    H214962   5.912   5.521   1.069  1.8315  3.4642 -1.3547
 5000TIP3   OH214963   5.015   2.388   1.701 -0.0619 -0.1519  0.4329
 5000TIP3    H114964   4.980   2.467   1.660  0.0616 -1.3530 -2.2745
 5000TIP3    H214965   5.099   2.415   1.738 -0.0787  1.0312 -0.3248
 5001TIP3   OH214966   5.582   1.194   1.216 -0.2830  0.1744 -0.4695
 5001TIP3    H114967   5.544   1.278   1.239 -1.7957 -0.4127 -0.6736
 5001TIP3    H214968   5.513   1.149   1.166  0.3279 -1.3312 -0.0325
 5002TIP3   OH214969   3.990   4.035   1.231  0.1360 -0.0302  0.4332
 5002TIP3    H114970   3.946   4.009   1.312 -1.5276 -1.7664 -0.9234
 5002TIP3    H214971   3.928   4.093   1.187  0.2154 -0.5398 -0.3866
 5003TIP3   OH214972   6.118   0.555   2.968 -0.5774  0.3863  0.3735
 5003TIP3    H114973   6.043   0.594   2.924 -0.9585  1.4388  1.8903
 5003TIP3    H214974   6.125   0.602   3.051  0.1737 -1.4609  1.4156
 5004TIP3   OH214975   5.252   3.092   2.046 -0.0060 -0.1178  0.0922
 5004TIP3    H114976   5.198   3.168   2.068  0.3771 -0.4070  2.2900
 5004TIP3    H214977   5.190   3.029   2.008 -0.6668  0.6029 -0.0460
 5005TIP3   OH214978   3.237   1.097   4.709  0.9546 -0.2457  0.5798
 5005TIP3    H114979   3.248   1.136   4.622  0.0866 -0.5782  0.3098
 5005TIP3    H214980   3.151   1.056   4.706  1.7781 -2.0775  0.8979
 5006TIP3   OH214981   5.359   0.238   0.672 -0.2335  0.1454 -0.6555
 5006TIP3    H114982   5.388   0.311   0.617 -0.4549  1.8015  1.3164
 5006TIP3    H214983   5.439   0.190   0.693 -0.0559 -0.0719 -1.7567
 5007TIP3   OH214984   2.472   5.736   3.100  0.1650 -0.1975 -0.0424
 5007TIP3    H114985   2.561   5.730   3.065  0.2378  1.9048 -0.3642
 5007TIP3    H214986   2.459   5.830   3.115 -1.0800 -0.6764  2.4296
 5008TIP3   OH214987   2.636   1.718   0.125 -0.2027  0.4583 -0.5136
 5008TIP3    H114988   2.600   1.664   0.195 -0.9100  0.8902 -0.5405
 5008TIP3    H214989   2.606   1.806   0.145  3.3483  1.4983  1.2398
 5009TIP3   OH214990   2.035   4.035   1.623 -0.3283 -0.1187 -0.3761
 5009TIP3    H114991   2.023   3.978   1.699 -0.1448 -1.1598 -1.1107
 5009TIP3    H214992   2.062   4.119   1.660 -0.7831 -0.4471  0.7357
 5010TIP3   OH214993   3.053   6.264   1.033 -0.1940  0.0894  0.5609
 5010TIP3    H114994   3.083   6.194   1.091 -1.1110 -0.4122  0.4522
 5010TIP3    H214995   3.033   6.219   0.951 -0.7426  0.4818  0.4760
 5011TIP3   OH214996   4.371   2.882   3.665 -0.6128  0.1255 -0.5952
 5011TIP3    H114997   4.458   2.842   3.665 -0.4216  0.4693  0.8578
 5011TIP3    H214998   4.388   2.976   3.666 -0.8590  0.2465  2.3650
 5012TIP3   OH214999   3.015   1.200   3.588  0.7228  0.3729 -0.3984
 5012TIP3    H115000   3.100   1.158   3.601 -0.4376 -1.5173  1.5724
 5012TIP3    H215001   3.006   1.260   3.661  0.1413  0.1670 -0.2950
 5013TIP3   OH215002   1.562   1.332   3.054  0.1447 -0.7937  0.5198
 5013TIP3    H115003   1.621   1.408   3.047 -0.8210  0.0540  1.2586
 5013TIP3    H215004   1.615   1.265   3.097  0.6559 -0.1305  0.9498
 5014TIP3   OH215005   6.232   0.481   3.406  0.1338 -0.3099  0.5884
 5014TIP3    H115006   6.232   0.452   3.497 -1.3742  0.2870  0.8181
 5014TIP3    H215007   6.325   0.491   3.384  0.5334 -0.6493  1.9918
 5015TIP3   OH215008   0.816   3.664   0.508  0.3074  0.0410 -0.7673
 5015TIP3    H115009   0.762   3.727   0.460 -0.7509  0.8200  1.3037
 5015TIP3    H215010   0.754   3.595   0.535  0.8507 -0.3437 -0.4828
 5016TIP3   OH215011   3.319   6.118   4.115 -0.5039 -0.4212  0.1955
 5016TIP3    H115012   3.410   6.127   4.085 -0.5918  1.1487  0.3228
 5016TIP3    H215013   3.266   6.124   4.036 -0.5061 -1.5965  0.0908
 5017TIP3   OH215014   2.624   6.313   3.952  1.0441  0.1677  0.3886
 5017TIP3    H115015   2.707   6.266   3.943  0.5387 -0.8562  1.0009
 5017TIP3    H215016   2.616   6.331   4.045  1.0762  1.2307  0.2077
 5018TIP3   OH215017   2.005   2.176   4.003  0.1561 -0.8976 -0.2987
 5018TIP3    H115018   1.975   2.256   3.960 -1.5847 -0.4640  1.5409
 5018TIP3    H215019   1.929   2.117   3.998  0.1707 -1.1077  1.4061
 5019TIP3   OH215020   2.976   6.437   1.773  0.4345  0.3703  0.2587
 5019TIP3    H115021   2.960   6.368   1.837  0.0998 -0.4400 -0.6632
 5019TIP3    H215022   2.889   6.473   1.754  0.2723 -0.6266 -1.0461
 5020TIP3   OH215023   1.193   2.603   4.595 -0.1456 -0.3286  0.1739
 5020TIP3    H115024   1.218   2.540   4.527 -0.7601 -0.6002  0.1905
 5020TIP3    H215025   1.165   2.681   4.547  1.1252  0.1354  0.1655
 5021TIP3   OH215026   3.871   2.161   3.026  0.5366 -0.5249  0.6246
 5021TIP3    H115027   3.951   2.157   3.080  0.1617  1.3079  1.3950
 5021TIP3    H215028   3.829   2.243   3.052  0.2247  0.3577 -2.3234
 5022TIP3   OH215029   6.612   5.556   1.355  0.0711  0.0538  0.2792
 5022TIP3    H115030   6.567   5.472   1.362  0.3390 -0.1090  0.0647
 5022TIP3    H215031   6.704   5.533   1.340  0.1392  0.3821  0.1807
 5023TIP3   OH215032   4.797   2.787   2.364  0.1601  0.0802  0.0378
 5023TIP3    H115033   4.822   2.876   2.340  0.5580 -0.0639 -0.0886
 5023TIP3    H215034   4.701   2.787   2.359  0.1203  0.6733  0.6443
 5024TIP3   OH215035   3.362   4.448   3.325 -0.1171  0.5538  0.6122
 5024TIP3    H115036   3.406   4.492   3.252  2.4890  0.2624  1.8876
 5024TIP3    H215037   3.370   4.354   3.304  0.8394  0.4605  1.3472
 5025TIP3   OH215038   6.129   1.882   1.998  0.5299 -0.6060  0.0015
 5025TIP3    H115039   6.164   1.824   1.931  2.8357 -2.0383  2.2635
 5025TIP3    H215040   6.061   1.830   2.042  0.4073 -0.4190  0.0350
 5026TIP3   OH215041   1.656   4.888   3.553 -0.7915  0.1689 -0.0987
 5026TIP3    H115042   1.715   4.963   3.561 -0.0364 -0.5319  1.1844
 5026TIP3    H215043   1.705   4.815   3.591 -1.0622 -1.2501 -2.2726
 5027TIP3   OH215044   2.344   4.618   3.600 -0.4992  0.1202 -0.1549
 5027TIP3    H115045   2.314   4.540   3.647 -1.7954  1.9805  2.3665
 5027TIP3    H215046   2.270   4.679   3.604  0.7463  1.8156 -1.2875
 5028TIP3   OH215047   2.733   5.910   5.432 -0.1674  0.3047  0.2338
 5028TIP3    H115048   2.797   5.913   5.503  0.0260 -0.8854  0.1230
 5028TIP3    H215049   2.717   6.002   5.412  0.3085  0.6551  1.3330
 5029TIP3   OH215050   5.435   5.185   4.252  0.1443 -0.2523 -0.2421
 5029TIP3    H115051   5.432   5.123   4.180 -2.3653 -0.6677  0.1145
 5029TIP3    H215052   5.412   5.133   4.329  3.4903  0.0055  1.1152
 5030TIP3   OH215053   2.559   3.829   2.777  0.2285  0.0819 -0.0632
 5030TIP3    H115054   2.471   3.806   2.747  0.3552 -0.3359 -0.1343
 5030TIP3    H215055   2.557   3.924   2.788 -0.4750 -0.0064  0.7207
 5031TIP3   OH215056   4.894   4.033   3.112 -0.8123 -0.1336  0.0571
 5031TIP3    H115057   4.852   4.119   3.112  0.0508  0.3001  0.8167
 5031TIP3    H215058   4.821   3.971   3.116 -1.4108  0.5732  0.3384
 5032TIP3   OH215059   6.289   2.426   3.517 -0.1348 -0.6140 -0.4930
 5032TIP3    H115060   6.304   2.354   3.578  1.5398  0.3105  0.2603
 5032TIP3    H215061   6.268   2.501   3.573  1.5319  0.2772 -1.0111
 5033TIP3   OH215062   4.706   1.238   2.357 -0.0485  0.0282 -0.1677
 5033TIP3    H115063   4.620   1.204   2.380  0.3003  1.2218  3.5728
 5033TIP3    H215064   4.768   1.172   2.387  0.3949  0.6311  0.2931
 5034TIP3   OH215065   2.932   5.654   4.673 -0.0553 -0.3952 -0.3772
 5034TIP3    H115066   3.016   5.649   4.719 -0.5057  1.9327  0.8620
 5034TIP3    H215067   2.903   5.744   4.687 -3.4306 -1.4860  0.4460
 5035TIP3   OH215068   2.123   1.018   1.392  0.3739  0.1996  0.5185
 5035TIP3    H115069   2.194   0.960   1.420  1.2308 -1.0014 -3.5940
 5035TIP3    H215070   2.162   1.074   1.325 -2.0369  1.0697 -0.2707
 5036TIP3   OH215071   6.650   5.231   0.445 -0.7124 -0.3159 -0.7081
 5036TIP3    H115072   6.586   5.283   0.396 -1.7383 -0.2532  0.6334
 5036TIP3    H215073   6.598   5.165   0.491 -0.1473  0.9249  1.9566
 5037TIP3   OH215074   2.526   6.288   4.233  0.1793 -0.2616  0.3131
 5037TIP3    H115075   2.566   6.226   4.295 -1.8505 -0.9400  1.0435
 5037TIP3    H215076   2.470   6.343   4.288  0.5109  1.0019 -0.5930
 5038TIP3   OH215077   6.635   6.100   2.443  0.2992  0.9023  0.2432
 5038TIP3    H115078   6.596   6.012   2.445 -1.1232  1.4960 -0.0444
 5038TIP3    H215079   6.729   6.085   2.451  0.3676 -0.8453 -2.5549
 5039TIP3   OH215080   2.074   1.997   1.344 -0.4589 -0.6277  0.1169
 5039TIP3    H115081   2.024   1.917   1.358 -0.5986 -0.4590  0.6345
 5039TIP3    H215082   2.164   1.968   1.334 -0.4215 -0.8181  0.8929
 5040TIP3   OH215083   0.970   2.963   3.805 -0.1966 -0.0387  0.7371
 5040TIP3    H115084   1.018   3.034   3.848  0.6433 -0.4620  0.5196
 5040TIP3    H215085   0.884   3.000   3.788  0.2625  0.9796  0.5127
 5041TIP3   OH215086   0.205   2.954   5.738 -0.0738 -0.0394 -0.9915
 5041TIP3    H115087   0.239   2.925   5.823 -1.2312  0.9415 -0.1576
 5041TIP3    H215088   0.241   2.892   5.675  0.9066 -0.7225  0.1998
 5042TIP3   OH215089   5.840   3.023   1.647  1.0014 -0.0652 -0.0989
 5042TIP3    H115090   5.747   3.016   1.625  0.5861 -0.7826  1.7867
 5042TIP3    H215091   5.860   3.116   1.631 -0.1804  0.2373  0.0292
 5043TIP3   OH215092   1.863   0.363   2.820  0.3983 -0.2761 -0.4165
 5043TIP3    H115093   1.876   0.417   2.898  1.8905 -3.1601  1.5255
 5043TIP3    H215094   1.768   0.353   2.814  0.1968  0.9555  0.2990
 5044TIP3   OH215095   6.693   2.726   0.299  0.1838 -0.4731  0.5591
 5044TIP3    H115096   6.749   2.663   0.346 -0.0018  0.5905  2.3219
 5044TIP3    H215097   6.738   2.741   0.216  1.2518 -1.4504  0.9314
 5045TIP3   OH215098   4.722   5.194   5.773  0.2012 -0.0515 -0.4709
 5045TIP3    H115099   4.798   5.136   5.763  1.1304  1.0030  0.2651
 5045TIP3    H215100   4.725   5.251   5.696 -0.1551 -0.3327 -0.6994
 5046TIP3   OH215101   4.273   2.893   0.087 -0.9318 -0.1226  0.1248
 5046TIP3    H115102   4.294   2.865  -0.002 -1.1109 -0.8968  0.3188
 5046TIP3    H215103   4.190   2.939   0.078 -2.8968 -3.2993  0.3411
 5047TIP3   OH215104   0.813   5.512   1.597 -0.5334 -0.0157 -0.3301
 5047TIP3    H115105   0.839   5.540   1.685  0.3643  0.1206 -0.6196
 5047TIP3    H215106   0.799   5.417   1.606  1.4882 -0.3756 -0.4292
 5048TIP3   OH215107   3.722   2.317   2.380  0.3078 -0.1009 -0.7125
 5048TIP3    H115108   3.740   2.411   2.381 -0.0771 -0.0053 -1.6143
 5048TIP3    H215109   3.781   2.283   2.313 -1.1380 -0.1430 -2.0078
 5049TIP3   OH215110   5.706   2.522   1.168  0.7601 -0.1294 -0.0616
 5049TIP3    H115111   5.675   2.438   1.136  0.3595 -0.1550  0.3810
 5049TIP3    H215112   5.679   2.525   1.260  1.4994  0.1285  0.1618
 5050TIP3   OH215113   3.108   4.831   2.399  0.0060 -0.7216  0.7417
 5050TIP3    H115114   3.073   4.918   2.416  0.9795  0.1842 -1.4956
 5050TIP3    H215115   3.177   4.845   2.335 -1.4426 -3.3985 -1.6378
 5051TIP3   OH215116   4.505   0.089   1.537  0.3410 -0.5003  0.1301
 5051TIP3    H115117   4.481   0.014   1.592  1.5097 -0.2434  1.0396
 5051TIP3    H215118   4.566   0.052   1.473  0.2677 -0.4875  0.0533
 5052TIP3   OH215119   6.195   2.456   0.329 -0.5330 -0.2625 -0.0606
 5052TIP3    H115120   6.159   2.539   0.361 -1.1619 -0.3727 -0.4489
 5052TIP3    H215121   6.160   2.390   0.389  2.0467 -0.0219  1.8365
 5053TIP3   OH215122   2.885   0.731   1.153  0.4927  0.1410 -0.2867
 5053TIP3    H115123   2.843   0.817   1.144 -2.6752 -1.3314 -1.0913
 5053TIP3    H215124   2.880   0.712   1.247 -0.0752  0.2886 -0.2805
 5054TIP3   OH215125   3.030   4.662   2.975 -0.3596  0.3456  0.0067
 5054TIP3    H115126   3.002   4.729   2.912 -0.5773 -0.8386 -1.2212
 5054TIP3    H215127   3.070   4.711   3.047  1.3308  1.7144 -1.7630
 5055TIP3   OH215128   2.841   4.018   2.040  0.3184 -0.1335  0.1172
 5055TIP3    H115129   2.780   4.056   2.103  1.1345 -0.6690  1.2703
 5055TIP3    H215130   2.926   4.053   2.066  0.8280 -1.2821  0.0455
 5056TIP3   OH215131   4.921   2.196   3.873 -0.8192 -0.6069 -0.4140
 5056TIP3    H115132   4.851   2.155   3.822 -1.3693  2.1707 -2.0615
 5056TIP3    H215133   4.999   2.187   3.818 -0.3477 -1.6074  0.3718
 5057TIP3   OH215134   6.216   3.811   4.094 -0.1496 -0.5604  0.5512
 5057TIP3    H115135   6.197   3.740   4.155  0.5542 -1.1184  0.1346
 5057TIP3    H215136   6.189   3.778   4.009 -0.8394  0.1013  0.4944
 5058TIP3   OH215137   2.385   4.034   1.347  0.0451 -0.4957  0.4053
 5058TIP3    H115138   2.350   4.123   1.342 -0.4416 -0.6918  0.2353
 5058TIP3    H215139   2.442   4.035   1.423 -1.0799 -0.4209  1.2779
 5059TIP3   OH215140   4.398   1.204   1.713 -0.8243 -0.3947 -0.2225
 5059TIP3    H115141   4.386   1.276   1.651  1.1642  1.7010  1.6634
 5059TIP3    H215142   4.312   1.190   1.750 -1.5435 -0.0414 -1.6665
 5060TIP3   OH215143   4.141   5.746   3.734  0.4052  0.2698 -0.3073
 5060TIP3    H115144   4.183   5.762   3.649  0.5613 -0.1952 -0.3209
 5060TIP3    H215145   4.047   5.740   3.713  0.5506 -1.1752 -0.6672
 5061TIP3   OH215146  -0.014   5.802   3.565  0.0745  0.4767 -0.2223
 5061TIP3    H115147   0.028   5.774   3.646  1.3137  1.2495 -0.5586
 5061TIP3    H215148  -0.005   5.897   3.565  0.3708  0.4674 -1.3855
 5062TIP3   OH215149   5.420   0.871   5.492  0.2615 -0.3987 -0.6295
 5062TIP3    H115150   5.352   0.805   5.492  0.1282 -0.2862  0.5988
 5062TIP3    H215151   5.373   0.954   5.480  0.2132 -0.3612 -0.2126
 5063TIP3   OH215152   5.257   1.093   5.515  0.3324 -0.5237 -0.6642
 5063TIP3    H115153   5.179   1.070   5.466  1.3153 -2.3701 -1.4822
 5063TIP3    H215154   5.301   1.160   5.462  1.4006 -2.5162 -2.4561
 5064TIP3   OH215155   3.318   1.342   1.949 -0.3029  0.5555  0.1439
 5064TIP3    H115156   3.290   1.394   1.874  1.8591 -1.1815 -2.0345
 5064TIP3    H215157   3.327   1.405   2.020 -1.8504  2.3744 -1.1792
 5065TIP3   OH215158   0.838   3.427   5.597 -0.4824  0.2619  0.2271
 5065TIP3    H115159   0.859   3.411   5.505  0.2065  2.2624 -0.0282
 5065TIP3    H215160   0.854   3.344   5.641 -2.1759 -1.1538 -1.6486
 5066TIP3   OH215161   3.397   2.776   3.784  0.4285 -0.2140  0.5892
 5066TIP3    H115162   3.481   2.800   3.743  0.2242  0.6821  0.6720
 5066TIP3    H215163   3.372   2.694   3.740  1.3747 -0.5347  0.6082
 5067TIP3   OH215164   3.673   3.357   1.554  0.5753 -0.3574  0.6243
 5067TIP3    H115165   3.641   3.434   1.507  1.2452 -1.0303 -1.0258
 5067TIP3    H215166   3.625   3.284   1.515  1.7393 -1.0203  0.3993
 5068TIP3   OH215167   0.562   5.734   3.481  0.5524 -0.1817 -0.2264
 5068TIP3    H115168   0.614   5.685   3.545 -0.3964  0.0261  0.7377
 5068TIP3    H215169   0.473   5.731   3.515  0.2955  1.3636 -0.6630
 5069TIP3   OH215170   7.104   4.903   5.494 -0.3276 -0.3770 -0.1088
 5069TIP3    H115171   7.108   4.991   5.457 -2.9965 -0.8890 -1.9124
 5069TIP3    H215172   7.018   4.899   5.536 -0.5070 -2.2708 -0.5820
 5070TIP3   OH215173   6.627   3.514   0.511 -0.8061 -0.6930  0.1161
 5070TIP3    H115174   6.578   3.572   0.570 -1.8563 -1.3251 -0.1112
 5070TIP3    H215175   6.717   3.547   0.515 -1.2360  0.5111  0.5362
 5071TIP3   OH215176   2.690   2.889   0.478 -0.2152  0.2869 -0.4434
 5071TIP3    H115177   2.691   2.857   0.568 -2.1097 -2.6804 -1.3564
 5071TIP3    H215178   2.727   2.977   0.484  2.0790 -0.7022  2.8290
 5072TIP3   OH215179   0.682   4.795   3.001  0.2120  0.4296  0.1819
 5072TIP3    H115180   0.733   4.872   2.975  0.9479  0.8869  2.7698
 5072TIP3    H215181   0.655   4.813   3.091 -1.8107 -1.2398 -0.0323
 5073TIP3   OH215182   3.051   1.534   0.773  0.7963  0.8317 -0.3993
 5073TIP3    H115183   3.027   1.591   0.847 -1.5891 -0.6143  0.0550
 5073TIP3    H215184   3.002   1.568   0.699 -0.0064 -0.0979 -0.3170
 5074TIP3   OH215185   6.630   4.117   3.661 -0.5387  0.5559  0.6352
 5074TIP3    H115186   6.630   4.128   3.566  1.1949  1.1916  0.6714
 5074TIP3    H215187   6.643   4.023   3.674 -2.2080  0.2477  0.2780
 5075TIP3   OH215188   4.336   1.179   4.491  0.1794  0.2531 -0.0791
 5075TIP3    H115189   4.404   1.199   4.428 -0.8775  1.8244 -0.7991
 5075TIP3    H215190   4.265   1.240   4.470 -0.7457 -0.0998  1.7598
 5076TIP3   OH215191   4.830   4.492   3.597 -0.3352  0.1155  1.1536
 5076TIP3    H115192   4.856   4.575   3.637 -1.2787  1.1561 -0.2772
 5076TIP3    H215193   4.836   4.509   3.503 -0.2333 -1.5580  0.8450
 5077TIP3   OH215194   0.107   5.549   5.281 -0.0631 -0.9133  0.0732
 5077TIP3    H115195   0.068   5.558   5.368  1.0557 -0.2677  0.5138
 5077TIP3    H215196   0.100   5.636   5.242 -0.5072 -1.1851 -0.4740
 5078TIP3   OH215197   4.520   6.172   1.451 -0.1346 -0.1159  0.6874
 5078TIP3    H115198   4.446   6.140   1.503 -0.0664 -0.3513  0.6428
 5078TIP3    H215199   4.578   6.213   1.515 -0.3160  0.0988  0.7188
 5079TIP3   OH215200   2.400   4.556   5.106  0.1706 -0.0497  0.3567
 5079TIP3    H115201   2.434   4.557   5.017  1.2601  0.2240  0.7609
 5079TIP3    H215202   2.386   4.648   5.128 -2.2675 -0.1946 -0.3041
 5080TIP3   OH215203   4.810   2.539   0.300 -0.5583 -0.1259  0.0192
 5080TIP3    H115204   4.792   2.551   0.206  1.5757  2.7366 -0.2041
 5080TIP3    H215205   4.904   2.521   0.303 -0.2850  1.3157  1.6089
 5081TIP3   OH215206   1.371   4.735   3.536  0.0348 -0.2777  0.5039
 5081TIP3    H115207   1.439   4.684   3.492  1.0860  0.2396  1.4686
 5081TIP3    H215208   1.379   4.823   3.499  0.9718  0.1770  1.7411
 5082TIP3   OH215209   3.788   2.289   1.883  0.0551  0.1402 -0.3444
 5082TIP3    H115210   3.745   2.351   1.942  1.1705 -1.6048  2.5058
 5082TIP3    H215211   3.734   2.210   1.888  1.0696 -0.5727 -0.3440
 5083TIP3   OH215212   3.708   3.002   2.896  0.2513 -0.3064 -0.1294
 5083TIP3    H115213   3.714   3.063   2.822 -0.9551  0.4163  0.3388
 5083TIP3    H215214   3.775   2.936   2.878 -0.3365 -0.4246 -2.1299
 5084TIP3   OH215215   2.280   4.705   2.855  0.5973  0.4799  0.9990
 5084TIP3    H115216   2.305   4.617   2.884 -2.4759 -0.7412  0.3457
 5084TIP3    H215217   2.305   4.708   2.763 -0.6572 -0.3384  0.6136
 5085TIP3   OH215218   1.294   0.733   5.111 -0.0792 -0.1740 -0.4118
 5085TIP3    H115219   1.320   0.645   5.138 -1.1498 -1.0099 -1.9376
 5085TIP3    H215220   1.357   0.756   5.043 -1.2943 -0.8566 -1.8162
 5086TIP3   OH215221   0.082   0.050   3.926 -0.3571  0.0267 -0.4004
 5086TIP3    H115222  -0.012   0.044   3.938 -0.5145  0.6395 -1.2230
 5086TIP3    H215223   0.098   0.009   3.841 -0.0146  0.7753 -0.7080
 5087TIP3   OH215224   6.479   3.369   2.664  0.4545 -0.4138 -0.1425
 5087TIP3    H115225   6.573   3.383   2.678  0.4358  2.6423 -2.2256
 5087TIP3    H215226   6.437   3.437   2.716 -0.7045 -2.0060  1.0844
 5088TIP3   OH215227   4.404   3.281   5.345 -0.7067 -0.0747 -0.3784
 5088TIP3    H115228   4.459   3.223   5.292  0.1657 -0.6778  1.1324
 5088TIP3    H215229   4.315   3.267   5.311 -0.2456 -0.7987 -1.3448
 5089TIP3   OH215230   6.756   2.941   5.024 -0.0479 -0.0648 -0.1436
 5089TIP3    H115231   6.750   2.846   5.035  0.1177  0.1086  1.7554
 5089TIP3    H215232   6.665   2.971   5.027 -0.0695 -0.1196 -0.2546
 5090TIP3   OH215233   3.156   1.680   1.434 -0.5625 -0.2051 -0.7266
 5090TIP3    H115234   3.158   1.715   1.524 -0.1511 -0.6581 -0.5527
 5090TIP3    H215235   3.077   1.718   1.395 -0.1852  0.8337 -0.5152
 5091TIP3   OH215236   4.033   4.354   1.048 -0.1312  0.3154  0.4877
 5091TIP3    H115237   4.060   4.364   1.140 -0.4370 -0.5314  0.6786
 5091TIP3    H215238   3.958   4.412   1.040 -1.6139 -1.3612  1.4588
 5092TIP3   OH215239   6.523   5.203   5.832 -0.1038 -0.7334 -0.5990
 5092TIP3    H115240   6.437   5.231   5.862  0.6969  1.2087  0.0145
 5092TIP3    H215241   6.521   5.107   5.840 -0.9217 -0.5530  3.1110
 5093TIP3   OH215242   2.572   5.431   4.050  0.2085  0.2144  0.0700
 5093TIP3    H115243   2.492   5.449   4.000  0.6249  0.8477 -0.3897
 5093TIP3    H215244   2.622   5.512   4.045  1.1261 -0.3376 -0.1116
 5094TIP3   OH215245   5.399   0.729   0.528 -0.4782 -0.0343  0.3927
 5094TIP3    H115246   5.403   0.634   0.537 -0.8608 -0.2726 -1.5476
 5094TIP3    H215247   5.328   0.745   0.466  0.8344  1.3690 -0.8534
 5095TIP3   OH215248   0.264   3.622   0.633  0.0381  0.6411 -0.5222
 5095TIP3    H115249   0.286   3.550   0.693 -0.8082  0.2154 -0.6993
 5095TIP3    H215250   0.225   3.688   0.690  2.4604  1.7858 -0.0599
 5096TIP3   OH215251   6.578   4.095   5.333 -0.2893 -0.6925 -0.4352
 5096TIP3    H115252   6.495   4.121   5.373 -0.5671 -0.6324 -1.0487
 5096TIP3    H215253   6.601   4.167   5.275  0.0811 -0.8095 -0.4373
 5097TIP3   OH215254   3.944   4.419   5.621  0.1576 -0.6246 -0.0465
 5097TIP3    H115255   3.902   4.497   5.659 -0.5579 -1.7946  1.7064
 5097TIP3    H215256   4.036   4.427   5.645  0.5223  0.6957 -1.7142
 5098TIP3   OH215257   5.272   4.950   2.422 -0.2754  0.2140 -0.1862
 5098TIP3    H115258   5.242   4.903   2.500 -1.3350  0.0120 -0.6996
 5098TIP3    H215259   5.193   4.960   2.368  0.4744  0.1972 -1.3127
 5099TIP3   OH215260   4.324   2.263   0.767  0.3448 -0.5335  0.6633
 5099TIP3    H115261   4.264   2.326   0.807 -0.3096 -1.2806  0.8976
 5099TIP3    H215262   4.407   2.310   0.760 -0.4684  0.8045 -0.4459
 5100TIP3   OH215263   5.720   5.086   0.647 -0.4077 -0.3508 -0.4004
 5100TIP3    H115264   5.665   5.030   0.702 -0.8485 -0.5625 -1.0517
 5100TIP3    H215265   5.678   5.172   0.651 -0.0775 -0.2054  0.1006
 5101TIP3   OH215266   5.442   0.671   3.743  0.2370 -0.0423 -0.1381
 5101TIP3    H115267   5.349   0.656   3.725  0.6178 -1.4138 -1.1798
 5101TIP3    H215268   5.479   0.693   3.657  0.8688  0.5098  0.2691
 5102TIP3   OH215269   2.340   6.271   2.299  0.2253  0.7133  0.2123
 5102TIP3    H115270   2.420   6.249   2.252 -0.8488 -1.7382 -0.6444
 5102TIP3    H215271   2.298   6.337   2.244  2.2045  3.0243  1.3416
 5103TIP3   OH215272   0.785   2.300  -0.012 -0.3574 -0.1624 -0.2233
 5103TIP3    H115273   0.740   2.344   0.060 -1.5628  0.3202 -1.2303
 5103TIP3    H215274   0.824   2.222   0.027 -1.7034 -0.3526  0.7922
 5104TIP3   OH215275   3.932   3.729   3.775 -0.4355 -0.1648  0.1195
 5104TIP3    H115276   3.909   3.655   3.719  0.9638  0.8539 -1.9421
 5104TIP3    H215277   3.873   3.799   3.749  0.3332  0.3721 -0.2327
 5105TIP3   OH215278   0.799   5.065   4.943  0.4887  0.4934  0.0585
 5105TIP3    H115279   0.742   5.142   4.949  1.7349  1.5320 -0.6978
 5105TIP3    H215280   0.752   5.004   4.886 -0.1917  1.0001  0.0664
 5106TIP3   OH215281   3.854   6.562   4.796  0.5443  0.0133 -0.7044
 5106TIP3    H115282   3.813   6.500   4.735  0.3320 -2.0173  1.3803
 5106TIP3    H215283   3.926   6.513   4.835 -0.2340  0.6791  1.7570
 5107TIP3   OH215284   3.909   3.375   5.587  0.1667  0.0972 -0.2203
 5107TIP3    H115285   3.819   3.407   5.594 -0.9949 -3.0187  0.4899
 5107TIP3    H215286   3.934   3.394   5.496 -1.1201  1.1604 -0.3830
 5108TIP3   OH215287   0.372   0.181   2.082 -0.0771 -0.3173  0.2988
 5108TIP3    H115288   0.308   0.131   2.134  1.3807 -2.9699 -0.2918
 5108TIP3    H215289   0.454   0.172   2.130  0.4739  0.6119 -0.4335
 5109TIP3   OH215290   1.741   1.838   4.566  0.1592 -0.1224  0.7015
 5109TIP3    H115291   1.825   1.828   4.610 -0.8406 -0.4939  2.5980
 5109TIP3    H215292   1.726   1.933   4.566  0.4032 -0.0825  0.6810
 5110TIP3   OH215293   4.944   6.798   4.676  0.1181 -0.0881  0.0022
 5110TIP3    H115294   4.885   6.765   4.744 -1.4553  1.8911 -0.2969
 5110TIP3    H215295   4.885   6.820   4.603  1.3380  1.1049 -0.6635
 5111TIP3   OH215296   1.652   3.310   0.499 -0.1702  0.0623 -0.2373
 5111TIP3    H115297   1.610   3.388   0.535  0.7375  0.7095 -0.5650
 5111TIP3    H215298   1.675   3.334   0.410 -1.6652 -1.2579 -1.0408
 5112TIP3   OH215299   6.279   6.557   1.899 -0.2494  0.0334  0.7538
 5112TIP3    H115300   6.353   6.618   1.906 -0.0219  0.1454 -1.7198
 5112TIP3    H215301   6.243   6.553   1.987  1.0980  2.0341  1.4731
 5113TIP3   OH215302   3.068   5.775   0.500 -0.2134  0.5406  0.8105
 5113TIP3    H115303   3.098   5.687   0.480 -0.8770  0.6220 -0.6739
 5113TIP3    H215304   3.148   5.823   0.523  0.5840  0.2706 -1.1882
 5114TIP3   OH215305   0.888   4.147   2.909  0.2001  0.7350  0.2162
 5114TIP3    H115306   0.879   4.052   2.898  0.1610  0.7032  0.5114
 5114TIP3    H215307   0.943   4.174   2.835  2.8238  0.0105  1.7535
 5115TIP3   OH215308   5.734   4.450   5.834  0.0870  1.0413 -0.6532
 5115TIP3    H115309   5.755   4.385   5.900  0.7954 -0.0382 -1.8848
 5115TIP3    H215310   5.692   4.399   5.764 -0.4214  2.1025 -1.1411
 5116TIP3   OH215311   5.956   5.010   3.392 -0.5204 -0.1358 -0.4195
 5116TIP3    H115312   5.924   4.959   3.317 -0.5257  1.4744 -1.5623
 5116TIP3    H215313   5.879   5.059   3.421 -0.5630 -0.8814  0.7927
 5117TIP3   OH215314   3.397   1.380   3.335  0.4438  0.1941  0.0104
 5117TIP3    H115315   3.366   1.294   3.307 -0.6362  0.9747 -1.3130
 5117TIP3    H215316   3.484   1.388   3.295  0.6379 -0.3572  0.3147
 5118TIP3   OH215317   1.053   1.037   5.522  0.0126 -0.2522  0.0504
 5118TIP3    H115318   1.104   1.003   5.448  0.8585  0.8046  0.1273
 5118TIP3    H215319   0.963   1.038   5.490  0.4074  0.5421 -1.1311
 5119TIP3   OH215320   0.332   0.125   1.289 -0.2854 -0.3451 -0.3510
 5119TIP3    H115321   0.389   0.048   1.279 -0.5304 -0.6076  0.2165
 5119TIP3    H215322   0.315   0.130   1.384  0.8539  1.2298 -0.1932
 5120TIP3   OH215323   3.336   6.611   2.749  0.2450 -0.2801 -0.6057
 5120TIP3    H115324   3.380   6.596   2.833 -0.7402 -1.0579 -0.2032
 5120TIP3    H215325   3.302   6.525   2.724  1.3251 -0.2638 -2.2924
 5121TIP3   OH215326   0.652   1.965   1.729 -0.0919 -0.3330 -0.4027
 5121TIP3    H115327   0.594   2.000   1.797 -0.8309  0.2861 -1.3170
 5121TIP3    H215328   0.740   1.977   1.764 -0.3807  1.3775 -0.1728
 5122TIP3   OH215329   5.196   1.241   3.744 -0.2325  0.6533  0.1785
 5122TIP3    H115330   5.214   1.316   3.686  3.1896 -0.2919 -0.1878
 5122TIP3    H215331   5.138   1.276   3.811  0.9367  3.5835 -0.1854
 5123TIP3   OH215332   2.268   5.219   3.894  0.3098 -0.1324  0.0735
 5123TIP3    H115333   2.229   5.169   3.823  1.3959 -1.7952  0.6008
 5123TIP3    H215334   2.196   5.236   3.954 -0.3344  0.1024 -0.7476
 5124TIP3   OH215335   0.450   6.177   1.868  0.0581 -0.5002  0.2144
 5124TIP3    H115336   0.518   6.216   1.814 -1.7864  0.3046 -1.6559
 5124TIP3    H215337   0.474   6.200   1.958  1.1262  1.5725 -0.5496
 5125TIP3   OH215338   3.401   0.340   4.811  0.6667  0.0318  0.0739
 5125TIP3    H115339   3.340   0.394   4.760 -1.5114 -1.0364  1.4016
 5125TIP3    H215340   3.413   0.261   4.758 -2.8160 -1.7781  1.6021
 5126TIP3   OH215341   1.291   3.625   4.633 -0.1984 -0.3744 -0.0332
 5126TIP3    H115342   1.287   3.721   4.641  1.2351 -0.3177  0.3471
 5126TIP3    H215343   1.212   3.594   4.675  0.2434  0.5795  1.5970
 5127TIP3   OH215344   3.741   5.657   5.362 -0.4426 -0.2246  0.1172
 5127TIP3    H115345   3.767   5.748   5.349 -1.3661  0.2677  1.5573
 5127TIP3    H215346   3.722   5.624   5.274  2.8849 -0.0011 -0.8126
 5128TIP3   OH215347   3.336   4.035   3.908 -0.4623 -0.3175  1.1911
 5128TIP3    H115348   3.320   4.082   3.991 -1.3249  1.2822  0.1725
 5128TIP3    H215349   3.277   4.077   3.845 -0.6589 -2.2561 -0.0017
 5129TIP3   OH215350   6.388   0.859   2.869 -0.7928 -0.0881  0.0547
 5129TIP3    H115351   6.356   0.922   2.934  0.8837 -0.5140  1.3666
 5129TIP3    H215352   6.409   0.781   2.920  0.8304 -0.3437 -0.9593
 5130TIP3   OH215353   2.087   3.138   3.117  0.0323 -0.1320 -0.0483
 5130TIP3    H115354   1.998   3.105   3.127  0.1618 -0.5896 -0.3661
 5130TIP3    H215355   2.142   3.062   3.134  0.3527  0.0412 -0.3070
 5131TIP3   OH215356   6.863   1.215   3.428 -0.3061 -0.2032  0.2097
 5131TIP3    H115357   6.935   1.153   3.438  0.5027  0.8605  1.2854
 5131TIP3    H215358   6.895   1.278   3.363 -0.5375 -0.1211  0.1754
 5132TIP3   OH215359   2.369   4.064   2.567 -0.6259  0.3216 -0.0589
 5132TIP3    H115360   2.352   3.971   2.580  1.0211 -0.4445 -2.5347
 5132TIP3    H215361   2.449   4.081   2.616 -0.3324  0.1424 -0.4695
 5133TIP3   OH215362   6.709   2.820   4.325  0.3424 -0.1636  0.1167
 5133TIP3    H115363   6.617   2.824   4.349 -0.0494 -0.7471 -1.1988
 5133TIP3    H215364   6.732   2.910   4.301  0.3607  0.1431  1.2312
 5134TIP3   OH215365   6.089   6.598   5.255  0.1892  0.6470  0.1141
 5134TIP3    H115366   6.053   6.548   5.328  0.4377  1.0623  0.5282
 5134TIP3    H215367   6.020   6.660   5.232  1.2946  2.8313  2.2319
 5135TIP3   OH215368   5.112   2.339   3.525  0.2838  0.3432  0.3359
 5135TIP3    H115369   5.093   2.287   3.447 -1.4657 -0.2332  1.0991
 5135TIP3    H215370   5.192   2.386   3.503 -0.4764  0.6788 -2.0720
 5136TIP3   OH215371   0.446   1.481   0.800 -0.0754 -0.2770  0.3837
 5136TIP3    H115372   0.516   1.547   0.796 -0.4954  0.2469  1.3721
 5136TIP3    H215373   0.408   1.483   0.712  0.1542  0.5517  0.2879
 5137TIP3   OH215374   3.212   3.852   3.666  0.3133 -0.3764 -0.5493
 5137TIP3    H115375   3.121   3.880   3.660 -0.0931 -0.9968  1.7096
 5137TIP3    H215376   3.261   3.919   3.618 -1.1111  1.2687  0.1757
 5138TIP3   OH215377   5.762   2.167   1.188  0.0772 -0.5466  0.9260
 5138TIP3    H115378   5.743   2.160   1.094  0.0421 -1.3685  0.9866
 5138TIP3    H215379   5.847   2.211   1.192  1.2895 -2.7173  0.3898
 5139TIP3   OH215380   6.244   0.000   4.208 -0.1976  0.2171 -0.1170
 5139TIP3    H115381   6.299   0.076   4.227  0.4512  0.0039 -1.0891
 5139TIP3    H215382   6.255  -0.015   4.114 -0.8889 -0.6417 -0.0722
 5140TIP3   OH215383   6.820   3.275   4.369 -0.5418  0.4627 -0.1900
 5140TIP3    H115384   6.813   3.368   4.393 -1.4953  0.7352 -1.4261
 5140TIP3    H215385   6.913   3.254   4.383 -0.4925  1.3316  0.9873
 5141TIP3   OH215386   5.666   6.005   2.816 -0.5168  0.1149 -0.3474
 5141TIP3    H115387   5.606   6.004   2.741  0.8099  1.4185 -1.4829
 5141TIP3    H215388   5.752   5.993   2.778  0.5203  3.4808  0.5490
 5142TIP3   OH215389   2.658   6.177   1.858 -0.6292 -0.1640  0.2533
 5142TIP3    H115390   2.695   6.253   1.903  0.3319 -1.2173  1.3194
 5142TIP3    H215391   2.569   6.170   1.893 -0.9671  0.8416 -0.3572
 5143TIP3   OH215392   1.431   1.765   3.062 -0.3568 -0.0121  0.2158
 5143TIP3    H115393   1.406   1.673   3.065  0.4960 -0.2273  1.1345
 5143TIP3    H215394   1.432   1.793   3.153 -2.3970  1.4281 -0.1460
 5144TIP3   OH215395   4.476   6.031   2.320  0.4600 -0.2327 -0.4685
 5144TIP3    H115396   4.403   5.973   2.299  1.2344 -1.2078 -0.5152
 5144TIP3    H215397   4.458   6.111   2.270 -1.1402 -0.0314  0.3881
 5145TIP3   OH215398   2.147   3.019   2.880  0.1617 -0.4081 -0.3358
 5145TIP3    H115399   2.135   3.071   2.960  1.3831 -0.9020  0.1925
 5145TIP3    H215400   2.241   3.020   2.865 -0.1161  0.4935 -2.3485
 5146TIP3   OH215401   2.645   1.914   5.618 -0.2910  0.3814 -0.1091
 5146TIP3    H115402   2.727   1.928   5.666  0.2283 -1.0166 -0.5377
 5146TIP3    H215403   2.583   1.885   5.685  0.4598 -1.6663 -0.2446
 5147TIP3   OH215404   4.607   1.058   3.323 -0.8108 -0.5904 -0.2620
 5147TIP3    H115405   4.635   1.027   3.409  3.5604  0.7311 -0.9974
 5147TIP3    H215406   4.557   1.138   3.342  0.0652 -0.3325  1.0790
 5148TIP3   OH215407   2.782   2.732   4.196 -0.6877 -0.1546  0.2728
 5148TIP3    H115408   2.826   2.678   4.130  1.5228 -0.1696  1.6510
 5148TIP3    H215409   2.843   2.735   4.270 -2.8695  0.1918  2.1981
 5149TIP3   OH215410   5.631   0.776   0.298 -0.3436 -0.2240  0.2549
 5149TIP3    H115411   5.648   0.691   0.338 -2.3842 -0.1560  1.3414
 5149TIP3    H215412   5.540   0.773   0.271  0.0793  0.9353 -1.5176
 5150TIP3   OH215413   2.366   5.576   2.505  0.6803  0.1350  0.6219
 5150TIP3    H115414   2.452   5.566   2.464  0.1425 -2.0661 -0.1065
 5150TIP3    H215415   2.361   5.669   2.527  1.9155  1.0205 -2.2971
 5151TIP3   OH215416   7.026   3.505   0.955 -0.1784 -0.3618  0.0855
 5151TIP3    H115417   6.952   3.494   0.894  0.5926 -1.4265 -0.6940
 5151TIP3    H215418   6.997   3.462   1.036 -0.3100 -1.0395 -0.3109
 5152TIP3   OH215419   1.294   6.115   0.719  0.3431  0.0512 -0.6704
 5152TIP3    H115420   1.286   6.177   0.791 -0.0895  1.8063 -2.1529
 5152TIP3    H215421   1.371   6.146   0.670  0.0046 -0.4586 -1.5435
 5153TIP3   OH215422   0.879   1.047   1.849 -0.2115 -0.7306  0.0663
 5153TIP3    H115423   0.937   1.123   1.844  0.7140 -1.4095  0.2624
 5153TIP3    H215424   0.891   1.014   1.938 -0.1586 -1.4530 -0.2045
 5154TIP3   OH215425   1.870   4.003   2.823 -0.2054  0.8197  0.1071
 5154TIP3    H115426   1.916   4.074   2.777 -1.3424 -0.0264 -2.4943
 5154TIP3    H215427   1.783   4.039   2.842  0.1854  1.0885  1.4740
 5155TIP3   OH215428   7.160   0.579   2.093 -0.5224  0.3459 -0.2390
 5155TIP3    H115429   7.243   0.598   2.050 -0.3168  0.8928  0.3813
 5155TIP3    H215430   7.175   0.602   2.185 -1.3413  0.3978 -0.1098
 5156TIP3   OH215431   6.514   5.009   0.592  0.4927  0.1238 -0.6835
 5156TIP3    H115432   6.507   5.059   0.673 -0.1027  0.1528 -0.7485
 5156TIP3    H215433   6.460   4.931   0.606  0.4126  0.1112 -1.0359
 5157TIP3   OH215434   6.160   2.747   2.661  0.2981  0.1187  0.1716
 5157TIP3    H115435   6.213   2.762   2.739  0.2334 -2.1107  0.7216
 5157TIP3    H215436   6.072   2.733   2.694  0.2015 -0.4740 -0.3193
 5158TIP3   OH215437   5.217   2.546   5.791  0.0738 -0.0217  0.2593
 5158TIP3    H115438   5.179   2.514   5.709  0.5125 -1.4011  0.5659
 5158TIP3    H215439   5.308   2.568   5.768  0.9100 -2.5470  0.7795
 5159TIP3   OH215440   3.349   3.544   5.028 -0.5245  0.8114  0.4403
 5159TIP3    H115441   3.399   3.610   5.076  1.3413 -1.0661  1.2381
 5159TIP3    H215442   3.401   3.528   4.949 -0.8968  0.1927  0.3176
 5160TIP3   OH215443   4.143   3.180   0.915  0.0224  0.0233  0.0416
 5160TIP3    H115444   4.050   3.180   0.939  0.2212 -3.1016  1.1850
 5160TIP3    H215445   4.189   3.176   0.998  1.1123 -0.4885 -0.5729
 5161TIP3   OH215446   0.401   4.377   4.038 -0.0331 -0.1758 -0.4321
 5161TIP3    H115447   0.365   4.391   4.126 -0.6364 -0.8225 -0.5726
 5161TIP3    H215448   0.465   4.448   4.028 -0.1493  0.0710  0.4198
 5162TIP3   OH215449   1.570   3.123   0.128 -0.4649  0.1016 -0.2115
 5162TIP3    H115450   1.604   3.212   0.131 -4.4737  1.8728  2.9931
 5162TIP3    H215451   1.594   3.085   0.213  2.4666 -2.7235 -2.0317
 5163TIP3   OH215452   3.316   2.313   4.593 -0.2699 -0.5021 -0.4067
 5163TIP3    H115453   3.355   2.293   4.508  2.1576  0.9298  0.2672
 5163TIP3    H215454   3.358   2.252   4.654  2.6659  2.2924  0.6528
 5164TIP3   OH215455   2.294   1.463   4.721 -0.4876 -0.4212 -0.2746
 5164TIP3    H115456   2.353   1.388   4.720  0.6029  0.4265 -1.0744
 5164TIP3    H215457   2.275   1.476   4.814  0.6575 -0.6476  0.0071
 5165TIP3   OH215458   1.905   3.324   3.341 -0.0746  0.0333 -0.4781
 5165TIP3    H115459   1.957   3.247   3.364  1.2971  1.3288  0.9497
 5165TIP3    H215460   1.822   3.312   3.387  1.0475  0.5159  1.8282
 5166TIP3   OH215461  -0.013   5.171   5.405 -0.4685 -0.5296  0.4646
 5166TIP3    H115462   0.074   5.184   5.443 -0.5096 -1.3715  0.8624
 5166TIP3    H215463  -0.016   5.232   5.331  0.9911 -1.4590 -0.4192
 5167TIP3   OH215464   2.890   1.638   4.310 -0.0997  0.2255  0.1417
 5167TIP3    H115465   2.854   1.600   4.390 -0.4279  1.3430  0.5405
 5167TIP3    H215466   2.854   1.727   4.307  0.0849  0.2812 -1.1283
 5168TIP3   OH215467   6.134   1.814   0.320  0.4372  0.0896 -0.1815
 5168TIP3    H115468   6.063   1.752   0.335 -1.3770  2.3686  1.5127
 5168TIP3    H215469   6.199   1.765   0.270 -1.6080 -2.5963 -0.4416
 5169TIP3   OH215470   6.524   5.030   4.228 -0.1899  0.0014 -0.5116
 5169TIP3    H115471   6.562   5.034   4.140  0.9351  0.4035 -0.0158
 5169TIP3    H215472   6.430   5.041   4.213 -0.0223  0.0512 -1.6649
 5170TIP3   OH215473   1.066   4.858   3.049  0.4390 -0.2254 -0.0250
 5170TIP3    H115474   1.135   4.908   3.092 -1.2886  0.2007  2.5167
 5170TIP3    H215475   1.096   4.767   3.056  1.4843  0.0712 -0.4736
 5171TIP3   OH215476   0.456   5.621   4.026  0.0556 -0.1776 -0.1082
 5171TIP3    H115477   0.429   5.690   3.966 -1.2253 -0.1317  0.4899
 5171TIP3    H215478   0.519   5.569   3.975  0.2493  0.8095 -0.9137
 5172TIP3   OH215479   6.904   3.583   3.658 -0.0083 -0.5638 -0.4052
 5172TIP3    H115480   6.956   3.659   3.683 -0.4453 -0.2864 -0.3212
 5172TIP3    H215481   6.946   3.549   3.579 -1.2496  1.2635 -1.9325
 5173TIP3   OH215482   3.788   5.069   1.353 -0.2483  0.3797  0.0460
 5173TIP3    H115483   3.811   5.106   1.268 -1.1602 -0.4404 -0.5791
 5173TIP3    H215484   3.694   5.086   1.363 -0.6445 -1.4182 -0.1291
 5174TIP3   OH215485   4.311   4.226   1.884 -0.1851  0.5085  0.2186
 5174TIP3    H115486   4.266   4.305   1.856  1.1834  1.3930  0.3928
 5174TIP3    H215487   4.289   4.217   1.976 -0.6996  0.4292  0.0903
 5175TIP3   OH215488   6.598   3.784   4.274  0.0978  0.2472  0.0823
 5175TIP3    H115489   6.665   3.842   4.310 -0.9312  0.9144  0.9754
 5175TIP3    H215490   6.605   3.796   4.179 -0.5388  2.3742  0.2684
 5176TIP3   OH215491   3.545   2.397   5.529 -0.4139 -0.0373  0.3447
 5176TIP3    H115492   3.626   2.383   5.480 -0.5964  2.2306 -0.7160
 5176TIP3    H215493   3.475   2.374   5.467 -0.6518 -1.6666  1.1475
 5177TIP3   OH215494   6.237   6.028   1.752  0.0319  0.2972 -0.5093
 5177TIP3    H115495   6.179   5.979   1.693  0.5854 -2.0099  0.7349
 5177TIP3    H215496   6.178   6.087   1.800 -1.0396 -0.7633 -0.4880
 5178TIP3   OH215497   1.715   1.512   0.550  0.0954 -0.1514 -0.3195
 5178TIP3    H115498   1.677   1.486   0.466  0.1442 -0.8740 -0.1303
 5178TIP3    H215499   1.781   1.577   0.527 -0.8220  0.6666 -0.7064
 5179TIP3   OH215500   6.320   1.730   3.325 -0.1743  0.9294  0.2773
 5179TIP3    H115501   6.318   1.688   3.411 -0.8444 -3.7444 -1.7237
 5179TIP3    H215502   6.230   1.758   3.309 -0.4411  0.1662  0.4238
 5180TIP3   OH215503   1.623   3.867   4.043 -0.6844  0.5490  0.1805
 5180TIP3    H115504   1.633   3.878   3.948 -0.4101  0.4025  0.1949
 5180TIP3    H215505   1.624   3.957   4.077  1.7828  0.5252  0.3129
 5181TIP3   OH215506   0.462   3.550   0.868  0.5061 -0.1076 -0.0949
 5181TIP3    H115507   0.545   3.548   0.820  1.5609  0.8505  1.5814
 5181TIP3    H215508   0.470   3.479   0.932  0.2138  0.2602  0.3533
 5182TIP3   OH215509   3.128   6.430   3.262 -0.1401 -0.0033  0.2374
 5182TIP3    H115510   3.198   6.384   3.309 -0.3801  0.5780  1.1832
 5182TIP3    H215511   3.164   6.517   3.246 -0.5576  0.2292  0.5378
 5183TIP3   OH215512   5.189   1.384   2.860  0.0684 -0.4186 -0.5986
 5183TIP3    H115513   5.120   1.342   2.809 -2.3818  1.9665  0.5351
 5183TIP3    H215514   5.234   1.441   2.797  0.1051 -0.9368 -1.0492
 5184TIP3   OH215515   2.442   1.263   0.249 -0.3730  0.0423  0.2150
 5184TIP3    H115516   2.426   1.327   0.179  0.7634 -0.7663 -0.8102
 5184TIP3    H215517   2.369   1.202   0.242 -0.6498  0.3682  0.2090
 5185TIP3   OH215518   5.828   6.290   0.108 -1.0116 -0.6265  0.4940
 5185TIP3    H115519   5.798   6.206   0.075 -1.9798 -0.3206  0.5707
 5185TIP3    H215520   5.907   6.309   0.057 -1.3654 -1.0980 -0.2484
 5186TIP3   OH215521   7.177   1.887   2.754 -0.2866  0.0561  0.3950
 5186TIP3    H115522   7.120   1.813   2.773  0.2949 -0.0987  1.6097
 5186TIP3    H215523   7.245   1.852   2.697  0.1646 -0.4403  1.2199
 5187TIP3   OH215524   0.198   3.546   4.341 -0.3801  0.5087 -0.0682
 5187TIP3    H115525   0.193   3.633   4.381  1.9657  0.0433  1.4430
 5187TIP3    H215526   0.152   3.489   4.402  0.4265  0.2970  0.3564
 5188TIP3   OH215527   1.543   1.524   5.308 -0.3179 -0.3049  0.2878
 5188TIP3    H115528   1.588   1.460   5.253 -1.8138  0.1686 -1.6002
 5188TIP3    H215529   1.579   1.609   5.279 -1.5748 -0.0075 -0.4777
 5189TIP3   OH215530   5.203   5.855   3.851  0.4715 -0.0987  0.0194
 5189TIP3    H115531   5.167   5.894   3.931 -3.1504 -1.5698 -0.6775
 5189TIP3    H215532   5.168   5.909   3.780 -0.5640 -1.6546 -0.7165
 5190TIP3   OH215533   4.038   1.654   2.740  0.3169 -0.1382 -0.4395
 5190TIP3    H115534   4.111   1.623   2.686  2.0826 -0.8070  2.1499
 5190TIP3    H215535   4.035   1.592   2.813 -2.8011 -0.0261 -0.3356
 5191TIP3   OH215536   4.011   0.416   5.685  0.2107  0.0416  0.2547
 5191TIP3    H115537   3.984   0.436   5.595  0.3168  0.8077  0.3890
 5191TIP3    H215538   4.055   0.331   5.677  0.1081  0.0385 -0.3989
 5192TIP3   OH215539   6.821   1.204   5.401 -0.6622  0.8670 -0.1160
 5192TIP3    H115540   6.840   1.266   5.473  1.5008 -0.5427  0.6349
 5192TIP3    H215541   6.897   1.146   5.399 -0.8509  0.5626 -3.3077
 5193TIP3   OH215542   1.071   1.119   4.197 -0.2399  0.6904  0.0729
 5193TIP3    H115543   1.015   1.116   4.119  2.2038 -1.5911 -1.7697
 5193TIP3    H215544   1.091   1.027   4.215  0.4211  1.2562  2.5965
 5194TIP3   OH215545   6.613   4.121   1.448 -0.0741  0.4819  0.0143
 5194TIP3    H115546   6.623   4.151   1.358 -0.9033  1.8115  0.3471
 5194TIP3    H215547   6.639   4.196   1.501  0.2492 -0.2386  0.8905
 5195TIP3   OH215548   4.765   5.632   2.777  0.1853  0.4112 -0.0969
 5195TIP3    H115549   4.726   5.544   2.772 -1.2132  0.9947  0.0644
 5195TIP3    H215550   4.820   5.629   2.855  2.6734 -1.2467 -1.7654
 5196TIP3   OH215551   0.236   6.008   2.827 -0.2709  0.0989  0.1596
 5196TIP3    H115552   0.301   6.072   2.858 -0.4765  0.4632 -0.1523
 5196TIP3    H215553   0.185   5.986   2.904  2.6965 -3.2610  1.4488
 5197TIP3   OH215554   2.761   4.322   0.270 -0.1897 -0.0878  0.0807
 5197TIP3    H115555   2.805   4.303   0.187 -1.6436 -3.7277 -0.0744
 5197TIP3    H215556   2.691   4.384   0.247  0.0488 -0.2664 -1.2193
 5198TIP3   OH215557   5.680   2.782   2.644  0.4731 -0.1460 -0.2865
 5198TIP3    H115558   5.748   2.742   2.591  0.4138 -0.3563 -0.2041
 5198TIP3    H215559   5.665   2.720   2.716 -0.5176 -0.5849 -0.8485
 5199TIP3   OH215560   3.096   6.666   0.051  0.4076 -0.3153 -0.2957
 5199TIP3    H115561   3.041   6.619   0.114  0.3649  0.1467  0.0174
 5199TIP3    H215562   3.039   6.679  -0.025  0.7709 -1.7762 -0.8555
 5200TIP3   OH215563   6.095   1.406   0.977 -0.0723  0.5818 -0.3455
 5200TIP3    H115564   6.090   1.500   0.960  1.4427  1.1519  1.8884
 5200TIP3    H215565   6.005   1.382   1.002 -0.1007  1.9347  1.0662
 5201TIP3   OH215566   3.923   2.723   1.933  0.5379  0.0851 -0.1119
 5201TIP3    H115567   3.833   2.746   1.956  0.5457 -0.4622  0.4852
 5201TIP3    H215568   3.922   2.714   1.838 -0.4054 -1.4777  0.0254
 5202TIP3   OH215569   1.255   6.800   0.190 -0.2568 -0.3717  0.1417
 5202TIP3    H115570   1.263   6.707   0.168 -1.1302 -0.7030  1.1126
 5202TIP3    H215571   1.162   6.819   0.181  0.1619  0.9868 -2.0866
 5203TIP3   OH215572   4.029   4.624   2.437 -0.1980 -0.0937  0.2002
 5203TIP3    H115573   3.988   4.555   2.385  0.9193 -1.3572  0.9587
 5203TIP3    H215574   3.957   4.685   2.454 -0.8294 -0.1311 -1.9381
 5204TIP3   OH215575   5.420   0.351   5.824  0.1260 -0.0471  0.3359
 5204TIP3    H115576   5.331   0.318   5.809  0.5089 -0.9012 -0.1033
 5204TIP3    H215577   5.470   0.274   5.850  1.0749  0.1334 -0.8813
 5205TIP3   OH215578   3.442   3.763   0.027  0.2448  0.1879 -0.4965
 5205TIP3    H115579   3.537   3.777   0.026  0.8346 -2.7299 -3.4151
 5205TIP3    H215580   3.410   3.812  -0.049 -0.4938  0.5043  0.0059
 5206TIP3   OH215581   1.743   2.134   4.525 -0.0604  0.1968 -0.2159
 5206TIP3    H115582   1.817   2.184   4.492  0.6302 -1.1836 -0.8809
 5206TIP3    H215583   1.680   2.135   4.453 -0.6889  1.3268  0.3301
 5207TIP3   OH215584   5.075   1.210   2.402 -0.1442 -0.1951  0.1544
 5207TIP3    H115585   5.162   1.175   2.416 -0.4309 -0.0000  3.1311
 5207TIP3    H215586   5.016   1.139   2.428 -0.8532  0.1187 -0.5571
 5208TIP3   OH215587   3.862   2.496   1.719 -0.3586  0.1410  0.0246
 5208TIP3    H115588   3.850   2.408   1.755 -2.1836  0.1560 -0.4504
 5208TIP3    H215589   3.943   2.528   1.760 -1.2337 -0.6284  2.5208
 5209TIP3   OH215590   2.289   6.765   5.352 -0.1035 -0.0701  0.0546
 5209TIP3    H115591   2.204   6.721   5.355 -0.0164 -0.2253  0.3127
 5209TIP3    H215592   2.353   6.694   5.347  0.0521  0.0072  0.7749
 5210TIP3   OH215593   1.838   6.387   1.800 -0.8100 -0.2242  0.3531
 5210TIP3    H115594   1.863   6.410   1.889 -0.9270 -1.0330  0.6076
 5210TIP3    H215595   1.920   6.388   1.751 -0.9385  1.6066  0.1340
 5211TIP3   OH215596   3.649   6.457   3.366  0.2075 -0.0387  0.0622
 5211TIP3    H115597   3.728   6.404   3.358 -1.7877 -3.0749 -1.6670
 5211TIP3    H215598   3.603   6.421   3.441 -0.1589  0.8404  0.2792
 5212TIP3   OH215599   5.544   0.401   1.095  0.0711 -0.0392  0.2767
 5212TIP3    H115600   5.608   0.401   1.024  0.4549  1.8215  0.5764
 5212TIP3    H215601   5.590   0.357   1.167  1.0159  1.1636  0.4480
 5213TIP3   OH215602   4.561   0.751   2.002 -0.3991 -0.8974 -0.2357
 5213TIP3    H115603   4.537   0.837   1.968  0.8205 -1.0177 -1.4850
 5213TIP3    H215604   4.558   0.761   2.098  1.4986  1.0959 -0.3035
 5214TIP3   OH215605   1.422   5.358   3.824  0.1796  0.2612 -0.7940
 5214TIP3    H115606   1.508   5.349   3.864 -1.1169 -1.2258  1.9466
 5214TIP3    H215607   1.389   5.442   3.858  0.2465  0.4948 -1.2899
 5215TIP3   OH215608   0.259   3.861   5.640  0.0986  0.5083  0.5866
 5215TIP3    H115609   0.306   3.842   5.559  1.4269  0.8982  1.2536
 5215TIP3    H215610   0.204   3.937   5.618 -1.2939 -0.7705 -0.5726
 5216TIP3   OH215611   1.570   3.908   3.448  0.3039  0.0318 -0.0590
 5216TIP3    H115612   1.610   3.994   3.459 -0.2072  0.3967 -0.9166
 5216TIP3    H215613   1.480   3.926   3.423  0.2863 -0.7496 -0.6145
 5217TIP3   OH215614   1.083   2.119   1.245  0.3826 -0.0095  0.3784
 5217TIP3    H115615   1.052   2.032   1.270  0.5764 -0.5642 -1.2234
 5217TIP3    H215616   1.061   2.127   1.152 -0.1466  1.8887  0.6284
 5218TIP3   OH215617   7.003   1.094   5.198 -0.1322  0.2808 -0.4340
 5218TIP3    H115618   7.055   1.056   5.128  0.8467  1.5021 -0.4054
 5218TIP3    H215619   6.950   1.160   5.155 -0.8026 -0.1438 -0.2737
 5219TIP3   OH215620   2.912   6.441   5.298  0.2052 -0.0765 -0.2587
 5219TIP3    H115621   2.879   6.408   5.214 -0.0791 -2.1324  0.5868
 5219TIP3    H215622   3.007   6.436   5.290  0.1754 -0.4259 -0.4068
 5220TIP3   OH215623   4.896   4.160   1.288  0.1067 -0.1382  0.3387
 5220TIP3    H115624   4.839   4.225   1.247  0.7932 -0.1940 -0.7480
 5220TIP3    H215625   4.886   4.175   1.382 -1.7444 -0.1959  0.1881
 5221TIP3   OH215626   0.994   3.224   0.067  0.3620 -0.5013 -0.5848
 5221TIP3    H115627   1.019   3.276  -0.009 -2.1524 -0.3169 -1.3714
 5221TIP3    H215628   0.917   3.268   0.103 -0.1247 -2.0916  0.4573
 5222TIP3   OH215629   0.628   0.265   2.114  0.3186  0.2138  0.1297
 5222TIP3    H115630   0.684   0.244   2.039  0.2536 -0.6622  0.3250
 5222TIP3    H215631   0.672   0.226   2.189 -0.1652  0.1762  0.3988
 5223TIP3   OH215632   5.784   4.625   1.331  0.1688 -0.2118 -0.0284
 5223TIP3    H115633   5.715   4.567   1.298 -1.9661  2.2355 -0.1481
 5223TIP3    H215634   5.824   4.662   1.252  0.9315 -0.7914  0.0678
 5224TIP3   OH215635   3.259   1.414   3.855 -0.5653 -0.3616 -0.2013
 5224TIP3    H115636   3.337   1.388   3.805 -0.6317 -1.0817  0.0626
 5224TIP3    H215637   3.265   1.365   3.936  0.1491  1.6859  1.0526
 5225TIP3   OH215638   3.926   1.919   2.883 -0.1842 -0.2412  0.4900
 5225TIP3    H115639   3.910   1.995   2.939 -0.2395 -0.2746  0.5196
 5225TIP3    H215640   4.020   1.922   2.865 -0.5165  1.1925 -1.4539
 5226TIP3   OH215641   4.169   0.591   2.546  0.0715  0.6145  0.1351
 5226TIP3    H115642   4.230   0.634   2.605  0.5082 -0.5049  0.5239
 5226TIP3    H215643   4.094   0.569   2.601  0.5971 -0.6823  0.3718
 5227TIP3   OH215644   5.343   1.201   3.041 -0.0836 -0.0709 -0.2873
 5227TIP3    H115645   5.330   1.209   3.136  2.3752  0.5854  0.0432
 5227TIP3    H215646   5.313   1.284   3.006  0.1622  0.1617  0.0479
 5228TIP3   OH215647   6.917   3.092   5.199 -0.7358  0.3117  0.6268
 5228TIP3    H115648   6.893   3.008   5.161 -0.1195  1.0806 -1.6503
 5228TIP3    H215649   6.988   3.124   5.143 -2.6011  3.4512 -0.1815
 5229TIP3   OH215650   6.988   2.787   2.326 -0.3733  0.2113 -0.3193
 5229TIP3    H115651   6.909   2.836   2.348 -0.4578 -0.2776  0.5371
 5229TIP3    H215652   6.999   2.726   2.399  0.2605 -0.3818 -0.8909
 5230TIP3   OH215653   2.176   5.876   4.676  0.8890  0.0650 -0.1513
 5230TIP3    H115654   2.162   5.827   4.757  1.3564  0.0236 -0.0949
 5230TIP3    H215655   2.097   5.859   4.624  0.0864  0.9555  0.7210
 5231TIP3   OH215656   0.071   4.242   0.907 -0.0146  0.0251 -0.4352
 5231TIP3    H115657   0.107   4.317   0.860 -0.2657 -0.5531 -1.5847
 5231TIP3    H215658  -0.002   4.213   0.853 -1.0583  0.0404  0.9164
 5232TIP3   OH215659   6.339   2.939   3.962 -0.7621 -0.2370 -0.3290
 5232TIP3    H115660   6.321   3.032   3.971  0.5873  0.4159 -3.3110
 5232TIP3    H215661   6.431   2.935   3.935  0.3803 -2.7145  3.2058
 5233TIP3   OH215662   4.081   1.608   1.609  0.5324  0.1486 -0.1813
 5233TIP3    H115663   4.042   1.527   1.642  1.2669 -0.2187 -0.2004
 5233TIP3    H215664   4.095   1.592   1.516 -0.0079  0.5822 -0.3487
 5234TIP3   OH215665   6.233   0.947   1.506  0.6771 -0.0393 -0.5026
 5234TIP3    H115666   6.190   1.024   1.468  0.5941 -0.1754 -0.6889
 5234TIP3    H215667   6.223   0.958   1.600 -1.0225 -0.7605 -0.5551
 5235TIP3   OH215668   4.952   5.208   4.544  0.9304  0.0754  0.5457
 5235TIP3    H115669   4.980   5.297   4.522 -1.7977  0.3666 -2.6100
 5235TIP3    H215670   5.018   5.151   4.504  1.1197  0.7128 -0.0563
 5236TIP3   OH215671   6.315   6.284   0.226  0.2900  0.3966 -0.1261
 5236TIP3    H115672   6.367   6.339   0.168  1.1922 -1.5769 -1.3055
 5236TIP3    H215673   6.372   6.209   0.245 -0.0400  0.8458  3.2139
 5237TIP3   OH215674   1.071   0.841   2.279 -0.0189 -0.1680  0.0876
 5237TIP3    H115675   1.122   0.878   2.350 -0.5782  0.1395  0.3387
 5237TIP3    H215676   1.040   0.757   2.313 -0.1830 -0.0764  0.1712
 5238TIP3   OH215677   0.553   4.578   3.891  0.5662 -0.2347  0.2489
 5238TIP3    H115678   0.595   4.618   3.815 -0.0040 -0.0569  0.0202
 5238TIP3    H215679   0.476   4.533   3.855  0.5049 -0.4706  0.6692
 5239TIP3   OH215680   3.733   5.184   4.640  0.3494 -0.0834 -0.1898
 5239TIP3    H115681   3.717   5.100   4.597 -0.4067  0.9150 -1.9698
 5239TIP3    H215682   3.725   5.165   4.734 -0.2803 -1.8845 -0.5704
 5240TIP3   OH215683   5.796   4.859   1.792  0.2769 -0.0135 -0.3511
 5240TIP3    H115684   5.727   4.870   1.857 -0.1906 -0.9273 -0.6813
 5240TIP3    H215685   5.777   4.775   1.751  1.0866  0.1357 -1.0488
 5241TIP3   OH215686   6.249   0.945   1.804 -0.1584  0.2421 -0.0379
 5241TIP3    H115687   6.258   0.957   1.899  1.2701  0.2879 -0.1646
 5241TIP3    H215688   6.180   0.879   1.795  0.7383 -0.9088  1.1095
 5242TIP3   OH215689   5.301   5.225   0.942  0.8021  0.5731 -0.3588
 5242TIP3    H115690   5.349   5.307   0.950  1.1664  0.5036 -1.6122
 5242TIP3    H215691   5.277   5.202   1.032  0.4830  2.1546 -0.0167
 5243TIP3   OH215692   6.328   6.503   4.665  0.0758  0.7407 -0.2729
 5243TIP3    H115693   6.420   6.507   4.690  0.3601  1.7155 -1.3617
 5243TIP3    H215694   6.287   6.447   4.731  1.6934 -0.8685 -0.5616
 5244TIP3   OH215695   2.744   0.847   2.046  0.2662  0.7868 -0.3728
 5244TIP3    H115696   2.773   0.770   2.095 -0.1279  1.1343  0.4331
 5244TIP3    H215697   2.732   0.816   1.957  0.3048 -0.0363 -0.1002
 5245TIP3   OH215698   6.868   6.806   4.224  0.4274  0.4825  0.1711
 5245TIP3    H115699   6.871   6.710   4.227  1.8025  0.4651 -0.6872
 5245TIP3    H215700   6.775   6.826   4.215  0.2583 -0.8912 -1.8682
 5246TIP3   OH215701   2.601   4.871   2.430  0.7248 -0.1623 -0.4095
 5246TIP3    H115702   2.651   4.948   2.404 -0.4770  1.2449  1.2115
 5246TIP3    H215703   2.547   4.851   2.353  0.5646  1.0606 -0.6383
 5247TIP3   OH215704   1.980   5.834   4.408 -0.0037  0.0231 -0.0183
 5247TIP3    H115705   2.047   5.821   4.341  0.1615  1.5754 -0.1914
 5247TIP3    H215706   1.988   5.757   4.465  0.7459 -0.6643 -1.0132
 5248TIP3   OH215707   5.736   6.543   1.585  0.0708 -0.0448  0.8470
 5248TIP3    H115708   5.822   6.525   1.548  0.1746  0.3961  0.8807
 5248TIP3    H215709   5.676   6.535   1.510  0.0322 -1.1278  0.9658
 5249TIP3   OH215710   2.219   4.511   0.975  0.2272 -0.2030  0.2836
 5249TIP3    H115711   2.243   4.492   0.885 -1.1785  0.6410 -0.3006
 5249TIP3    H215712   2.298   4.550   1.013  1.0877 -1.2976 -0.3184
 5250TIP3   OH215713   2.350   2.887   0.388 -0.6251 -0.3438  0.2262
 5250TIP3    H115714   2.297   2.807   0.390 -0.1915 -0.8235 -2.7241
 5250TIP3    H215715   2.434   2.859   0.353  0.6984  0.8896  2.2519
 5251TIP3   OH215716   6.445   2.415   1.283  0.4510  0.4406 -0.0397
 5251TIP3    H115717   6.476   2.402   1.373 -0.0861 -0.1675  0.0717
 5251TIP3    H215718   6.477   2.501   1.259  1.1103  0.3678  0.5260
 5252TIP3   OH215719   1.108   6.384   1.621  0.1243  0.2882 -0.1658
 5252TIP3    H115720   1.014   6.397   1.613  0.1166  0.3169 -0.0317
 5252TIP3    H215721   1.146   6.466   1.589  0.1834 -0.5274 -2.3799
 5253TIP3   OH215722   7.114   2.838   4.489  0.7432  0.3221 -0.2015
 5253TIP3    H115723   7.203   2.817   4.516  0.2848 -0.0207  1.1098
 5253TIP3    H215724   7.087   2.908   4.549 -0.3748 -0.5846  0.3730
 5254TIP3   OH215725   1.590   3.857   5.299 -0.6593 -0.2038  0.2332
 5254TIP3    H115726   1.625   3.771   5.321  0.1948  0.1790  0.4238
 5254TIP3    H215727   1.505   3.839   5.260 -0.1087 -1.2069 -0.5636
 5255TIP3   OH215728   0.676   0.465   3.489 -0.1782  0.5234 -0.0239
 5255TIP3    H115729   0.618   0.523   3.441 -1.6809 -0.3950  0.6349
 5255TIP3    H215730   0.676   0.383   3.439  0.9751  0.6580 -0.2897
 5256TIP3   OH215731   7.143   6.770   2.292  0.5091 -0.0186  0.7284
 5256TIP3    H115732   7.157   6.778   2.387  0.5841  0.8495  0.6512
 5256TIP3    H215733   7.105   6.683   2.281  2.2845 -0.9227  1.3584
 5257TIP3   OH215734   2.466   6.098   2.018 -0.3475 -0.0208 -0.2092
 5257TIP3    H115735   2.513   6.091   2.101 -0.5466 -0.7510 -0.1494
 5257TIP3    H215736   2.441   6.008   1.997  0.7265 -0.0197 -1.6508
 5258TIP3   OH215737   0.808   1.521   0.258  0.1252 -0.0459 -0.2881
 5258TIP3    H115738   0.800   1.587   0.327  1.1541 -0.8267  0.6087
 5258TIP3    H215739   0.891   1.478   0.276  0.4995 -0.1679 -2.1238
 5259TIP3   OH215740   3.959   4.597   4.240  0.2661  0.6032  0.3678
 5259TIP3    H115741   4.017   4.579   4.314 -0.7678  1.4951  1.4588
 5259TIP3    H215742   3.871   4.575   4.273 -0.0226 -1.1170 -1.3632
 5260TIP3   OH215743   5.262   3.825   1.135  0.0425 -0.0841 -0.5009
 5260TIP3    H115744   5.212   3.887   1.188  0.4340 -0.9913  0.9685
 5260TIP3    H215745   5.201   3.753   1.119  1.0112 -1.6014  2.0236
 5261TIP3   OH215746   6.309   5.025   4.550  0.2251 -0.1132  0.3055
 5261TIP3    H115747   6.279   5.060   4.466  1.0323 -3.2187 -1.4367
 5261TIP3    H215748   6.229   5.002   4.597 -0.2341  1.6937  0.4686
 5262TIP3   OH215749   5.318   2.582   2.694  0.3045  0.0584  0.4210
 5262TIP3    H115750   5.359   2.535   2.620  0.1487  0.1575  0.2710
 5262TIP3    H215751   5.224   2.579   2.675  0.3698  1.5651 -0.2736
 5263TIP3   OH215752   6.403   1.588   3.082  0.2176  0.2835 -0.3935
 5263TIP3    H115753   6.450   1.672   3.078  1.2499 -0.2319  0.4037
 5263TIP3    H215754   6.470   1.524   3.107 -0.5014 -0.8268 -1.1909
 5264TIP3   OH215755   0.080   4.972   4.124  0.3185 -0.0552  0.2422
 5264TIP3    H115756   0.066   4.952   4.032  0.4336  1.1493 -0.0558
 5264TIP3    H215757   0.092   5.067   4.127  2.1033 -0.2584  1.2739
 5265TIP3   OH215758   0.275   1.674   4.456 -0.4683  0.6952 -0.5517
 5265TIP3    H115759   0.234   1.605   4.404  0.0368  0.8035 -1.1044
 5265TIP3    H215760   0.303   1.739   4.392  2.2439 -0.2253 -0.4376
 5266TIP3   OH215761   6.562   3.868   5.619 -0.3308 -0.1628  0.4318
 5266TIP3    H115762   6.649   3.906   5.628 -1.3143  1.7419  3.2379
 5266TIP3    H215763   6.564   3.790   5.674 -0.0970 -0.8247 -0.4834
 5267TIP3   OH215764   3.505   0.776   5.615  0.3304  0.0127  0.2073
 5267TIP3    H115765   3.561   0.807   5.687 -1.0060  1.0905  0.8153
 5267TIP3    H215766   3.567   0.746   5.548  1.6305  0.7795  1.0218
 5268TIP3   OH215767   0.168   1.585   3.586 -0.2848 -0.0267  0.0631
 5268TIP3    H115768   0.239   1.617   3.530 -0.3165  0.8942  0.5318
 5268TIP3    H215769   0.212   1.555   3.665 -0.2541 -1.1925 -0.3756
 5269TIP3   OH215770   5.529   1.613   0.385  0.3498 -0.4070 -0.2360
 5269TIP3    H115771   5.549   1.537   0.440 -0.6520 -0.1818  0.4685
 5269TIP3    H215772   5.488   1.676   0.445  0.1663  0.2521 -1.0328
 5270TIP3   OH215773   3.125   1.849   1.640  0.2981 -0.2741  0.2776
 5270TIP3    H115774   3.196   1.863   1.702 -0.0326  0.7628  0.4486
 5270TIP3    H215775   3.136   1.919   1.575 -2.1715  1.7869  1.8490
 5271TIP3   OH215776   4.069   1.773   2.175 -0.0857  0.2678  0.3680
 5271TIP3    H115777   4.004   1.708   2.149 -0.1184  0.8850 -1.2446
 5271TIP3    H215778   4.078   1.829   2.098  1.4038  0.9781  1.0246
 5272TIP3   OH215779   6.822   3.723   1.027  0.3753  0.4273  0.1058
 5272TIP3    H115780   6.745   3.725   0.969  0.1398  1.8782  0.4283
 5272TIP3    H215781   6.785   3.727   1.115  0.8061  1.1669  0.2612
 5273TIP3   OH215782   6.113   3.265   0.421  0.4486 -0.3848 -0.2208
 5273TIP3    H115783   6.140   3.268   0.513  3.0360 -0.4368 -0.8838
 5273TIP3    H215784   6.048   3.335   0.412 -0.5071 -0.9492  1.7956
 5274TIP3   OH215785   0.936   4.756   4.201 -0.1480 -0.2331  0.3312
 5274TIP3    H115786   1.023   4.781   4.232 -0.3611  0.4260  0.4061
 5274TIP3    H215787   0.934   4.782   4.109 -1.1631  2.2173  0.9635
 5275TIP3   OH215788   1.866   2.235   1.334 -0.0791 -0.0975  0.3416
 5275TIP3    H115789   1.930   2.203   1.271  0.6185 -0.3858  1.1725
 5275TIP3    H215790   1.831   2.155   1.375  2.5727  0.0655  3.3212
 5276TIP3   OH215791   4.882   3.900   0.406 -0.3848 -0.3498 -0.4902
 5276TIP3    H115792   4.848   3.814   0.382  1.8363 -1.2257 -0.7300
 5276TIP3    H215793   4.844   3.918   0.492 -1.3498 -1.2758 -0.6961
 5277TIP3   OH215794   2.792   0.531   1.689 -0.1949 -0.5569  0.2204
 5277TIP3    H115795   2.717   0.588   1.669 -0.2425 -0.4163  0.7728
 5277TIP3    H215796   2.753   0.448   1.715 -0.1961 -0.3069  1.0754
 5278TIP3   OH215797   1.830   3.614   5.108  0.0478 -0.2929 -0.5395
 5278TIP3    H115798   1.782   3.660   5.040  1.1835  0.5093 -0.8356
 5278TIP3    H215799   1.921   3.640   5.095  0.3820 -0.6402  0.8743
 5279TIP3   OH215800   5.856   2.643   3.840  0.0669  0.2932 -0.2034
 5279TIP3    H115801   5.824   2.650   3.930  0.6991 -0.1344  0.0621
 5279TIP3    H215802   5.799   2.577   3.800  0.6702 -0.5590  0.3017
 5280TIP3   OH215803   4.164   3.070   2.823  0.0752 -0.5618  0.0665
 5280TIP3    H115804   4.253   3.102   2.834  0.7184 -2.0891 -0.4647
 5280TIP3    H215805   4.148   3.073   2.729 -2.1773  3.9875  0.2671
 5281TIP3   OH215806   0.883   3.771   4.975  0.1037  0.5044 -0.2339
 5281TIP3    H115807   0.925   3.850   4.942 -2.0017  2.2663  1.0405
 5281TIP3    H215808   0.859   3.793   5.065  0.1908 -1.9204  0.4429
 5282TIP3   OH215809   4.433   5.716   1.660 -0.4667 -0.4733 -0.5249
 5282TIP3    H115810   4.510   5.663   1.677  0.7688  1.6703  1.0081
 5282TIP3    H215811   4.389   5.725   1.745  0.0887  1.9353 -0.4166
 5283TIP3   OH215812   6.667   0.760   0.283  0.6932 -0.3476 -1.0287
 5283TIP3    H115813   6.703   0.756   0.194 -2.3129  1.4663 -2.4829
 5283TIP3    H215814   6.594   0.699   0.282  0.3007  0.0830  0.0377
 5284TIP3   OH215815   0.591   4.772   0.023 -0.1961 -0.1916  0.1936
 5284TIP3    H115816   0.521   4.732   0.075  0.1831  0.8509  1.5618
 5284TIP3    H215817   0.620   4.703  -0.036 -2.2229 -0.7198 -0.2769
 5285TIP3   OH215818   1.747   2.671   4.420 -0.1118  0.6476 -0.8389
 5285TIP3    H115819   1.673   2.626   4.378 -0.3984  0.1046  0.2144
 5285TIP3    H215820   1.709   2.711   4.498  0.6137  0.7900 -0.5572
 5286TIP3   OH215821   1.297   6.573   0.759  0.0834 -0.9439 -0.7449
 5286TIP3    H115822   1.216   6.623   0.769  0.6453 -0.3249  1.1864
 5286TIP3    H215823   1.338   6.610   0.681 -0.2523  0.5702 -0.2379
 5287TIP3   OH215824   6.231   3.794   1.836 -0.0410  0.0173  0.2004
 5287TIP3    H115825   6.314   3.807   1.882  0.8250 -2.0543 -0.6336
 5287TIP3    H215826   6.230   3.862   1.768  1.5270 -0.5780 -0.4658
 5288TIP3   OH215827   2.834   3.740   2.746 -0.1783  0.7845 -0.6200
 5288TIP3    H115828   2.752   3.785   2.769  0.1754  1.4583 -0.6622
 5288TIP3    H215829   2.895   3.765   2.815 -0.6101 -1.5213  0.6813
 5289TIP3   OH215830   1.208   3.431   2.762 -0.7393 -0.2625  0.9719
 5289TIP3    H115831   1.237   3.479   2.684  0.8460 -2.1380  0.3259
 5289TIP3    H215832   1.204   3.340   2.733 -1.0882 -0.8714  2.8405
 5290TIP3   OH215833   1.477   0.482   5.052 -0.3219  0.0666 -0.4248
 5290TIP3    H115834   1.412   0.452   4.988 -0.0671 -0.5002 -0.4233
 5290TIP3    H215835   1.556   0.498   5.000 -0.6390  1.3786 -0.5258
 5291TIP3   OH215836   0.729   0.400   0.688 -0.2053 -0.5254 -0.3880
 5291TIP3    H115837   0.746   0.377   0.596 -1.6046 -1.4292 -0.4539
 5291TIP3    H215838   0.634   0.411   0.692 -0.1095 -0.0385  0.8676
 5292TIP3   OH215839   1.376   6.764   5.032  0.1906  0.1103 -0.7349
 5292TIP3    H115840   1.373   6.732   4.942 -0.6866 -0.3127 -0.5650
 5292TIP3    H215841   1.449   6.717   5.072  0.2631 -0.0773 -1.0853
 5293TIP3   OH215842   6.868   2.962   5.462 -0.1363 -0.0379  0.7222
 5293TIP3    H115843   6.884   2.916   5.545  1.0306  0.0314  0.5568
 5293TIP3    H215844   6.856   2.892   5.398  1.8608 -0.1756  0.4284
 5294TIP3   OH215845   6.128   4.167   2.218  0.2838  0.9564 -0.0024
 5294TIP3    H115846   6.077   4.153   2.138  0.2228 -1.2544  0.3653
 5294TIP3    H215847   6.107   4.257   2.244 -3.9368  0.0776  0.4057
 5295TIP3   OH215848   3.740   1.316   5.345 -0.1682  0.9338  0.1691
 5295TIP3    H115849   3.825   1.288   5.311 -1.1433 -0.7086 -1.0216
 5295TIP3    H215850   3.727   1.262   5.423 -1.0169 -0.3635 -0.8313
 5296TIP3   OH215851   6.934   2.722   3.494  0.9017  0.4543  1.2737
 5296TIP3    H115852   6.998   2.782   3.455  2.5973 -0.8331  1.9671
 5296TIP3    H215853   6.969   2.635   3.477 -2.0181 -0.4910 -0.6140
 5297TIP3   OH215854   4.828   5.656   0.197  0.4953  0.0510  0.0975
 5297TIP3    H115855   4.880   5.654   0.277  0.2300  1.1602  0.3130
 5297TIP3    H215856   4.786   5.570   0.193 -1.5493  0.8095  2.5567
 5298TIP3   OH215857   1.682   4.938   4.074 -0.4823 -0.3405 -0.2232
 5298TIP3    H115858   1.718   4.971   3.991  3.3782  0.7641  1.6688
 5298TIP3    H215859   1.617   5.004   4.100 -0.7520  0.0013 -1.6808
 5299TIP3   OH215860   4.351   6.419   0.609 -0.1255 -0.0581  0.1523
 5299TIP3    H115861   4.309   6.500   0.580  0.7940 -0.0501 -1.2569
 5299TIP3    H215862   4.402   6.390   0.533  1.5612 -0.6263  1.4399
 5300TIP3   OH215863   1.154   6.332   1.884  0.6065  0.1799 -0.0577
 5300TIP3    H115864   1.235   6.289   1.909 -0.9893 -2.3690  1.1396
 5300TIP3    H215865   1.158   6.338   1.788  1.7807 -0.7450 -0.0809
 5301TIP3   OH215866   6.741   4.888   5.067 -0.3915  0.3501  0.2511
 5301TIP3    H115867   6.801   4.933   5.008 -0.4775 -0.3518 -0.3926
 5301TIP3    H215868   6.795   4.821   5.110 -0.4384  0.5444  0.6224
 5302TIP3   OH215869   4.626   5.780   2.962 -0.2761  0.5121 -0.2099
 5302TIP3    H115870   4.679   5.840   3.014 -0.5797 -0.7896  1.7048
 5302TIP3    H215871   4.668   5.781   2.876  0.9142  1.9252  0.3264
 5303TIP3   OH215872   2.391   4.035   2.313  0.0692 -0.8301  0.0118
 5303TIP3    H115873   2.405   4.126   2.290 -2.7050 -0.8116 -2.0197
 5303TIP3    H215874   2.383   4.035   2.408 -0.8891  1.2063 -0.0299
 5304TIP3   OH215875   6.277   3.810   1.140 -0.0221 -0.2145 -0.3441
 5304TIP3    H115876   6.306   3.889   1.186 -2.6312  0.0169  1.1265
 5304TIP3    H215877   6.250   3.841   1.054  0.0585  0.2947 -0.1909
 5305TIP3   OH215878   0.610   6.627   3.128 -0.6069  0.1365 -0.7876
 5305TIP3    H115879   0.699   6.648   3.099  0.2026 -0.1500  1.3000
 5305TIP3    H215880   0.581   6.558   3.069  1.5491 -1.5132 -0.0649
 5306TIP3   OH215881   5.798   5.557   3.893 -0.1099 -0.1343  0.3623
 5306TIP3    H115882   5.779   5.484   3.953  0.6769  0.7195  1.7175
 5306TIP3    H215883   5.726   5.556   3.830 -0.9490 -1.1289  1.2956
 5307TIP3   OH215884   2.993   0.149   0.448 -0.8515  0.5194  0.0391
 5307TIP3    H115885   2.909   0.153   0.403 -0.0860 -3.6520 -2.2227
 5307TIP3    H215886   3.050   0.208   0.398 -1.6146  0.8760 -0.4258
 5308TIP3   OH215887   4.453   1.098   5.388 -0.1334  0.2667  0.1629
 5308TIP3    H115888   4.431   1.091   5.295 -0.8088  1.9717  0.1598
 5308TIP3    H215889   4.520   1.166   5.392 -0.6115  0.7101  0.9770
 5309TIP3   OH215890   5.192   4.736   0.131  0.0818  0.0240 -0.0595
 5309TIP3    H115891   5.237   4.660   0.094  0.3019  0.1843 -0.1264
 5309TIP3    H215892   5.226   4.810   0.081 -1.1187  0.0351 -0.8946
 5310TIP3   OH215893   6.037   6.504   2.942 -0.4483  0.2022 -0.1321
 5310TIP3    H115894   6.061   6.426   2.892  0.1670 -0.4605  1.1727
 5310TIP3    H215895   5.952   6.530   2.906  0.5424  0.5240 -2.4216
 5311TIP3   OH215896   5.108   5.867   4.854 -0.2802 -0.1036 -0.5117
 5311TIP3    H115897   5.047   5.794   4.844  1.0045 -1.2708 -0.1913
 5311TIP3    H215898   5.138   5.886   4.765 -0.8584  0.2647 -0.6325
 5312TIP3   OH215899   1.539   1.911   4.787  0.0422 -0.5328  0.2397
 5312TIP3    H115900   1.583   1.861   4.719 -0.3758  0.2848 -0.6425
 5312TIP3    H215901   1.532   1.850   4.860  0.9377 -1.2662 -0.2619
 5313TIP3   OH215902   1.462   0.659   1.148  0.3182  0.6856  0.2106
 5313TIP3    H115903   1.462   0.713   1.226  0.1837 -0.4863  1.0514
 5313TIP3    H215904   1.550   0.668   1.112 -0.2786  3.0239 -0.8328
 5314TIP3   OH215905   6.692   5.951   5.718  0.5795 -0.3151  0.0745
 5314TIP3    H115906   6.726   6.022   5.663 -0.0498 -1.3991 -1.8196
 5314TIP3    H215907   6.597   5.957   5.708  0.4845 -0.8780  0.6289
 5315TIP3   OH215908   4.232   4.968   3.166 -0.2032  1.1263 -0.0042
 5315TIP3    H115909   4.290   4.987   3.239  0.8313  0.6093 -0.6804
 5315TIP3    H215910   4.235   5.047   3.112  0.2264  0.9240 -0.2746
 5316TIP3   OH215911   3.846   5.908   5.344  0.2373 -0.3152 -0.0434
 5316TIP3    H115912   3.802   5.954   5.415 -1.4633  0.3188 -1.4306
 5316TIP3    H215913   3.871   5.976   5.282  0.8205 -0.9344 -0.5067
 5317TIP3   OH215914   6.357   0.856   1.218 -0.2654  0.0019  0.5880
 5317TIP3    H115915   6.309   0.867   1.300 -0.3111 -1.1566  0.7410
 5317TIP3    H215916   6.333   0.768   1.188  0.1022  0.2326 -0.4357
 5318TIP3   OH215917   1.579   4.087   5.111 -0.4129  0.2724  0.4548
 5318TIP3    H115918   1.580   4.178   5.083  1.3518 -0.1830 -1.1423
 5318TIP3    H215919   1.613   4.089   5.201  0.0689  1.1375  0.2629
 5319TIP3   OH215920   4.302   0.553   3.812 -0.0097 -0.0952  0.6128
 5319TIP3    H115921   4.301   0.459   3.831  0.4935 -0.0557  0.8467
 5319TIP3    H215922   4.310   0.558   3.717  3.4895 -0.3305  0.7590
 5320TIP3   OH215923   1.803   4.769   3.765  0.3772  0.9436  0.0929
 5320TIP3    H115924   1.724   4.770   3.819 -0.3149  0.1012 -0.8501
 5320TIP3    H215925   1.842   4.855   3.779  0.0611  0.8625  1.6630
 5321TIP3   OH215926   7.150   3.234   1.623 -0.6382  0.3367 -0.1393
 5321TIP3    H115927   7.098   3.214   1.701  1.8374 -0.7942  1.3602
 5321TIP3    H215928   7.178   3.148   1.591  0.6036  0.9130 -0.6400
 5322TIP3   OH215929   1.037   0.762   1.502 -0.6479 -0.4378  0.1532
 5322TIP3    H115930   1.028   0.858   1.502 -1.2376 -0.4860  1.1096
 5322TIP3    H215931   1.120   0.746   1.546 -0.2539 -0.3586 -0.5343
 5323TIP3   OH215932   4.847   0.180   3.751 -0.6263  0.3482  0.5770
 5323TIP3    H115933   4.871   0.106   3.694 -0.0455  0.0169  1.2415
 5323TIP3    H215934   4.858   0.257   3.696 -0.3654  0.0091  0.1462
 5324TIP3   OH215935   0.471   3.043   0.934 -0.3580 -0.3993  0.1756
 5324TIP3    H115936   0.381   3.071   0.917 -0.7120 -1.8920 -0.5984
 5324TIP3    H215937   0.514   3.051   0.849 -0.2145 -1.2623  0.1629
 5325TIP3   OH215938   5.224   1.721   1.117  0.1339 -0.5790 -0.2245
 5325TIP3    H115939   5.306   1.680   1.091  0.5022  0.5389 -0.8985
 5325TIP3    H215940   5.248   1.774   1.194 -0.7930 -3.2930  2.1350
 5326TIP3   OH215941   3.722   5.691   1.209 -0.2269 -0.1155 -0.2441
 5326TIP3    H115942   3.807   5.728   1.233 -0.7401  0.1517  1.2712
 5326TIP3    H215943   3.732   5.597   1.226 -0.1946 -0.0988 -0.1666
 5327TIP3   OH215944   1.933   1.207   3.078  0.5079  0.2270  0.4188
 5327TIP3    H115945   1.945   1.298   3.051  0.3501  0.4181  0.9867
 5327TIP3    H215946   1.858   1.209   3.138  0.6413 -0.2424  0.6062
 5328TIP3   OH215947   3.854   0.661   0.201  0.6151  0.0377  0.1627
 5328TIP3    H115948   3.899   0.612   0.270  1.2439 -0.1639 -0.3797
 5328TIP3    H215949   3.925   0.693   0.145  0.1322  0.5326 -0.1722
 5329TIP3   OH215950   3.173   5.462   3.106 -0.0460  0.3746  0.3654
 5329TIP3    H115951   3.176   5.525   3.034 -0.0244  1.2608  1.1230
 5329TIP3    H215952   3.239   5.494   3.168 -0.4204 -0.0830  1.0035
 5330TIP3   OH215953   5.092   4.854   5.535 -0.6398 -0.2034 -0.3313
 5330TIP3    H115954   5.092   4.761   5.514 -0.7971 -0.2095 -0.3111
 5330TIP3    H215955   5.007   4.885   5.504  0.1286  0.3237 -2.0317
 5331TIP3   OH215956   6.027   3.976   2.570  0.1797  0.8644 -0.3645
 5331TIP3    H115957   5.995   4.061   2.540 -0.4556  0.4309 -0.9674
 5331TIP3    H215958   5.955   3.942   2.624  0.1977  0.4666 -0.5937
 5332TIP3   OH215959   2.004   4.084   3.267 -0.4397  0.1514 -0.4681
 5332TIP3    H115960   2.024   4.175   3.289 -0.8746 -0.3069  2.2343
 5332TIP3    H215961   2.084   4.050   3.227  0.4789  1.1810  0.4360
 5333TIP3   OH215962   5.350   2.227   5.668  0.0756  0.0558  0.6148
 5333TIP3    H115963   5.437   2.194   5.646  0.7970  0.7160  2.3201
 5333TIP3    H215964   5.363   2.276   5.749 -1.9170  0.0380  0.9835
 5334TIP3   OH215965   0.697   4.858   4.249 -0.2378  0.2482  0.4085
 5334TIP3    H115966   0.682   4.822   4.336 -0.3475 -0.7667 -0.0013
 5334TIP3    H215967   0.754   4.793   4.206 -1.1764  0.0935 -0.6679
 5335TIP3   OH215968   4.420   5.816   5.018 -0.2163 -0.0678  0.0294
 5335TIP3    H115969   4.486   5.883   5.004  1.6763 -1.8677 -0.0964
 5335TIP3    H215970   4.384   5.835   5.105  0.9792  0.5580  0.4086
 5336TIP3   OH215971   3.046   4.058   2.295  0.1286 -0.2459 -0.0030
 5336TIP3    H115972   3.061   4.090   2.206 -2.0424 -1.7189 -0.9981
 5336TIP3    H215973   3.120   4.001   2.313  0.3869 -0.2618 -1.0527
 5337TIP3   OH215974   5.200   2.688   3.259  0.3550  0.0158  0.3007
 5337TIP3    H115975   5.108   2.662   3.267 -0.2148  1.6688 -0.2664
 5337TIP3    H215976   5.228   2.703   3.350  0.3734 -1.3718  0.5482
 5338TIP3   OH215977   0.497   3.717   4.787 -0.0861 -0.0779 -0.0048
 5338TIP3    H115978   0.490   3.747   4.878 -0.8476  2.7075 -0.8954
 5338TIP3    H215979   0.588   3.686   4.780  0.3483  0.7625  1.4051
 5339TIP3   OH215980   3.322   5.032   2.032 -0.0945 -0.4810  0.6145
 5339TIP3    H115981   3.275   5.114   2.048  1.5484  0.5224  0.6402
 5339TIP3    H215982   3.388   5.056   1.966  0.4309 -1.7848  0.6468
 5340TIP3   OH215983   4.035   4.420   5.377  0.5139  0.1706 -0.0517
 5340TIP3    H115984   3.997   4.501   5.343 -0.6873 -1.1229 -2.0036
 5340TIP3    H215985   3.986   4.402   5.457 -0.6122  0.3372 -0.6889
 5341TIP3   OH215986   0.802   0.682   1.613 -0.1277  0.6139 -0.0414
 5341TIP3    H115987   0.856   0.738   1.558  2.2736 -0.4595  1.0588
 5341TIP3    H215988   0.858   0.661   1.688 -1.6927 -1.4558  0.6631
 5342TIP3   OH215989   4.556   2.839   0.062 -0.3045  0.9084  0.6622
 5342TIP3    H115990   4.462   2.835   0.083 -0.8614 -1.2424 -1.7253
 5342TIP3    H215991   4.564   2.916   0.006 -0.7755  0.7911  0.4227
 5343TIP3   OH215992   7.034   1.655   2.874 -0.1739 -0.2340  0.3678
 5343TIP3    H115993   7.099   1.625   2.938  0.5004  1.0526  0.3200
 5343TIP3    H215994   7.019   1.579   2.817 -0.6678 -1.3468  1.9336
 5344TIP3   OH215995   3.971   4.910   2.838  0.4937  0.0926 -0.0284
 5344TIP3    H115996   3.971   4.829   2.890 -1.2736 -0.1677 -0.3753
 5344TIP3    H215997   4.022   4.887   2.760  1.1452 -0.2517  0.4799
 5345TIP3   OH215998   3.040   0.563   3.771  0.0981  0.0793 -0.3329
 5345TIP3    H115999   2.995   0.558   3.687 -0.7607  0.6914  0.0770
 5345TIP3    H216000   3.119   0.614   3.754 -1.1645  2.1392 -0.3417
 5346TIP3   OH216001   2.191   5.674   5.442  0.2532  0.4869 -0.5006
 5346TIP3    H116002   2.116   5.665   5.384 -0.1691 -0.4193  0.1616
 5346TIP3    H216003   2.158   5.651   5.529  1.5447 -1.0412 -0.3705
 5347TIP3   OH216004   2.973   5.600   2.607 -0.4421 -0.0617 -0.0133
 5347TIP3    H116005   2.948   5.680   2.559 -2.1419 -0.1360  0.6533
 5347TIP3    H216006   3.063   5.616   2.634 -0.7059  1.6088  0.0330
 5348TIP3   OH216007   2.034   0.743   1.348 -0.5275 -0.3100 -0.4287
 5348TIP3    H116008   2.058   0.753   1.256  1.0895  0.8699  0.0834
 5348TIP3    H216009   2.037   0.831   1.383  1.8375 -1.0303  1.4306
 5349TIP3   OH216010   5.181   3.313   5.494 -0.6433  0.0352  0.0155
 5349TIP3    H116011   5.136   3.395   5.515  1.4203  1.1365  0.4625
 5349TIP3    H216012   5.260   3.315   5.548 -0.4863 -2.2409 -0.0329
 5350TIP3   OH216013   0.997   4.378   0.969 -0.3908  0.0975  0.3275
 5350TIP3    H116014   0.973   4.471   0.965 -0.8483  0.2396  3.4338
 5350TIP3    H216015   0.922   4.336   1.011 -0.6920 -1.9710 -2.0525
 5351TIP3   OH216016   4.023   5.108   3.684  0.4476  0.1886 -0.6014
 5351TIP3    H116017   4.113   5.079   3.703  0.4851 -0.1266 -1.2271
 5351TIP3    H216018   3.977   5.028   3.659 -0.0918  0.3064  0.0024
 5352TIP3   OH216019   3.922   6.713   4.550  0.3849  0.4261  0.3382
 5352TIP3    H116020   3.859   6.655   4.507  0.2294  1.3058 -0.6677
 5352TIP3    H216021   3.973   6.656   4.607 -2.7024 -0.0685  2.9122
 5353TIP3   OH216022   3.396   1.162   0.609  0.1510  0.0442  0.0776
 5353TIP3    H116023   3.361   1.242   0.649  0.6774  0.7127 -0.7620
 5353TIP3    H216024   3.319   1.114   0.579 -0.4885 -1.5040  3.5838
 5354TIP3   OH216025   1.539   6.549   1.248  0.2633 -0.4583 -0.1735
 5354TIP3    H116026   1.628   6.519   1.227  0.5858 -2.0739  2.8629
 5354TIP3    H216027   1.553   6.625   1.303 -0.3059  0.0312 -0.6998
 5355TIP3   OH216028   0.151   5.741   1.256 -0.2106  0.5105 -0.4583
 5355TIP3    H116029   0.205   5.815   1.229 -0.7643  0.7515 -0.9332
 5355TIP3    H216030   0.163   5.735   1.351  0.7242  0.4904 -0.5663
 5356TIP3   OH216031   2.433   5.415   1.913  0.2377 -0.6698 -0.2362
 5356TIP3    H116032   2.400   5.337   1.870 -0.1642 -0.4441 -0.3449
 5356TIP3    H216033   2.380   5.424   1.992  1.0608 -1.1562  0.3893
 5357TIP3   OH216034   3.379   5.450   1.286  0.2980 -0.2257  0.3121
 5357TIP3    H116035   3.453   5.407   1.245  0.6851 -0.1162  0.8938
 5357TIP3    H216036   3.402   5.543   1.286 -0.4624 -0.0158 -0.7943
 5358TIP3   OH216037   2.042   5.756   1.731  0.2976 -0.0028  0.1147
 5358TIP3    H116038   2.053   5.701   1.808 -3.0940  0.0156  0.7609
 5358TIP3    H216039   2.119   5.737   1.677  1.6293 -1.7340  2.4200
 5359TIP3   OH216040   6.849   0.491   5.544 -0.4702  0.4865  0.3730
 5359TIP3    H116041   6.905   0.547   5.597  0.7453 -0.5209  0.1968
 5359TIP3    H216042   6.900   0.475   5.465  0.0962 -2.4214  1.2222
 5360TIP3   OH216043   4.169   4.641   1.699  0.7775 -0.1501 -0.0278
 5360TIP3    H116044   4.157   4.558   1.745  0.8179 -0.7982 -1.1405
 5360TIP3    H216045   4.174   4.707   1.768 -2.0623 -0.6920  0.8532
 5361TIP3   OH216046   4.886   0.424   4.357 -0.1782  0.2283 -0.0078
 5361TIP3    H116047   4.969   0.454   4.395 -0.2968 -1.0522  1.3573
 5361TIP3    H216048   4.875   0.335   4.391 -1.5884 -0.0312 -1.0432
 5362TIP3   OH216049   0.769   4.452   1.647  0.2958  0.3999 -0.2944
 5362TIP3    H116050   0.710   4.448   1.722  0.2663 -1.2432 -0.3592
 5362TIP3    H216051   0.725   4.400   1.580 -0.1963  2.7551 -1.8700
 5363TIP3   OH216052   3.422   6.576   2.995 -0.7993  0.0532 -0.1160
 5363TIP3    H116053   3.395   6.563   3.086 -0.0207  1.8645  0.4167
 5363TIP3    H216054   3.482   6.650   2.998  1.3861 -1.5246 -1.7629
 5364TIP3   OH216055   0.964   5.869   1.288  0.0643  0.6352  0.0997
 5364TIP3    H116056   1.004   5.790   1.324  0.3134  0.6276 -0.1848
 5364TIP3    H216057   0.993   5.870   1.197 -1.4148  0.0909 -0.3899
 5365TIP3   OH216058   3.854   5.332   3.297  0.2140 -0.0067 -0.0474
 5365TIP3    H116059   3.852   5.330   3.201  0.5255  0.0719 -0.0557
 5365TIP3    H216060   3.801   5.257   3.323  2.5875 -1.8938 -0.2954
 5366TIP3   OH216061   1.193   1.906   4.658  0.1953 -0.2663  0.4113
 5366TIP3    H116062   1.184   2.002   4.660 -1.7060 -0.4258  1.5012
 5366TIP3    H216063   1.274   1.889   4.708 -0.6960  0.6845  2.2897
 5367TIP3   OH216064   1.984   1.497   1.302  0.0870 -0.4852 -0.3906
 5367TIP3    H116065   1.949   1.427   1.356  0.1812 -0.4353 -0.2660
 5367TIP3    H216066   1.941   1.485   1.217 -1.0021  0.1752  0.0356
 5368TIP3   OH216067   0.454   3.501   1.532  0.3853  0.5985 -0.3729
 5368TIP3    H116068   0.539   3.509   1.488 -0.2649 -2.3033 -2.4626
 5368TIP3    H216069   0.392   3.484   1.461 -0.9421 -3.0469  1.4135
 5369TIP3   OH216070   4.640   4.973   1.628  0.0032  0.4695 -0.5400
 5369TIP3    H116071   4.586   4.967   1.707  2.2504 -0.2081  1.0397
 5369TIP3    H216072   4.626   4.890   1.584 -0.7501  0.5741 -0.5167
 5370TIP3   OH216073   7.005   1.805   0.321  0.0772 -0.3090  0.2936
 5370TIP3    H116074   7.008   1.869   0.250  1.1328 -0.3986  0.2350
 5370TIP3    H216075   6.913   1.782   0.329 -0.3500  1.2953  0.3954
 5371TIP3   OH216076   1.669   6.421   3.523  0.3558 -0.3509  0.0603
 5371TIP3    H116077   1.645   6.461   3.439  1.4109 -0.8033 -0.4769
 5371TIP3    H216078   1.605   6.456   3.585 -0.5309 -0.1161 -0.9534
 5372TIP3   OH216079   3.474   6.550   4.477 -0.6178  0.5340 -0.4609
 5372TIP3    H116080   3.530   6.524   4.403 -1.2682  0.5083 -0.9441
 5372TIP3    H216081   3.533   6.598   4.535 -0.4722  2.0099 -1.7793
 5373TIP3   OH216082   4.943   2.193   1.882  0.0801  0.6228 -0.4524
 5373TIP3    H116083   5.024   2.145   1.869  0.6950  0.8055  2.1775
 5373TIP3    H216084   4.958   2.278   1.841  1.7995  1.1553  1.1557
 5374TIP3   OH216085   0.543   3.056   4.780 -0.1133 -0.0267 -0.1083
 5374TIP3    H116086   0.610   3.079   4.845  0.5220  0.2807 -0.8528
 5374TIP3    H216087   0.535   3.134   4.725 -2.1145  0.4657  0.7881
 5375TIP3   OH216088   4.366   3.821   1.896 -0.4585 -0.2583  0.2414
 5375TIP3    H116089   4.433   3.853   1.836 -0.3461  1.3736  1.1919
 5375TIP3    H216090   4.369   3.726   1.886  0.7643 -0.1142 -1.0361
 5376TIP3   OH216091   6.887   3.024   3.779 -1.0132 -0.4153  0.2617
 5376TIP3    H116092   6.852   3.052   3.864 -0.1222 -0.2894  0.5927
 5376TIP3    H216093   6.922   2.937   3.796 -0.1428 -0.0823  0.2190
 5377TIP3   OH216094   6.989   6.561   2.352  0.2549 -0.0986 -0.1209
 5377TIP3    H116095   6.954   6.622   2.417  0.1279 -0.3092  0.0101
 5377TIP3    H216096   7.034   6.494   2.404  0.9425  0.2251 -0.2902
 5378TIP3   OH216097   4.261   6.433   2.238  0.2759 -0.3181 -0.4694
 5378TIP3    H116098   4.315   6.411   2.313 -0.8229 -0.9685  0.1663
 5378TIP3    H216099   4.299   6.513   2.203 -0.8345  1.6346  2.4667
 5379TIP3   OH216100   5.966   3.493   3.792 -0.1315 -0.6034  0.1808
 5379TIP3    H116101   5.945   3.424   3.730 -0.2362  0.9093 -1.5640
 5379TIP3    H216102   5.914   3.472   3.870 -2.1602 -1.1457 -1.2270
 5380TIP3   OH216103   0.102   1.731   2.142  0.2335  0.5795 -0.0319
 5380TIP3    H116104   0.067   1.819   2.157  1.3245  1.0250 -0.0488
 5380TIP3    H216105   0.116   1.695   2.230 -2.7058 -0.6507  0.0604
 5381TIP3   OH216106   3.301   5.541   1.736  0.0157  0.6781 -0.5577
 5381TIP3    H116107   3.355   5.616   1.711  1.3374 -0.3211 -0.8286
 5381TIP3    H216108   3.215   5.578   1.757  0.2747  2.1151 -1.8851
 5382TIP3   OH216109   6.196   1.420   3.213  0.1979  0.3077 -0.4928
 5382TIP3    H116110   6.255   1.469   3.155 -0.3290  0.5828 -0.8021
 5382TIP3    H216111   6.255   1.368   3.268  0.7346  0.6898 -0.6955
 5383TIP3   OH216112   3.877   1.663   5.582 -0.7087  0.2388  0.1963
 5383TIP3    H116113   3.955   1.653   5.637 -0.3539 -1.4968 -0.5431
 5383TIP3    H216114   3.907   1.642   5.494 -2.0839 -0.9349 -0.0283
 5384TIP3   OH216115   6.443   3.818   5.385 -0.0594 -0.4230 -0.1493
 5384TIP3    H116116   6.466   3.812   5.478 -1.9383 -0.2668  0.3723
 5384TIP3    H216117   6.469   3.907   5.360 -0.3355 -0.1565  0.4789
 5385TIP3   OH216118   1.351   4.111   1.566  0.3550  0.1917  0.1770
 5385TIP3    H116119   1.413   4.118   1.639 -0.8087  1.6246  1.0726
 5385TIP3    H216120   1.277   4.063   1.602  0.9095 -1.5772 -0.9118
 5386TIP3   OH216121   5.112   3.133   2.430  0.0294 -0.2469 -0.5352
 5386TIP3    H116122   5.084   3.164   2.344 -1.6234  0.6691  0.2897
 5386TIP3    H216123   5.170   3.201   2.462  1.5422 -1.1106 -1.3432
 5387TIP3   OH216124   5.034   2.754   3.697  0.4161 -0.8137 -0.0553
 5387TIP3    H116125   5.016   2.660   3.698  0.1090 -0.7594  0.6633
 5387TIP3    H216126   4.969   2.790   3.637  0.8347 -1.1125 -0.6914
 5388TIP3   OH216127   7.068   3.236   3.162 -0.3742  0.3377  0.3774
 5388TIP3    H116128   7.115   3.195   3.234  0.3405  1.0308  0.3215
 5388TIP3    H216129   7.087   3.330   3.171 -1.1193  0.5416 -0.1052
 5389TIP3   OH216130   5.443   0.777   4.399 -0.1282  0.3950 -0.0319
 5389TIP3    H116131   5.498   0.814   4.468 -1.4481  0.5615  0.9658
 5389TIP3    H216132   5.372   0.732   4.446 -0.3493 -0.6105 -1.2673
 5390TIP3   OH216133   1.915   3.244   4.571 -0.0254 -0.0547 -0.0929
 5390TIP3    H116134   1.930   3.267   4.479  2.0083 -1.1645 -0.1132
 5390TIP3    H216135   1.997   3.203   4.598 -0.9186 -0.5883  1.9683
 5391TIP3   OH216136   1.737   2.591   1.917  0.2760 -0.3864 -0.0163
 5391TIP3    H116137   1.807   2.539   1.880  2.0849 -0.6144  3.3284
 5391TIP3    H216138   1.676   2.527   1.954  1.1000 -0.2250  1.7050
 5392TIP3   OH216139   3.266   3.472   3.345 -0.5246 -0.0857  0.2105
 5392TIP3    H116140   3.190   3.417   3.324 -0.0419 -0.3797 -0.8581
 5392TIP3    H216141   3.328   3.412   3.387  0.3189 -0.5884 -1.6618
 5393TIP3   OH216142   2.227   5.919   3.591 -0.3100 -0.2347 -0.4047
 5393TIP3    H116143   2.260   5.952   3.675  1.9302 -1.2386 -0.7910
 5393TIP3    H216144   2.221   5.997   3.536  3.6213 -0.0774 -0.9176
 5394TIP3   OH216145   2.800   2.660   3.824 -0.1761 -0.4540  0.0314
 5394TIP3    H116146   2.725   2.702   3.866 -0.1822  0.6152 -0.9589
 5394TIP3    H216147   2.785   2.566   3.833 -0.0233 -0.2870  2.6095
 5395TIP3   OH216148   5.015   2.699   1.820  0.0673 -1.1394 -0.4016
 5395TIP3    H116149   4.997   2.666   1.732 -0.1352 -0.6064 -0.5640
 5395TIP3    H216150   5.078   2.637   1.857  0.8279 -0.8771 -1.2415
 5396TIP3   OH216151   2.490   1.052   1.205  0.1287 -0.2703  0.3588
 5396TIP3    H116152   2.473   1.071   1.298  0.5735  1.6852  0.0789
 5396TIP3    H216153   2.421   0.991   1.181  0.8650 -2.0120  2.3441
 5397TIP3   OH216154   5.760   4.582   0.780  0.4085  0.5764 -0.3846
 5397TIP3    H116155   5.829   4.636   0.742  0.9574  0.9203  1.0144
 5397TIP3    H216156   5.715   4.640   0.841  0.1771 -0.1812  0.1883
 5398TIP3   OH216157   4.947   1.060   0.518 -0.0004  0.1426 -0.0244
 5398TIP3    H116158   4.959   1.001   0.444 -0.7926  0.1769 -0.1892
 5398TIP3    H216159   4.861   1.037   0.554  0.9724 -0.8545  1.7735
 5399TIP3   OH216160   2.708   6.639   1.908 -0.0463 -0.3818  0.1290
 5399TIP3    H116161   2.709   6.728   1.874 -0.7063 -0.0861  0.8667
 5399TIP3    H216162   2.712   6.583   1.830 -0.5560  0.2881 -0.3785
 5400TIP3   OH216163   4.257   2.913   3.213 -0.7642  0.6305  0.0714
 5400TIP3    H116164   4.173   2.867   3.206 -0.6232  0.5462 -1.2751
 5400TIP3    H216165   4.313   2.852   3.262 -1.6390  0.9430  1.5240
 5401TIP3   OH216166   6.451   1.784   3.749  0.0385 -0.2760  0.0480
 5401TIP3    H116167   6.499   1.701   3.756 -0.8732 -0.7863  0.4606
 5401TIP3    H216168   6.488   1.827   3.672  0.5119 -1.0803 -0.1837
 5402TIP3   OH216169   2.814   6.085   3.858  0.1068 -0.3501 -0.2268
 5402TIP3    H116170   2.825   6.140   3.781 -1.9123  0.7229  0.1645
 5402TIP3    H216171   2.872   6.010   3.843 -0.2684 -0.2148 -2.8140
 5403TIP3   OH216172   5.225   5.316   4.494 -0.4768  0.0451  0.1677
 5403TIP3    H116173   5.234   5.384   4.427  1.8323  0.6178  0.9952
 5403TIP3    H216174   5.252   5.235   4.450  0.6154  0.3466  0.2644
 5404TIP3   OH216175   0.169   0.284   0.825 -0.0990  0.1324  0.8273
 5404TIP3    H116176   0.124   0.226   0.887  1.6443  0.5082  2.5222
 5404TIP3    H216177   0.101   0.307   0.761 -1.8219 -0.7506  2.2476
 5405TIP3   OH216178   6.971   3.256   5.491  0.5700 -0.2081  0.3891
 5405TIP3    H116179   7.054   3.245   5.538  0.3147 -1.3559  0.5963
 5405TIP3    H216180   6.923   3.321   5.543  1.2136  0.2536  0.4227
 5406TIP3   OH216181   3.989   5.455   1.931 -0.1636 -0.9499  0.7635
 5406TIP3    H116182   3.907   5.405   1.933 -1.1647  0.5584  0.1056
 5406TIP3    H216183   3.995   5.487   1.841  0.7620 -0.4214  0.9985
 5407TIP3   OH216184   2.071   3.233   5.320  0.1262  0.3986 -0.6664
 5407TIP3    H116185   2.155   3.260   5.281  0.5065 -2.1424 -1.8550
 5407TIP3    H216186   2.014   3.218   5.244 -0.5975 -0.2701 -0.0003
 5408TIP3   OH216187   3.685   0.985   2.522 -0.1212 -0.0729 -0.2497
 5408TIP3    H116188   3.754   1.040   2.560 -0.9507  0.6666  0.2081
 5408TIP3    H216189   3.687   1.005   2.429  0.5940 -0.4239 -0.3252
 5409TIP3   OH216190   4.966   4.248   3.531 -0.2254 -0.5861  0.1872
 5409TIP3    H116191   4.904   4.319   3.547  0.5192 -0.2716  1.8524
 5409TIP3    H216192   4.999   4.224   3.617  2.4474 -0.2872 -0.6333
 5410TIP3   OH216193   3.048   4.278   0.392 -0.6852  0.3792  0.4783
 5410TIP3    H116194   3.057   4.225   0.313 -1.6200 -0.5992  1.0073
 5410TIP3    H216195   3.078   4.365   0.366 -1.3714  0.1831 -1.0703
 5411TIP3   OH216196   4.984   6.163   4.877  0.3385 -0.7283 -0.2145
 5411TIP3    H116197   5.012   6.072   4.881 -0.2018 -0.9653 -1.4608
 5411TIP3    H216198   4.987   6.186   4.784 -0.0982  0.3471  0.0127
 5412TIP3   OH216199   2.600   2.923   4.187  0.0558 -0.1220  0.0579
 5412TIP3    H116200   2.629   2.996   4.241 -0.3050  0.2130 -0.1921
 5412TIP3    H216201   2.672   2.861   4.190  0.5557  0.4407 -0.0801
 5413TIP3   OH216202   4.055   2.239   0.045 -0.2445 -0.0316 -0.3530
 5413TIP3    H116203   3.996   2.259  -0.027 -0.4800  2.1942  0.3888
 5413TIP3    H216204   4.142   2.236   0.005 -0.4655  0.3006 -0.8699
 5414TIP3   OH216205   3.638   2.653   3.933  0.3285 -0.3370  0.0817
 5414TIP3    H116206   3.576   2.630   3.864 -0.2080 -0.9644  0.7491
 5414TIP3    H216207   3.589   2.712   3.991  0.8024  0.2631 -0.1132
 5415TIP3   OH216208   0.280   2.757   0.145  0.2309  0.5384 -0.1823
 5415TIP3    H116209   0.189   2.741   0.121  0.1758  1.5911 -0.7101
 5415TIP3    H216210   0.275   2.824   0.213  0.5743 -0.0281  0.4146
 5416TIP3   OH216211   0.678   2.958   1.087 -0.2845  0.1853  0.6241
 5416TIP3    H116212   0.595   2.970   1.041 -0.1999 -2.3949 -0.3648
 5416TIP3    H216213   0.656   2.908   1.165 -0.1309  2.8355  2.4902
 5417TIP3   OH216214   5.366   6.310   2.893 -0.6319  0.1379  0.4260
 5417TIP3    H116215   5.436   6.253   2.922  0.0417 -0.0588 -1.4686
 5417TIP3    H216216   5.297   6.298   2.959 -0.0400 -1.9053  0.7567
 5418TIP3   OH216217   3.335   4.018   2.839  0.2168 -0.4198  0.7039
 5418TIP3    H116218   3.421   4.061   2.845  0.3263 -0.4733 -0.3556
 5418TIP3    H216219   3.317   3.989   2.929  0.6227  0.8976  1.2402
 5419TIP3   OH216220   1.920   6.220   3.124  0.6774 -0.4293  0.1639
 5419TIP3    H116221   1.927   6.271   3.205  1.4701 -1.6403  0.8857
 5419TIP3    H216222   1.871   6.142   3.149  0.7246 -0.7057 -0.5852
 5420TIP3   OH216223   5.184   3.217   2.909 -0.5081  0.1452  0.4492
 5420TIP3    H116224   5.270   3.174   2.899  0.0006  1.1055  0.6270
 5420TIP3    H216225   5.121   3.150   2.882  0.3120 -0.4761  0.0238
 5421TIP3   OH216226   5.984   6.229   0.777 -0.0646  0.0914  0.6145
 5421TIP3    H116227   6.044   6.299   0.750 -0.9353  0.8792  0.6670
 5421TIP3    H216228   5.904   6.247   0.729  0.1663 -1.7964 -0.5836
 5422TIP3   OH216229   7.126   2.805   5.230  0.2259  0.5481  0.0244
 5422TIP3    H116230   7.127   2.715   5.263 -1.2274  0.1154 -1.0199
 5422TIP3    H216231   7.066   2.803   5.155  0.9777  2.1671 -0.6737
 5423TIP3   OH216232   6.168   6.808   4.656  0.3384 -0.1380  0.1913
 5423TIP3    H116233   6.124   6.788   4.739 -0.5965 -0.8997 -0.4718
 5423TIP3    H216234   6.116   6.764   4.590  2.0185 -0.9370 -0.6637
 5424TIP3   OH216235   3.769   2.297   1.259  0.4398  0.3456 -0.1800
 5424TIP3    H116236   3.804   2.365   1.317  1.3220 -0.1634 -0.1005
 5424TIP3    H216237   3.741   2.228   1.318  3.2683 -1.0970 -0.3543
 5425TIP3   OH216238   2.866   1.580   4.838  0.1698  0.1316  0.6072
 5425TIP3    H116239   2.862   1.527   4.917 -1.1286  0.8161  1.0315
 5425TIP3    H216240   2.887   1.518   4.768 -2.2975 -1.2069  0.9220
 5426TIP3   OH216241   3.263   2.755   5.192 -0.1273  0.4182 -0.7932
 5426TIP3    H116242   3.289   2.679   5.140 -0.2570  1.4509 -2.4446
 5426TIP3    H216243   3.346   2.789   5.227  0.1311  0.4604 -1.4215
 5427TIP3   OH216244   4.260   1.210   1.327 -0.2485 -0.8820 -0.5332
 5427TIP3    H116245   4.259   1.268   1.251 -2.9514  0.6629  0.5144
 5427TIP3    H216246   4.200   1.139   1.304 -1.8136  0.0726  0.3749
 5428TIP3   OH216247   2.897   1.193   2.661  0.1268  0.3308  0.2703
 5428TIP3    H116248   2.942   1.155   2.737 -1.0249 -1.5385  0.1021
 5428TIP3    H216249   2.923   1.138   2.588  0.5267  1.5761 -0.5508
 5429TIP3   OH216250   6.082   1.994   2.975 -0.1714  0.4584 -0.0323
 5429TIP3    H116251   6.054   2.065   2.917  1.4113  2.1818  1.2018
 5429TIP3    H216252   6.061   2.025   3.063 -0.7551 -1.2665  0.4645
 5430TIP3   OH216253   6.606   4.533   3.738  0.0851  0.1513  0.3038
 5430TIP3    H116254   6.699   4.537   3.761 -0.0893  0.4941  0.9863
 5430TIP3    H216255   6.566   4.604   3.788 -0.6370 -0.3547  0.4606
 5431TIP3   OH216256   0.648   4.303   1.464 -0.1152  0.4944  0.3383
 5431TIP3    H116257   0.588   4.363   1.420 -0.7068 -0.6027 -0.3807
 5431TIP3    H216258   0.634   4.219   1.421  0.7886 -0.1432  1.2491
 5432TIP3   OH216259   2.948   2.177   3.166 -0.3883 -0.5880 -0.4981
 5432TIP3    H116260   3.043   2.177   3.175 -0.4271 -0.8797 -0.0620
 5432TIP3    H216261   2.932   2.203   3.076  0.0245  2.5694  0.2317
 5433TIP3   OH216262   1.440   0.926   5.451  0.1060 -0.1644  0.1748
 5433TIP3    H116263   1.434   0.872   5.530 -0.7783 -1.4214 -0.6999
 5433TIP3    H216264   1.523   0.900   5.411  0.0165 -0.3679  0.1188
 5434TIP3   OH216265   4.494   5.946   3.437 -0.1441 -0.3013 -0.7443
 5434TIP3    H116266   4.581   5.945   3.478 -0.5521  2.2825  0.3341
 5434TIP3    H216267   4.438   5.897   3.497  0.2575 -0.8156 -0.7759
 5435TIP3   OH216268   5.938   5.456   4.606  0.1366  0.3762 -0.5133
 5435TIP3    H116269   5.863   5.435   4.550  0.4070 -2.4448  0.0233
 5435TIP3    H216270   6.013   5.457   4.546 -0.0358  1.1009 -0.7284
 5436TIP3   OH216271   1.922   5.367   5.878 -0.0934  0.3148  0.0361
 5436TIP3    H116272   1.897   5.325   5.796  1.2314  1.0465 -0.7809
 5436TIP3    H216273   1.840   5.377   5.926 -0.7619 -0.9299 -0.8142
 5437TIP3   OH216274   4.332   1.039   2.931  0.2952  0.0813  0.5508
 5437TIP3    H116275   4.426   1.047   2.948  0.1389  0.3796  1.2790
 5437TIP3    H216276   4.308   0.954   2.968  0.3466 -0.1739  0.0163
 5438TIP3   OH216277   4.363   3.137   1.426 -0.4056  0.2216  0.0349
 5438TIP3    H116278   4.441   3.146   1.481 -0.7237  0.2986  0.4782
 5438TIP3    H216279   4.299   3.093   1.482 -0.3374 -0.8073 -0.6689
 5439TIP3   OH216280   2.471   2.970   3.938  0.1356  0.2050  0.0680
 5439TIP3    H116281   2.383   2.989   3.969 -0.6200  2.6681 -2.9534
 5439TIP3    H216282   2.522   2.956   4.017 -2.9265 -1.4488  1.9395
 5440TIP3   OH216283   5.348   2.540   1.150  0.4109 -0.1793 -0.0770
 5440TIP3    H116284   5.342   2.519   1.243  3.6484  1.6398  0.7060
 5440TIP3    H216285   5.430   2.502   1.121 -0.2501 -0.2276 -2.0918
 5441TIP3   OH216286   4.309   6.038   0.857 -0.3310 -0.2201 -0.3293
 5441TIP3    H116287   4.264   6.083   0.786  1.2027 -0.8075 -1.7458
 5441TIP3    H216288   4.381   6.096   0.881  0.9956 -1.3381 -1.4077
 5442TIP3   OH216289   1.950   3.425   3.082  0.0301 -0.5723 -0.2129
 5442TIP3    H116290   1.998   3.347   3.056 -0.1518 -0.8619  0.3107
 5442TIP3    H216291   1.943   3.419   3.177 -2.1137 -1.1959 -0.3414
 5443TIP3   OH216292   7.097   6.335   4.712  0.5079 -0.0662 -0.2196
 5443TIP3    H116293   7.165   6.399   4.696 -0.3986  1.0587  0.2888
 5443TIP3    H216294   7.045   6.372   4.783  0.6621 -1.9287  0.9370
 5444TIP3   OH216295   4.777   3.552   1.315  0.0602  0.1953  0.4746
 5444TIP3    H116296   4.688   3.519   1.300 -0.2755  0.5428  1.5892
 5444TIP3    H216297   4.792   3.614   1.243 -1.0970  1.0747  0.9505
 5445TIP3   OH216298   5.353   2.150   1.195  0.0309 -0.1158 -0.1216
 5445TIP3    H116299   5.278   2.187   1.148 -0.3846 -1.2025 -0.3581
 5445TIP3    H216300   5.324   2.062   1.221  1.0845 -0.4090  0.1328
 5446TIP3   OH216301   0.308   2.624   1.883  0.2240  0.0637 -0.4442
 5446TIP3    H116302   0.346   2.613   1.796  2.3639 -0.3956  0.4888
 5446TIP3    H216303   0.216   2.644   1.867 -0.3087 -3.4931 -2.7132
 5447TIP3   OH216304   2.725   5.238   3.314 -0.2348 -0.3090  0.0479
 5447TIP3    H116305   2.662   5.282   3.370 -1.0604 -1.6106  0.1747
 5447TIP3    H216306   2.738   5.153   3.354  0.8071 -0.4649 -0.5681
 5448TIP3   OH216307   0.154   1.049   5.102 -0.2657  0.1783 -0.2726
 5448TIP3    H116308   0.187   0.971   5.146  0.1913  0.4739 -0.0849
 5448TIP3    H216309   0.163   1.030   5.009  0.5583  0.3058 -0.2223
 5449TIP3   OH216310   2.328   0.801   1.452 -0.0077 -0.4964 -0.3685
 5449TIP3    H116311   2.350   0.738   1.383  1.8443 -0.3072 -0.0090
 5449TIP3    H216312   2.337   0.750   1.533  3.4409  0.5618  0.0832
 5450TIP3   OH216313   1.865   1.890   3.925  0.2226  0.4711  0.0259
 5450TIP3    H116314   1.898   1.907   4.013 -1.4486  2.6546  0.3122
 5450TIP3    H216315   1.941   1.858   3.876  1.2960 -0.2851  2.0944
 5451TIP3   OH216316   5.929   5.948   4.795 -0.9491 -0.0610 -0.3458
 5451TIP3    H116317   5.929   6.030   4.745 -0.5646 -0.8023 -1.6227
 5451TIP3    H216318   5.894   5.883   4.734 -1.7407 -0.7629  0.8174
 5452TIP3   OH216319   1.012   1.710   3.099 -0.5128  0.3524 -0.1575
 5452TIP3    H116320   1.069   1.679   3.028  0.5094  0.2538  0.6825
 5452TIP3    H216321   0.947   1.640   3.110 -0.0641 -0.0945 -0.3236
 5453TIP3   OH216322   3.824   2.311   4.274  0.2921  0.2128 -0.3132
 5453TIP3    H116323   3.755   2.321   4.209  0.2001 -0.7573 -0.3825
 5453TIP3    H216324   3.779   2.321   4.358 -1.0013 -4.9137 -0.0768
 5454TIP3   OH216325   3.269   6.135   1.686  0.4122 -0.1947  0.1056
 5454TIP3    H116326   3.358   6.100   1.674  0.5003 -0.4053  1.2433
 5454TIP3    H216327   3.257   6.136   1.781 -0.3075  1.1032  0.0145
 5455TIP3   OH216328   5.671   5.236   5.680  0.7846 -0.2657 -0.0636
 5455TIP3    H116329   5.649   5.161   5.735  1.0757 -0.8385 -0.7204
 5455TIP3    H216330   5.587   5.277   5.661  0.4881 -1.1761 -0.7574
 5456TIP3   OH216331   1.493   5.899   3.968 -0.1743  0.1695  0.7188
 5456TIP3    H116332   1.558   5.969   3.971  0.5284 -0.4224 -0.1921
 5456TIP3    H216333   1.505   5.851   4.050 -0.3451  0.8303  1.1350
 5457TIP3   OH216334   5.195   4.160   1.317 -0.2433 -0.2495  0.0046
 5457TIP3    H116335   5.110   4.203   1.318  0.5867  1.4950 -0.1953
 5457TIP3    H216336   5.218   4.151   1.225 -0.6124 -1.6162  0.0244
 5458TIP3   OH216337   1.744   6.408   0.101  0.0534  0.0234 -0.6626
 5458TIP3    H116338   1.655   6.431   0.129  0.1314  0.3346 -0.6620
 5458TIP3    H216339   1.732   6.373   0.013 -0.0329  0.4201 -0.8136
 5459TIP3   OH216340   2.328   3.790   0.250 -0.4003 -0.1392 -0.1066
 5459TIP3    H116341   2.377   3.721   0.205 -0.5479  0.8919 -1.9371
 5459TIP3    H216342   2.282   3.744   0.321  1.9338 -1.3892  0.7194
 5460TIP3   OH216343   4.858   5.354   5.052 -0.2914 -0.2313 -0.3014
 5460TIP3    H116344   4.774   5.398   5.035  0.5311  0.6626 -2.5718
 5460TIP3    H216345   4.879   5.311   4.969  0.7953 -1.7286  0.7019
 5461TIP3   OH216346   4.120   1.560   5.660  0.2026 -0.7706  0.2057
 5461TIP3    H116347   4.167   1.509   5.594  0.9755 -1.1727  1.0429
 5461TIP3    H216348   4.181   1.566   5.733  0.1586  1.4039  0.1284
 5462TIP3   OH216349   2.148   5.967   2.024  0.0249 -0.4305  0.2982
 5462TIP3    H116350   2.175   6.018   2.100  0.4477 -2.9484  1.9616
 5462TIP3    H216351   2.229   5.928   1.991 -0.5292 -2.0067  0.6716
 5463TIP3   OH216352   1.786   0.191   0.098  0.1665 -0.4593  0.2476
 5463TIP3    H116353   1.844   0.163   0.169  0.8588  1.5431  0.5405
 5463TIP3    H216354   1.835   0.172   0.018  0.9825  0.6014  0.4710
 5464TIP3   OH216355   0.578   5.687   0.791  0.6561 -0.0958 -0.5430
 5464TIP3    H116356   0.488   5.718   0.801  0.9945  0.2578  2.0223
 5464TIP3    H216357   0.570   5.599   0.756 -1.0047 -1.7364  3.4698
 5465TIP3   OH216358   2.233   0.817   4.317  0.1246  0.1784  0.2527
 5465TIP3    H116359   2.305   0.845   4.374  0.1041 -0.7820  0.7774
 5465TIP3    H216360   2.154   0.853   4.359  0.2879  1.3710 -0.4118
 5466TIP3   OH216361   1.633   1.063   3.948  0.0565 -0.2813 -0.0498
 5466TIP3    H116362   1.567   1.110   3.897 -0.3754 -0.2710  0.5104
 5466TIP3    H216363   1.615   0.971   3.931  0.8841 -0.2619 -1.1241
 5467TIP3   OH216364   1.535   4.923   1.180 -0.2184  0.4462  0.1205
 5467TIP3    H116365   1.561   4.896   1.268  0.6604  0.3875 -0.1511
 5467TIP3    H216366   1.569   4.855   1.123  3.7154  2.8327 -0.8060
 5468TIP3   OH216367   5.590   6.495   2.716 -0.1697 -0.1253  0.4681
 5468TIP3    H116368   5.540   6.425   2.674 -1.0613 -0.1730  1.5571
 5468TIP3    H216369   5.649   6.527   2.647  0.2037 -1.8635 -0.0752
 5469TIP3   OH216370   4.922   4.997   5.797  0.2933  0.1734  0.4594
 5469TIP3    H116371   4.982   4.940   5.750 -1.0939 -0.1756 -1.0047
 5469TIP3    H216372   4.978   5.051   5.853  1.7135 -1.8823  1.1295
 5470TIP3   OH216373   3.249   2.472   1.826  0.4927 -0.8604 -0.0245
 5470TIP3    H116374   3.161   2.496   1.799 -0.0462 -1.3101  1.2362
 5470TIP3    H216375   3.307   2.528   1.775 -0.5726  0.3435  0.0478
 5471TIP3   OH216376   2.712   5.641   3.081 -0.2070 -0.1827  0.1824
 5471TIP3    H116377   2.768   5.681   3.015  0.2868 -4.3073 -2.2706
 5471TIP3    H216378   2.773   5.606   3.146 -0.1942 -1.1012 -0.3049
 5472TIP3   OH216379   3.141   6.422   4.321  0.4357  0.7381 -0.2044
 5472TIP3    H116380   3.167   6.504   4.363  0.1156  1.9827 -2.2598
 5472TIP3    H216381   3.186   6.423   4.236 -0.8921 -0.3784 -0.9757
 5473TIP3   OH216382   6.612   5.216   2.379  0.4539 -0.3630  0.3748
 5473TIP3    H116383   6.662   5.159   2.320  1.3438 -0.0399  0.7987
 5473TIP3    H216384   6.536   5.242   2.328 -0.1856 -2.2366  0.3054
 5474TIP3   OH216385   0.682   6.775   1.894  0.5521  0.8243 -0.3341
 5474TIP3    H116386   0.706   6.692   1.852 -0.2075 -0.3072  1.3544
 5474TIP3    H216387   0.616   6.813   1.836 -0.8345 -0.9303  0.0036
 5475TIP3   OH216388   3.203   1.010   0.920 -0.1637  0.5412  0.1656
 5475TIP3    H116389   3.133   0.969   0.970  0.0333 -0.0769 -0.0561
 5475TIP3    H216390   3.262   1.046   0.986  0.6767 -1.2373  0.4455
 5476TIP3   OH216391   2.699   0.468   1.180 -0.2250 -0.0366 -0.0392
 5476TIP3    H116392   2.758   0.426   1.244 -0.7207  0.3090  0.6494
 5476TIP3    H216393   2.617   0.419   1.188 -1.5894  2.3899  2.4172
 5477TIP3   OH216394   3.605   5.319   1.113  0.0626 -0.0108 -0.4332
 5477TIP3    H116395   3.652   5.379   1.055 -0.4469 -0.7189 -1.6156
 5477TIP3    H216396   3.606   5.236   1.066 -0.9025 -0.4486  0.3035
 5478TIP3   OH216397   4.543   0.903   2.602  0.4221  0.4265 -0.3488
 5478TIP3    H116398   4.608   0.929   2.667 -0.0020 -1.3822  0.8850
 5478TIP3    H216399   4.582   0.828   2.557 -0.5810 -0.4188  0.1264
 5479TIP3   OH216400   2.350   1.011   1.618 -0.0197 -0.7410  0.0879
 5479TIP3    H116401   2.389   0.933   1.578  0.4910 -0.7274  0.5515
 5479TIP3    H216402   2.384   1.084   1.567  1.8127 -0.6025  1.4062
 5480TIP3   OH216403   5.038   4.123   2.822  0.0256 -0.2938  0.0020
 5480TIP3    H116404   5.016   4.047   2.874  0.5509 -0.6362 -0.2637
 5480TIP3    H216405   5.111   4.094   2.766 -0.0591  0.2673 -0.4140
 5481TIP3   OH216406   2.832   6.818   5.842  0.7820 -0.2688  0.0350
 5481TIP3    H116407   2.861   6.793   5.754 -2.2223 -1.2375 -0.8071
 5481TIP3    H216408   2.793   6.738   5.878 -2.1542  1.1630  0.3603
 5482TIP3   OH216409   3.093   5.420   5.264 -0.0447 -0.1353  0.3654
 5482TIP3    H116410   3.038   5.348   5.295 -2.0519  0.9461 -0.5026
 5482TIP3    H216411   3.161   5.428   5.331 -1.1937 -1.2623  1.7580
 5483TIP3   OH216412   4.325   5.559   4.541  0.0723  0.0984  0.6279
 5483TIP3    H116413   4.357   5.480   4.584 -0.3117 -0.3757  0.0486
 5483TIP3    H216414   4.238   5.574   4.579  0.4696  0.7091  1.3264
 5484TIP3   OH216415   7.142   2.953   2.758  0.0187  0.2748  0.2839
 5484TIP3    H116416   7.228   2.911   2.750 -1.5328 -3.5111  1.1821
 5484TIP3    H216417   7.112   2.961   2.668  0.8868  0.7070  0.0166
 5485TIP3   OH216418   7.150   6.294   0.719  0.4293 -0.2165 -0.1974
 5485TIP3    H116419   7.161   6.315   0.812  1.1683  1.1889 -0.5785
 5485TIP3    H216420   7.237   6.269   0.689 -0.2743 -3.3838  0.0635
 5486TIP3   OH216421   6.296   4.237   5.317 -0.5786  0.0497  0.0365
 5486TIP3    H116422   6.230   4.304   5.301  0.1045  0.4393 -1.3598
 5486TIP3    H216423   6.258   4.180   5.384 -1.5943  1.2438  0.5064
 5487TIP3   OH216424   6.416   1.952   3.218  0.3188  0.6512  0.4926
 5487TIP3    H116425   6.372   1.870   3.242 -0.7024  0.5664 -1.4919
 5487TIP3    H216426   6.475   1.929   3.147  3.0274  0.9694  2.4642
 5488TIP3   OH216427   7.035   4.064   5.919 -0.8693 -0.7036 -0.0361
 5488TIP3    H116428   7.089   4.027   5.848 -1.0358 -2.9052  0.8956
 5488TIP3    H216429   7.030   4.157   5.899  0.7547 -0.9279 -1.8154
 5489TIP3   OH216430   4.940   3.767   3.720  0.2498 -0.2772 -0.2667
 5489TIP3    H116431   4.979   3.845   3.759 -1.4771  1.4188 -1.7220
 5489TIP3    H216432   4.860   3.753   3.769  0.3495 -0.9056 -0.2755
 5490TIP3   OH216433   3.076   3.071   3.340 -0.5699 -0.1349 -0.0586
 5490TIP3    H116434   2.984   3.048   3.326 -0.4213 -2.5397  2.1210
 5490TIP3    H216435   3.100   3.023   3.419  1.8055  2.6798  1.0913
 5491TIP3   OH216436   1.390   4.825   2.902 -0.1377  0.2921  0.6418
 5491TIP3    H116437   1.358   4.771   2.830  0.1831  1.6559 -0.5741
 5491TIP3    H216438   1.330   4.806   2.974 -0.8594 -0.6436 -0.1705
 5492TIP3   OH216439   6.231   4.864   3.530  0.2372 -0.0815  0.3993
 5492TIP3    H116440   6.153   4.840   3.480 -0.1771 -1.3341  1.5721
 5492TIP3    H216441   6.261   4.946   3.491  0.3574 -1.3147 -2.3591
 5493TIP3   OH216442   3.997   4.693   3.011 -0.2956 -0.5851  0.3554
 5493TIP3    H116443   4.093   4.686   3.010 -0.2301  0.0344  1.2106
 5493TIP3    H216444   3.974   4.690   3.103 -1.0963 -0.6405  0.1559
 5494TIP3   OH216445   6.181   2.450   0.041  0.2548  0.1375  0.5585
 5494TIP3    H116446   6.089   2.443   0.014  0.7080 -0.7374 -0.8476
 5494TIP3    H216447   6.176   2.460   0.136 -1.2879 -0.4547  0.5807
 5495TIP3   OH216448   0.827   4.816   2.214  0.4972  0.0436 -0.4513
 5495TIP3    H116449   0.759   4.749   2.223 -0.8438  1.3530 -0.3982
 5495TIP3    H216450   0.798   4.887   2.271  2.2971  0.3648  0.1116
 5496TIP3   OH216451   5.595   5.963   4.826 -0.3082  0.0533 -0.3587
 5496TIP3    H116452   5.520   6.014   4.857  0.4698  0.0939  1.5740
 5496TIP3    H216453   5.670   6.020   4.840  0.3826 -0.9927  0.3177
 5497TIP3   OH216454   4.342   4.161   4.636 -0.5372  0.0368 -0.1789
 5497TIP3    H116455   4.380   4.110   4.564  0.3821  0.4334  0.0141
 5497TIP3    H216456   4.365   4.111   4.715 -1.4114 -0.3172 -0.1369
 5498TIP3   OH216457   4.316   1.605   3.892 -0.2039  0.2878 -0.0002
 5498TIP3    H116458   4.273   1.553   3.960  0.2920  1.3105  1.1217
 5498TIP3    H216459   4.263   1.684   3.885  1.9731  2.0534  2.1544
 5499TIP3   OH216460   3.124   4.221   5.423  0.3880  0.0915  0.2978
 5499TIP3    H116461   3.044   4.229   5.372 -0.1145  0.6169  1.1486
 5499TIP3    H216462   3.167   4.142   5.389  1.2749  1.6666 -2.5575
 5500TIP3   OH216463   1.953   0.954   5.105 -0.2484 -0.0938  0.4910
 5500TIP3    H116464   1.975   1.033   5.154 -1.7948  1.5769 -1.3098
 5500TIP3    H216465   1.857   0.950   5.107 -0.2801 -0.9091 -0.9162
 5501TIP3   OH216466   4.018   3.338   5.840 -0.1546  0.3764  0.2385
 5501TIP3    H116467   3.948   3.353   5.777 -1.4704  0.2199  1.6303
 5501TIP3    H216468   4.099   3.352   5.790 -1.1323  4.2960 -0.5202
 5502TIP3   OH216469   3.676   6.521   5.061 -0.2921 -0.1154  0.0347
 5502TIP3    H116470   3.683   6.467   4.983 -0.0606  1.1233 -0.8325
 5502TIP3    H216471   3.765   6.526   5.095  0.0828  1.3189 -1.0391
 5503TIP3   OH216472   3.876   0.525   3.346 -0.4965  0.2248 -0.0247
 5503TIP3    H116473   3.916   0.612   3.341 -0.0398  0.1297  1.4131
 5503TIP3    H216474   3.876   0.493   3.255  1.0747  0.9661 -0.3256
 5504TIP3   OH216475   5.024   5.080   0.932  0.1001 -0.2977 -0.4483
 5504TIP3    H116476   5.105   5.125   0.957  0.1971 -0.3058 -0.7411
 5504TIP3    H216477   5.048   4.988   0.925 -0.0011 -0.3385 -0.2576
 5505TIP3   OH216478   1.120   4.561   3.022  0.1854 -0.1077  0.2077
 5505TIP3    H116479   1.182   4.547   2.950 -0.8156 -2.7371 -0.2687
 5505TIP3    H216480   1.037   4.582   2.978 -0.0587 -0.0969  0.6699
 5506TIP3   OH216481   2.260   3.363   3.112  0.5919 -0.6278 -0.7663
 5506TIP3    H116482   2.337   3.306   3.117  0.5736 -0.5538  0.5653
 5506TIP3    H216483   2.186   3.304   3.124  0.6058 -0.2647  1.6537
 5507TIP3   OH216484   0.738   2.840   4.069 -0.1181 -0.4012 -0.3446
 5507TIP3    H116485   0.744   2.918   4.125 -1.1582  0.3745 -1.2601
 5507TIP3    H216486   0.829   2.813   4.055  0.1814 -0.6355  1.6994
 5508TIP3   OH216487   1.921   6.622   3.438  0.0986  0.5022 -0.4038
 5508TIP3    H116488   1.929   6.707   3.395  1.2253  0.6082 -0.0037
 5508TIP3    H216489   1.871   6.640   3.517 -1.1210  0.4787 -1.1371
 5509TIP3   OH216490   5.228   5.780   3.310 -0.6545  0.2918 -0.1592
 5509TIP3    H116491   5.206   5.796   3.402  1.0072 -0.0773  0.3301
 5509TIP3    H216492   5.305   5.723   3.314  0.5236  1.6943 -1.7711
 5510TIP3   OH216493   0.736   3.281   1.739 -0.2340 -0.4706  0.5008
 5510TIP3    H116494   0.675   3.265   1.667 -0.9755 -1.6760  1.3682
 5510TIP3    H216495   0.737   3.376   1.749 -2.0678 -0.4313  0.5436
 5511TIP3   OH216496   0.372   5.796   2.922  0.1085  0.1426  0.5590
 5511TIP3    H116497   0.324   5.862   2.872 -0.8001 -0.3028  0.8177
 5511TIP3    H216498   0.425   5.751   2.857 -0.4810  0.0730  0.1153
 5512TIP3   OH216499   4.603   6.480   0.888 -0.0391 -0.0252  0.5060
 5512TIP3    H116500   4.670   6.478   0.821 -0.8798 -1.1525 -0.3380
 5512TIP3    H216501   4.644   6.442   0.966  0.3891 -0.4093  0.0891
 5513TIP3   OH216502   0.116   5.961   5.380  0.0317  0.6713 -0.1461
 5513TIP3    H116503   0.112   6.010   5.298  0.3113  1.8885  0.5360
 5513TIP3    H216504   0.045   5.897   5.374 -0.4220  1.2433 -1.0199
 5514TIP3   OH216505   5.498   2.382   4.851 -0.6519  0.5426  0.3392
 5514TIP3    H116506   5.575   2.408   4.901 -0.1688 -2.0019  1.0424
 5514TIP3    H216507   5.432   2.361   4.918 -0.9308 -0.1909 -0.1463
 5515TIP3   OH216508   4.055   2.675   2.690  0.6224 -0.1322 -0.2241
 5515TIP3    H116509   4.023   2.758   2.726  2.6048  0.6290 -0.0952
 5515TIP3    H216510   4.015   2.608   2.744 -1.0852  0.7111 -0.3677
 5516TIP3   OH216511   3.987   5.772   2.224  0.6203 -0.3204 -0.0931
 5516TIP3    H116512   3.947   5.853   2.190 -1.9538 -1.4353  0.0439
 5516TIP3    H216513   4.006   5.792   2.316 -0.6306 -0.0262  0.1283
 5517TIP3   OH216514   0.520   4.036   2.049  0.2610  0.4805 -0.6310
 5517TIP3    H116515   0.464   4.068   1.978 -1.0693 -0.5705 -0.0926
 5517TIP3    H216516   0.490   4.083   2.126 -0.1969 -0.4062 -0.2567
 5518TIP3   OH216517   1.326   5.368   1.911 -1.1962  0.0189  0.2463
 5518TIP3    H116518   1.292   5.325   1.833 -1.2574 -0.6826  0.6457
 5518TIP3    H216519   1.250   5.378   1.968 -1.4139  1.7152 -0.2850
 5519TIP3   OH216520   1.507   5.312   0.744  0.3375  1.1351 -0.2144
 5519TIP3    H116521   1.549   5.260   0.813 -0.0891  0.4551 -0.4536
 5519TIP3    H216522   1.440   5.363   0.790  0.1754  0.8194 -0.0999
 5520TIP3   OH216523   7.009   6.191   1.001 -0.0409 -0.0215 -0.0621
 5520TIP3    H116524   6.916   6.192   0.980  0.6141 -0.3521 -3.7059
 5520TIP3    H216525   7.023   6.110   1.050 -1.5618 -0.3176 -0.0960
 5521TIP3   OH216526   2.145   5.527   1.277  0.0053 -0.0200 -0.2181
 5521TIP3    H116527   2.232   5.547   1.311  0.5858  0.5768 -1.9624
 5521TIP3    H216528   2.148   5.433   1.258 -0.0543 -0.1895  0.5652
 5522TIP3   OH216529   1.345   0.645   4.173 -0.1856  0.5637  0.7900
 5522TIP3    H116530   1.294   0.599   4.240 -0.2270  0.8788  0.9728
 5522TIP3    H216531   1.422   0.590   4.160 -1.4978 -1.0038 -0.9352
 5523TIP3   OH216532   6.697   4.968   3.112  0.1372 -0.0843  0.0445
 5523TIP3    H116533   6.764   4.961   3.043  0.2549  0.0276  0.1492
 5523TIP3    H216534   6.625   5.015   3.070 -1.2159 -2.9219 -1.1119
 5524TIP3   OH216535   2.873   5.292   0.216  0.4499 -0.4307  0.0173
 5524TIP3    H116536   2.828   5.296   0.132  0.6495  1.9764 -0.0722
 5524TIP3    H216537   2.803   5.290   0.281  0.1205  1.8297 -0.1625
 5525TIP3   OH216538   1.397   5.064   1.464  0.1083  0.1734  0.1685
 5525TIP3    H116539   1.334   5.017   1.409  1.1385  0.4490 -1.3384
 5525TIP3    H216540   1.467   5.001   1.479 -0.2512  0.0434  1.3560
 5526TIP3   OH216541   3.282   1.243   4.497  0.4631 -0.3263 -0.2585
 5526TIP3    H116542   3.376   1.255   4.508  0.3714  0.8798 -0.5866
 5526TIP3    H216543   3.248   1.332   4.483 -1.1753 -0.2911  2.9916
 5527TIP3   OH216544   2.770   3.884   4.728  0.1030 -0.3353 -0.2200
 5527TIP3    H116545   2.721   3.965   4.741  0.3078 -0.1319 -0.7170
 5527TIP3    H216546   2.755   3.835   4.809  0.4272  0.4352  0.3290
 5528TIP3   OH216547   4.261   6.267   5.823  0.5921 -0.5346  0.3183
 5528TIP3    H116548   4.340   6.214   5.828  1.3158  0.5606  1.0551
 5528TIP3    H216549   4.292   6.357   5.832 -0.6686 -0.0307 -0.1293
 5529TIP3   OH216550   4.673   3.564   5.023 -0.0469  0.0658  0.5096
 5529TIP3    H116551   4.696   3.530   4.937  2.7381  0.7829  0.8842
 5529TIP3    H216552   4.712   3.652   5.026 -0.0009  0.0360  2.5313
 5530TIP3   OH216553   3.122   3.619   5.450 -0.3226  0.1123 -0.2726
 5530TIP3    H116554   3.075   3.675   5.512 -0.4836 -2.4115  2.0911
 5530TIP3    H216555   3.056   3.595   5.385 -0.2035  2.6719 -1.4506
 5531TIP3   OH216556   1.232   5.123   5.154  0.3626 -0.8626  0.3189
 5531TIP3    H116557   1.202   5.049   5.208 -1.2439  0.2510  1.0282
 5531TIP3    H216558   1.179   5.118   5.074 -1.2940  0.6509  1.2405
 5532TIP3   OH216559   5.823   2.284   0.638 -0.6822  0.0826  0.0657
 5532TIP3    H116560   5.899   2.281   0.580 -0.2535  0.2719  0.6019
 5532TIP3    H216561   5.751   2.314   0.583  0.1218  2.1760  0.0513
 5533TIP3   OH216562   5.907   4.742   0.626  0.6292  0.2609  0.0171
 5533TIP3    H116563   5.828   4.742   0.572  0.1003 -2.3231  0.6433
 5533TIP3    H216564   5.977   4.718   0.565  0.7369  1.2669 -0.2743
 5534TIP3   OH216565   2.145   4.192   0.849  0.1110  0.1991 -0.3828
 5534TIP3    H116566   2.131   4.109   0.803 -0.7529  0.3143 -0.3479
 5534TIP3    H216567   2.238   4.211   0.835 -0.5012  1.3950 -4.1611
 5535TIP3   OH216568   6.708   1.612   2.702 -0.3123  0.6186 -0.2860
 5535TIP3    H116569   6.658   1.669   2.645 -0.6386  0.5275 -0.0914
 5535TIP3    H216570   6.727   1.666   2.779 -2.0775 -0.0328  0.6628
 5536TIP3   OH216571   7.077   1.120   4.822  0.0008 -0.1565  0.0404
 5536TIP3    H116572   7.117   1.125   4.736  0.3674 -1.2624  0.1279
 5536TIP3    H216573   7.003   1.180   4.818  1.2769  1.4602 -0.3164
 5537TIP3   OH216574   3.610   1.930   1.611  0.0192  0.3409  0.0508
 5537TIP3    H116575   3.644   1.945   1.699 -0.0400 -1.4045  0.4140
 5537TIP3    H216576   3.671   1.868   1.571 -1.3748 -0.9808 -0.1463
 5538TIP3   OH216577   1.476   5.278   3.549 -0.0785 -0.1144 -0.0028
 5538TIP3    H116578   1.414   5.290   3.477  0.3489  0.6703 -0.2443
 5538TIP3    H216579   1.431   5.314   3.626 -1.3584 -2.7177  0.5876
 5539TIP3   OH216580   2.296   6.556   2.132 -0.6758 -0.0618 -0.1487
 5539TIP3    H116581   2.289   6.488   2.065 -2.7020 -0.2245  0.1730
 5539TIP3    H216582   2.390   6.573   2.139 -0.3390 -0.5923 -2.4652
 5540TIP3   OH216583   4.007   1.903   3.299 -0.3682 -0.4037 -0.2947
 5540TIP3    H116584   4.031   1.930   3.211 -0.1219  0.1756 -0.0602
 5540TIP3    H216585   3.937   1.964   3.325 -0.4972 -0.6217 -0.1240
 5541TIP3   OH216586   0.168   3.142   2.741  0.0415  0.2291  0.1207
 5541TIP3    H116587   0.154   3.054   2.777 -1.7834 -0.0119 -1.0348
 5541TIP3    H216588   0.156   3.132   2.647  0.3451  1.6345 -0.0879
 5542TIP3   OH216589   7.071   4.674   0.417  0.3404 -0.3019  0.4711
 5542TIP3    H116590   7.104   4.664   0.327 -0.8456  1.8174 -0.2527
 5542TIP3    H216591   7.062   4.768   0.429 -0.9848 -0.6132  2.2987
 5543TIP3   OH216592   6.430   2.978   0.708 -0.1831 -0.2689  0.6867
 5543TIP3    H116593   6.439   2.893   0.666 -0.9252 -0.2199  0.4086
 5543TIP3    H216594   6.493   2.977   0.779 -1.0634 -1.5426  1.4807
 5544TIP3   OH216595   2.158   1.109   1.853  0.3404  0.6250 -0.3430
 5544TIP3    H116596   2.194   1.183   1.804 -0.6691  0.2247 -1.7775
 5544TIP3    H216597   2.209   1.105   1.934  2.2424  1.1768 -1.4681
 5545TIP3   OH216598   6.032   4.340   5.200  0.0469 -0.3310  0.8761
 5545TIP3    H116599   5.953   4.286   5.199 -0.1390 -0.1248  2.1172
 5545TIP3    H216600   6.000   4.429   5.219  0.1410  0.6639 -2.8454
 5546TIP3   OH216601   7.196   4.619   2.111 -0.7388  0.5540  0.3754
 5546TIP3    H116602   7.110   4.662   2.102 -0.0293  1.9514  0.0275
 5546TIP3    H216603   7.176   4.533   2.148 -2.4072  0.4083 -0.7400
 5547TIP3   OH216604   4.222   0.891   0.203 -0.1140  0.0948 -0.1132
 5547TIP3    H116605   4.292   0.946   0.169 -0.4258  1.2473  1.0205
 5547TIP3    H216606   4.210   0.823   0.137 -0.8059  2.2708 -2.3645
 5548TIP3   OH216607   5.780   5.187   1.935  0.4532 -0.1806 -0.1722
 5548TIP3    H116608   5.868   5.154   1.917  0.5764 -0.0956  0.2797
 5548TIP3    H216609   5.748   5.134   2.007  0.7661  0.8522  0.7532
 5549TIP3   OH216610   6.919   5.905   4.479  0.2650  0.2328  0.1116
 5549TIP3    H116611   6.830   5.893   4.445  0.3983 -0.7070  0.0543
 5549TIP3    H216612   6.922   5.997   4.506 -0.0678  0.8587 -1.8014
 5550TIP3   OH216613   0.764   0.624   2.302 -0.1771 -0.3336 -0.1267
 5550TIP3    H116614   0.786   0.536   2.334 -0.6046  0.0417  1.2559
 5550TIP3    H216615   0.763   0.615   2.207 -0.1021 -1.8047 -0.0132
 5551TIP3   OH216616   3.814   2.584   5.528 -0.0920 -0.1603  0.3089
 5551TIP3    H116617   3.894   2.576   5.475  1.7981  1.8881  2.5927
 5551TIP3    H216618   3.808   2.500   5.574  0.2858 -0.6243 -0.4654
 5552TIP3   OH216619   3.858   5.710   3.165  0.4206  0.0956  0.3745
 5552TIP3    H116620   3.841   5.803   3.148  1.7078  0.1119 -1.0475
 5552TIP3    H216621   3.826   5.665   3.087  1.0278 -0.5061  0.4688
 5553TIP3   OH216622   6.125   3.656   2.246  0.1679  0.2777  0.4551
 5553TIP3    H116623   6.110   3.739   2.291 -0.4127  1.6850 -2.1535
 5553TIP3    H216624   6.037   3.622   2.230  0.3518  0.0319 -0.0149
 5554TIP3   OH216625   1.813   1.187   5.350  0.1365  0.1629  0.0107
 5554TIP3    H116626   1.792   1.250   5.282 -0.9108 -0.3945 -0.1983
 5554TIP3    H216627   1.880   1.231   5.403  0.4456  0.8768 -0.9523
 5555TIP3   OH216628   6.670   0.559   5.200 -0.1494  0.0536  0.5096
 5555TIP3    H116629   6.713   0.600   5.125 -0.1667 -0.9859 -0.0859
 5555TIP3    H216630   6.599   0.619   5.222 -1.1671 -0.3731 -1.3516
 5556TIP3   OH216631   5.055   6.756   5.107  0.4120 -0.0569 -0.1924
 5556TIP3    H116632   5.043   6.668   5.072 -1.6541  0.6047 -1.2791
 5556TIP3    H216633   4.994   6.762   5.181  1.6529 -0.0142  0.8677
 5557TIP3   OH216634   6.415   2.443   0.961  1.1011 -0.0061 -0.3539
 5557TIP3    H116635   6.385   2.533   0.946 -0.5541 -0.8998 -3.0614
 5557TIP3    H216636   6.407   2.431   1.056 -2.6456  1.4342 -0.3156
 5558TIP3   OH216637   4.199   6.701   3.162 -0.2594 -0.3462 -0.0193
 5558TIP3    H116638   4.293   6.693   3.143 -0.2331 -1.0835  0.3816
 5558TIP3    H216639   4.173   6.783   3.119  0.4430 -0.4208 -0.6213
 5559TIP3   OH216640   4.634   5.489   0.106 -0.8127  0.6281 -0.0543
 5559TIP3    H116641   4.618   5.533   0.022  0.6422 -2.4517 -2.1336
 5559TIP3    H216642   4.549   5.453   0.130 -1.1867  1.2913 -0.3373
 5560TIP3   OH216643   6.004   2.811   4.162 -0.3149  0.7119  0.1889
 5560TIP3    H116644   5.954   2.860   4.096 -0.5505  0.9423  0.5389
 5560TIP3    H216645   5.941   2.751   4.201  0.0892 -0.2597 -0.6029
 5561TIP3   OH216646   5.314   3.961   5.281  0.2009  0.3547 -0.5397
 5561TIP3    H116647   5.284   4.005   5.361  0.3650 -1.5875  0.6407
 5561TIP3    H216648   5.234   3.944   5.232 -0.6293 -3.0164  1.6655
 5562TIP3   OH216649   5.798   3.498   0.948 -0.3534 -0.1347  0.3501
 5562TIP3    H116650   5.714   3.536   0.971 -0.9774 -1.1754 -0.1507
 5562TIP3    H216651   5.817   3.531   0.861 -0.0088  0.4626  0.6432
 5563TIP3   OH216652   0.058   0.136   3.212 -0.7037 -0.4433 -0.4066
 5563TIP3    H116653   0.106   0.200   3.264 -0.9135 -0.4723 -0.1753
 5563TIP3    H216654  -0.034   0.161   3.221 -0.6614  0.2971 -1.7721
 5564TIP3   OH216655   3.131   6.368   2.181 -0.0234  0.0738 -0.3616
 5564TIP3    H116656   3.175   6.325   2.254  0.2400 -0.1351 -0.6417
 5564TIP3    H216657   3.140   6.307   2.107 -0.8953 -0.0375 -0.3954
 5565TIP3   OH216658   6.836   2.054   2.633  0.3109  0.6858  0.5130
 5565TIP3    H116659   6.825   1.990   2.563 -0.0566  0.2104  0.9952
 5565TIP3    H216660   6.840   2.002   2.713  0.3796  1.2405  0.8779
 5566TIP3   OH216661   1.279   5.425   0.056  0.0499  0.0292  0.2772
 5566TIP3    H116662   1.341   5.362   0.091 -0.4110 -0.4457  0.2458
 5566TIP3    H216663   1.311   5.510   0.087  1.8542  0.0232 -1.3724
 5567TIP3   OH216664   6.828   6.025   3.777 -0.4078 -0.3247  0.8659
 5567TIP3    H116665   6.911   6.033   3.824 -0.4020  1.3246  0.6376
 5567TIP3    H216666   6.850   5.975   3.698  1.1966  2.8455 -0.8968
 5568TIP3   OH216667   1.164   6.077   3.690  0.5593  0.2473 -0.1151
 5568TIP3    H116668   1.238   6.037   3.736 -1.2462 -1.4177  1.5737
 5568TIP3    H216669   1.088   6.055   3.744 -1.4994 -0.2212 -2.9538
 5569TIP3   OH216670   3.711   1.493   4.194 -0.0244  0.1639 -0.2421
 5569TIP3    H116671   3.790   1.463   4.149  0.3735  2.0759 -0.9099
 5569TIP3    H216672   3.640   1.442   4.154  0.5584  0.4056 -1.6679
 5570TIP3   OH216673   0.041   5.857   4.558 -0.0671  0.4160 -0.0957
 5570TIP3    H116674   0.002   5.873   4.644  0.6181  1.3772  0.0540
 5570TIP3    H216675   0.030   5.940   4.511  0.9786  0.4225 -0.3635
 5571TIP3   OH216676   6.085   3.533   5.841  0.7455 -0.5808 -0.3313
 5571TIP3    H116677   6.081   3.466   5.909 -1.1005 -1.6071 -1.3549
 5571TIP3    H216678   6.178   3.539   5.818  1.1647 -1.4910  1.0289
 5572TIP3   OH216679   0.744   5.332   0.834 -0.0651  0.0205 -0.3437
 5572TIP3    H116680   0.791   5.265   0.884  0.7738  0.0427 -1.0883
 5572TIP3    H216681   0.678   5.366   0.895  1.6837  0.8798  1.1569
 5573TIP3   OH216682   1.942   6.034   0.512 -0.5847 -0.3178 -0.0100
 5573TIP3    H116683   1.943   6.066   0.603 -0.5086 -1.6432  0.4742
 5573TIP3    H216684   2.033   6.038   0.485 -0.9140  2.7207 -1.0386
 5574TIP3   OH216685   3.075   2.271   5.234 -0.0760  0.2080 -0.7966
 5574TIP3    H116686   2.997   2.261   5.179  1.3726 -0.9940 -2.7739
 5574TIP3    H216687   3.122   2.188   5.225  1.0131  0.5789  1.0273
 5575TIP3   OH216688   6.513   6.753   3.759 -0.6004 -0.3559 -0.4802
 5575TIP3    H116689   6.607   6.774   3.762 -0.9474  1.4272 -0.9361
 5575TIP3    H216690   6.481   6.799   3.681 -1.7822 -1.2795 -0.5610
 5576TIP3   OH216691   6.795   6.426   2.011  0.1316 -0.2584  0.1479
 5576TIP3    H116692   6.850   6.401   2.085 -0.2095 -0.7526  0.2432
 5576TIP3    H216693   6.844   6.494   1.966 -1.0311  2.3681  2.5836
 5577TIP3   OH216694   2.939   1.327   2.101 -0.5067  0.1498 -0.0964
 5577TIP3    H116695   2.934   1.365   2.013  0.5939  1.1309  0.2323
 5577TIP3    H216696   2.957   1.234   2.086  0.6342  0.4806 -0.9148
 5578TIP3   OH216697   1.218   3.711   0.276 -0.0694 -0.2960 -0.0971
 5578TIP3    H116698   1.269   3.732   0.198  1.0023  3.4379  1.3812
 5578TIP3    H216699   1.283   3.691   0.343 -0.9152 -2.0400  0.2482
 5579TIP3   OH216700   3.471   2.671   0.662  0.1498  0.6728 -0.2164
 5579TIP3    H116701   3.479   2.767   0.656 -2.8007  0.9556 -1.4221
 5579TIP3    H216702   3.547   2.637   0.617  0.6025  2.4884 -0.8961
 5580TIP3   OH216703   3.024   6.678   0.543  0.3383 -0.3992  0.0739
 5580TIP3    H116704   3.041   6.595   0.499  0.7072  0.3340 -1.2536
 5580TIP3    H216705   3.110   6.720   0.547  0.1209  0.0041  0.5376
 5581TIP3   OH216706   6.017   5.446   2.007  1.0516 -0.4756  0.1080
 5581TIP3    H116707   6.000   5.356   2.035  2.2304 -1.0710 -0.9792
 5581TIP3    H216708   6.021   5.496   2.089 -0.2318 -1.2723  0.6981
 5582TIP3   OH216709   6.827   3.233   1.450 -0.2221  0.1692 -0.0147
 5582TIP3    H116710   6.836   3.325   1.424 -1.2397  0.2867  0.0017
 5582TIP3    H216711   6.775   3.193   1.381 -0.2322 -0.2692  0.2410
 5583TIP3   OH216712   1.689   4.917   4.679  0.6995 -0.5712  0.2982
 5583TIP3    H116713   1.717   4.838   4.726 -0.9909  0.1157  2.6394
 5583TIP3    H216714   1.684   4.984   4.746 -1.0175  0.7268 -1.0312
 5584TIP3   OH216715   4.934   6.742   5.364 -0.7240 -0.5098  0.1871
 5584TIP3    H116716   4.867   6.753   5.431 -0.9290  1.7571 -0.3259
 5584TIP3    H216717   5.017   6.746   5.412 -0.8817 -1.7800  0.6185
 5585TIP3   OH216718   4.589   2.187   4.415 -0.6986  0.4257 -0.4247
 5585TIP3    H116719   4.616   2.235   4.493  1.2245  0.6686 -1.1830
 5585TIP3    H216720   4.623   2.239   4.342  0.5741 -1.5344 -1.3126
 5586TIP3   OH216721   2.053   3.958   0.443  0.2378 -0.2950  0.0776
 5586TIP3    H116722   2.063   3.969   0.537  0.3775 -1.7359  0.2587
 5586TIP3    H216723   1.980   4.015   0.420  2.1464  2.4873  0.4761
 5587TIP3   OH216724   2.880   3.267   1.915  0.7204  0.3124 -0.0673
 5587TIP3    H116725   2.795   3.229   1.934  1.2050 -2.2162 -2.3013
 5587TIP3    H216726   2.922   3.276   2.000 -1.2813  0.4230  0.9623
 5588TIP3   OH216727   4.565   2.081   0.655  0.2551 -0.0578  0.2146
 5588TIP3    H116728   4.541   2.047   0.742  2.1573 -1.5890  0.2087
 5588TIP3    H216729   4.634   2.145   0.673  0.6624 -0.3878 -0.1522
 5589TIP3   OH216730   3.014   3.765   2.938 -0.2049 -0.7258 -0.0351
 5589TIP3    H116731   3.089   3.815   2.969 -0.5021 -0.6226  0.5335
 5589TIP3    H216732   2.994   3.704   3.010 -1.1458 -0.2183  0.1517
 5590TIP3   OH216733   5.685   2.095   0.352  0.3042 -0.5677 -0.3166
 5590TIP3    H116734   5.696   2.030   0.422 -0.7482 -1.0166 -0.5459
 5590TIP3    H216735   5.655   2.173   0.397  0.4522 -0.5961 -0.1679
 5591TIP3   OH216736   3.672   6.442   0.749  0.0200  0.3138 -0.3392
 5591TIP3    H116737   3.668   6.473   0.840  0.3081 -1.9541  0.5196
 5591TIP3    H216738   3.702   6.352   0.756 -0.4998 -0.1067 -2.6810
 5592TIP3   OH216739   3.278   0.496   3.195 -1.1463 -0.2546 -0.1694
 5592TIP3    H116740   3.343   0.470   3.129  0.2294  0.1817  0.9487
 5592TIP3    H216741   3.274   0.592   3.189 -0.6283 -0.1659  0.6918
 5593TIP3   OH216742   1.750   2.789   3.750  0.0778 -0.1732  0.2983
 5593TIP3    H116743   1.776   2.745   3.831 -1.2395  1.3782  1.6208
 5593TIP3    H216744   1.655   2.782   3.747 -0.0224  1.0950 -0.3202
 5594TIP3   OH216745   5.415   6.168   4.862  0.1980 -0.4194 -0.1612
 5594TIP3    H116746   5.321   6.153   4.867  0.1898 -0.3257 -0.0352
 5594TIP3    H216747   5.436   6.216   4.942  0.3510 -0.4300 -0.1947
 5595TIP3   OH216748   1.842   5.442   1.150 -0.0895  0.2514  0.0019
 5595TIP3    H116749   1.865   5.533   1.135  1.6647 -0.2634 -0.7601
 5595TIP3    H216750   1.923   5.403   1.184 -0.4389 -1.2716 -0.8301
 5596TIP3   OH216751   1.946   2.106   0.063 -0.4557  0.4046 -0.2700
 5596TIP3    H116752   1.923   2.145  -0.022 -0.1395 -1.5095 -1.2818
 5596TIP3    H216753   2.042   2.102   0.062 -0.4821 -2.4726 -1.2691
 5597TIP3   OH216754   3.817   3.700   0.691  0.9296  0.1370 -0.1762
 5597TIP3    H116755   3.753   3.762   0.658  0.7211  1.2336  2.0951
 5597TIP3    H216756   3.778   3.664   0.770  1.5126 -2.1658 -0.8347
 5598TIP3   OH216757   2.103   2.941   5.080 -0.2279  0.3568  0.4386
 5598TIP3    H116758   2.101   2.871   5.145  1.4104  2.5795  3.1032
 5598TIP3    H216759   2.022   2.990   5.094 -0.3076  0.3000  0.1758
 5599TIP3   OH216760   3.602   2.159   1.443 -0.2408 -0.7350  0.4563
 5599TIP3    H116761   3.599   2.107   1.523 -0.3873 -0.6588  0.5020
 5599TIP3    H216762   3.545   2.113   1.382  0.3268 -1.1049  0.2040
 5600TIP3   OH216763   4.327   6.483   0.943  0.7327 -0.3244 -0.1584
 5600TIP3    H116764   4.421   6.494   0.927  0.5841 -0.0761 -0.9258
 5600TIP3    H216765   4.321   6.437   1.026  1.4952  1.4560  0.9359
 5601TIP3   OH216766   1.747   0.707   1.148  0.0761 -0.6935  0.1211
 5601TIP3    H116767   1.834   0.671   1.165  0.1900  0.1789  1.5568
 5601TIP3    H216768   1.764   0.792   1.107 -0.1631 -1.3932 -1.5183
 5602TIP3   OH216769   1.434   6.595   3.628  0.6365 -0.3043 -0.0810
 5602TIP3    H116770   1.464   6.679   3.594 -1.0956  0.1858 -0.5207
 5602TIP3    H216771   1.441   6.603   3.723  1.5885 -0.1163 -0.1587
 5603TIP3   OH216772   1.471   2.700   3.691 -0.5030 -0.1489  0.2004
 5603TIP3    H116773   1.385   2.673   3.722  0.0556  0.6716  2.7428
 5603TIP3    H216774   1.520   2.619   3.681 -0.8419 -0.4915  1.2078
 5604TIP3   OH216775   4.736   3.726   5.336 -0.2639  0.1564 -0.6152
 5604TIP3    H116776   4.661   3.671   5.358  0.4040 -0.3999  0.4047
 5604TIP3    H216777   4.736   3.731   5.241 -0.2794 -1.7365 -0.7547
 5605TIP3   OH216778   0.496   2.662   4.597  0.2543  0.3760  0.0498
 5605TIP3    H116779   0.541   2.623   4.672  0.8076 -1.2073 -1.0389
 5605TIP3    H216780   0.540   2.745   4.583 -0.8630  1.4555  2.3757
 5606TIP3   OH216781   1.616   1.646   0.874  0.2803  0.3697 -0.0565
 5606TIP3    H116782   1.555   1.633   0.802  0.0815  1.4407 -0.0936
 5606TIP3    H216783   1.564   1.684   0.944  0.5539 -0.3076  0.5335
 5607TIP3   OH216784   2.542   1.482   0.680  0.0071  0.0258  0.3000
 5607TIP3    H116785   2.573   1.551   0.739 -0.6421  1.2206 -0.7148
 5607TIP3    H216786   2.446   1.484   0.689  0.0155 -1.6827  1.2619
 5608TIP3   OH216787   1.310   0.377   0.272 -0.1063 -0.0803 -0.2536
 5608TIP3    H116788   1.368   0.302   0.258 -1.8830 -1.8136  1.0745
 5608TIP3    H216789   1.359   0.452   0.238  2.4406 -1.5810 -0.1701
 5609TIP3   OH216790   6.894   2.039   5.285  0.4679  0.6526 -0.4194
 5609TIP3    H116791   6.881   1.953   5.244  1.5265  1.1275 -1.8441
 5609TIP3    H216792   6.958   2.023   5.354 -1.3226 -0.1570  1.1549
 5610TIP3   OH216793   3.169   0.543   4.307  0.4568  0.3829 -0.3996
 5610TIP3    H116794   3.168   0.467   4.249 -1.0914 -0.7361  1.0157
 5610TIP3    H216795   3.085   0.586   4.293 -0.9214 -1.1254  2.4306
 5611TIP3   OH216796   0.512   3.238   3.385 -0.1707 -0.3757 -0.1824
 5611TIP3    H116797   0.587   3.203   3.338  0.6839 -0.2510  1.0425
 5611TIP3    H216798   0.459   3.281   3.318 -0.2323 -2.2465 -1.4003
 5612TIP3   OH216799   3.469   5.788   1.243  0.0025 -0.3802 -0.0371
 5612TIP3    H116800   3.491   5.878   1.267 -0.7141 -0.0612 -0.5551
 5612TIP3    H216801   3.554   5.745   1.232  0.3554  0.4141 -0.4747
 5613TIP3   OH216802   0.324   0.301   0.209  0.2149 -0.0305 -0.2398
 5613TIP3    H116803   0.255   0.269   0.151 -1.0022  1.1869  0.4943
 5613TIP3    H216804   0.396   0.239   0.196 -0.8768 -1.1409 -1.2743
 5614TIP3   OH216805   6.463   4.343   1.739 -0.4778 -0.3693 -0.0610
 5614TIP3    H116806   6.543   4.319   1.691 -1.3646 -1.5831 -0.9815
 5614TIP3    H216807   6.461   4.285   1.815  0.7483  1.3252  1.3700
 5615TIP3   OH216808   5.813   1.617   2.388 -0.0402 -0.1501 -0.9848
 5615TIP3    H116809   5.874   1.578   2.450 -0.1201  0.1703 -0.7065
 5615TIP3    H216810   5.748   1.661   2.442  0.3106  0.7826 -1.2928
 5616TIP3   OH216811   6.904   1.244   3.864 -0.7042  0.3988  0.2577
 5616TIP3    H116812   6.918   1.284   3.950  0.4112 -0.1146  0.3256
 5616TIP3    H216813   6.984   1.194   3.847 -1.4302 -0.5435 -0.5160
 5617TIP3   OH216814   0.948   1.120   1.101  0.0711 -0.2537 -0.2993
 5617TIP3    H116815   0.928   1.037   1.058  0.0525 -0.6357  0.4344
 5617TIP3    H216816   0.876   1.132   1.164 -0.3450  0.7040 -0.9297
 5618TIP3   OH216817   2.104   1.552   5.311 -0.2625 -0.0527  0.2822
 5618TIP3    H116818   2.047   1.522   5.240 -1.1790  0.9359  0.5723
 5618TIP3    H216819   2.051   1.616   5.359  0.6287 -0.0957  1.3696
 5619TIP3   OH216820   4.673   2.657   4.180  0.7036  0.0054  0.2501
 5619TIP3    H116821   4.587   2.627   4.151 -1.1235  3.2826  1.6756
 5619TIP3    H216822   4.688   2.739   4.132  1.5162  1.1192  2.2734
 5620TIP3   OH216823   4.944   5.961   0.532 -0.4447 -0.3847 -0.0094
 5620TIP3    H116824   5.012   6.011   0.487 -0.0957 -0.4327  0.4498
 5620TIP3    H216825   4.987   5.881   0.559 -0.8246 -0.6394 -0.1543
 5621TIP3   OH216826   1.992   2.922   3.746 -0.2593  0.0090  0.7093
 5621TIP3    H116827   2.063   2.858   3.744 -0.6498 -0.5029  2.1697
 5621TIP3    H216828   1.912   2.871   3.737 -0.4965  0.5314 -0.3693
 5622TIP3   OH216829   3.966   5.656   4.071  0.6942 -0.7822 -1.0298
 5622TIP3    H116830   3.900   5.703   4.020 -0.9452  0.7670  2.1817
 5622TIP3    H216831   3.919   5.581   4.108  0.6234  0.3165  1.2649
 5623TIP3   OH216832   4.204   5.469   0.267  0.0783 -0.2558 -0.1569
 5623TIP3    H116833   4.132   5.516   0.226 -0.1836 -1.0682 -0.6649
 5623TIP3    H216834   4.257   5.536   0.309 -1.7950  0.2261  1.5494
 5624TIP3   OH216835   4.927   4.855   0.662  0.6253 -0.0238 -0.6270
 5624TIP3    H116836   4.911   4.772   0.618  0.3508 -0.5037  0.3700
 5624TIP3    H216837   5.022   4.863   0.664  0.7031 -0.9711  0.4562
 5625TIP3   OH216838   2.351   3.412   0.891  0.2141  0.2461  0.6085
 5625TIP3    H116839   2.382   3.502   0.879 -0.7043  0.5806  0.7095
 5625TIP3    H216840   2.364   3.394   0.984  0.4523  0.2508  0.5766
 5626TIP3   OH216841   1.125   0.970   0.620  0.2218  0.0418 -0.6557
 5626TIP3    H116842   1.200   1.023   0.594  0.2467 -0.2508 -1.1998
 5626TIP3    H216843   1.131   0.963   0.715  1.4316 -0.7998 -0.7790
 5627TIP3   OH216844   0.905   5.239   5.786  0.0268  0.3161  0.2813
 5627TIP3    H116845   0.831   5.292   5.759 -0.0121  0.6555  1.0162
 5627TIP3    H216846   0.979   5.300   5.789  1.0070 -0.5023 -3.0159
 5628TIP3   OH216847   2.415   1.980   5.479  0.1514  0.4204  0.5618
 5628TIP3    H116848   2.397   1.929   5.400 -1.8063  1.5150  0.2433
 5628TIP3    H216849   2.499   1.947   5.510 -0.4628 -2.2112 -0.2565
 5629TIP3   OH216850   1.425   2.868   3.472 -0.0425 -0.3761  0.1606
 5629TIP3    H116851   1.432   2.810   3.548 -1.6299 -1.2394 -0.3082
 5629TIP3    H216852   1.370   2.941   3.503  1.5280  0.6832  0.5963
 5630TIP3   OH216853   6.621   2.292   0.865  0.1849 -0.5200  0.2496
 5630TIP3    H116854   6.541   2.331   0.900  0.2500  0.1200 -0.2890
 5630TIP3    H216855   6.684   2.364   0.864  0.6203 -0.9010  0.2148
 5631TIP3   OH216856   3.244   1.978   5.866 -0.2730  0.1578 -0.2209
 5631TIP3    H116857   3.276   1.889   5.881 -1.4925  0.1020  2.7172
 5631TIP3    H216858   3.310   2.018   5.808  1.7177 -1.8361  0.5376
 5632TIP3   OH216859   5.945   4.609   5.305  0.1595  0.0778  0.7413
 5632TIP3    H116860   5.898   4.586   5.385  0.5797  1.9477  1.5950
 5632TIP3    H216861   5.922   4.700   5.290  1.8961  0.4316  0.0471
 5633TIP3   OH216862   3.209   3.189   5.538  0.3354 -0.1678  0.0378
 5633TIP3    H116863   3.269   3.254   5.577 -1.3629  0.2746  2.1341
 5633TIP3    H216864   3.180   3.136   5.613 -0.6207 -1.4285 -1.1782
 5634TIP3   OH216865   0.516   6.675   0.377 -0.2365 -0.0622  0.0550
 5634TIP3    H116866   0.545   6.687   0.468  0.6249 -1.4084 -0.0175
 5634TIP3    H216867   0.423   6.699   0.379  0.1541  1.5691  0.9015
 5635TIP3   OH216868   1.523   2.798   2.314  0.5509 -0.2577 -0.1607
 5635TIP3    H116869   1.601   2.810   2.368  1.7411 -0.1559 -1.8449
 5635TIP3    H216870   1.510   2.883   2.271 -0.7379 -0.1481  0.3904
 5636TIP3   OH216871   5.109   2.960   3.862  0.0799 -0.5754 -0.6149
 5636TIP3    H116872   5.177   2.902   3.897 -0.3758 -0.7797 -0.0519
 5636TIP3    H216873   5.082   2.919   3.780  1.2336 -0.0361 -1.2752
 5637TIP3   OH216874   3.224   1.085   4.261  0.4764  0.2991  0.0193
 5637TIP3    H116875   3.264   1.133   4.334 -0.3186 -0.0333  0.6975
 5637TIP3    H216876   3.201   1.153   4.198  2.3897  0.4689 -0.5586
 5638TIP3   OH216877   0.910   1.842   2.834 -0.6756 -0.2649 -0.1661
 5638TIP3    H116878   0.919   1.771   2.771  1.1102 -0.4403  0.2308
 5638TIP3    H216879   0.889   1.799   2.917  0.3382 -0.3572  0.0594
 5639TIP3   OH216880   3.250   0.577   0.649  0.5958  0.1921  0.4848
 5639TIP3    H116881   3.243   0.672   0.646  1.3985  0.2309 -0.6252
 5639TIP3    H216882   3.164   0.545   0.623  0.1751  0.6015  1.3367
 5640TIP3   OH216883   6.765   4.780   1.130 -0.2401 -0.0295  0.5892
 5640TIP3    H116884   6.722   4.782   1.044  0.8736 -1.0338 -0.0293
 5640TIP3    H216885   6.697   4.751   1.190 -0.6935 -0.6388 -0.2006
 5641TIP3   OH216886   2.549   5.993   4.038  0.1313 -0.3735 -0.1621
 5641TIP3    H116887   2.530   5.910   3.995  0.3201 -0.1964 -0.5957
 5641TIP3    H216888   2.617   6.033   3.983 -1.1595  0.8401 -0.9392
 5642TIP3   OH216889   5.468   3.205   4.526  0.0288  0.3238 -0.8303
 5642TIP3    H116890   5.501   3.212   4.615 -2.6091 -1.5553  0.4578
 5642TIP3    H216891   5.449   3.295   4.500  0.7440  0.9010  0.5321
 5643TIP3   OH216892   2.335   4.141   0.234 -0.3591  0.1271  0.2647
 5643TIP3    H116893   2.379   4.057   0.247 -2.2792 -0.8366  1.0263
 5643TIP3    H216894   2.282   4.153   0.313 -3.3233 -0.0593 -1.5110
 5644TIP3   OH216895   1.005   4.613   3.798  0.8928 -0.4262  0.1105
 5644TIP3    H116896   1.040   4.687   3.748  0.3249 -0.1308  0.1390
 5644TIP3    H216897   0.980   4.548   3.732  0.6454 -0.2575  0.0350
 5645TIP3   OH216898   5.669   1.108   0.117 -0.1173 -0.1805 -0.5396
 5645TIP3    H116899   5.621   1.174   0.067  1.2775  0.7244 -0.7117
 5645TIP3    H216900   5.761   1.122   0.094  0.3152 -1.3987  0.3545
 5646TIP3   OH216901   4.237   1.318   4.890 -0.1453  0.5053 -0.0816
 5646TIP3    H116902   4.275   1.370   4.820 -1.1159  0.7550 -0.4483
 5646TIP3    H216903   4.296   1.244   4.901  1.3748  1.7597  0.5813
 5647TIP3   OH216904   0.812   3.123   1.376 -0.2739  0.4567  0.3291
 5647TIP3    H116905   0.892   3.155   1.418 -0.1814 -0.7768  1.1390
 5647TIP3    H216906   0.809   3.169   1.292  0.4092  1.7392  0.9870
 5648TIP3   OH216907   3.859   6.669   1.966 -0.1174  0.1404  0.1363
 5648TIP3    H116908   3.848   6.752   1.919 -0.5379 -0.6581 -1.2142
 5648TIP3    H216909   3.903   6.694   2.047 -1.3310  1.8664  0.3343
 5649TIP3   OH216910   4.884   2.704   5.326 -0.1565  0.1337  0.1315
 5649TIP3    H116911   4.831   2.773   5.286 -1.1909 -2.1039 -2.6593
 5649TIP3    H216912   4.823   2.632   5.340  0.8267 -0.2458  3.2283
 5650TIP3   OH216913   5.936   5.067   1.320  0.5961 -0.0807  0.4664
 5650TIP3    H116914   5.952   5.146   1.372  1.5851  0.0718 -0.0362
 5650TIP3    H216915   5.964   5.091   1.232 -0.4334 -0.5485  0.0025
 5651TIP3   OH216916   6.880   5.270   4.412  0.0684  0.2342 -0.4754
 5651TIP3    H116917   6.799   5.287   4.363  0.8280  0.3531 -1.7238
 5651TIP3    H216918   6.883   5.175   4.419 -0.3636  0.2428 -0.0864
 5652TIP3   OH216919   2.115   2.060   4.845 -0.5448  0.3048 -0.5538
 5652TIP3    H116920   2.025   2.085   4.826 -0.7534  1.2820  1.4782
 5652TIP3    H216921   2.146   2.126   4.907  1.4146 -0.3083 -0.7952
 5653TIP3   OH216922   5.623   1.913   4.788  0.1663 -0.6011  0.0807
 5653TIP3    H116923   5.646   1.950   4.873 -0.9234 -0.0355  0.1409
 5653TIP3    H216924   5.656   1.976   4.724 -1.1019  0.1884  0.1663
 5654TIP3   OH216925   2.799   3.544   2.498  0.3584  0.5673 -0.2302
 5654TIP3    H116926   2.769   3.459   2.466  1.2263 -0.3338  1.1829
 5654TIP3    H216927   2.892   3.546   2.475  1.0974 -0.2590  2.3400
 5655TIP3   OH216928   3.514   1.155   1.875 -0.7056 -0.3578  0.0556
 5655TIP3    H116929   3.462   1.230   1.902  0.6306 -0.1247  2.2400
 5655TIP3    H216930   3.491   1.141   1.783 -2.6620  1.2903  0.2334
 5656TIP3   OH216931   5.988   1.428   5.480 -0.7524  0.1312  0.0092
 5656TIP3    H116932   6.038   1.504   5.449  2.7343 -1.4977  1.1780
 5656TIP3    H216933   5.982   1.371   5.403  0.4989 -0.2690  0.1880
 5657TIP3   OH216934   6.751   6.713   4.862  0.0653  0.5522  0.0276
 5657TIP3    H116935   6.708   6.793   4.893  1.1952  1.0345  0.4466
 5657TIP3    H216936   6.838   6.717   4.903 -0.5739 -1.9944  1.8321
 5658TIP3   OH216937   5.155   4.589   1.358 -0.3331  0.1138  0.3107
 5658TIP3    H116938   5.229   4.602   1.298 -0.9353 -1.6980 -0.8994
 5658TIP3    H216939   5.190   4.611   1.444  0.8660  1.7596 -0.5249
 5659TIP3   OH216940   6.998   1.002   0.176  0.8042  0.1565  0.1484
 5659TIP3    H116941   6.922   1.037   0.131  0.2813 -0.7351  0.3169
 5659TIP3    H216942   7.051   1.079   0.197  0.5606  0.6762 -1.0563
 5660TIP3   OH216943   3.118   3.357   4.482  0.4751 -0.1851 -0.2730
 5660TIP3    H116944   3.186   3.350   4.549 -0.8557 -0.0322  1.1361
 5660TIP3    H216945   3.145   3.431   4.428  1.8677 -0.6692 -0.2771
 5661TIP3   OH216946   6.875   1.022   1.424 -0.9759  0.4499 -0.2545
 5661TIP3    H116947   6.811   0.954   1.403  0.2022 -0.8966  0.3551
 5661TIP3    H216948   6.950   1.002   1.368 -0.9312  1.8060 -0.7144
 5662TIP3   OH216949   6.379   0.558   2.824  0.2976 -0.1765 -0.4207
 5662TIP3    H116950   6.436   0.551   2.901 -0.1812  2.1529  0.2255
 5662TIP3    H216951   6.291   0.572   2.860  0.1040  1.2234 -1.3249
 5663TIP3   OH216952   5.245   6.072   1.759 -0.5479  0.2810  0.3643
 5663TIP3    H116953   5.251   6.074   1.855  1.2460 -1.6621  0.3581
 5663TIP3    H216954   5.318   6.126   1.729  0.2681 -0.8997  0.1447
 5664TIP3   OH216955   1.492   1.767   1.076  0.0204 -0.5585  0.0024
 5664TIP3    H116956   1.420   1.829   1.069  1.1377  1.2514  2.6445
 5664TIP3    H216957   1.455   1.693   1.124 -0.5162 -0.4396 -0.2216
 5665TIP3   OH216958   3.029   2.109   5.731  0.3683 -0.7351 -0.0247
 5665TIP3    H116959   2.962   2.043   5.748 -0.0315 -0.2835  0.1633
 5665TIP3    H216960   3.106   2.078   5.779 -0.2234 -0.3781  1.1983
 5666TIP3   OH216961   6.496   4.370   5.026  0.3622 -0.0093  0.3996
 5666TIP3    H116962   6.557   4.356   5.098  1.0974 -1.3408 -0.4362
 5666TIP3    H216963   6.552   4.371   4.948 -0.5283  0.2961 -0.2498
 5667TIP3   OH216964   2.979   0.644   2.571 -0.1749 -0.2112  0.3983
 5667TIP3    H116965   3.050   0.610   2.518 -2.1553 -2.4101 -1.0223
 5667TIP3    H216966   2.998   0.614   2.660  0.0659 -1.9117 -0.1902
 5668TIP3   OH216967   0.475   5.700   2.703 -0.2013  0.0196 -0.4235
 5668TIP3    H116968   0.408   5.684   2.637 -0.5996  0.9993 -0.2797
 5668TIP3    H216969   0.546   5.743   2.656  0.1276 -0.5724 -0.4795
 5669TIP3   OH216970   3.138   6.418   5.022 -0.2582 -0.3788 -0.2949
 5669TIP3    H116971   3.093   6.337   5.046 -0.4700  0.0393  0.8148
 5669TIP3    H216972   3.225   6.390   4.993 -0.1928 -0.9776  0.4541
 5670TIP3   OH216973   0.125   5.627   0.899 -0.2987  0.0483 -0.3203
 5670TIP3    H116974   0.115   5.645   0.806 -0.4258 -1.8828 -0.7271
 5670TIP3    H216975   0.044   5.584   0.925  0.6145 -1.5097  0.1092
 5671TIP3   OH216976   7.106   2.178   4.400 -0.4731  0.6266 -0.0156
 5671TIP3    H116977   7.095   2.273   4.402  0.2588  0.7226  2.5364
 5671TIP3    H216978   7.032   2.144   4.449  0.1398 -0.0056  0.4912
 5672TIP3   OH216979   2.893   4.040   0.034 -0.3586  0.1699 -0.0852
 5672TIP3    H116980   2.810   4.029  -0.011 -0.5023 -1.6960  0.5491
 5672TIP3    H216981   2.934   3.953   0.030  1.5156  1.0176 -0.2962
 5673TIP3   OH216982   4.759   4.621   2.385  0.2027 -0.1802  0.3222
 5673TIP3    H116983   4.720   4.555   2.327  1.0842  0.0647 -0.5638
 5673TIP3    H216984   4.730   4.594   2.473  1.3284 -2.3266  0.1081
 5674TIP3   OH216985   3.478   0.379   3.025 -0.1724  0.0360 -0.0629
 5674TIP3    H116986   3.501   0.318   2.954  0.4346 -0.1873  0.3112
 5674TIP3    H216987   3.528   0.458   3.005 -0.1710  0.0493 -0.0054
 5675TIP3   OH216988   3.820   3.891   5.756 -0.0575 -0.0396 -0.1313
 5675TIP3    H116989   3.871   3.842   5.820  2.4268 -1.3235 -2.8725
 5675TIP3    H216990   3.852   3.981   5.764  2.1952 -0.6764 -1.2435
 5676TIP3   OH216991   1.677   4.632   2.342 -0.1496  1.0442 -0.1831
 5676TIP3    H116992   1.710   4.712   2.300  1.2305  0.8116  0.3762
 5676TIP3    H216993   1.640   4.663   2.425  1.1356  1.0620  0.4213
 5677TIP3   OH216994   0.292   2.227   3.876  0.1907  0.8064 -0.2579
 5677TIP3    H116995   0.280   2.231   3.970  4.7642 -3.1565  0.8887
 5677TIP3    H216996   0.342   2.305   3.854 -0.6616  1.6140  0.6056
 5678TIP3   OH216997   1.961   4.762   5.603 -0.3483  0.7365  0.4731
 5678TIP3    H116998   1.875   4.760   5.643 -0.0651 -0.5797  1.0636
 5678TIP3    H216999   2.022   4.772   5.677  0.1314 -0.8175  0.3160
 5679TIP3   OH217000   2.643   4.338   4.993 -0.0052  0.2357  0.2067
 5679TIP3    H117001   2.647   4.394   5.070 -2.4042 -0.8715  1.2594
 5679TIP3    H217002   2.563   4.287   5.005  0.6206 -1.4428 -2.0365
 5680TIP3   OH217003   5.330   5.045   3.081 -0.5253 -0.0680 -0.2528
 5680TIP3    H117004   5.383   5.091   3.147  0.6714 -0.5800 -0.8143
 5680TIP3    H217005   5.294   4.969   3.128  0.9383 -0.8561 -0.3207
 5681TIP3   OH217006   0.888   4.197   2.481 -0.1936 -0.0987 -0.1816
 5681TIP3    H117007   0.906   4.277   2.431 -0.7002  0.1173 -0.0301
 5681TIP3    H217008   0.921   4.127   2.425  0.5094  0.2284 -0.1921
 5682TIP3   OH217009   4.677   4.524   0.699 -0.3807  0.0737 -0.6707
 5682TIP3    H117010   4.642   4.612   0.684  0.5109  1.1360  2.7521
 5682TIP3    H217011   4.771   4.532   0.683 -0.1606  0.0030  0.5233
 5683TIP3   OH217012   6.596   6.453   2.358 -0.3074 -0.0942  0.4081
 5683TIP3    H117013   6.563   6.398   2.287  0.4058  2.0134 -1.7131
 5683TIP3    H217014   6.660   6.399   2.404  0.2009 -1.1260 -1.4349
 5684TIP3   OH217015   2.975   3.594   4.959 -0.2836 -0.1164  0.2626
 5684TIP3    H117016   3.007   3.621   4.873 -1.7120 -1.9752 -0.9460
 5684TIP3    H217017   2.924   3.515   4.942  0.7540 -1.5441  3.0517
 5685TIP3   OH217018   6.529   0.494   1.439  0.0964  0.0025 -0.4977
 5685TIP3    H117019   6.471   0.453   1.375  0.4872  0.2522 -1.0275
 5685TIP3    H217020   6.475   0.560   1.482 -0.2466 -0.3556 -0.3718
 5686TIP3   OH217021   1.338   0.407   5.275  0.1085 -0.1521 -0.2731
 5686TIP3    H117022   1.403   0.435   5.340  0.9377 -0.3100 -1.0249
 5686TIP3    H217023   1.378   0.427   5.191 -1.0694  0.2808 -0.7449
 5687TIP3   OH217024   6.640   5.058   3.707  0.5755 -0.0357 -0.5924
 5687TIP3    H117025   6.670   4.969   3.725 -0.2479 -0.5621 -1.7025
 5687TIP3    H217026   6.646   5.103   3.792 -2.5081 -2.2023  0.9733
 5688TIP3   OH217027   4.880   2.362   5.731 -0.5532  0.2799  0.2564
 5688TIP3    H117028   4.858   2.369   5.638 -1.3295 -0.3115  0.3824
 5688TIP3    H217029   4.967   2.322   5.732 -0.6870 -0.0377 -0.2153
 5689TIP3   OH217030   3.804   4.187   1.787 -0.2343  0.0084 -0.1845
 5689TIP3    H117031   3.872   4.234   1.738  0.1282  0.8265  1.0527
 5689TIP3    H217032   3.832   4.096   1.785  0.8313  0.3107  0.1618
 5690TIP3   OH217033   5.538   6.002   0.982 -0.0749  0.0602 -0.0011
 5690TIP3    H117034   5.580   6.087   0.998 -3.7930  2.2884 -0.9830
 5690TIP3    H217035   5.545   5.989   0.888 -0.3864 -0.2710  0.0202
 5691TIP3   OH217036   4.658   5.968   0.234  0.0909 -0.6015 -0.0715
 5691TIP3    H117037   4.730   5.927   0.282  0.8745  1.5461  0.7084
 5691TIP3    H217038   4.692   5.980   0.145  0.6041  0.1066  0.2107
 5692TIP3   OH217039   0.339   3.063   5.062  0.0073  0.1398  0.4555
 5692TIP3    H117040   0.344   2.990   5.124  0.5585 -0.6408 -0.4889
 5692TIP3    H217041   0.298   3.134   5.112 -0.1435 -0.6737  1.5167
 5693TIP3   OH217042   0.324   0.484   2.698  0.4943  0.0895  0.1490
 5693TIP3    H117043   0.369   0.564   2.671 -0.0848 -0.3752 -2.3643
 5693TIP3    H217044   0.379   0.413   2.667 -1.4826 -0.4858 -2.3568
 5694TIP3   OH217045   5.643   5.387   4.547 -0.2687  0.0280  0.4810
 5694TIP3    H117046   5.654   5.292   4.558  0.2725  0.0509  0.1451
 5694TIP3    H217047   5.665   5.404   4.456 -1.1471  0.3737  0.3168
 5695TIP3   OH217048   5.840   1.269   1.342 -0.3090  0.1987 -0.0195
 5695TIP3    H117049   5.891   1.285   1.263 -1.8042  1.1759 -0.8256
 5695TIP3    H217050   5.760   1.226   1.311 -0.4572 -0.3536  1.0853
 5696TIP3   OH217051   6.455   4.138   5.604  0.0269 -0.0921  0.0415
 5696TIP3    H117052   6.472   4.044   5.609 -0.6688 -0.2580 -0.5788
 5696TIP3    H217053   6.375   4.151   5.653 -0.1218  0.1056 -0.2506
 5697TIP3   OH217054   4.477   6.272   5.008  0.4990  0.2255  0.6302
 5697TIP3    H117055   4.412   6.312   5.066  2.7056  1.4581  2.4283
 5697TIP3    H217056   4.547   6.337   5.002  1.4112 -0.8585 -1.5662
 5698TIP3   OH217057   1.852   6.235   2.181  0.3049 -0.2149 -0.4549
 5698TIP3    H117058   1.901   6.203   2.257 -0.6548 -1.2806 -0.2493
 5698TIP3    H217059   1.901   6.311   2.150  3.0926 -2.2128 -1.3324
 5699TIP3   OH217060   1.265   3.425   0.237  0.1914 -0.3862  0.3674
 5699TIP3    H117061   1.360   3.435   0.230 -0.0293  0.5192 -2.9881
 5699TIP3    H217062   1.238   3.491   0.301  1.6753  0.3878  0.2278
 5700TIP3   OH217063   3.074   2.321   2.105  0.0959 -0.3292 -0.3740
 5700TIP3    H117064   2.996   2.269   2.127 -1.0967  1.3916 -0.2992
 5700TIP3    H217065   3.148   2.262   2.121 -1.1556 -1.8644  0.0277
 5701TIP3   OH217066   2.668   3.157   2.009 -0.3507 -0.1955 -0.4680
 5701TIP3    H117067   2.596   3.095   1.996 -0.5144 -0.8999  2.9865
 5701TIP3    H217068   2.732   3.109   2.061  1.2057  1.4430 -0.7788
 5702TIP3   OH217069   5.213   0.992   0.112 -0.2579 -0.4228  0.6359
 5702TIP3    H117070   5.221   0.966   0.020  0.9400  0.5516  0.4267
 5702TIP3    H217071   5.217   1.088   0.110  1.7617 -0.4070  1.8077
 5703TIP3   OH217072   4.874   1.957   4.362  0.0940  0.3429  0.3621
 5703TIP3    H117073   4.916   1.990   4.283 -0.6884  0.5637  0.0315
 5703TIP3    H217074   4.782   1.948   4.339 -0.4696  2.0273  1.7411
 5704TIP3   OH217075   6.093   6.474   0.705 -0.4610 -0.5135 -0.1540
 5704TIP3    H117076   6.079   6.568   0.695 -1.3113 -0.7469 -1.3462
 5704TIP3    H217077   6.164   6.453   0.644 -1.3086 -0.8839 -1.0374
 5705TIP3   OH217078   0.363   4.343   2.888  0.1761  0.0834 -0.1363
 5705TIP3    H117079   0.431   4.382   2.833  0.4663  1.6160  1.2339
 5705TIP3    H217080   0.408   4.319   2.968 -0.8105  0.8322  0.6689
 5706TIP3   OH217081   4.511   2.755   3.301  0.4327  0.1098 -0.1722
 5706TIP3    H117082   4.432   2.715   3.266 -0.1032  1.5716 -0.6986
 5706TIP3    H217083   4.568   2.681   3.322 -0.4583 -0.9127 -1.2218
 5707TIP3   OH217084   1.402   1.200   5.411 -0.9354 -0.6362  0.0586
 5707TIP3    H117085   1.355   1.225   5.491 -0.7006 -0.8855  0.2758
 5707TIP3    H217086   1.428   1.109   5.426  2.0025  0.2721  1.1231
 5708TIP3   OH217087   5.225   0.877   1.246  0.3178 -0.1220  0.1431
 5708TIP3    H117088   5.303   0.822   1.234  1.8214  1.8678  0.2014
 5708TIP3    H217089   5.171   0.859   1.170  1.2818 -0.8556 -0.3970
 5709TIP3   OH217090   3.735   2.726   5.085  0.4868 -0.1011 -0.2003
 5709TIP3    H117091   3.830   2.724   5.093  0.6056  0.4204 -1.2364
 5709TIP3    H217092   3.703   2.704   5.172  1.5507 -0.6503  0.0698
 5710TIP3   OH217093   6.232   0.753   5.703 -0.1287 -0.2803  1.2152
 5710TIP3    H117094   6.210   0.819   5.637 -0.0553 -0.4615  1.0102
 5710TIP3    H217095   6.147   0.728   5.740 -0.3274 -1.2431  0.1728
 5711TIP3   OH217096   6.645   1.315   4.148  0.5811 -0.3116 -0.2143
 5711TIP3    H117097   6.719   1.346   4.201  0.9686 -1.5952  0.0287
 5711TIP3    H217098   6.573   1.374   4.170  0.6657 -0.9258  1.9276
 5712TIP3   OH217099   0.988   2.399   0.901 -0.0284  0.3580  0.0780
 5712TIP3    H117100   1.040   2.439   0.831 -0.0599  0.6225  0.2021
 5712TIP3    H217101   1.052   2.352   0.955 -0.1781 -1.0462 -0.9184
 5713TIP3   OH217102   0.487   0.755   2.313 -0.3254  0.5307  0.4777
 5713TIP3    H117103   0.473   0.661   2.323  0.2813  0.4891  0.9863
 5713TIP3    H217104   0.575   0.762   2.276  0.0721  0.9303  1.4717
 5714TIP3   OH217105   5.957   2.675   0.909  0.1962  0.0091 -0.3819
 5714TIP3    H117106   5.983   2.767   0.905 -2.1159  0.7399 -0.7500
 5714TIP3    H217107   6.024   2.629   0.860  2.4854  1.1807  1.4650
 5715TIP3   OH217108   5.256   1.250   5.266  0.2809 -0.1885 -0.1472
 5715TIP3    H117109   5.166   1.227   5.289  1.2074 -3.2513  0.8472
 5715TIP3    H217110   5.255   1.345   5.257 -2.8890 -0.0644  0.4824
 5716TIP3   OH217111   1.312   6.301   3.607 -0.0888 -0.4638 -0.4752
 5716TIP3    H117112   1.381   6.306   3.673  0.6646  3.2295 -1.3062
 5716TIP3    H217113   1.233   6.279   3.657  0.7503  0.4945  1.3872
 5717TIP3   OH217114   1.317   0.204   5.692  0.7623 -0.0846 -0.1295
 5717TIP3    H117115   1.258   0.138   5.730 -0.3624  1.0469  0.1672
 5717TIP3    H217116   1.328   0.177   5.601 -1.6629  0.5764 -0.7053
 5718TIP3   OH217117   0.328   4.349   5.049  0.0266  0.2443 -0.1175
 5718TIP3    H117118   0.325   4.258   5.021  1.4805 -0.1449  0.9038
 5718TIP3    H217119   0.344   4.398   4.969 -0.6083 -0.3968 -0.6523
 5719TIP3   OH217120   1.712   4.166   3.419 -0.4206  0.1944  0.2052
 5719TIP3    H117121   1.712   4.203   3.507 -1.3500  0.6045  0.0529
 5719TIP3    H217122   1.770   4.223   3.368  0.0568  0.0016  0.5303
 5720TIP3   OH217123   4.047   2.590   0.537  0.4123 -0.6167  0.2548
 5720TIP3    H117124   4.104   2.524   0.498  0.9152  0.6672 -1.2654
 5720TIP3    H217125   4.106   2.662   0.559 -0.0707 -0.7521  2.2422
 5721TIP3   OH217126   1.158   0.075   5.858  0.3335 -0.4736  0.0389
 5721TIP3    H117127   1.132   0.166   5.844  1.4298 -0.2623 -0.7890
 5721TIP3    H217128   1.099   0.043   5.926  1.1774  1.4451  1.8009
 5722TIP3   OH217129   1.182   1.496   0.931 -0.3002 -0.3517  0.8498
 5722TIP3    H117130   1.100   1.520   0.888  0.0119 -1.8957 -0.7021
 5722TIP3    H217131   1.178   1.401   0.939  1.3594 -0.4579  0.6961
 5723TIP3   OH217132   4.408   3.591   0.862 -0.2400  0.2712  0.1688
 5723TIP3    H117133   4.335   3.530   0.859 -0.1456  0.1708 -0.1036
 5723TIP3    H217134   4.373   3.673   0.826 -0.3038  0.3161  0.3293
 5724TIP3   OH217135   5.307   3.661   3.108 -0.0590 -0.3276  0.1441
 5724TIP3    H117136   5.386   3.612   3.083 -1.2044 -1.7852 -0.7672
 5724TIP3    H217137   5.270   3.612   3.181 -0.3189  0.1434  0.3339
 5725TIP3   OH217138   0.984   0.734   0.030  0.1337 -0.1078 -0.2415
 5725TIP3    H117139   1.018   0.786   0.104  2.1085 -1.6492  0.0025
 5725TIP3    H217140   1.015   0.781  -0.048 -0.6821  0.6995 -0.1027
 5726TIP3   OH217141   6.411   6.687   5.566 -0.0380 -0.2210  0.0965
 5726TIP3    H117142   6.439   6.762   5.618  0.9873 -0.5241  0.0059
 5726TIP3    H217143   6.371   6.726   5.488  1.5675  0.2739 -0.5303
 5727TIP3   OH217144   0.147   0.029   0.276  0.7699 -0.0404 -0.1948
 5727TIP3    H117145   0.093  -0.006   0.205 -0.0827 -0.7149  0.7547
 5727TIP3    H217146   0.108   0.113   0.297  0.9907  0.1362 -0.4882
 5728TIP3   OH217147   6.482   2.731   1.675 -0.3067 -0.0175  0.3362
 5728TIP3    H117148   6.396   2.699   1.701 -0.8965  1.1053 -0.1579
 5728TIP3    H217149   6.504   2.682   1.596  0.1364 -1.2689  1.1984
 5729TIP3   OH217150   5.742   1.148   5.420 -0.6606 -0.1989 -0.2288
 5729TIP3    H117151   5.818   1.175   5.368 -0.2406  1.3270  1.0786
 5729TIP3    H217152   5.737   1.054   5.407  0.6795 -0.1530 -1.3733
 5730TIP3   OH217153   3.888   6.774   4.953  0.4125  0.1338 -0.3039
 5730TIP3    H117154   3.848   6.745   5.035 -1.0154  0.2752 -0.9313
 5730TIP3    H217155   3.861   6.707   4.889 -0.7580  1.4372 -1.2198
 5731TIP3   OH217156   3.737   0.728   5.411 -0.1307  0.5944  0.0013
 5731TIP3    H117157   3.714   0.662   5.345 -0.9066  0.8384  0.0117
 5731TIP3    H217158   3.741   0.810   5.362  0.6543  0.5738  0.0206
 5732TIP3   OH217159   5.851   6.009   2.609  0.0914 -0.1530 -0.6912
 5732TIP3    H117160   5.910   6.084   2.609  1.1649 -0.9792 -1.1119
 5732TIP3    H217161   5.771   6.042   2.567 -0.9190  1.8154  2.4427
 5733TIP3   OH217162   5.852   6.494   3.726 -0.0918  0.2211  0.0439
 5733TIP3    H117163   5.783   6.430   3.709 -0.8014  0.6767  1.0304
 5733TIP3    H217164   5.818   6.576   3.690 -0.0436  0.4321  0.4651
 5734TIP3   OH217165   2.314   1.278   1.706 -0.1464  0.1557 -0.1976
 5734TIP3    H117166   2.398   1.261   1.662 -0.4884  0.7139 -1.0949
 5734TIP3    H217167   2.262   1.323   1.640 -1.5105 -1.0319  0.0197
 5735TIP3   OH217168   2.765   1.099   3.508 -0.1962  0.1889 -0.1558
 5735TIP3    H117169   2.847   1.124   3.551 -0.6742  0.1443  0.8133
 5735TIP3    H217170   2.734   1.179   3.467  0.0046  0.3663  0.0358
 5736TIP3   OH217171   4.377   6.014   1.608 -0.9286  0.1857  0.1966
 5736TIP3    H117172   4.376   5.936   1.665 -1.2879  0.5050  0.6361
 5736TIP3    H217173   4.323   6.078   1.654 -0.1642  0.9034  0.1206
 5737TIP3   OH217174   1.712   2.373   5.323 -0.1369 -0.0772 -0.1651
 5737TIP3    H117175   1.744   2.425   5.396  1.1328 -1.0613  0.0295
 5737TIP3    H217176   1.617   2.380   5.327 -0.0443  0.7883  0.8960
 5738TIP3   OH217177   0.106   1.824   3.050  0.2279  0.5681 -0.1444
 5738TIP3    H117178   0.123   1.744   3.000  0.1215  0.2753  0.2812
 5738TIP3    H217179   0.169   1.888   3.016  0.8616  0.0632  0.0695
 5739TIP3   OH217180   4.592   3.469   5.679  0.1033  0.2131 -0.3599
 5739TIP3    H117181   4.565   3.445   5.768 -1.2874  0.0485 -0.8044
 5739TIP3    H217182   4.679   3.431   5.670 -0.4860 -1.3892  0.2994
 5740TIP3   OH217183   2.013   1.688   1.972 -0.0047 -0.0947  0.6069
 5740TIP3    H117184   2.041   1.691   2.063 -0.8911  0.1764  0.8739
 5740TIP3    H217185   2.074   1.745   1.926  1.2103 -1.1719  0.8095
 5741TIP3   OH217186   0.849   5.091   1.447  0.1494  0.1570 -0.2701
 5741TIP3    H117187   0.779   5.042   1.404  0.2659  1.1697 -1.6794
 5741TIP3    H217188   0.808   5.130   1.524 -1.1631  1.6218 -1.6403
 5742TIP3   OH217189   6.107   0.717   2.231 -0.3534 -0.1098 -0.4134
 5742TIP3    H117190   6.052   0.718   2.310  0.7917 -1.6335  0.4630
 5742TIP3    H217191   6.081   0.638   2.185 -1.3958  1.0564 -1.8963
 5743TIP3   OH217192   5.957   6.558   0.132  0.0475 -0.0017 -0.1653
 5743TIP3    H117193   5.964   6.519   0.044 -0.5914  0.5269 -0.4533
 5743TIP3    H217194   6.017   6.505   0.185  1.0212  0.1404 -1.0744
 5744TIP3   OH217195   6.425   6.234   1.647  0.4292 -0.1445 -0.4262
 5744TIP3    H117196   6.451   6.280   1.726 -0.4511  0.2083 -0.3256
 5744TIP3    H217197   6.439   6.141   1.666  1.6344  0.0314 -0.4073
 5745TIP3   OH217198   0.618   1.817   3.513  0.3224  0.2089  0.3849
 5745TIP3    H117199   0.690   1.844   3.570  0.4283 -0.6416  0.6641
 5745TIP3    H217200   0.651   1.834   3.425  0.2461  1.3139  0.5497
 5746TIP3   OH217201   5.226   2.536   5.413 -0.0817 -0.0065 -0.1343
 5746TIP3    H117202   5.154   2.561   5.471 -1.0415 -1.8718 -0.4481
 5746TIP3    H217203   5.270   2.618   5.392 -0.3213  0.8567  2.3886
 5747TIP3   OH217204   4.710   5.636   4.965 -0.1725  0.0001  0.7636
 5747TIP3    H117205   4.628   5.597   4.934  0.3856 -0.4434 -0.1770
 5747TIP3    H217206   4.709   5.724   4.927  0.5915 -0.6003 -0.7182
 5748TIP3   OH217207   3.555   3.558   4.549  0.6667 -0.1918  0.0680
 5748TIP3    H117208   3.460   3.562   4.535  0.5672 -0.5101  0.5963
 5748TIP3    H217209   3.593   3.577   4.464  0.1133 -0.8816 -0.3450
 5749TIP3   OH217210   6.956   5.747   0.394  0.0279  0.2026  0.2643
 5749TIP3    H117211   6.942   5.729   0.301 -1.5670 -1.0953  0.7018
 5749TIP3    H217212   6.942   5.841   0.402  0.7335  0.4331 -0.8713
 5750TIP3   OH217213   2.769   6.550   4.166  0.0470  0.0364 -0.5945
 5750TIP3    H117214   2.798   6.483   4.228 -0.1805 -0.3784 -0.9308
 5750TIP3    H217215   2.803   6.632   4.201 -0.6223 -0.1040  0.4223
 5751TIP3   OH217216   6.207   1.649   4.532 -0.2639 -0.7474  0.3728
 5751TIP3    H117217   6.170   1.737   4.528 -0.1836 -0.6896  0.7966
 5751TIP3    H217218   6.302   1.662   4.523 -0.3824 -0.9733 -1.6433
 5752TIP3   OH217219   1.504   3.431   4.641  0.0148 -0.0606 -0.9945
 5752TIP3    H117220   1.487   3.386   4.558  0.3779 -1.1364 -0.5049
 5752TIP3    H217221   1.451   3.511   4.637 -0.1751 -0.2373 -2.1419
 5753TIP3   OH217222   5.331   0.280   2.587  0.3608  0.1462 -0.0575
 5753TIP3    H117223   5.310   0.372   2.574 -0.8809  0.3367  2.5992
 5753TIP3    H217224   5.374   0.277   2.672  1.4319 -1.6235 -0.6069
 5754TIP3   OH217225   1.663   0.780   3.440  0.2972  0.0866  0.4053
 5754TIP3    H117226   1.750   0.816   3.422  1.3148 -3.0111 -1.6893
 5754TIP3    H217227   1.676   0.722   3.515  0.2122 -0.8723 -0.3104
 5755TIP3   OH217228   5.503   5.476   1.179  0.0120 -0.8321 -0.1318
 5755TIP3    H117229   5.426   5.533   1.174  1.1210  0.7653  0.2536
 5755TIP3    H217230   5.526   5.475   1.272  0.2948 -1.5304 -0.2027
 5756TIP3   OH217231   1.696   1.014   5.122  0.3003  0.2241  0.4863
 5756TIP3    H117232   1.658   1.088   5.170  0.9992  1.4058 -0.7028
 5756TIP3    H217233   1.711   1.049   5.034  0.3826 -1.4406 -0.1932
 5757TIP3   OH217234   0.584   3.327   0.402 -0.5978 -0.4478  0.7398
 5757TIP3    H117235   0.671   3.294   0.380 -0.4138 -1.1659  2.3812
 5757TIP3    H217236   0.579   3.414   0.361  0.3208 -0.9749 -0.5589
 5758TIP3   OH217237   5.656   5.360   4.257  0.1920 -0.4461 -0.2183
 5758TIP3    H117238   5.583   5.300   4.244 -0.2290 -0.4079  1.6651
 5758TIP3    H217239   5.701   5.363   4.172 -1.4707 -1.1411 -1.1593
 5759TIP3   OH217240   1.321   0.340   1.832  0.4092 -0.3025  0.4408
 5759TIP3    H117241   1.327   0.423   1.880 -0.6846 -1.0322  1.8843
 5759TIP3    H217242   1.412   0.317   1.813  0.7129  1.5027 -0.5159
 5760TIP3   OH217243   2.650   0.703   0.229 -0.5660  0.7505  0.1376
 5760TIP3    H117244   2.669   0.634   0.165 -1.5203  0.7632 -0.1679
 5760TIP3    H217245   2.731   0.712   0.279  0.2765  0.8682 -1.1846
 5761TIP3   OH217246   6.071   6.531   1.720  0.0081 -0.2701  0.6509
 5761TIP3    H117247   6.153   6.538   1.769  1.2514 -1.3465 -1.1550
 5761TIP3    H217248   6.092   6.473   1.647 -1.4316  2.0085 -1.7547
 5762TIP3   OH217249   1.891   2.064   1.929  0.2548  0.0176 -0.4250
 5762TIP3    H117250   1.798   2.060   1.951  0.7360 -2.2099  1.5539
 5762TIP3    H217251   1.933   2.003   1.989  2.9268  0.3406 -1.8037
 5763TIP3   OH217252   3.093   0.811   4.105  0.1088 -0.7257 -0.7261
 5763TIP3    H117253   3.042   0.853   4.035 -1.1386  0.2510  0.6854
 5763TIP3    H217254   3.059   0.722   4.109 -2.2139  0.1251  0.7231
 5764TIP3   OH217255   5.891   4.339   0.793  0.0811 -0.0233  0.0476
 5764TIP3    H117256   5.855   4.426   0.777  0.5704  0.2022  0.1467
 5764TIP3    H217257   5.839   4.304   0.866 -0.7500 -0.2075 -0.6249
 5765TIP3   OH217258   3.181   3.087   0.356 -0.3101  0.4303 -0.4286
 5765TIP3    H117259   3.105   3.070   0.411  0.6218  0.3133  0.8886
 5765TIP3    H217260   3.186   3.182   0.352 -0.2215  0.4459 -0.0485
 5766TIP3   OH217261   3.135   1.936   2.130 -0.2402 -0.2260 -0.3338
 5766TIP3    H117262   3.054   1.985   2.139  0.0844  0.3825 -0.6584
 5766TIP3    H217263   3.113   1.847   2.160 -1.1526 -0.2074 -0.9186
 5767TIP3   OH217264   5.735   5.237   4.904 -0.1487 -0.5111 -0.0975
 5767TIP3    H117265   5.720   5.160   4.849  1.4039 -0.6013 -0.4489
 5767TIP3    H217266   5.756   5.201   4.990 -2.5514 -0.3705  0.6174
 5768TIP3   OH217267   6.320   3.296   2.108  0.5328 -0.8652  0.3716
 5768TIP3    H117268   6.392   3.305   2.170  0.4159 -0.2048  0.4144
 5768TIP3    H217269   6.309   3.383   2.070  0.1449 -1.0990 -0.0656
 5769TIP3   OH217270   4.767   0.761   3.094  0.3829 -0.1225  0.7184
 5769TIP3    H117271   4.676   0.771   3.124 -0.0294  0.3941 -0.6276
 5769TIP3    H217272   4.818   0.818   3.151 -0.4567  1.3051  0.0951
 5770TIP3   OH217273   0.658   3.949   2.732  0.1090  0.0849 -0.0936
 5770TIP3    H117274   0.734   3.892   2.748  0.0735  0.3967  1.2669
 5770TIP3    H217275   0.639   3.988   2.817 -1.9673 -0.4607 -0.2517
 5771TIP3   OH217276   6.987   5.866   5.573  0.0046  0.2056  0.0954
 5771TIP3    H117277   6.983   5.954   5.612  3.0768  0.7792 -0.5469
 5771TIP3    H217278   6.979   5.882   5.479  1.2126 -0.0524 -0.0752
 5772TIP3   OH217279   2.368   4.115   5.210 -0.8054 -0.1732  0.9043
 5772TIP3    H117280   2.341   4.166   5.133 -2.0576  0.5658  1.7927
 5772TIP3    H217281   2.404   4.180   5.270 -0.7999 -0.5893  1.3590
 5773TIP3   OH217282   4.081   6.475   4.919 -0.5199  0.8785 -0.5956
 5773TIP3    H117283   4.177   6.480   4.929 -0.4817  0.7449 -0.8938
 5773TIP3    H217284   4.047   6.511   5.001 -0.2010 -1.7627  0.8365
 5774TIP3   OH217285   3.247   4.945   2.698  0.4764 -0.3212  0.1083
 5774TIP3    H117286   3.284   4.998   2.627 -1.4081  0.8140 -0.1233
 5774TIP3    H217287   3.203   5.009   2.754 -1.1798 -1.5321  0.2752
 5775TIP3   OH217288   7.100   0.324   2.390  0.1431  0.6263 -0.0743
 5775TIP3    H117289   7.192   0.344   2.374 -0.0906  2.6993  0.9005
 5775TIP3    H217290   7.059   0.409   2.406 -1.9175 -0.2670 -0.3084
 5776TIP3   OH217291   1.035   3.810   3.689  0.1790  0.1539 -0.2073
 5776TIP3    H117292   1.056   3.811   3.782 -2.0505  0.6839  0.3493
 5776TIP3    H217293   1.053   3.720   3.661  1.8112  0.2453  0.4559
 5777TIP3   OH217294   3.406   2.960   4.470 -0.4663  0.5154 -0.0299
 5777TIP3    H117295   3.342   3.026   4.441 -1.0866  0.4061  1.0279
 5777TIP3    H217296   3.429   2.988   4.559  0.3165  0.0696 -0.0892
 5778TIP3   OH217297   2.488   4.844   4.674  0.7007 -0.5800 -0.6001
 5778TIP3    H117298   2.518   4.931   4.647 -0.3684  0.1194  0.3759
 5778TIP3    H217299   2.535   4.826   4.755  0.2774 -0.5272 -0.3402
 5779TIP3   OH217300   6.580   2.933   3.144  0.2464 -0.3254  0.0635
 5779TIP3    H117301   6.663   2.945   3.191  0.0623 -0.3531  0.4003
 5779TIP3    H217302   6.567   2.838   3.143  0.7837 -0.4015 -0.9852
 5780TIP3   OH217303   0.256   2.678   4.449 -0.7032  0.3458 -0.7266
 5780TIP3    H117304   0.336   2.670   4.500 -0.3010  2.4527 -0.9712
 5780TIP3    H217305   0.190   2.705   4.512 -1.1049 -0.7488 -0.6508
 5781TIP3   OH217306   2.659  -0.002   1.901  0.5683  0.2490  0.0459
 5781TIP3    H117307   2.599   0.070   1.883 -0.2606 -0.2866  0.6227
 5781TIP3    H217308   2.609  -0.063   1.955  1.4205 -0.5224 -0.0032
 5782TIP3   OH217309   0.478   2.248   4.383  0.6232 -0.5257 -0.0176
 5782TIP3    H117310   0.536   2.322   4.365  0.5358 -0.0226  1.5450
 5782TIP3    H217311   0.438   2.270   4.468 -2.1149 -0.6711 -1.1682
 5783TIP3   OH217312   1.902   0.593   2.361 -0.0523  0.4466 -0.1043
 5783TIP3    H117313   1.947   0.591   2.276  0.9870 -2.2710  0.4080
 5783TIP3    H217314   1.972   0.584   2.425 -0.6953  3.6446  1.2153
 5784TIP3   OH217315   3.742   3.029   0.296 -0.3050  0.0845 -0.3925
 5784TIP3    H117316   3.703   3.010   0.211  0.0827  1.2951 -0.8498
 5784TIP3    H217317   3.674   3.004   0.360 -0.3678 -1.4046 -1.0068
 5785TIP3   OH217318   0.923   1.108   2.470  0.4564  0.2926 -0.1717
 5785TIP3    H117319   0.987   1.151   2.527 -1.5270 -0.2494  2.7103
 5785TIP3    H217320   0.944   1.015   2.476 -0.8146  0.0527  1.2381
 5786TIP3   OH217321   1.333   4.459   2.209  0.0067 -0.2644 -0.2788
 5786TIP3    H117322   1.314   4.403   2.285 -0.0566  0.0849 -0.0328
 5786TIP3    H217323   1.369   4.399   2.144 -0.0270 -0.5874 -0.0067
 5787TIP3   OH217324   5.685   3.721   0.136  0.3881 -0.5722  0.4976
 5787TIP3    H117325   5.727   3.762   0.060 -1.1904 -2.0256 -1.2359
 5787TIP3    H217326   5.594   3.748   0.132  0.1280 -1.2111  1.5114
 5788TIP3   OH217327   3.095   4.972   5.158 -0.5884  0.3006  0.2494
 5788TIP3    H117328   3.044   5.041   5.115  0.2409  1.5033  1.1406
 5788TIP3    H217329   3.150   5.018   5.221 -0.3851 -1.2342  1.2506
 5789TIP3   OH217330   3.921   2.029   2.164 -0.0442  0.1092  0.0644
 5789TIP3    H117331   3.833   2.002   2.139 -0.9075  0.7554  2.2286
 5789TIP3    H217332   3.934   1.992   2.251  0.8444  2.0242  0.8110
 5790TIP3   OH217333   1.490   2.296   0.939 -0.1798  0.4723 -0.1995
 5790TIP3    H117334   1.552   2.316   0.868 -0.2381  1.7837  0.0981
 5790TIP3    H217335   1.544   2.293   1.018 -0.0894 -1.1513 -0.2833
 5791TIP3   OH217336   5.786   2.938   3.763 -0.1290 -0.3276  0.1681
 5791TIP3    H117337   5.795   2.846   3.784 -0.8418 -0.5543 -0.4855
 5791TIP3    H217338   5.864   2.958   3.710 -0.9646 -1.0781 -1.4067
 5792TIP3   OH217339   5.152   4.640   2.093 -0.0410 -0.5580 -0.2186
 5792TIP3    H117340   5.123   4.559   2.136  0.9638 -2.8158 -3.4049
 5792TIP3    H217341   5.247   4.639   2.104  0.0478 -0.2425 -0.9473
 5793TIP3   OH217342   6.951   3.602   5.028  0.2292 -0.3165  0.1417
 5793TIP3    H117343   6.856   3.605   5.014  0.3405 -3.0145 -2.0527
 5793TIP3    H217344   6.989   3.607   4.940  2.0295 -1.0643  0.8223
 5794TIP3   OH217345   5.314  -0.016   4.237 -0.1293  0.1140  0.2305
 5794TIP3    H117346   5.389   0.005   4.181 -0.4503 -0.8284 -0.5849
 5794TIP3    H217347   5.262   0.064   4.237  0.0534  0.2450 -0.5565
 5795TIP3   OH217348   4.098   2.690   0.226  0.1793  0.4407  0.2827
 5795TIP3    H117349   4.176   2.654   0.183 -0.6394 -0.2870 -0.6642
 5795TIP3    H217350   4.126   2.710   0.315  0.6216 -3.1522  1.1176
 5796TIP3   OH217351   6.019   5.786   5.324  0.5121 -0.2492  0.8237
 5796TIP3    H117352   6.058   5.764   5.409 -2.2986  0.2968  2.3632
 5796TIP3    H217353   5.947   5.723   5.314  0.2441  0.2710 -0.7401
 5797TIP3   OH217354   0.086   5.182   3.473  0.4690  0.2485 -0.8626
 5797TIP3    H117355   0.060   5.098   3.512 -0.3873 -0.0649 -2.0667
 5797TIP3    H217356   0.012   5.240   3.490  0.6262  0.4673 -0.9280
 5798TIP3   OH217357   6.158   4.269   4.491 -0.0164 -0.2030 -0.5298
 5798TIP3    H117358   6.196   4.276   4.578 -1.4011  0.1433  0.0793
 5798TIP3    H217359   6.067   4.242   4.506 -0.2033 -0.4131 -1.8788
 5799TIP3   OH217360   3.129   3.709   5.833 -0.2858 -0.2477  0.2287
 5799TIP3    H117361   3.038   3.694   5.807  0.6866 -0.0513 -4.0695
 5799TIP3    H217362   3.133   3.802   5.856 -0.8526  0.2957 -1.6684
 5800TIP3   OH217363   2.078   2.731   0.009 -0.3363 -0.0254 -0.1753
 5800TIP3    H117364   2.143   2.662   0.005 -2.0195 -1.6414 -1.8491
 5800TIP3    H217365   2.121   2.802   0.057  1.1379 -2.5299  2.5506
 5801TIP3   OH217366   2.484   3.863   5.153  0.2672 -0.5416 -0.2398
 5801TIP3    H117367   2.469   3.958   5.151 -0.2802 -0.6298 -1.7757
 5801TIP3    H217368   2.438   3.833   5.231  2.0873  0.6704  1.4165
 5802TIP3   OH217369   0.850   4.542   3.152  0.3200 -0.6862  0.7060
 5802TIP3    H117370   0.755   4.533   3.151  0.3304 -0.7153 -0.0376
 5802TIP3    H217371   0.868   4.607   3.084  0.6861  0.7201  2.0850
 5803TIP3   OH217372   3.294   3.573   4.400 -0.0499 -0.2144  0.1435
 5803TIP3    H117373   3.252   3.617   4.326 -1.8276 -1.5503  0.3116
 5803TIP3    H217374   3.287   3.636   4.472 -0.8684 -0.0131 -0.1036
 5804TIP3   OH217375   0.188   3.908   3.116  0.8709 -0.2695 -0.1752
 5804TIP3    H117376   0.250   3.944   3.180  0.2914  0.0946  0.1905
 5804TIP3    H217377   0.222   3.936   3.031 -0.7345  3.1429  0.1493
 5805TIP3   OH217378   0.482   6.554   1.836  0.2820  0.0320 -0.1685
 5805TIP3    H117379   0.397   6.542   1.878 -0.0538  0.5706 -0.6653
 5805TIP3    H217380   0.543   6.504   1.889 -0.2007  0.3571  0.7089
 5806TIP3   OH217381   4.975   4.387   2.923  0.1294 -0.0237 -0.1228
 5806TIP3    H117382   4.976   4.293   2.904 -0.2076  0.3184 -2.1584
 5806TIP3    H217383   5.066   4.414   2.915  0.3711 -0.3085  1.4114
 5807TIP3   OH217384   1.829   3.288   2.713  0.0505 -0.0051  0.0883
 5807TIP3    H117385   1.873   3.203   2.715  1.4266  0.6750 -0.2213
 5807TIP3    H217386   1.791   3.292   2.625  1.6522  0.4827 -0.6207
 5808TIP3   OH217387   2.525   3.630   0.444  0.3499 -0.3674  0.0794
 5808TIP3    H117388   2.457   3.564   0.460 -0.3930 -0.3651 -2.6690
 5808TIP3    H217389   2.599   3.581   0.409  0.6848 -0.0020  0.2654
 5809TIP3   OH217390   4.951   5.601   0.472  0.3597 -0.1774 -0.1042
 5809TIP3    H117391   4.977   5.509   0.466  0.7147  0.0113 -3.2666
 5809TIP3    H217392   5.021   5.643   0.522  1.2908 -1.2969 -0.4258
 5810TIP3   OH217393   5.389   6.770   4.359 -0.1567 -0.1345  0.0037
 5810TIP3    H117394   5.358   6.795   4.272  1.2502  2.4046  0.1514
 5810TIP3    H217395   5.471   6.723   4.343  0.2203  0.5310 -0.0660
 5811TIP3   OH217396   1.318   3.750   0.815 -0.1700  0.1486  0.1868
 5811TIP3    H117397   1.276   3.664   0.809 -0.0235 -0.0618  1.9076
 5811TIP3    H217398   1.374   3.745   0.892  2.6081  0.6427 -1.6535
 5812TIP3   OH217399   6.264   0.406   0.989  0.2607 -0.2789 -0.1259
 5812TIP3    H117400   6.228   0.439   0.907 -0.1510 -2.2457 -0.7791
 5812TIP3    H217401   6.320   0.333   0.963  0.6630 -0.5030  1.2917
 5813TIP3   OH217402   4.198   6.062   2.265 -0.0180  0.5862  0.4103
 5813TIP3    H117403   4.232   5.977   2.236  0.1100  0.8560 -0.2592
 5813TIP3    H217404   4.175   6.107   2.184 -2.2271  0.3161  0.8371
 5814TIP3   OH217405   3.132   4.654   0.920  0.2375 -0.4250 -0.0811
 5814TIP3    H117406   3.224   4.630   0.911  0.9912  1.2989  2.1977
 5814TIP3    H217407   3.132   4.750   0.927 -1.5823 -0.4617  1.2120
 5815TIP3   OH217408  -0.013   2.251   3.432 -0.4762 -0.5654  0.0369
 5815TIP3    H117409   0.011   2.173   3.483 -0.6737  0.2288  1.3865
 5815TIP3    H217410   0.018   2.232   3.343  2.9076 -0.6511  1.1035
 5816TIP3   OH217411   5.524   0.727   2.943  0.1929  0.0678  0.1494
 5816TIP3    H117412   5.598   0.685   2.987  1.2280 -2.8335 -3.7686
 5816TIP3    H217413   5.556   0.815   2.921  1.8900 -0.5644 -0.0369
 5817TIP3   OH217414   2.050   0.809   5.545  0.0690  0.1463  0.1846
 5817TIP3    H117415   1.976   0.759   5.510 -1.2569  2.2765 -0.2500
 5817TIP3    H217416   2.128   0.763   5.513 -1.0808 -0.5114 -1.8455
 5818TIP3   OH217417   3.348   3.632   3.118 -0.6214 -0.7352 -0.2108
 5818TIP3    H117418   3.300   3.563   3.163  1.4791 -1.0802  1.6869
 5818TIP3    H217419   3.440   3.613   3.136  0.0648  2.5919  0.4923
 5819TIP3   OH217420   1.377   0.087   3.299 -0.2630  0.5987 -0.2176
 5819TIP3    H117421   1.334   0.003   3.309  0.3868  0.4012  1.1985
 5819TIP3    H217422   1.398   0.093   3.205 -1.1680 -0.3619 -0.4952
 5820TIP3   OH217423   3.089   6.527   0.325 -0.9274  0.3460 -0.4485
 5820TIP3    H117424   3.145   6.450   0.317 -0.2316  0.3891  2.6109
 5820TIP3    H217425   3.000   6.493   0.314 -0.5114 -0.4203 -1.5649
 5821TIP3   OH217426   0.361   3.529   4.098 -0.3397 -0.0530 -0.3464
 5821TIP3    H117427   0.295   3.530   4.168 -0.2064 -3.1718 -0.0609
 5821TIP3    H217428   0.311   3.529   4.017 -0.7968 -2.3124 -0.1310
 5822TIP3   OH217429   1.681   0.806   5.311  0.3783  0.0634  0.3260
 5822TIP3    H117430   1.679   0.869   5.239 -0.9427  0.0633  0.3435
 5822TIP3    H217431   1.763   0.757   5.298 -0.5859 -1.0328 -2.1392
 5823TIP3   OH217432   0.877   3.057   5.243  0.7535 -0.3955 -0.6320
 5823TIP3    H117433   0.793   3.100   5.228  0.6512 -0.0016  0.9276
 5823TIP3    H217434   0.920   3.057   5.157 -1.1623 -1.3428 -1.6558
 5824TIP3   OH217435   1.403   2.746   5.763 -0.2497 -0.2456 -0.3353
 5824TIP3    H117436   1.332   2.808   5.745 -0.7357 -0.7503 -0.2158
 5824TIP3    H217437   1.457   2.789   5.830 -0.2887  0.2596 -0.6267
 5825TIP3   OH217438   0.489   1.288   2.018  0.0960  0.0614 -0.3434
 5825TIP3    H117439   0.554   1.357   2.034  3.2234 -2.4104 -1.1737
 5825TIP3    H217440   0.482   1.283   1.923 -1.2253  0.1601 -0.2669
 5826TIP3   OH217441   6.626   0.804   0.969 -0.4484  0.4411 -0.1307
 5826TIP3    H117442   6.667   0.774   1.050 -0.0290  1.1642 -0.0619
 5826TIP3    H217443   6.694   0.793   0.902  0.3393  2.7165  0.1837
 5827TIP3   OH217444   3.511   6.361   3.581 -0.4066 -0.0926 -0.2160
 5827TIP3    H117445   3.572   6.404   3.641  0.6604 -2.1033  0.2341
 5827TIP3    H217446   3.436   6.338   3.636 -1.6258  2.3111 -0.7528
 5828TIP3   OH217447   1.132   3.514   0.760 -0.3182 -0.3564  0.2422
 5828TIP3    H117448   1.126   3.422   0.732 -4.0912 -0.8032  1.8826
 5828TIP3    H217449   1.185   3.511   0.839 -1.2834 -1.3677  0.8899
 5829TIP3   OH217450   5.168   0.738   5.844 -0.1294 -0.2061  0.7327
 5829TIP3    H117451   5.216   0.819   5.829  1.4630 -1.3109 -0.3484
 5829TIP3    H217452   5.201   0.705   5.927 -1.5011  0.6939  1.6910
 5830TIP3   OH217453   4.471   4.564   2.174  0.0770 -0.3140 -0.1001
 5830TIP3    H117454   4.395   4.558   2.233  0.6125  1.2777  0.7903
 5830TIP3    H217455   4.445   4.627   2.107  0.8775  0.8748  0.6738
 5831TIP3   OH217456   4.059   2.173   3.253 -0.1595  0.1159  0.0431
 5831TIP3    H117457   4.147   2.198   3.224  0.1499 -1.5350 -0.5607
 5831TIP3    H217458   4.062   2.180   3.348  0.1024  1.6533 -0.0576
 5832TIP3   OH217459   4.826   6.690   0.044  0.2261 -0.0136  0.8202
 5832TIP3    H117460   4.838   6.744  -0.033 -0.8025 -1.6694 -0.5832
 5832TIP3    H217461   4.877   6.611   0.027 -0.2041 -0.5070  1.7245
 5833TIP3   OH217462   4.646   3.665   0.970 -0.3250 -0.0742 -0.4735
 5833TIP3    H117463   4.688   3.596   0.919  0.0957 -2.1831  2.4451
 5833TIP3    H217464   4.558   3.671   0.935 -0.1980 -1.7457 -1.1450
 5834TIP3   OH217465   6.771   6.354   2.603  0.2778  0.0412  0.6981
 5834TIP3    H117466   6.785   6.261   2.620 -0.1942 -0.0704  0.4981
 5834TIP3    H217467   6.856   6.395   2.619  0.4488 -0.4019  0.9374
 5835TIP3   OH217468   5.220   1.531   5.276  0.9277 -0.0364 -0.7046
 5835TIP3    H117469   5.212   1.621   5.309  2.9391 -0.0862  0.0302
 5835TIP3    H217470   5.211   1.541   5.181 -0.4259  0.6983 -0.5391
 5836TIP3   OH217471   3.616   0.763   4.039  0.2902 -0.0057 -0.2177
 5836TIP3    H117472   3.540   0.815   4.064  0.5845  0.9982 -1.3033
 5836TIP3    H217473   3.612   0.685   4.094 -0.5406  0.8570  0.9870
 5837TIP3   OH217474   5.361   5.768   0.926 -0.9081  0.3533  0.1109
 5837TIP3    H117475   5.288   5.819   0.892 -1.1991  0.7800  1.3018
 5837TIP3    H217476   5.392   5.818   1.002  0.5054  0.0877 -0.2561
 5838TIP3   OH217477   7.186   6.775   1.145  0.2319 -0.4534 -0.1751
 5838TIP3    H117478   7.116   6.763   1.081 -0.0400 -0.7932  0.1826
 5838TIP3    H217479   7.148   6.745   1.228 -0.0529  1.6676  0.5204
 5839TIP3   OH217480   2.612   5.260   5.159  0.3771 -0.0437 -0.2031
 5839TIP3    H117481   2.551   5.286   5.090  0.9171  0.5393 -0.4650
 5839TIP3    H217482   2.657   5.183   5.124 -0.0597 -0.3515 -0.0915
 5840TIP3   OH217483   6.490   6.116   0.510  0.3307  0.2295 -0.0396
 5840TIP3    H117484   6.442   6.089   0.588 -0.8328 -0.5316 -0.9732
 5840TIP3    H217485   6.437   6.084   0.437  0.2779  2.7147 -1.2016
 5841TIP3   OH217486   3.814   0.871   4.214  0.0076  0.2321  0.1859
 5841TIP3    H117487   3.747   0.837   4.154 -0.1369  0.6365  0.1098
 5841TIP3    H217488   3.783   0.846   4.301  0.7008 -1.1832  0.0472
 5842TIP3   OH217489   3.693   0.499   5.238  0.1619  0.0762 -0.0230
 5842TIP3    H117490   3.602   0.512   5.210 -0.0310  0.5290  0.7716
 5842TIP3    H217491   3.697   0.406   5.262  0.5054 -0.4901 -2.0880
 5843TIP3   OH217492   3.285   3.716   0.516 -0.0384 -0.7661  0.5163
 5843TIP3    H117493   3.302   3.775   0.442  0.2475 -2.5068 -0.8811
 5843TIP3    H217494   3.230   3.647   0.479 -0.9094 -1.0766  2.2599
 5844TIP3   OH217495   6.134   2.218   1.757 -0.0183  0.9043  0.3504
 5844TIP3    H117496   6.043   2.244   1.773 -0.5075  0.6107 -1.6089
 5844TIP3    H217497   6.126   2.131   1.717  0.9124  1.8440 -2.0637
 5845TIP3   OH217498   4.912   2.490   3.682  0.0041  0.1184  0.0703
 5845TIP3    H117499   4.836   2.465   3.630 -0.0390 -0.5832  0.4506
 5845TIP3    H217500   4.979   2.426   3.659  0.0326 -0.1100  0.7566
 5846TIP3   OH217501   0.166   1.353   2.790 -0.0461  0.0142  0.2113
 5846TIP3    H117502   0.151   1.344   2.696  0.9178  0.0726  0.0398
 5846TIP3    H217503   0.256   1.321   2.803  0.9787  2.7810  0.6362
 5847TIP3   OH217504   1.512   2.052   5.342  0.8183 -0.3990 -0.2300
 5847TIP3    H117505   1.521   2.124   5.280  1.0000 -0.3172 -0.1100
 5847TIP3    H217506   1.525   2.093   5.428 -0.0398 -0.3958 -0.0951
 5848TIP3   OH217507   2.147   4.287   4.023 -0.1616 -0.1950  0.3969
 5848TIP3    H117508   2.236   4.295   4.055  0.5290 -2.1137 -0.8343
 5848TIP3    H217509   2.142   4.198   3.987 -2.4849 -0.0557  0.1724
 5849TIP3   OH217510   4.828   0.670   1.008 -0.0286  0.2063  0.5778
 5849TIP3    H117511   4.767   0.615   1.058  0.5073 -0.3265  0.6505
 5849TIP3    H217512   4.772   0.733   0.963 -0.4968  1.5603  2.8420
 5850TIP3   OH217513   4.765   3.847   5.691 -0.0444 -0.4730  0.0204
 5850TIP3    H117514   4.795   3.768   5.645 -1.1864  0.2182 -2.0697
 5850TIP3    H217515   4.688   3.875   5.641  0.7215  2.3473  0.2791
 5851TIP3   OH217516   4.559   3.823   1.222  0.0447 -0.3551  0.1578
 5851TIP3    H117517   4.620   3.875   1.170 -0.3827  0.1337  0.1283
 5851TIP3    H217518   4.497   3.787   1.158  0.0434 -0.4833  0.2309
 5852TIP3   OH217519   2.441   0.238   3.029  0.5815 -0.2225 -0.3010
 5852TIP3    H117520   2.490   0.208   2.952  2.4035  0.6672  0.4602
 5852TIP3    H217521   2.499   0.221   3.103  0.5230  2.4499  0.4697
 5853TIP3   OH217522   1.533   3.590   1.102  0.7091 -0.3752 -0.3236
 5853TIP3    H117523   1.449   3.556   1.074 -0.1646  1.9472 -0.7439
 5853TIP3    H217524   1.531   3.584   1.198  0.7996 -1.8619 -0.3958
 5854TIP3   OH217525   7.077   6.215   4.126  0.1126 -0.2278 -0.1516
 5854TIP3    H117526   7.070   6.160   4.204 -1.4644  0.2395  0.0796
 5854TIP3    H217527   7.038   6.164   4.056 -1.8034  0.7062  0.1633
 5855TIP3   OH217528   3.331   3.431   5.558 -0.3108  0.0677 -0.3317
 5855TIP3    H117529   3.249   3.448   5.512 -0.3470  0.1653 -0.2325
 5855TIP3    H217530   3.310   3.448   5.650 -0.2516 -0.1660 -0.2732
 5856TIP3   OH217531   1.350   2.566   1.228 -0.0284 -0.3434 -0.3577
 5856TIP3    H117532   1.334   2.659   1.247 -0.9186 -0.4589 -0.4815
 5856TIP3    H217533   1.372   2.527   1.313 -0.8849 -0.2496 -0.0803
 5857TIP3   OH217534   7.110   1.913   3.693  0.5541 -0.2665 -0.2400
 5857TIP3    H117535   7.176   1.957   3.746 -0.4838 -1.4826  2.2445
 5857TIP3    H217536   7.159   1.859   3.631  1.8163  1.9482 -1.2873
 5858TIP3   OH217537   2.597   5.411   0.098  0.1580 -0.4285 -0.2005
 5858TIP3    H117538   2.606   5.465   0.176 -1.8722 -2.1697  1.3450
 5858TIP3    H217539   2.607   5.472   0.025  0.3762  1.5597  1.4220
 5859TIP3   OH217540   2.096   4.712   5.351 -0.1688  0.0717 -0.1907
 5859TIP3    H117541   2.056   4.698   5.437  0.0598  0.0595 -0.0865
 5859TIP3    H217542   2.137   4.629   5.329 -0.4416 -0.0037 -0.4271
 5860TIP3   OH217543   6.823   2.610   0.524  0.4700 -0.6207 -0.7752
 5860TIP3    H117544   6.885   2.681   0.538  0.5464 -0.7809 -0.2894
 5860TIP3    H217545   6.877   2.534   0.506  0.3837 -0.5257 -1.4499
 5861TIP3   OH217546   2.460   0.227   3.790  0.0935  0.5173 -0.0025
 5861TIP3    H117547   2.548   0.230   3.753  0.1527  0.0980  0.1034
 5861TIP3    H217548   2.427   0.141   3.765  1.2164 -1.0711  3.4344
 5862TIP3   OH217549   3.339   1.497   1.523  0.2036  0.1348  0.1898
 5862TIP3    H117550   3.274   1.552   1.480 -0.9391  1.0584  2.8551
 5862TIP3    H217551   3.401   1.559   1.561  0.9839 -0.6200  0.1727
 5863TIP3   OH217552   3.281   4.806   4.436 -0.3656  0.1859  0.8045
 5863TIP3    H117553   3.340   4.873   4.403  0.6398 -0.3981  1.3650
 5863TIP3    H217554   3.330   4.724   4.427 -1.6950 -0.5320 -0.1750
 5864TIP3   OH217555   6.868   5.509   1.288 -0.5929  0.1861 -0.0386
 5864TIP3    H117556   6.944   5.544   1.336 -0.8194  1.5883 -0.6338
 5864TIP3    H217557   6.891   5.520   1.196  0.1970 -3.2710 -0.3602
 5865TIP3   OH217558   3.292   2.716   2.227 -0.0111 -0.1384  0.0392
 5865TIP3    H117559   3.249   2.635   2.198 -0.0886 -0.1451  0.1687
 5865TIP3    H217560   3.350   2.688   2.298  1.1192 -0.3208 -0.9191
 5866TIP3   OH217561   0.046   2.589   5.345 -0.5846  0.2030 -0.4978
 5866TIP3    H117562   0.133   2.622   5.319  0.1182 -2.1378 -1.3852
 5866TIP3    H217563   0.047   2.590   5.440  0.5449 -0.0561 -0.4926
 5867TIP3   OH217564   0.041   1.328   2.520  0.3819  0.2631 -0.5799
 5867TIP3    H117565   0.035   1.241   2.560  1.3697  1.5104  2.5482
 5867TIP3    H217566   0.054   1.310   2.426  3.4528 -3.0830  0.2434
 5868TIP3   OH217567   5.799   5.017   5.055 -0.5343 -0.9624 -0.0092
 5868TIP3    H117568   5.856   4.991   4.982  0.8966  2.1404 -0.1419
 5868TIP3    H217569   5.840   4.979   5.132  0.9391 -0.0216 -0.2869
 5869TIP3   OH217570   5.631   5.567   3.679  0.1046  0.0213 -0.0902
 5869TIP3    H117571   5.561   5.632   3.690 -0.5543 -0.8608  1.1765
 5869TIP3    H217572   5.701   5.614   3.634 -0.6038  1.4253  0.2323
 5870TIP3   OH217573   5.636   1.963   1.558  0.1904  0.0083 -0.2046
 5870TIP3    H117574   5.553   1.944   1.514  0.7410 -0.0994 -1.2284
 5870TIP3    H217575   5.611   1.984   1.648 -0.8528 -1.0809 -0.2049
 5871TIP3   OH217576   6.113   0.273   2.219 -0.2196  0.6696  0.1495
 5871TIP3    H117577   6.050   0.208   2.251 -1.2555  1.0511 -1.0371
 5871TIP3    H217578   6.162   0.299   2.297 -3.0877  2.0694  1.6467
 5872TIP3   OH217579   3.523   5.107   1.363 -0.0740  0.3790 -0.1890
 5872TIP3    H117580   3.494   5.194   1.390 -0.1184 -0.1484  1.6489
 5872TIP3    H217581   3.446   5.052   1.375 -0.2480  0.1884 -2.0243
 5873TIP3   OH217582   1.335   3.113   0.874 -0.1484 -0.5293 -0.2397
 5873TIP3    H117583   1.313   3.117   0.967  1.0566  0.9213  0.0141
 5873TIP3    H217584   1.311   3.024   0.847 -2.5340 -0.2817  0.9045
 5874TIP3   OH217585   0.527   3.307   4.675 -0.1385 -0.0636 -0.1318
 5874TIP3    H117586   0.451   3.351   4.637 -1.4442 -0.7197  1.5558
 5874TIP3    H217587   0.602   3.348   4.634 -1.3689  1.7614 -0.6683
 5875TIP3   OH217588   5.784   3.377   1.578  0.2650  0.4395  0.3460
 5875TIP3    H117589   5.828   3.452   1.617  0.2452  0.8757 -0.4579
 5875TIP3    H217590   5.845   3.342   1.514  0.0810  0.0585  0.3699
 5876TIP3   OH217591   5.537   3.341   1.653 -0.3090  0.1684 -0.5061
 5876TIP3    H117592   5.624   3.362   1.620 -0.5452  0.6439 -0.8295
 5876TIP3    H217593   5.552   3.275   1.721  0.3146  0.3756 -0.4427
 5877TIP3   OH217594   4.351   0.860   1.599  0.0946  0.1022  0.2932
 5877TIP3    H117595   4.301   0.902   1.669 -1.0044  0.9831 -0.9769
 5877TIP3    H217596   4.319   0.770   1.597 -2.0761  0.8286 -0.9830
 5878TIP3   OH217597   5.589   6.288   0.879  0.2223 -0.3380 -0.3471
 5878TIP3    H117598   5.639   6.364   0.852 -0.0680  0.2236  0.6543
 5878TIP3    H217599   5.542   6.260   0.800  0.6991  0.2270 -0.8300
 5879TIP3   OH217600   4.940   2.944   4.068 -0.9404  0.6339 -0.3948
 5879TIP3    H117601   5.016   2.971   4.017  0.2200 -0.9480  0.4237
 5879TIP3    H217602   4.918   2.856   4.036 -1.6796  0.5840  0.2025
 5880TIP3   OH217603   3.183   1.035   0.469  0.3459  0.6338  0.6555
 5880TIP3    H117604   3.090   1.016   0.480 -0.1467  2.0168 -0.6638
 5880TIP3    H217605   3.195   1.039   0.374  1.9884 -0.4740  0.7804
 5881TIP3   OH217606   0.110   1.647   5.167  0.0538  0.2072  0.0570
 5881TIP3    H117607   0.135   1.572   5.222  1.1807  0.3284 -0.2648
 5881TIP3    H217608   0.192   1.693   5.151 -0.4936  1.0062 -0.5143
 5882TIP3   OH217609   6.485   0.600   0.817  0.3049 -0.5766  0.1833
 5882TIP3    H117610   6.427   0.528   0.794 -1.4007  0.6085  0.5231
 5882TIP3    H217611   6.430   0.678   0.809  1.7348  0.5711  1.0048
 5883TIP3   OH217612   2.369   3.325   5.305 -0.3122 -0.5402  0.2715
 5883TIP3    H117613   2.436   3.329   5.236 -0.7727 -2.2170 -0.3131
 5883TIP3    H217614   2.411   3.274   5.375 -1.4313 -2.9723 -0.7204
 5884TIP3   OH217615   4.391   0.635   5.183  0.2109 -0.5322  0.2587
 5884TIP3    H117616   4.465   0.690   5.157  0.1234 -0.1167  0.8608
 5884TIP3    H217617   4.320   0.661   5.125  1.3975 -3.3640 -2.7730
 5885TIP3   OH217618   4.344   5.324   4.672  0.1941  0.3706  0.2248
 5885TIP3    H117619   4.423   5.294   4.718 -0.7874 -1.5986  0.7716
 5885TIP3    H217620   4.359   5.299   4.581  0.8238  1.4053  0.0323
 5886TIP3   OH217621   0.568   0.790   1.477  0.2620 -0.4449  0.1792
 5886TIP3    H117622   0.509   0.729   1.520 -0.2978  1.2037  1.8713
 5886TIP3    H217623   0.652   0.778   1.522  0.4488 -0.7091 -0.2300
 5887TIP3   OH217624   2.599   2.357   4.631 -0.6026 -0.5708 -0.0065
 5887TIP3    H117625   2.547   2.430   4.596  1.6355  2.4964  2.4870
 5887TIP3    H217626   2.549   2.325   4.706  0.2652  1.3816  1.4849
 5888TIP3   OH217627   4.641   6.222   5.654  0.2064 -0.6151 -0.3571
 5888TIP3    H117628   4.574   6.279   5.618 -1.7012 -1.8474  1.0666
 5888TIP3    H217629   4.609   6.198   5.741  2.0714 -1.9599  0.0331
 5889TIP3   OH217630   6.982   4.430   0.372  0.2562 -0.2144 -0.6801
 5889TIP3    H117631   6.996   4.524   0.359 -1.6957  0.7439  2.9965
 5889TIP3    H217632   6.892   4.416   0.345 -1.0566  0.1170  3.0290
 5890TIP3   OH217633   1.043   1.725   4.099  0.4156  0.4295  0.0702
 5890TIP3    H117634   1.119   1.675   4.129  0.5177  0.2132 -0.5287
 5890TIP3    H217635   0.972   1.661   4.095  0.0129  0.7670  1.2789
 5891TIP3   OH217636   0.464   6.298   2.633 -0.9460  0.0270 -0.0808
 5891TIP3    H117637   0.453   6.227   2.697 -0.4894  0.1029  0.0826
 5891TIP3    H217638   0.431   6.376   2.677  0.8574  0.3982  0.6868
 5892TIP3   OH217639   6.025   0.889   4.119  0.2212  0.3383 -0.3895
 5892TIP3    H117640   5.990   0.891   4.030  1.6223 -1.6072 -1.0521
 5892TIP3    H217641   5.981   0.962   4.164 -0.3925  1.4818 -2.6921
 5893TIP3   OH217642   3.170   4.504   5.189  0.0373  0.2850  0.0172
 5893TIP3    H117643   3.135   4.588   5.160 -2.5390 -0.4509  0.6666
 5893TIP3    H217644   3.167   4.508   5.284  0.8104 -0.1959  0.0713
 5894TIP3   OH217645   0.321   2.789   3.913  0.1033 -0.1291 -0.2480
 5894TIP3    H117646   0.243   2.826   3.871  0.5080 -0.5289 -1.3945
 5894TIP3    H217647   0.292   2.764   4.001 -0.1841  2.8844  0.6138
 5895TIP3   OH217648   0.491   4.143   1.728  0.6660 -0.0118 -0.1985
 5895TIP3    H117649   0.550   4.090   1.675  2.5435  1.8856 -0.1110
 5895TIP3    H217650   0.416   4.160   1.670  0.6167 -1.5879 -0.6594
 5896TIP3   OH217651   3.722   4.321   0.948  0.0751 -0.2155 -0.4221
 5896TIP3    H117652   3.689   4.376   0.877  0.9187  1.9324  0.7570
 5896TIP3    H217653   3.743   4.238   0.906 -1.4872  0.2310 -2.2421
 5897TIP3   OH217654   7.007   4.606   4.294 -0.0593 -0.2068  0.4502
 5897TIP3    H117655   7.003   4.548   4.219 -0.5260  0.4954 -0.0781
 5897TIP3    H217656   7.097   4.637   4.296 -0.5210  1.3642 -1.0625
 5898TIP3   OH217657   3.850   0.481   3.733  0.0777  0.3133  0.0523
 5898TIP3    H117658   3.774   0.426   3.750  2.0202 -2.2855  0.9980
 5898TIP3    H217659   3.839   0.556   3.791 -1.1933 -0.5847  1.0225
 5899TIP3   OH217660   3.467   5.078   0.470 -0.0204 -0.4457 -0.0207
 5899TIP3    H117661   3.401   5.122   0.525 -0.3326 -1.2038  0.2260
 5899TIP3    H217662   3.521   5.149   0.436 -0.5316  0.1320  0.3502
 5900TIP3   OH217663   2.039   1.840   3.379 -0.0758 -0.1833  0.1210
 5900TIP3    H117664   1.987   1.830   3.458  1.7922  0.4987  1.5187
 5900TIP3    H217665   2.088   1.922   3.393  0.1404  0.0688 -1.8363
 5901TIP3   OH217666   5.906   5.324   2.995  0.7371 -0.3869 -0.0420
 5901TIP3    H117667   5.883   5.414   3.018  0.7618 -0.8176  1.8037
 5901TIP3    H217668   5.861   5.308   2.912  1.4107  1.5813 -0.8479
 5902TIP3   OH217669   5.156   2.913   1.165  0.0523  0.3522  0.4419
 5902TIP3    H117670   5.110   2.832   1.186 -1.1064  0.8805  0.0285
 5902TIP3    H217671   5.246   2.899   1.195 -0.0396 -1.2179  0.0547
 5903TIP3   OH217672   1.975   4.443   4.690  0.3343  0.1925 -0.1544
 5903TIP3    H117673   1.945   4.526   4.727 -0.5629  0.0418 -0.5016
 5903TIP3    H217674   1.920   4.377   4.732  0.6324 -0.1673 -0.3245
 5904TIP3   OH217675   4.502   5.695   3.959 -0.0863 -0.4005 -0.5086
 5904TIP3    H117676   4.503   5.691   3.863 -1.9472 -1.0553 -0.5578
 5904TIP3    H217677   4.450   5.773   3.979  0.2595 -0.2909 -0.0313
 5905TIP3   OH217678   4.157   0.893   4.578  0.6981 -0.0010  0.5539
 5905TIP3    H117679   4.122   0.859   4.661 -2.0299  0.3477 -0.3426
 5905TIP3    H217680   4.125   0.984   4.575 -0.8176 -0.5398 -1.6391
 5906TIP3   OH217681   3.932   1.020   2.969 -0.2189 -0.3188 -0.2207
 5906TIP3    H117682   4.007   1.074   2.993  0.5282 -1.3092 -0.2534
 5906TIP3    H217683   3.858   1.058   3.017 -0.1407  1.9216 -1.7675
 5907TIP3   OH217684   4.059   5.806   0.929 -0.4286  0.2356 -0.4114
 5907TIP3    H117685   4.146   5.820   0.966 -0.9056 -2.6762  2.2378
 5907TIP3    H217686   4.000   5.857   0.985 -0.6287  0.8759 -1.1772
 5908TIP3   OH217687   4.460   4.779   3.245 -0.2222 -0.2590 -0.0630
 5908TIP3    H117688   4.447   4.693   3.285 -0.1318 -0.9061 -1.3421
 5908TIP3    H217689   4.433   4.842   3.312  0.3848 -1.2541  1.1560
 5909TIP3   OH217690   5.769   0.978   1.064 -0.1396  0.2427 -0.1134
 5909TIP3    H117691   5.720   1.050   1.103 -2.1977 -0.3388 -1.4575
 5909TIP3    H217692   5.702   0.917   1.033  1.4641 -0.9995 -1.3510
 5910TIP3   OH217693   0.105   3.066   3.137 -0.2443 -0.2592 -0.5354
 5910TIP3    H117694   0.152   3.034   3.214 -0.6828  1.6726  0.6023
 5910TIP3    H217695   0.036   3.002   3.123  0.2180 -0.9716  0.3046
 5911TIP3   OH217696   1.294   4.710   0.277 -0.5013  0.4326 -0.2274
 5911TIP3    H117697   1.219   4.716   0.218  0.0517  1.0855 -0.8874
 5911TIP3    H217698   1.366   4.752   0.229 -0.0302  0.9769  0.9087
 5912TIP3   OH217699   1.593   1.109   1.316  0.2596 -0.1028 -0.4460
 5912TIP3    H117700   1.687   1.100   1.301  1.1242  3.5198  1.7828
 5912TIP3    H217701   1.585   1.140   1.406 -3.0533  0.4080 -0.7799
 5913TIP3   OH217702   0.892   3.179   4.298 -0.3973 -0.1111  0.3177
 5913TIP3    H117703   0.955   3.110   4.278 -1.0839 -0.9186  0.9011
 5913TIP3    H217704   0.929   3.223   4.375  0.9355  1.3543 -1.0640
 5914TIP3   OH217705   5.141   5.470   3.470 -0.1703  0.6291 -0.1164
 5914TIP3    H117706   5.194   5.398   3.436 -0.2435  1.1823 -1.4742
 5914TIP3    H217707   5.152   5.466   3.565  1.7735  0.3435 -0.3275
 5915TIP3   OH217708   6.430   0.665   0.061  0.3651  0.4282 -0.0757
 5915TIP3    H117709   6.462   0.605  -0.007  1.0165  1.6474 -0.8739
 5915TIP3    H217710   6.348   0.699   0.027 -0.4173 -0.5842  0.7354
 5916TIP3   OH217711   2.444   5.865   5.805 -0.0849 -0.1216 -0.2638
 5916TIP3    H117712   2.487   5.916   5.736 -1.9149  0.9736 -0.6582
 5916TIP3    H217713   2.444   5.775   5.772  1.2480 -0.0519 -0.5381
 5917TIP3   OH217714   5.992   2.489   1.110  0.4590  0.1732 -0.4522
 5917TIP3    H117715   5.985   2.563   1.050 -2.5542  0.1945 -0.2275
 5917TIP3    H217716   5.915   2.496   1.166  1.1146 -2.0623  0.8778
 5918TIP3   OH217717   4.381   5.995   0.047  0.0289 -0.0883  0.4258
 5918TIP3    H117718   4.419   6.041   0.121  0.1772 -0.1411  0.3826
 5918TIP3    H217719   4.449   5.997  -0.020  0.5212 -1.4483  0.8538
 5919TIP3   OH217720   4.740   5.587   1.483 -0.7338  0.5332 -0.7059
 5919TIP3    H117721   4.698   5.561   1.565 -0.0537  0.1650 -0.4697
 5919TIP3    H217722   4.771   5.676   1.499 -1.1652  0.7024 -0.7876
 5920TIP3   OH217723   5.968   3.493   0.384 -0.1094  0.2321 -0.5040
 5920TIP3    H117724   5.975   3.483   0.289  0.8552 -1.0858 -0.3187
 5920TIP3    H217725   5.881   3.532   0.397 -0.7812 -0.7173 -1.8552
 5921TIP3   OH217726   3.891   5.756   3.621  0.1555 -1.2364  0.2191
 5921TIP3    H117727   3.805   5.743   3.659 -0.3091 -0.4088 -0.5210
 5921TIP3    H217728   3.908   5.677   3.569 -1.4247 -0.2412 -1.9769
 5922TIP3   OH217729   5.453   1.637   1.039 -0.4266 -0.7032  0.1837
 5922TIP3    H117730   5.487   1.623   0.951  2.0835  1.1202  0.7359
 5922TIP3    H217731   5.497   1.716   1.069 -3.2115  0.2756  2.1332
 5923TIP3   OH217732   4.202   3.352   2.965  0.0846 -0.2757 -0.2814
 5923TIP3    H117733   4.134   3.415   2.941  0.3828  1.4458  2.8131
 5923TIP3    H217734   4.161   3.299   3.034  0.7148 -1.7874 -1.0285
 5924TIP3   OH217735   5.174   0.473   3.891 -0.3411 -0.5057 -0.2485
 5924TIP3    H117736   5.169   0.540   3.823 -0.9111  0.5482  0.7885
 5924TIP3    H217737   5.083   0.461   3.920 -0.0814 -0.7188  0.5153
 5925TIP3   OH217738   5.522   4.223   1.083  0.4144  0.1630  0.6070
 5925TIP3    H117739   5.465   4.149   1.103 -0.3569  0.6591  0.2977
 5925TIP3    H217740   5.570   4.195   1.005  1.2337 -0.5897  1.3603
 5926TIP3   OH217741   3.114   2.283   4.842  0.2102  0.6693 -0.1806
 5926TIP3    H117742   3.182   2.239   4.893 -0.8967  0.3683  1.1042
 5926TIP3    H217743   3.088   2.219   4.776 -0.2002  0.0004  0.6017
 5927TIP3   OH217744   2.165   3.202   4.842 -0.0055 -0.4841 -0.0157
 5927TIP3    H117745   2.209   3.287   4.840  1.3223 -1.1397  0.5971
 5927TIP3    H217746   2.120   3.201   4.927 -0.9962  0.0632 -0.5162
 5928TIP3   OH217747   3.139   4.116   0.201  0.3928  0.5638 -0.0670
 5928TIP3    H117748   3.172   4.132   0.113  0.8041  1.3755  0.2338
 5928TIP3    H217749   3.217   4.108   0.255  0.1420  0.0403  0.2285
 5929TIP3   OH217750   1.077   1.394  -0.022  0.0082  0.1795 -0.3585
 5929TIP3    H117751   1.145   1.327  -0.021  0.0754  0.2263  1.5810
 5929TIP3    H217752   1.090   1.443   0.059 -2.4881  0.0216  0.2340
 5930TIP3   OH217753   2.305   3.225   1.929  0.4394  0.1891  0.3722
 5930TIP3    H117754   2.380   3.172   1.956 -0.4095 -0.9261  0.6669
 5930TIP3    H217755   2.237   3.160   1.909  0.4028  1.0366 -2.6012
 5931TIP3   OH217756   0.661   1.262   0.197 -0.3446 -0.6564 -0.2861
 5931TIP3    H117757   0.702   1.347   0.216 -2.2908  0.1359  0.6640
 5931TIP3    H217758   0.642   1.265   0.103  0.2831 -0.3732 -0.4111
 5932TIP3   OH217759   5.415   4.641   4.515 -0.6409  0.1875  0.4378
 5932TIP3    H117760   5.370   4.559   4.499  0.2034  0.1697 -2.2711
 5932TIP3    H217761   5.502   4.616   4.547 -0.3454 -0.0161 -0.4908
 5933TIP3   OH217762   2.042   2.491   5.398 -0.5474 -0.2999  0.3004
 5933TIP3    H117763   2.094   2.414   5.423 -0.7587 -1.4212 -2.3321
 5933TIP3    H217764   1.959   2.480   5.444  0.7245  0.4398  2.9491
 5934TIP3   OH217765   6.847   2.730   0.932  0.0629 -0.4213 -0.3620
 5934TIP3    H117766   6.929   2.743   0.885  1.1147 -2.1417  0.8614
 5934TIP3    H217767   6.864   2.765   1.020  0.2753 -2.6277  0.5468
 5935TIP3   OH217768   0.915   4.081   4.435 -0.5833  0.1044  0.6097
 5935TIP3    H117769   0.964   4.100   4.515 -0.5698  1.1572  0.3692
 5935TIP3    H217770   0.845   4.147   4.434  0.2075  0.9768 -0.9024
 5936TIP3   OH217771   1.754   0.725   1.419  0.0198 -0.3927  0.1204
 5936TIP3    H117772   1.725   0.705   1.330  1.0898  0.6446 -0.4953
 5936TIP3    H217773   1.849   0.736   1.411 -0.1277  1.9519  0.9387
 5937TIP3   OH217774   0.764   0.802   5.215  0.1705  0.1569 -0.4065
 5937TIP3    H117775   0.720   0.729   5.258  1.7249 -1.0005 -0.7312
 5937TIP3    H217776   0.747   0.789   5.122 -0.7919  1.0744 -0.3828
 5938TIP3   OH217777   6.586   0.824   1.592  0.6322 -0.0587 -0.4964
 5938TIP3    H117778   6.581   0.828   1.496 -0.1360  1.0322 -0.4314
 5938TIP3    H217779   6.495   0.830   1.621  0.5833 -3.0476  0.2817
 5939TIP3   OH217780   0.200   5.919   0.693  0.8586  0.1592 -0.6648
 5939TIP3    H117781   0.134   5.975   0.733  0.1902  1.6644 -3.6145
 5939TIP3    H217782   0.262   5.901   0.764 -1.7522  0.0470  1.7773
 5940TIP3   OH217783   3.796   4.166   2.086  0.1513  0.5203 -0.2441
 5940TIP3    H117784   3.729   4.115   2.040 -0.2095  0.2424  0.5707
 5940TIP3    H217785   3.825   4.231   2.021  0.8700 -0.9107 -1.4018
 5941TIP3   OH217786   2.326   6.598   3.794 -0.2496  0.1746  0.3259
 5941TIP3    H117787   2.347   6.513   3.755  0.7155  0.1373  0.9062
 5941TIP3    H217788   2.278   6.576   3.874 -0.7294  0.2065  0.0512
 5942TIP3   OH217789   1.434   3.776   5.633  0.1300 -0.1660 -0.1846
 5942TIP3    H117790   1.427   3.787   5.728 -0.2098  0.0404 -0.2293
 5942TIP3    H217791   1.515   3.728   5.620  0.7097  0.7036  0.1513
 5943TIP3   OH217792   0.545   4.923   4.615  0.1623 -0.3498  0.1430
 5943TIP3    H117793   0.585   4.910   4.700  0.4192 -1.3087 -0.1161
 5943TIP3    H217794   0.475   4.857   4.610  0.7260 -0.9037 -0.7334
 5944TIP3   OH217795   0.500   4.255   4.778  0.2453  0.0660 -0.1460
 5944TIP3    H117796   0.446   4.334   4.790  0.7122  0.2026  1.1607
 5944TIP3    H217797   0.449   4.184   4.816 -0.4073 -0.3989 -1.7847
 5945TIP3   OH217798   4.924   6.403   3.061 -0.2160 -0.1419  0.0286
 5945TIP3    H117799   4.842   6.395   3.012 -0.7843  1.3825  0.6445
 5945TIP3    H217800   4.939   6.498   3.067  0.0918 -0.2643  2.2851
 5946TIP3   OH217801   1.495   5.270   5.504 -0.2266  0.6736  0.2279
 5946TIP3    H117802   1.475   5.340   5.443 -3.6220  0.2323  0.6279
 5946TIP3    H217803   1.432   5.282   5.575 -1.2639 -2.9582  0.1138
 5947TIP3   OH217804   1.998   1.100   1.614 -0.1435  0.8262 -0.1309
 5947TIP3    H117805   2.047   1.067   1.539 -0.8212  1.1306 -0.7246
 5947TIP3    H217806   2.061   1.098   1.687  0.7707  1.2918 -0.8854
 5948TIP3   OH217807   0.078   2.417   1.930  0.2197  0.4757  0.2101
 5948TIP3    H117808   0.151   2.356   1.932 -0.1375  0.0412  0.1034
 5948TIP3    H217809   0.057   2.435   2.022 -0.5604 -0.6369  0.2691
 5949TIP3   OH217810   0.301   2.239   1.812 -0.7789  0.5023 -0.0976
 5949TIP3    H117811   0.375   2.188   1.848 -0.0714  0.2567 -1.7825
 5949TIP3    H217812   0.227   2.179   1.816 -0.1251 -0.4431 -1.3445
 5950TIP3   OH217813   4.688   5.925   2.435 -0.0488  0.2180  0.0824
 5950TIP3    H117814   4.717   5.860   2.372  0.8678  2.7019 -2.2499
 5950TIP3    H217815   4.599   5.947   2.408  0.2655  1.1364 -0.2226
 5951TIP3   OH217816   0.097   5.664   0.607  0.5845  0.6386  0.4257
 5951TIP3    H117817   0.126   5.753   0.626 -1.0633  2.0397 -2.7879
 5951TIP3    H217818   0.143   5.640   0.527  0.4560 -1.1407  0.8471
 5952TIP3   OH217819   0.665   6.391   1.960  0.1947 -0.3077  0.5722
 5952TIP3    H117820   0.708   6.369   1.877  0.0689 -1.1142  0.7155
 5952TIP3    H217821   0.721   6.351   2.027  0.1643  0.1374  0.8690
 5953TIP3   OH217822   4.102   5.508   1.386 -0.0556 -0.4403  0.9406
 5953TIP3    H117823   4.105   5.576   1.453  0.2978  0.2140  0.2742
 5953TIP3    H217824   4.194   5.489   1.367 -0.1496 -0.6147  0.6473
 5954TIP3   OH217825   5.911   0.608   2.776  0.2118  0.9378  0.3017
 5954TIP3    H117826   5.967   0.667   2.727  1.8673 -0.0298  0.9377
 5954TIP3    H217827   5.828   0.606   2.727  0.2984  3.2876 -0.0306
 5955TIP3   OH217828   6.356   3.015   0.048  0.3979 -0.0943 -0.0985
 5955TIP3    H117829   6.266   2.983   0.037 -0.2720  1.8987 -0.9695
 5955TIP3    H217830   6.353   3.063   0.132  0.7854 -0.4454  0.1158
 5956TIP3   OH217831   3.409   0.451   2.221 -0.2758 -0.2887 -0.5320
 5956TIP3    H117832   3.477   0.386   2.208  0.8998  0.0945  2.6463
 5956TIP3    H217833   3.327   0.404   2.202  0.6170 -2.3141  0.2551
 5957TIP3   OH217834   2.552   2.462   4.964  0.6245 -0.4038 -0.6346
 5957TIP3    H117835   2.521   2.504   4.883  0.4082 -0.7287 -0.7220
 5957TIP3    H217836   2.646   2.480   4.965  0.8427 -1.3753 -1.5528
 5958TIP3   OH217837   1.443   4.459   3.765 -0.0393 -0.1540  0.3364
 5958TIP3    H117838   1.417   4.466   3.673  1.3335  0.7387 -0.0109
 5958TIP3    H217839   1.361   4.466   3.814 -1.1035 -2.8606 -0.8549
 5959TIP3   OH217840   1.391   0.664   2.449  0.2450  0.1685 -0.0280
 5959TIP3    H117841   1.449   0.736   2.474 -1.2243  1.5612 -0.4565
 5959TIP3    H217842   1.405   0.598   2.516 -0.3539  1.9807  1.9753
 5960TIP3   OH217843   6.528   2.473   3.751  0.2555  0.2632  0.2792
 5960TIP3    H117844   6.513   2.387   3.711 -2.2316  0.6251  0.3090
 5960TIP3    H217845   6.623   2.476   3.766  0.3594 -2.7323  0.8500
 5961TIP3   OH217846   4.868   3.747   1.696 -0.1696  0.4104 -0.4445
 5961TIP3    H117847   4.963   3.732   1.694 -0.3722 -1.4251  1.3874
 5961TIP3    H217848   4.849   3.783   1.609  2.0615  0.0021 -1.1918
 5962TIP3   OH217849   6.321   1.695   1.286 -0.7637  0.0343 -0.1635
 5962TIP3    H117850   6.249   1.724   1.232 -0.3027  2.0816  0.2205
 5962TIP3    H217851   6.320   1.599   1.280 -1.6540  0.1442 -2.5017
 5963TIP3   OH217852   5.154   3.572   2.610  0.0752  0.2717 -0.0920
 5963TIP3    H117853   5.062   3.548   2.622  0.1541 -0.8799 -1.5367
 5963TIP3    H217854   5.151   3.659   2.570 -0.4693 -0.4928 -1.7977
 5964TIP3   OH217855   6.772   4.306   2.498 -0.3841  0.2763  0.0979
 5964TIP3    H117856   6.686   4.264   2.495 -0.4569  0.4689 -0.7088
 5964TIP3    H217857   6.820   4.267   2.425  0.2595  0.0917  0.6062
 5965TIP3   OH217858   6.730   5.839   3.345  0.9664 -0.1960  0.0035
 5965TIP3    H117859   6.703   5.915   3.398  0.7901 -0.6485  0.5782
 5965TIP3    H217860   6.712   5.764   3.401 -1.8971 -0.9465 -1.6798
 5966TIP3   OH217861   0.298   0.280   4.628  0.3596 -0.1035 -0.0054
 5966TIP3    H117862   0.267   0.313   4.544  0.3753 -0.1691 -0.0367
 5966TIP3    H217863   0.278   0.351   4.690 -0.8546 -0.5712  0.1723
 5967TIP3   OH217864   2.933   6.255   2.578 -0.1893 -0.5246  0.2641
 5967TIP3    H117865   2.957   6.171   2.619  1.0312 -0.4260 -0.2026
 5967TIP3    H217866   2.848   6.239   2.538 -1.4903 -0.6262  2.8227
 5968TIP3   OH217867   3.218   2.052   4.376  0.2092  0.0936 -0.0237
 5968TIP3    H117868   3.197   2.101   4.296 -0.1297  1.2844  0.7662
 5968TIP3    H217869   3.280   2.108   4.423 -0.0134 -0.3398  0.8104
 5969TIP3   OH217870   3.666   6.034   1.918 -0.1364  0.3022 -0.2355
 5969TIP3    H117871   3.577   6.022   1.950 -0.5282 -0.8681 -1.6082
 5969TIP3    H217872   3.659   6.023   1.823  1.1671  2.1717 -0.6112
 5970TIP3   OH217873   2.088   5.817   1.248  0.5235  0.1662  0.2266
 5970TIP3    H117874   2.022   5.885   1.242  1.3224  0.9068 -0.4140
 5970TIP3    H217875   2.040   5.739   1.277 -0.4907  0.8590  0.4523
 5971TIP3   OH217876   0.554   5.081   0.086  0.2642 -0.3149  0.2681
 5971TIP3    H117877   0.514   5.021   0.148  0.6119  0.1020  0.9148
 5971TIP3    H217878   0.603   5.025   0.026 -0.6981 -0.7752 -0.1020
 5972TIP3   OH217879   5.840   5.658   1.638 -0.3311 -0.1141  0.1665
 5972TIP3    H117880   5.760   5.699   1.603 -0.0400  0.5624  0.2774
 5972TIP3    H217881   5.810   5.611   1.716 -0.6967 -0.2458 -0.0486
 5973TIP3   OH217882   4.389   6.208   3.429 -0.2287 -0.7027  0.1613
 5973TIP3    H117883   4.307   6.228   3.475 -0.0158 -0.0782  0.2785
 5973TIP3    H217884   4.424   6.131   3.473 -0.2738 -0.3961  0.7325
 5974TIP3   OH217885   2.982   5.134   4.234  0.3534 -0.4789 -0.2567
 5974TIP3    H117886   2.922   5.075   4.188 -0.7294  0.7360 -0.4686
 5974TIP3    H217887   2.963   5.220   4.197  0.7224  0.2512  1.2026
 5975TIP3   OH217888   0.245   1.472   5.374  0.0799 -0.3543  0.1695
 5975TIP3    H117889   0.274   1.385   5.346  3.9310  0.1602  1.9548
 5975TIP3    H217890   0.240   1.465   5.470  0.3967  1.3742  0.3404
 5976TIP3   OH217891   3.483   0.168   1.031 -0.1921  0.2213 -0.0447
 5976TIP3    H117892   3.528   0.249   1.007  1.9329 -1.3324 -1.8277
 5976TIP3    H217893   3.490   0.113   0.953 -1.7364 -1.6064  1.0198
 5977TIP3   OH217894   5.741   1.475   3.894  0.3738  0.2737 -0.6244
 5977TIP3    H117895   5.742   1.432   3.979  2.0702  1.8245  0.2223
 5977TIP3    H217896   5.690   1.555   3.907 -1.7945 -0.8090 -1.8790
 5978TIP3   OH217897   4.467   1.598   0.021 -0.5537  0.0797 -0.5116
 5978TIP3    H117898   4.453   1.637  -0.065  0.4319  0.5887 -0.4631
 5978TIP3    H217899   4.420   1.656   0.081 -0.4543  0.2663 -0.6108
 5979TIP3   OH217900   2.915   2.256   5.544  0.0663  0.3036  0.4562
 5979TIP3    H117901   2.966   2.199   5.601 -0.5277  0.3751  1.0723
 5979TIP3    H217902   2.880   2.198   5.476  2.1006  0.4704 -0.8268
 5980TIP3   OH217903   1.331   3.976   5.468  0.5471  0.7141  0.1646
 5980TIP3    H117904   1.390   4.048   5.447  2.5358 -0.6198  0.7843
 5980TIP3    H217905   1.388   3.911   5.511 -0.9903 -1.4978 -0.9485
 5981TIP3   OH217906   1.450   1.833   2.218 -0.0682  0.4647 -0.3837
 5981TIP3    H117907   1.511   1.760   2.204 -1.3960 -0.4019 -2.0026
 5981TIP3    H217908   1.476   1.870   2.303  1.3174 -1.2221 -0.0141
 5982TIP3   OH217909   7.056   3.482   3.432 -0.0725  0.1836 -0.4844
 5982TIP3    H117910   7.045   3.511   3.342  0.4084 -0.1495 -0.6567
 5982TIP3    H217911   7.109   3.402   3.425 -3.9884 -2.7168 -0.3492
 5983TIP3   OH217912   6.508   3.615   5.251 -0.3147 -0.0455  0.0033
 5983TIP3    H117913   6.444   3.591   5.184  0.8232  1.6424 -1.8249
 5983TIP3    H217914   6.468   3.690   5.296 -0.6782 -0.5891  0.5996
 5984TIP3   OH217915   3.623   6.130   4.499 -0.3392  0.3514  0.0912
 5984TIP3    H117916   3.581   6.191   4.559  3.6066  2.3610  1.1838
 5984TIP3    H217917   3.622   6.047   4.545 -0.9021  0.9138  1.1385
 5985TIP3   OH217918   4.771   3.426   5.256 -0.0770 -0.2339 -0.3905
 5985TIP3    H117919   4.725   3.476   5.189 -0.1330  1.2008  0.6770
 5985TIP3    H217920   4.849   3.477   5.276  0.7777 -1.4482 -0.4655
 5986TIP3   OH217921   2.008   6.319   1.551 -0.1616  0.0662 -0.0885
 5986TIP3    H117922   1.926   6.310   1.503 -0.2969 -1.5392  0.3797
 5986TIP3    H217923   2.022   6.233   1.591  1.1524  0.6612  0.8043
 5987TIP3   OH217924   5.300   1.412   5.524 -0.3450 -0.2923 -0.5779
 5987TIP3    H117925   5.277   1.459   5.444 -0.0656  0.7909 -0.0504
 5987TIP3    H217926   5.223   1.420   5.580 -0.3366 -0.5579 -0.5276
 5988TIP3   OH217927   6.160   3.690   5.594 -0.1717 -0.5530  0.0601
 5988TIP3    H117928   6.174   3.748   5.668  0.6067 -1.5807  0.7349
 5988TIP3    H217929   6.148   3.604   5.632  0.1118 -1.0793 -1.0003
 5989TIP3   OH217930   1.093   0.791   5.654 -0.8319 -0.5694  0.7098
 5989TIP3    H117931   1.084   0.881   5.623 -0.8397 -1.6750 -2.9740
 5989TIP3    H217932   1.146   0.798   5.733  1.2269  2.5088 -0.7624
 5990TIP3   OH217933   6.933   3.571   5.542  0.3405  0.3427 -0.3496
 5990TIP3    H117934   6.912   3.576   5.635 -1.0584 -1.4442 -0.5056
 5990TIP3    H217935   6.848   3.561   5.499  0.9487  1.2703 -1.8492
 5991TIP3   OH217936   2.445   1.504   1.453  0.5361 -0.9602 -0.7073
 5991TIP3    H117937   2.499   1.514   1.531  0.9664  0.5407 -1.1733
 5991TIP3    H217938   2.490   1.555   1.386 -1.0303 -0.3338 -1.3278
 5992TIP3   OH217939   3.126   2.523   4.299  0.0469  0.0192  0.3075
 5992TIP3    H117940   3.156   2.613   4.311 -0.3263  0.2313 -0.2883
 5992TIP3    H217941   3.107   2.493   4.387  0.8731  0.2732  0.5816
 5993TIP3   OH217942   1.689   4.844   5.659 -0.1771  0.0301  0.1455
 5993TIP3    H117943   1.677   4.879   5.747  0.9971  1.6971 -0.3006
 5993TIP3    H217944   1.692   4.922   5.603  1.4496 -0.8522 -1.0592
 5994TIP3   OH217945   6.456   0.416   1.870 -0.2240  0.4267  0.5510
 5994TIP3    H117946   6.404   0.354   1.921  0.1460 -1.4702 -1.2242
 5994TIP3    H217947   6.391   0.471   1.825 -0.6756 -0.5064  0.0261
 5995TIP3   OH217948   1.990   3.844   3.940 -0.1708 -0.6427  0.4460
 5995TIP3    H117949   1.939   3.789   3.879 -0.6908 -0.8092  1.0135
 5995TIP3    H217950   1.995   3.791   4.020  0.6612 -0.5008  0.4926
 5996TIP3   OH217951   5.347   3.404   1.116  0.1637  0.2565 -0.2967
 5996TIP3    H117952   5.285   3.346   1.159  1.1061  0.5360  1.5439
 5996TIP3    H217953   5.409   3.428   1.184  2.5457 -0.2850 -2.1209
 5997TIP3   OH217954   7.195   3.944   2.840 -0.8175 -0.6332 -0.0758
 5997TIP3    H117955   7.234   3.860   2.865  0.8357  0.1921  0.2718
 5997TIP3    H217956   7.137   3.967   2.912  1.5497  0.2425  1.6799
 5998TIP3   OH217957   3.870   5.413   4.642 -0.1715 -0.0894  0.4754
 5998TIP3    H117958   3.903   5.427   4.553 -0.8905  1.1378  0.3802
 5998TIP3    H217959   3.826   5.328   4.638 -0.0505 -0.1229 -0.3008
 5999TIP3   OH217960   1.376   3.839   2.828  0.2079  0.6434  0.3377
 5999TIP3    H117961   1.452   3.843   2.770 -0.3953 -1.7436 -0.7642
 5999TIP3    H217962   1.389   3.759   2.878 -0.7197  1.1478  1.4194
 6000TIP3   OH217963   2.194   6.504   4.026 -0.3123 -0.0497 -0.4387
 6000TIP3    H117964   2.268   6.482   4.082  0.4345 -0.1542 -1.4382
 6000TIP3    H217965   2.123   6.526   4.087  0.4816 -0.1231  0.5334
 6001TIP3   OH217966   0.727   5.557   3.659 -0.3555 -0.0999 -0.0514
 6001TIP3    H117967   0.778   5.497   3.605 -2.2343 -1.6677 -0.1918
 6001TIP3    H217968   0.793   5.609   3.706  1.3287 -0.2368 -2.1081
 6002TIP3   OH217969   5.139   5.070   4.390 -0.4625  0.0998  0.1598
 6002TIP3    H117970   5.126   5.085   4.296 -0.4522  0.9362  0.2898
 6002TIP3    H217971   5.220   5.020   4.395 -0.4653  0.0444 -0.2765
 6003TIP3   OH217972   2.141   2.181   1.558 -0.1849  0.2917  0.6910
 6003TIP3    H117973   2.122   2.103   1.506 -0.9871  0.9731 -0.0675
 6003TIP3    H217974   2.057   2.204   1.599 -0.0861  1.0725  0.4685
 6004TIP3   OH217975   0.837   0.906   0.994  0.1632 -0.7745  0.2054
 6004TIP3    H117976   0.813   0.814   1.004 -0.1445 -0.7467 -0.2652
 6004TIP3    H217977   0.755   0.950   0.970  0.4677 -0.5133 -0.3858
 6005TIP3   OH217978   2.493   3.904   4.442 -0.3181 -0.4607 -0.0664
 6005TIP3    H117979   2.434   3.921   4.368  0.4809 -0.7393 -0.7734
 6005TIP3    H217980   2.468   3.969   4.508 -0.5960  0.2239 -0.8357
 6006TIP3   OH217981   5.311   2.792   5.341 -0.4099 -0.4629 -0.2089
 6006TIP3    H117982   5.393   2.775   5.295 -0.8741 -0.2637 -1.1308
 6006TIP3    H217983   5.310   2.886   5.355  0.0749 -0.6121  0.8874
 6007TIP3   OH217984   5.800   1.910   1.321  0.2291  0.6856  0.0424
 6007TIP3    H117985   5.779   1.992   1.275  2.8964  1.1989 -0.3908
 6007TIP3    H217986   5.762   1.922   1.408 -1.0598  1.5551 -0.5911
 6008TIP3   OH217987   0.423   0.482   2.072 -0.4380  0.1072  0.2137
 6008TIP3    H117988   0.472   0.489   2.153 -0.7522  0.1251  0.4035
 6008TIP3    H217989   0.423   0.389   2.051  1.1757  0.2788 -0.7212
 6009TIP3   OH217990   4.823   0.083   4.242 -0.3950 -0.0316  0.0787
 6009TIP3    H117991   4.824  -0.005   4.204 -0.4623 -0.6896  1.5177
 6009TIP3    H217992   4.829   0.142   4.167  3.6593 -1.2522 -0.7585
 6010TIP3   OH217993   0.885   0.402   3.951  0.7241  0.1146  0.0895
 6010TIP3    H117994   0.843   0.428   3.869  1.9780  1.0015 -0.3128
 6010TIP3    H217995   0.889   0.482   4.002  0.7712 -0.2418  0.6529
 6011TIP3   OH217996   4.416   0.812   4.536  0.0848  0.1905 -0.4775
 6011TIP3    H117997   4.476   0.881   4.565 -0.7004  1.3947 -1.6264
 6011TIP3    H217998   4.329   0.852   4.542 -0.5163 -1.1244 -0.0066
 6012TIP3   OH217999   5.646   5.106   1.338  0.0533  0.5148 -0.5969
 6012TIP3    H118000   5.730   5.099   1.383 -0.9218 -1.8467  1.0414
 6012TIP3    H218001   5.668   5.117   1.246  2.1707 -1.5889 -0.4081
 6013TIP3   OH218002   3.927   0.551   0.449 -1.2298  0.3576  0.9517
 6013TIP3    H118003   3.875   0.596   0.515 -1.1426  0.5564  0.8855
 6013TIP3    H218004   4.016   0.581   0.464 -1.3710  1.3300 -0.0045
 6014TIP3   OH218005   2.315   4.291   4.346  0.0878  0.2363  0.3263
 6014TIP3    H118006   2.410   4.302   4.333  0.3905  0.2545  2.2943
 6014TIP3    H218007   2.283   4.380   4.362  0.0307  0.0591  1.2676
 6015TIP3   OH218008   0.647   4.299   2.571  0.4435 -0.4262  0.0383
 6015TIP3    H118009   0.697   4.314   2.492  0.3875 -0.4633 -0.0041
 6015TIP3    H218010   0.704   4.248   2.627 -0.2885 -2.2532 -0.8113
 6016TIP3   OH218011   3.710   3.838   4.544 -0.4300  0.7811 -0.1304
 6016TIP3    H118012   3.785   3.809   4.492 -0.9438  0.5431 -0.7526
 6016TIP3    H218013   3.719   3.790   4.626  1.2445  2.3034  0.6503
 6017TIP3   OH218014   5.458   4.702   3.767 -0.2882 -0.3330  0.4599
 6017TIP3    H118015   5.446   4.720   3.674  0.4713  1.8782  0.7331
 6017TIP3    H218016   5.377   4.657   3.793 -1.6610  1.3043 -0.7452
 6018TIP3   OH218017   3.191   6.364   5.367 -0.5719  0.4454  0.4116
 6018TIP3    H118018   3.234   6.363   5.453 -0.0916  0.9181  0.1807
 6018TIP3    H218019   3.204   6.275   5.334 -0.1987  0.4416  0.5572
 6019TIP3   OH218020   6.666   2.142   3.491  0.3755  0.0394  0.1409
 6019TIP3    H118021   6.678   2.165   3.583  0.6615  1.4777 -0.2404
 6019TIP3    H218022   6.740   2.183   3.446 -0.3342  0.2382 -0.8683
 6020TIP3   OH218023   3.782   2.948   3.213  0.0328  0.2504 -0.4679
 6020TIP3    H118024   3.854   3.000   3.178 -0.5586  0.8726 -0.7836
 6020TIP3    H218025   3.730   2.923   3.137  1.2331 -2.3142 -0.5447
 6021TIP3   OH218026   5.225   1.600   5.016 -0.3108 -0.1752  0.3523
 6021TIP3    H118027   5.185   1.647   4.943  1.9157 -1.7992 -2.0809
 6021TIP3    H218028   5.309   1.643   5.030 -0.3695 -0.3842  1.4652
 6022TIP3   OH218029   0.630   4.004   0.063  0.0248 -0.1793 -0.1457
 6022TIP3    H118030   0.637   3.913   0.037  1.6198 -0.1722  0.1783
 6022TIP3    H218031   0.578   4.003   0.143  2.1316 -1.1290  1.3020
 6023TIP3   OH218032   6.437   5.262   1.647  0.3613  0.6592 -0.4123
 6023TIP3    H118033   6.402   5.294   1.564  0.1139 -1.6105 -1.2580
 6023TIP3    H218034   6.375   5.293   1.713  0.4650  2.3469 -1.0447
 6024TIP3   OH218035   3.217   6.226   2.412  0.1596 -0.0129 -0.0065
 6024TIP3    H118036   3.279   6.169   2.456 -0.7173 -0.7497  0.3051
 6024TIP3    H218037   3.142   6.170   2.393 -0.1643  0.7037 -0.9354
 6025TIP3   OH218038   1.276   4.506   4.491 -0.7852  0.2672  0.4919
 6025TIP3    H118039   1.260   4.433   4.432 -1.6131  1.1673 -0.4548
 6025TIP3    H218040   1.364   4.492   4.525  0.3969  0.5321 -2.2183
 6026TIP3   OH218041   0.747   0.064   2.277  0.3444 -0.0124  0.0697
 6026TIP3    H118042   0.830   0.017   2.266  1.3492  1.9260 -1.0341
 6026TIP3    H218043   0.723   0.047   2.368  2.2243 -0.2229  0.5811
 6027TIP3   OH218044   7.074   3.206   4.450 -0.1871 -0.6150  0.1519
 6027TIP3    H118045   7.165   3.232   4.462  0.1486 -1.1658 -1.0721
 6027TIP3    H218046   7.058   3.142   4.519 -0.5307  1.4875  2.1570
 6028TIP3   OH218047   1.837   0.197   4.159 -0.2034 -0.2553 -0.6573
 6028TIP3    H118048   1.810   0.287   4.180 -1.3175 -0.8459  0.5570
 6028TIP3    H218049   1.775   0.169   4.092  2.9381  1.3906 -4.7397
 6029TIP3   OH218050   0.078   2.656   2.175  0.4529 -0.1696  0.3740
 6029TIP3    H118051   0.055   2.748   2.182 -0.6214 -0.4513  0.6487
 6029TIP3    H218052   0.174   2.656   2.174  0.4895  1.0611 -1.2491
 6030TIP3   OH218053   7.230   3.068   5.315  0.5309  0.8903  0.1524
 6030TIP3    H118054   7.190   2.983   5.297  1.0214  1.1544 -2.4775
 6030TIP3    H218055   7.206   3.087   5.406 -0.7678 -1.3874  0.3499
 6031TIP3   OH218056   4.514   6.714   0.519  0.9079  0.2728 -0.2167
 6031TIP3    H118057   4.534   6.756   0.435 -1.4475  0.3066 -0.8212
 6031TIP3    H218058   4.502   6.622   0.497  1.3670  0.0889  0.2901
 6032TIP3   OH218059   1.292   0.296   4.936  0.0394  0.2696 -0.2395
 6032TIP3    H118060   1.246   0.212   4.939 -0.5317  0.4978 -1.6285
 6032TIP3    H218061   1.251   0.342   4.863 -0.2571  2.1205  1.0332
 6033TIP3   OH218062   7.149   1.088   3.895  0.2136 -0.2834 -0.6881
 6033TIP3    H118063   7.202   1.068   3.972 -0.3751  1.9424  0.3841
 6033TIP3    H218064   7.210   1.132   3.835  0.0672  0.4043 -0.3381
 6034TIP3   OH218065   5.088   0.192   1.995 -0.1247 -0.2536  0.1330
 6034TIP3    H118066   5.121   0.162   1.910  0.0572  0.1009  0.0817
 6034TIP3    H218067   5.116   0.282   2.002 -2.5735  0.6791 -0.7286
 6035TIP3   OH218068   2.233   3.472   3.385  0.1236  0.2713  0.0286
 6035TIP3    H118069   2.239   3.452   3.292  0.8018 -0.1479  0.1553
 6035TIP3    H218070   2.288   3.549   3.397  0.2100  0.1961  0.1172
 6036TIP3   OH218071   4.190   5.700   1.544 -0.3932 -0.3655  0.2066
 6036TIP3    H118072   4.276   5.695   1.587 -0.1152  0.1299 -0.2866
 6036TIP3    H218073   4.196   5.777   1.487 -1.1404 -0.3727  0.1107
 6037TIP3   OH218074   3.636   4.387   3.417 -0.1735  0.0459  0.0378
 6037TIP3    H118075   3.663   4.456   3.356 -1.0269  0.5808  0.2464
 6037TIP3    H218076   3.571   4.336   3.368  0.2947 -0.4819 -0.0386
 6038TIP3   OH218077   5.973   4.088   0.647  0.0120  0.2168  0.0179
 6038TIP3    H118078   6.056   4.090   0.695  0.8584  1.1517 -1.3940
 6038TIP3    H218079   5.928   4.168   0.673  0.3955  0.6368 -0.5600
 6039TIP3   OH218080   6.648   5.938   1.065  0.1914  0.2290  0.9562
 6039TIP3    H118081   6.697   5.980   1.136  0.3771  0.2849  0.7961
 6039TIP3    H218082   6.702   5.950   0.988 -0.5678  1.2394  0.5589
 6040TIP3   OH218083   7.067   6.483   2.632 -0.0119  0.0304 -0.0266
 6040TIP3    H118084   7.096   6.437   2.710  0.1756 -0.9272 -0.6419
 6040TIP3    H218085   7.146   6.527   2.599  0.1531 -0.4052 -0.2301
 6041TIP3   OH218086   4.681   0.335   3.419 -0.0055  0.1354  0.0891
 6041TIP3    H118087   4.651   0.369   3.335  1.4533 -0.9395 -0.9069
 6041TIP3    H218088   4.679   0.239   3.409  0.4692 -0.0103  1.1724
 6042TIP3   OH218089   4.517   3.040   3.038 -0.0560  0.1319  0.1105
 6042TIP3    H118090   4.468   2.962   3.063 -0.8868  0.7500  0.4356
 6042TIP3    H218091   4.524   3.092   3.118 -0.7708  1.0591 -0.4049
 6043TIP3   OH218092   2.026   5.507   0.020  0.5871  0.4076  0.0532
 6043TIP3    H118093   2.109   5.511   0.068  1.1747 -0.8042 -0.8049
 6043TIP3    H218094   1.975   5.439   0.066  1.0225 -0.5239 -0.8021
 6044TIP3   OH218095   5.742   4.311   3.968  0.4217 -0.0049 -0.2450
 6044TIP3    H118096   5.697   4.249   4.025  1.5860 -0.6439  0.0238
 6044TIP3    H218097   5.761   4.261   3.889  1.5347 -0.0829  0.0470
 6045TIP3   OH218098   3.053   1.201   3.307 -0.5026 -0.7913  0.3072
 6045TIP3    H118099   3.054   1.213   3.402  0.1339  0.1956  0.1964
 6045TIP3    H218100   2.992   1.130   3.292 -2.9653  0.9744  1.2527
 6046TIP3   OH218101   0.193   6.166   2.104 -0.1839  0.6362 -0.1939
 6046TIP3    H118102   0.228   6.246   2.065 -0.8729  1.2685  0.4711
 6046TIP3    H218103   0.098   6.175   2.097 -0.4197  1.3274  2.6250
 6047TIP3   OH218104   1.737   6.668   5.609  0.2696  0.5399  0.2532
 6047TIP3    H118105   1.755   6.591   5.664  0.1107  0.5067  0.2608
 6047TIP3    H218106   1.746   6.637   5.520 -0.2934  0.3834  0.2473
 6048TIP3   OH218107   2.973   1.520   5.344 -0.5527 -0.6334  0.1326
 6048TIP3    H118108   2.914   1.462   5.296 -0.3392 -0.7148 -0.0361
 6048TIP3    H218109   3.009   1.578   5.277 -1.1001 -0.0190  0.3711
 6049TIP3   OH218110   3.817   2.747   1.682 -1.1116 -0.3628 -0.2048
 6049TIP3    H118111   3.814   2.652   1.672 -1.0093 -0.5300  1.2056
 6049TIP3    H218112   3.729   2.772   1.707 -1.1316 -0.0817 -0.5453
 6050TIP3   OH218113   1.585   3.029   3.716  0.0742  0.0183 -0.7568
 6050TIP3    H118114   1.640   3.082   3.658 -0.1688 -0.5154 -1.4796
 6050TIP3    H218115   1.632   2.946   3.724  0.1227  0.0975 -0.1531
 6051TIP3   OH218116   7.151   0.056   2.466  0.0732 -0.6544  0.2186
 6051TIP3    H118117   7.151   0.147   2.435  0.2616 -1.0909 -1.1395
 6051TIP3    H218118   7.241   0.040   2.495  0.4365 -0.8536 -0.9759
 6052TIP3   OH218119   3.999   1.058   5.439 -0.1941 -0.4588 -0.2831
 6052TIP3    H118120   4.080   1.106   5.459 -1.1865  1.0740  0.2102
 6052TIP3    H218121   3.969   1.095   5.356 -0.3417 -1.1031 -0.5238
 6053TIP3   OH218122   6.371   5.195   2.152 -0.1289  0.2270  0.2331
 6053TIP3    H118123   6.288   5.147   2.145 -0.4877  0.8911 -0.1964
 6053TIP3    H218124   6.430   5.148   2.093  0.2078 -1.0385  1.5284
 6054TIP3   OH218125   2.773   2.359   1.463 -0.0012  0.1111 -0.0613
 6054TIP3    H118126   2.692   2.332   1.507  0.4930  0.5781  1.1780
 6054TIP3    H218127   2.773   2.454   1.468  0.6506  0.1114 -0.0004
 6055TIP3   OH218128   5.706   4.978   5.841  0.3768 -0.6047  0.3069
 6055TIP3    H118129   5.799   4.987   5.860  0.8302  0.7530 -2.1594
 6055TIP3    H218130   5.694   4.885   5.823  1.2371 -0.7870  0.6240
 6056TIP3   OH218131   0.040   2.642   5.646 -0.2618 -0.1026 -0.0786
 6056TIP3    H118132   0.109   2.682   5.593 -0.8566  2.0902  0.6701
 6056TIP3    H218133   0.088   2.589   5.711  0.8688  2.0927  1.0073
 6057TIP3   OH218134   4.920   0.430   3.581 -0.4146 -0.4520  0.3011
 6057TIP3    H118135   4.973   0.433   3.502 -0.7459  0.8259  0.1053
 6057TIP3    H218136   4.830   0.431   3.550 -0.5498 -0.3860  0.6875
 6058TIP3   OH218137   4.411   2.673   0.782  0.0057 -0.1442 -0.2192
 6058TIP3    H118138   4.440   2.587   0.752 -0.9555 -1.3731  2.1484
 6058TIP3    H218139   4.489   2.728   0.777  0.3746 -0.7650 -2.8446
 6059TIP3   OH218140   4.786   2.363   4.248 -0.1313 -0.4058  0.1207
 6059TIP3    H118141   4.779   2.456   4.272  1.4043  0.0951 -1.2657
 6059TIP3    H218142   4.858   2.330   4.302  1.9341  0.2144 -2.1168
 6060TIP3   OH218143   5.461   2.380   2.909  0.7030  0.5215  0.2779
 6060TIP3    H118144   5.415   2.450   2.863  1.8448  0.1047 -1.5769
 6060TIP3    H218145   5.453   2.404   3.002 -2.2244  1.0405 -0.0122
 6061TIP3   OH218146   3.128   6.524   3.571 -0.4757 -0.2789 -0.2366
 6061TIP3    H118147   3.162   6.591   3.512  0.2960 -1.2351 -0.9281
 6061TIP3    H218148   3.122   6.445   3.516  3.3900 -2.1320  1.5719
 6062TIP3   OH218149   2.273   1.324   2.228  0.6677  0.1477 -0.1210
 6062TIP3    H118150   2.233   1.343   2.313  0.6738 -0.3126 -0.0081
 6062TIP3    H218151   2.216   1.365   2.164 -0.3068 -0.9695 -0.0035
 6063TIP3   OH218152   4.415   3.473   5.015  0.4130  0.1730  0.0940
 6063TIP3    H118153   4.505   3.472   5.046  0.1720 -0.5754  0.8185
 6063TIP3    H218154   4.368   3.524   5.080  0.0788 -0.5903  0.4674
 6064TIP3   OH218155   5.352   1.023   5.085 -0.0146  0.1316  0.0647
 6064TIP3    H118156   5.333   0.943   5.134  1.1152 -0.8825 -1.0862
 6064TIP3    H218157   5.314   1.093   5.138  2.8088 -0.6570  3.5031
 6065TIP3   OH218158   6.222   5.095   4.309  0.0928  0.3660  0.3455
 6065TIP3    H118159   6.240   5.066   4.220 -2.3260  0.8565 -0.3661
 6065TIP3    H218160   6.129   5.117   4.309 -0.1833 -0.3801  3.2028
 6066TIP3   OH218161   2.840   0.759   5.091 -0.4437 -0.1420  0.7277
 6066TIP3    H118162   2.897   0.686   5.115  0.4537  0.8863  1.8769
 6066TIP3    H218163   2.753   0.721   5.084 -0.0940 -1.2167  1.8692
 6067TIP3   OH218164   6.548   1.353   5.175 -0.9761  0.3132  0.5635
 6067TIP3    H118165   6.624   1.322   5.125 -0.4935 -1.9061  2.4938
 6067TIP3    H218166   6.491   1.392   5.109  1.4852  1.4676 -1.0582
 6068TIP3   OH218167   4.948   4.710   0.964 -0.1365 -0.3868 -0.0188
 6068TIP3    H118168   5.029   4.739   1.006  0.6153 -2.4062  0.0382
 6068TIP3    H218169   4.913   4.643   1.022 -0.1637 -1.7721 -1.5459
 6069TIP3   OH218170   5.007   3.743   5.363 -0.5430 -0.0029 -0.2339
 6069TIP3    H118171   5.033   3.829   5.329  0.9980 -1.0084 -1.7300
 6069TIP3    H218172   4.912   3.743   5.356 -0.4625  0.9194 -1.9700
 6070TIP3   OH218173   7.027   3.352   3.824 -0.1750  0.4247 -0.1381
 6070TIP3    H118174   7.082   3.410   3.772  0.6678 -0.5740 -0.3754
 6070TIP3    H218175   6.970   3.309   3.760 -1.1234  1.2922  0.0832
 6071TIP3   OH218176   6.862   0.302   4.799  0.2887 -0.4144 -0.0734
 6071TIP3    H118177   6.941   0.253   4.824 -0.1709 -0.1633  2.1298
 6071TIP3    H218178   6.895   0.384   4.762  1.1058 -0.2613  0.9279
 6072TIP3   OH218179   3.776   0.591   1.177  0.4723 -0.0122 -0.6864
 6072TIP3    H118180   3.783   0.541   1.095  1.6994 -1.0377  0.0094
 6072TIP3    H218181   3.857   0.641   1.182  0.3981  0.0591 -0.0935
 6073TIP3   OH218182   0.903   3.888   2.826  0.3543  0.6563  0.5306
 6073TIP3    H118183   0.905   3.891   2.922 -0.6686  2.5058  0.5229
 6073TIP3    H218184   0.930   3.798   2.805 -0.8290 -0.2564  2.5863
 6074TIP3   OH218185   5.315   6.416   5.811  0.3133  0.3281 -0.9449
 6074TIP3    H118186   5.363   6.365   5.877 -0.1582  0.5673 -0.4047
 6074TIP3    H218187   5.383   6.458   5.759  0.7654 -1.9490 -2.3282
 6075TIP3   OH218188   0.496   1.120   0.392 -0.2770 -0.3145 -0.4566
 6075TIP3    H118189   0.500   1.193   0.329  0.8054  0.2455  0.2358
 6075TIP3    H218190   0.404   1.095   0.393 -0.6709  1.0154 -0.7551
 6076TIP3   OH218191   4.010   0.889   2.696 -0.3492 -0.0687  0.1547
 6076TIP3    H118192   3.998   0.970   2.745  0.2070  0.7315 -1.0023
 6076TIP3    H218193   4.099   0.861   2.717 -0.3030 -0.0168  0.0302
 6077TIP3   OH218194   1.757   6.385   2.479 -0.3248  0.4416 -0.0663
 6077TIP3    H118195   1.694   6.446   2.517 -0.1360  0.7340 -0.2182
 6077TIP3    H218196   1.838   6.399   2.528 -1.0812 -1.8821  2.0352
 6078TIP3   OH218197   5.818   1.433   2.614  0.3997 -0.0125  0.1810
 6078TIP3    H118198   5.847   1.421   2.704 -0.1445  1.0699  0.5267
 6078TIP3    H218199   5.774   1.518   2.614 -0.8625 -0.6173 -0.7845
 6079TIP3   OH218200   3.927   2.830   2.885  0.1820 -0.2864  0.2900
 6079TIP3    H118201   3.918   2.753   2.942 -1.3233 -0.6249 -0.3412
 6079TIP3    H218202   3.968   2.896   2.940 -0.1242 -0.9921  1.4030
 6080TIP3   OH218203   3.610   0.639   1.831  0.3214 -0.4891 -0.2320
 6080TIP3    H118204   3.529   0.604   1.795  0.5158 -0.0693 -1.1219
 6080TIP3    H218205   3.676   0.620   1.765  0.4285  1.5271 -0.7835
 6081TIP3   OH218206   6.832   0.064   3.819  0.0779  0.7572 -0.2632
 6081TIP3    H118207   6.918   0.059   3.777  0.4417  1.4869  0.3897
 6081TIP3    H218208   6.771   0.034   3.751  0.7549  1.0562 -1.0141
 6082TIP3   OH218209   2.415   1.803   3.646  0.5151  0.2588  0.1150
 6082TIP3    H118210   2.457   1.730   3.601 -1.2737 -2.2000  2.1515
 6082TIP3    H218211   2.322   1.781   3.647  0.3498  0.3457  4.3646
 6083TIP3   OH218212   2.424   6.558   1.044  0.0311 -0.5787  0.8415
 6083TIP3    H118213   2.362   6.553   0.971 -0.7349 -1.1969  1.5163
 6083TIP3    H218214   2.497   6.609   1.010 -0.0777 -1.2955 -0.5164
 6084TIP3   OH218215   4.060   6.147   3.409  0.0843  0.0754 -0.4463
 6084TIP3    H118216   4.032   6.058   3.387  1.5310 -0.4618 -0.2159
 6084TIP3    H218217   4.087   6.185   3.325  1.3031 -0.4034 -0.2977
 6085TIP3   OH218218   0.455   2.163   4.889  0.0955 -0.1527 -0.0217
 6085TIP3    H118219   0.379   2.111   4.913 -1.0461  1.3884 -0.0842
 6085TIP3    H218220   0.445   2.244   4.939  0.2018  1.1982 -2.0658
 6086TIP3   OH218221   1.676   3.323   3.130  0.4602 -0.2219 -0.1298
 6086TIP3    H118222   1.640   3.361   3.210 -0.4793  1.5955 -1.3273
 6086TIP3    H218223   1.757   3.372   3.115 -1.2707  2.2836 -2.2363
 6087TIP3   OH218224   0.633   5.397   0.265  0.0988 -0.4253 -0.4834
 6087TIP3    H118225   0.711   5.407   0.210  0.6699 -2.7379 -0.1901
 6087TIP3    H218226   0.567   5.358   0.208 -0.0736 -0.6575 -0.1326
 6088TIP3   OH218227   2.961   4.062   2.568 -0.0414 -0.2445 -0.2255
 6088TIP3    H118228   2.898   3.997   2.538 -0.5532  0.0488  0.2136
 6088TIP3    H218229   2.980   4.115   2.490 -1.3048  0.4649 -0.0707
 6089TIP3   OH218230   2.628   4.217   3.270 -0.5564 -0.9212 -0.2730
 6089TIP3    H118231   2.541   4.221   3.310  0.8143 -0.4527  2.9707
 6089TIP3    H218232   2.635   4.298   3.220 -1.3038 -0.0194  1.0314
 6090TIP3   OH218233   3.333   5.879   5.710 -0.9295 -0.5548  0.1955
 6090TIP3    H118234   3.286   5.809   5.755 -1.9045 -0.2828 -0.3845
 6090TIP3    H218235   3.318   5.957   5.763 -0.1010 -0.7002  0.6708
 6091TIP3   OH218236   1.468   2.453   4.567 -0.3453  0.1617  0.6653
 6091TIP3    H118237   1.447   2.369   4.608  1.0836 -0.4820  0.1522
 6091TIP3    H218238   1.503   2.506   4.639  2.8945 -1.2320  0.2739
 6092TIP3   OH218239   2.974   5.500   4.013  0.3912  0.1722 -0.2705
 6092TIP3    H118240   2.932   5.552   3.944  0.3575 -0.4408 -0.7218
 6092TIP3    H218241   2.901   5.454   4.056  0.2531  1.5334  1.0498
 6093TIP3   OH218242   6.803   2.527   3.738 -0.1657  0.6105 -0.3510
 6093TIP3    H118243   6.864   2.460   3.768 -2.3985 -1.5596 -0.3085
 6093TIP3    H218244   6.786   2.505   3.646 -1.8419  0.3202 -0.0023
 6094TIP3   OH218245   6.323   3.454   1.352  0.1614  0.1443  0.8246
 6094TIP3    H118246   6.325   3.400   1.432  1.1836  0.2078  0.8487
 6094TIP3    H218247   6.235   3.439   1.317  0.0954 -0.8098  1.3331
 6095TIP3   OH218248   5.096   0.386   3.340  0.4383  0.2896 -0.0286
 6095TIP3    H118249   5.148   0.321   3.386 -0.0518  1.2257  1.9645
 6095TIP3    H218250   5.041   0.336   3.281  1.9196 -0.8798 -0.4661
 6096TIP3   OH218251   5.993   4.151   1.059  0.0304 -0.0199  0.1650
 6096TIP3    H118252   6.009   4.066   1.099 -0.2419 -0.5978 -0.9181
 6096TIP3    H218253   5.996   4.213   1.132 -1.8262 -1.1753  1.3041
 6097TIP3   OH218254   6.277   6.090   4.030 -0.0876  0.1169  0.1074
 6097TIP3    H118255   6.241   6.178   4.041  0.4111  0.6313 -1.9138
 6097TIP3    H218256   6.221   6.034   4.083 -3.3798  1.0005 -2.1547
 6098TIP3   OH218257   6.864   3.575   4.176  0.0152 -0.3171 -0.1126
 6098TIP3    H118258   6.796   3.617   4.123 -1.4085 -2.3184  0.0004
 6098TIP3    H218259   6.857   3.482   4.154  2.1903 -0.6814  0.5387
 6099TIP3   OH218260   3.883   4.123   3.119  0.0009  0.3843 -0.3057
 6099TIP3    H118261   3.962   4.167   3.149  0.5660 -1.0399  0.4163
 6099TIP3    H218262   3.914   4.057   3.057 -0.4691 -0.8671  0.7331
 6100TIP3   OH218263   1.410   2.637   0.242 -0.5740  0.0987  0.3588
 6100TIP3    H118264   1.323   2.600   0.235 -0.2731 -0.4560 -0.6927
 6100TIP3    H218265   1.397   2.722   0.285 -1.6667  0.1796 -0.1084
 6101TIP3   OH218266   4.247   4.130   1.627  0.6113 -0.4387  0.0931
 6101TIP3    H118267   4.200   4.046   1.631  0.8981 -0.6282 -0.3776
 6101TIP3    H218268   4.278   4.145   1.716  0.8311 -1.0016  0.1183
 6102TIP3   OH218269   5.239   2.474   1.802  0.2771 -0.3438  0.2262
 6102TIP3    H118270   5.295   2.517   1.737  0.1756  0.2068  0.4942
 6102TIP3    H218271   5.278   2.497   1.886  1.7780 -2.9581  0.3375
 6103TIP3   OH218272   2.090   3.392   5.537  0.2083  0.1506  0.2360
 6103TIP3    H118273   2.155   3.331   5.571  2.3200 -0.0075 -3.4629
 6103TIP3    H218274   2.059   3.351   5.456  0.4204  3.1172 -1.4924
 6104TIP3   OH218275   1.856   3.287   0.684  0.4452 -0.6601 -0.6263
 6104TIP3    H118276   1.825   3.310   0.772  0.7557 -0.5720 -0.5385
 6104TIP3    H218277   1.779   3.295   0.629  0.1750 -1.0198 -0.3064
 6105TIP3   OH218278   3.151   0.101   5.538 -0.0196  0.1028 -0.5308
 6105TIP3    H118279   3.240   0.068   5.554  0.1098  0.0752 -1.3068
 6105TIP3    H218280   3.158   0.196   5.549 -0.2273 -0.0289  0.9278
 6106TIP3   OH218281   4.946   6.444   2.749  0.2755  0.3241 -0.0465
 6106TIP3    H118282   4.979   6.378   2.687  0.2300  0.7751 -0.5528
 6106TIP3    H218283   4.866   6.477   2.709 -0.9882 -0.9314  1.2837
 6107TIP3   OH218284   5.600   0.996   2.839  0.4605 -0.6199 -0.0241
 6107TIP3    H118285   5.544   0.977   2.763 -0.7155 -0.3552  0.7384
 6107TIP3    H218286   5.594   1.091   2.850 -0.6034 -0.7931  1.2545
 6108TIP3   OH218287   3.401   1.351   4.202 -0.2272  0.2038  0.0468
 6108TIP3    H118288   3.308   1.365   4.185 -0.4990 -0.1926  1.1371
 6108TIP3    H218289   3.425   1.422   4.262 -0.1320 -0.3967  0.7303
 6109TIP3   OH218290   3.514   0.853   1.166  0.1475  0.2222 -0.2910
 6109TIP3    H118291   3.455   0.793   1.120  1.4784 -0.4800 -1.1487
 6109TIP3    H218292   3.601   0.815   1.154  0.8150  1.3362  0.7699
 6110TIP3   OH218293   1.258   2.510   5.729 -0.3317 -0.0880  0.3499
 6110TIP3    H118294   1.309   2.591   5.720  0.4002 -0.5694  0.0690
 6110TIP3    H218295   1.172   2.532   5.693  0.6801 -0.2019 -2.3415
 6111TIP3   OH218296   3.546   0.192   3.222  0.4471  0.3037  0.4347
 6111TIP3    H118297   3.483   0.218   3.290  1.6397 -0.1825  1.7889
 6111TIP3    H218298   3.527   0.250   3.149 -0.7898  0.9706  1.2423
 6112TIP3   OH218299   4.736   1.608   2.721  0.3136  0.5775  0.0295
 6112TIP3    H118300   4.643   1.591   2.737  0.8473 -0.8708  2.0998
 6112TIP3    H218301   4.766   1.651   2.801  1.1363  2.5662 -1.2811
 6113TIP3   OH218302   5.401   3.483   4.963  0.1958  0.4563  0.2498
 6113TIP3    H118303   5.470   3.546   4.940  1.3251 -0.6031  0.6227
 6113TIP3    H218304   5.428   3.449   5.049  1.0733 -2.4385 -1.0635
 6114TIP3   OH218305   0.758   6.170   2.734 -0.0060 -0.5780  0.4318
 6114TIP3    H118306   0.847   6.198   2.752 -1.1727  1.4912  3.9930
 6114TIP3    H218307   0.724   6.234   2.671  0.8482 -1.2372 -0.7501
 6115TIP3   OH218308   2.036   4.297   4.445  0.1958 -0.4767 -0.4698
 6115TIP3    H118309   2.131   4.300   4.434  0.4719 -2.4479  0.9412
 6115TIP3    H218310   2.016   4.374   4.499  1.0147 -0.2518 -0.4668
 6116TIP3   OH218311   1.395   1.912   4.425  0.1161  0.1210  0.4734
 6116TIP3    H118312   1.444   1.853   4.366 -0.3001 -0.8338  1.0588
 6116TIP3    H218313   1.316   1.863   4.447 -1.2955  1.7561 -0.6992
 6117TIP3   OH218314   0.864   2.832   2.873 -0.4279 -0.1552 -0.1485
 6117TIP3    H118315   0.951   2.862   2.847 -0.6580  0.2991 -0.4099
 6117TIP3    H218316   0.806   2.865   2.805 -1.1979  1.9742  1.4159
 6118TIP3   OH218317   3.377   4.699   1.274  0.1115 -0.0823 -0.3992
 6118TIP3    H118318   3.456   4.709   1.222  0.9109  0.7325  0.9174
 6118TIP3    H218319   3.346   4.789   1.289 -0.6908 -0.3541 -0.3399
 6119TIP3   OH218320   0.825   6.263   0.219 -0.6391 -0.2942 -0.6691
 6119TIP3    H118321   0.749   6.319   0.230 -1.6106 -1.5628 -0.7241
 6119TIP3    H218322   0.900   6.322   0.227 -1.5416  0.5999  1.8991
 6120TIP3   OH218323   5.901   2.563   4.790  0.1281  0.4968 -0.4229
 6120TIP3    H118324   5.820   2.541   4.835  0.6060  1.8387  1.1619
 6120TIP3    H218325   5.969   2.515   4.838  0.6937  2.2555  0.5910
 6121TIP3   OH218326   0.226   4.452   2.588  0.3980  0.1163 -0.0746
 6121TIP3    H118327   0.319   4.460   2.609  0.9012 -2.4804 -1.0033
 6121TIP3    H218328   0.200   4.367   2.623 -1.1702 -0.0090 -1.4118
 6122TIP3   OH218329   2.508   1.083   5.069  0.3479 -0.2197 -0.0705
 6122TIP3    H118330   2.507   1.102   5.163  1.6028 -0.4595  0.0203
 6122TIP3    H218331   2.597   1.051   5.053  1.6717  3.8287 -2.1347
 6123TIP3   OH218332   3.435   3.090   1.195 -0.5511  0.2980 -0.2418
 6123TIP3    H118333   3.485   3.082   1.113  0.2682  1.5818  0.1143
 6123TIP3    H218334   3.386   3.172   1.185  1.4786  1.8376  1.5174
 6124TIP3   OH218335   2.378   3.215   0.685 -0.2522 -0.6710 -0.2287
 6124TIP3    H118336   2.356   3.274   0.757  2.5434 -0.1291  0.2966
 6124TIP3    H218337   2.359   3.127   0.718 -0.3984 -0.3323  0.6109
 6125TIP3   OH218338   3.003   6.147   4.520 -0.3788  0.4353 -0.2835
 6125TIP3    H118339   2.959   6.076   4.566 -1.0024  0.3218 -1.0165
 6125TIP3    H218340   2.968   6.142   4.431  2.9395 -1.2289 -1.6772
 6126TIP3   OH218341   4.990   1.880   2.367 -0.5786 -0.4277  0.0233
 6126TIP3    H118342   4.925   1.823   2.408 -1.7783  0.0701 -1.1165
 6126TIP3    H218343   5.009   1.838   2.283 -0.8731  0.4197 -0.4766
 6127TIP3   OH218344   6.157   6.319   1.582  0.7315 -0.2917 -0.2614
 6127TIP3    H118345   6.232   6.275   1.621  0.4146  0.1812  0.9158
 6127TIP3    H218346   6.194   6.381   1.520  1.3173 -0.0072  0.3702
 6128TIP3   OH218347   3.239   2.970   5.001  0.1853 -0.2196  0.4398
 6128TIP3    H118348   3.237   2.915   5.080  2.1913 -0.5312  0.3476
 6128TIP3    H218349   3.330   2.965   4.972 -0.2852  0.7210 -1.3274
 6129TIP3   OH218350   1.013   6.523   2.781 -0.1927 -0.4066  0.4659
 6129TIP3    H118351   1.008   6.429   2.799  1.1281 -0.3844  1.0945
 6129TIP3    H218352   1.064   6.529   2.700 -4.2412 -0.3915 -2.3909
 6130TIP3   OH218353   4.762   0.975   2.762  0.0881 -0.5099  0.0450
 6130TIP3    H118354   4.813   0.897   2.738 -0.7087 -0.3380 -2.4231
 6130TIP3    H218355   4.814   1.048   2.730  0.1909 -0.0595  1.1764
 6131TIP3   OH218356   3.809   3.140   4.347  1.0020  0.0865  0.4524
 6131TIP3    H118357   3.755   3.063   4.362 -0.3669  0.7195 -0.9204
 6131TIP3    H218358   3.797   3.161   4.254  1.8879  1.5400  0.6190
 6132TIP3   OH218359   4.906   6.306   4.165  0.5497  0.5902 -0.5463
 6132TIP3    H118360   4.905   6.240   4.235  0.6958  0.6732 -0.4668
 6132TIP3    H218361   4.837   6.368   4.191 -0.6697 -0.3615 -1.4179
 6133TIP3   OH218362   1.943   0.361   1.992 -0.0475  0.1883  0.2960
 6133TIP3    H118363   1.944   0.345   2.087  1.1283  1.2310  0.4950
 6133TIP3    H218364   1.862   0.408   1.976  0.0476  0.5636  0.8951
 6134TIP3   OH218365   4.626   2.050   2.486 -0.8148 -0.1346 -0.5786
 6134TIP3    H118366   4.674   2.128   2.514 -1.7970  1.4792 -3.0708
 6134TIP3    H218367   4.585   2.017   2.566  2.1025  0.0062  1.1410
 6135TIP3   OH218368   5.332   3.487   1.775  0.0956 -0.4192 -0.4208
 6135TIP3    H118369   5.397   3.524   1.835  0.7403 -1.3490 -0.5143
 6135TIP3    H218370   5.385   3.446   1.706 -0.5275 -2.2927  0.1533
 6136TIP3   OH218371   4.575   4.998   2.958  0.6381 -0.1919 -0.3788
 6136TIP3    H118372   4.513   5.059   2.999 -0.3228 -1.6710  0.4186
 6136TIP3    H218373   4.661   5.029   2.986  0.0673 -0.4268  1.7838
 6137TIP3   OH218374   1.356   5.429   4.248 -0.3317 -0.2642 -0.6421
 6137TIP3    H118375   1.295   5.503   4.247 -0.4057 -0.3179 -2.2589
 6137TIP3    H218376   1.428   5.457   4.305 -0.6606  0.7940 -0.7408
 6138TIP3   OH218377   2.293   3.950   0.755 -0.1916  0.2846 -0.0125
 6138TIP3    H118378   2.301   3.856   0.738 -1.0262 -0.1436  1.6889
 6138TIP3    H218379   2.321   3.960   0.846  0.5232  1.8109 -0.3710
 6139TIP3   OH218380   4.943   6.450   2.143  0.3467  0.2050 -0.8044
 6139TIP3    H118381   4.874   6.484   2.087 -0.2965  1.1349  0.5168
 6139TIP3    H218382   4.919   6.477   2.231  2.3344  0.4749 -0.2831
 6140TIP3   OH218383   6.430   0.323   0.159 -0.7206  0.5141  0.1940
 6140TIP3    H118384   6.449   0.340   0.251 -0.4760  1.4854 -0.0265
 6140TIP3    H218385   6.516   0.315   0.117 -0.8294  0.0081  0.0476
 6141TIP3   OH218386   0.437   6.572   5.146 -0.8425  0.5000  0.1180
 6141TIP3    H118387   0.480   6.657   5.136  0.0448 -0.1527 -2.3577
 6141TIP3    H218388   0.467   6.540   5.232  0.4339  1.7995  0.1914
 6142TIP3   OH218389   0.793   4.449   1.949 -0.2325  0.0586 -0.4760
 6142TIP3    H118390   0.699   4.467   1.943 -0.3569 -0.8565 -1.6473
 6142TIP3    H218391   0.801   4.355   1.931  0.7538 -0.2751  1.3967
 6143TIP3   OH218392   3.769   4.560   0.071 -0.6164 -0.4507  0.4091
 6143TIP3    H118393   3.818   4.630   0.027 -1.8213 -0.6227 -1.3103
 6143TIP3    H218394   3.713   4.605   0.133  0.5003 -0.1246  1.2156
 6144TIP3   OH218395   2.769   6.424   2.237  0.0996 -0.4778  0.0531
 6144TIP3    H118396   2.737   6.396   2.323  1.6095 -0.3776  0.6750
 6144TIP3    H218397   2.784   6.342   2.189 -2.0698 -0.5199 -0.6758
 6145TIP3   OH218398   3.186   0.219   3.232 -0.0632  0.1792 -0.2528
 6145TIP3    H118399   3.240   0.289   3.195 -1.6909  0.6598 -1.9054
 6145TIP3    H218400   3.195   0.146   3.171 -1.8070  0.5412 -1.0224
 6146TIP3   OH218401   5.522   3.423   3.646 -0.0102 -0.3599 -0.3050
 6146TIP3    H118402   5.516   3.463   3.732  0.2524 -0.4311 -0.2537
 6146TIP3    H218403   5.541   3.331   3.663  0.2813 -0.3267 -0.4428
 6147TIP3   OH218404   0.489   3.680   1.248  0.3445  0.2001  0.0951
 6147TIP3    H118405   0.547   3.630   1.190 -0.3645 -0.8938  0.3107
 6147TIP3    H218406   0.403   3.672   1.208 -0.4213 -1.6843  1.9206
 6148TIP3   OH218407   0.213   0.663   2.119  0.2781 -0.1444  0.2441
 6148TIP3    H118408   0.260   0.736   2.078 -0.1075  0.2246  0.4541
 6148TIP3    H218409   0.276   0.591   2.119  0.3959 -0.0587 -0.7055
 6149TIP3   OH218410   0.463   2.707   3.126  0.2364  0.1787 -0.2743
 6149TIP3    H118411   0.501   2.656   3.198 -2.8763 -0.4746  1.0922
 6149TIP3    H218412   0.437   2.642   3.062  0.7233  0.5403 -0.8478
 6150TIP3   OH218413   3.389   4.376   5.095 -0.2111  0.3908  0.1994
 6150TIP3    H118414   3.372   4.287   5.125  2.0566  0.4395  1.8629
 6150TIP3    H218415   3.303   4.420   5.101 -1.2026 -1.4361  0.0780
 6151TIP3   OH218416   2.296   1.224   5.434  0.2886  0.4008  0.9084
 6151TIP3    H118417   2.233   1.234   5.505 -1.4720 -3.3321  0.1364
 6151TIP3    H218418   2.300   1.129   5.419  1.1384  0.9145 -3.4452
 6152TIP3   OH218419  -0.030   1.679   3.236 -0.1145 -0.1052 -0.0371
 6152TIP3    H118420   0.016   1.727   3.167  1.6721 -0.1858  1.0204
 6152TIP3    H218421   0.016   1.596   3.242 -2.1967 -1.3696 -0.7736
 6153TIP3   OH218422   2.389   1.853   5.244  0.0858 -0.4506  0.0849
 6153TIP3    H118423   2.404   1.760   5.229  0.4228 -0.5705  1.1200
 6153TIP3    H218424   2.420   1.896   5.164 -0.9449 -1.2817 -0.7891
 6154TIP3   OH218425   6.761   3.902   2.807 -0.1512 -0.6126 -0.2267
 6154TIP3    H118426   6.703   3.869   2.738  0.5927  0.6063 -1.4888
 6154TIP3    H218427   6.846   3.908   2.765  0.4335 -0.3094  0.9681
 6155TIP3   OH218428   1.633   4.534   2.098  0.4538  0.2042  0.3311
 6155TIP3    H118429   1.680   4.613   2.070 -0.9255  1.3977  1.2590
 6155TIP3    H218430   1.628   4.541   2.193 -2.7719  0.9192  0.2403
 6156TIP3   OH218431   6.467   4.149   4.795 -0.2274  0.4288  0.8330
 6156TIP3    H118432   6.443   4.238   4.770  0.5059  1.2967  3.0048
 6156TIP3    H218433   6.386   4.111   4.829 -0.7752 -0.1180 -0.9722
 6157TIP3   OH218434   6.468   4.585   1.604  0.0748 -0.0704 -0.0279
 6157TIP3    H118435   6.414   4.587   1.525  1.7602  0.2169 -1.2246
 6157TIP3    H218436   6.450   4.500   1.644 -2.1916  0.5251  0.3376
 6158TIP3   OH218437   2.716   4.932   5.594 -0.5113 -0.3769  0.0439
 6158TIP3    H118438   2.698   4.840   5.576 -0.4104 -0.3023 -0.4587
 6158TIP3    H218439   2.641   4.979   5.560 -0.4200 -0.2497  0.0160
 6159TIP3   OH218440   5.513   4.884   2.306  0.1100  0.5499 -0.2040
 6159TIP3    H118441   5.496   4.809   2.248  1.1556  0.4618 -0.4118
 6159TIP3    H218442   5.426   4.916   2.329 -0.3354 -0.0219 -1.0340
 6160TIP3   OH218443   3.412   2.702   1.023  0.0495  0.0107  0.3432
 6160TIP3    H118444   3.488   2.735   0.974 -0.4833  2.4697  1.0932
 6160TIP3    H218445   3.432   2.609   1.036  2.1502  0.2145 -0.9140
 6161TIP3   OH218446   1.649   6.737   4.289 -0.4458 -0.0234  0.2809
 6161TIP3    H118447   1.720   6.771   4.344  0.2610  0.5296 -0.9123
 6161TIP3    H218448   1.586   6.808   4.283  0.4536  0.7081 -1.2275
 6162TIP3   OH218449   4.932   3.256   4.751 -0.0178  0.0922  0.1939
 6162TIP3    H118450   5.027   3.248   4.737  0.0693  2.4329 -1.2524
 6162TIP3    H218451   4.923   3.324   4.818 -0.6112  1.6714 -1.3940
 6163TIP3   OH218452   2.261   2.174   1.105 -0.1422  0.2287 -0.1692
 6163TIP3    H118453   2.300   2.219   1.031 -2.7715 -0.2834 -2.0136
 6163TIP3    H218454   2.231   2.244   1.163  0.3749  0.7014 -0.4676
 6164TIP3   OH218455   3.433   3.525   4.052  0.1096  0.5004  0.0002
 6164TIP3    H118456   3.428   3.614   4.019  0.2448  0.5220  0.0377
 6164TIP3    H218457   3.480   3.477   3.984 -1.0411  0.1817 -0.5993
 6165TIP3   OH218458   5.931   1.670   1.316 -0.4884 -0.7310 -0.7892
 6165TIP3    H118459   5.905   1.762   1.325  1.9635 -0.0265  0.0919
 6165TIP3    H218460   5.939   1.639   1.406 -0.0753 -1.4108 -1.0510
 6166TIP3   OH218461   3.622   6.320   4.840  0.7549  0.5893 -0.3215
 6166TIP3    H118462   3.689   6.272   4.889 -0.6240 -1.0531  0.0760
 6166TIP3    H218463   3.643   6.304   4.748 -0.4763 -2.1881 -0.2418
 6167TIP3   OH218464   5.787   5.779   5.045  0.7087 -0.6030  0.2129
 6167TIP3    H118465   5.791   5.792   4.950  1.8469  1.2036  0.4447
 6167TIP3    H218466   5.739   5.698   5.057  1.8144 -1.6472 -1.9564
 6168TIP3   OH218467   1.431   6.212   5.264 -0.4487 -0.1577 -0.6634
 6168TIP3    H118468   1.405   6.172   5.181 -1.7037  0.3568 -0.5466
 6168TIP3    H218469   1.422   6.142   5.328  0.6221 -0.5859 -0.9520
 6169TIP3   OH218470   6.656   3.621   5.487  0.0351 -0.2064 -0.0638
 6169TIP3    H118471   6.673   3.692   5.426 -0.2013  0.2491  0.3948
 6169TIP3    H218472   6.599   3.561   5.439  1.5722 -0.9403 -1.0415
 6170TIP3   OH218473   2.767   2.115   4.828  0.1213 -0.2077 -0.4033
 6170TIP3    H118474   2.781   2.022   4.844  0.6056  0.0615  0.8211
 6170TIP3    H218475   2.789   2.127   4.736 -1.2726 -1.5477 -0.9550
 6171TIP3   OH218476   5.355   5.295   0.686  0.2141 -0.2504  0.2254
 6171TIP3    H118477   5.265   5.298   0.655  0.2720 -3.0942 -0.4714
 6171TIP3    H218478   5.349   5.260   0.775  0.6559 -1.7240 -0.2949
 6172TIP3   OH218479   3.361   4.613   2.231 -0.0337  0.2482  0.6465
 6172TIP3    H118480   3.398   4.672   2.165 -1.2979  1.6350  1.1121
 6172TIP3    H218481   3.415   4.628   2.308 -0.1800  0.6168  0.6827
 6173TIP3   OH218482   4.710   2.180   2.257 -0.3160  0.1882  0.3785
 6173TIP3    H118483   4.752   2.119   2.196  1.2345  0.4002  1.1758
 6173TIP3    H218484   4.669   2.124   2.323 -0.6912 -0.0132 -0.0215
 6174TIP3   OH218485   1.276   2.023   4.986  0.5063 -0.6106 -0.3609
 6174TIP3    H118486   1.359   2.035   5.033 -0.1475 -1.4464  1.0554
 6174TIP3    H218487   1.242   2.112   4.975 -0.3326 -0.4547  2.6859
 6175TIP3   OH218488   1.048   3.147   2.920 -0.1555  0.1730  0.3203
 6175TIP3    H118489   1.073   3.190   3.001 -0.8775 -1.1881  1.3153
 6175TIP3    H218490   0.955   3.166   2.910  0.1408  1.1505 -0.7389
 6176TIP3   OH218491   6.997   0.195   5.317 -0.0018 -0.2337  0.1832
 6176TIP3    H118492   6.973   0.163   5.230  0.1997 -2.0464  0.7607
 6176TIP3    H218493   7.009   0.289   5.305  0.7204 -0.5387 -1.9005
 6177TIP3   OH218494   5.721   3.598   0.385 -0.7860  0.6356 -0.8981
 6177TIP3    H118495   5.670   3.605   0.304 -1.1821  0.8600 -0.6335
 6177TIP3    H218496   5.719   3.686   0.423 -1.9601  0.1757  0.1690
 6178TIP3   OH218497   7.096   2.122   0.357  0.2072  0.2362  0.5521
 6178TIP3    H118498   7.085   2.140   0.264 -2.8755 -0.6171  0.6614
 6178TIP3    H218499   7.015   2.151   0.397  1.3211  0.2651  2.9678
 6179TIP3   OH218500   2.348   6.704   3.125  0.0466 -0.0195 -0.7408
 6179TIP3    H118501   2.328   6.771   3.059 -1.4762 -1.2928 -1.6467
 6179TIP3    H218502   2.308   6.737   3.205  0.3626  0.7107 -0.8760
 6180TIP3   OH218503   3.760   0.484   2.809 -0.1394 -0.0768 -0.2409
 6180TIP3    H118504   3.737   0.570   2.772 -0.8282 -0.4000 -0.5947
 6180TIP3    H218505   3.741   0.423   2.738 -0.2401 -0.5800  0.2170
 6181TIP3   OH218506   0.688   3.826   4.176 -0.3115  0.3555  0.2463
 6181TIP3    H118507   0.676   3.750   4.119  0.4421 -0.2674  0.9037
 6181TIP3    H218508   0.741   3.887   4.125 -0.8124  0.3955 -0.2350
 6182TIP3   OH218509   5.706   6.496   3.980 -0.6052  0.1639  0.4077
 6182TIP3    H118510   5.620   6.539   3.987  0.5179  2.4022  1.3604
 6182TIP3    H218511   5.754   6.548   3.915  1.2523  1.3186  2.5643
 6183TIP3   OH218512   2.174   1.551   4.171 -0.6086 -0.5011  0.0269
 6183TIP3    H118513   2.263   1.564   4.205 -1.4214 -1.2209  2.6702
 6183TIP3    H218514   2.141   1.475   4.218 -2.5941 -0.3537 -1.0114
 6184TIP3   OH218515   1.135   6.043   1.565 -0.3788 -0.1502  0.9409
 6184TIP3    H118516   1.115   6.050   1.471  0.3661 -2.6000  0.5311
 6184TIP3    H218517   1.230   6.059   1.570  0.0129 -2.2757  0.9184
 6185TIP3   OH218518   0.647   1.813   2.051  0.3917  0.0558  0.1165
 6185TIP3    H118519   0.606   1.897   2.029  1.0021  0.5456  0.8043
 6185TIP3    H218520   0.576   1.761   2.089 -0.0065  0.2271 -0.3755
 6186TIP3   OH218521   5.907   2.335   1.818  0.0163 -0.0192  0.1320
 6186TIP3    H118522   5.862   2.274   1.877 -0.1652 -0.5049 -0.4932
 6186TIP3    H218523   5.868   2.318   1.732 -0.6896  1.6228  0.0974
 6187TIP3   OH218524   2.074   5.271   1.251 -0.6503 -0.3613 -0.2184
 6187TIP3    H118525   2.031   5.185   1.248 -0.0159 -0.7005  0.3193
 6187TIP3    H218526   2.155   5.256   1.300 -0.9073  0.7031  0.5743
 6188TIP3   OH218527   6.088   3.275   2.910 -0.2266  0.7725  0.0686
 6188TIP3    H118528   6.103   3.219   2.834 -1.9370  0.3508  0.0173
 6188TIP3    H218529   6.095   3.364   2.876  0.0196  0.5912 -0.3608
 6189TIP3   OH218530   3.003   6.525   0.787  0.2039  0.9990 -0.3301
 6189TIP3    H118531   2.985   6.600   0.843  0.1530  0.0733  0.9314
 6189TIP3    H218532   3.089   6.542   0.750 -0.4763  2.4165 -1.3220
 6190TIP3   OH218533   0.541   2.441   2.775 -0.1816 -0.4023  0.2639
 6190TIP3    H118534   0.513   2.478   2.691 -1.2652  0.3184  0.9157
 6190TIP3    H218535   0.536   2.346   2.763 -1.0141 -0.2956 -0.2693
 6191TIP3   OH218536   1.589   1.204   1.827  0.0537  0.3958  0.6579
 6191TIP3    H118537   1.647   1.158   1.887 -0.7115  0.6745  1.6292
 6191TIP3    H218538   1.503   1.165   1.842  0.1696 -0.9349 -1.6949
 6192TIP3   OH218539   5.073   4.001   1.547  0.1705  0.0820  0.1953
 6192TIP3    H118540   5.124   3.920   1.554  0.3482  0.2979  1.7384
 6192TIP3    H218541   5.097   4.037   1.461 -0.8260 -2.0797 -1.0541
 6193TIP3   OH218542   0.362   4.121   4.299  0.1742 -0.2672 -0.0027
 6193TIP3    H118543   0.446   4.150   4.264 -0.3205  0.2334 -0.8118
 6193TIP3    H218544   0.378   4.108   4.393  1.3524 -0.9622 -0.2717
 6194TIP3   OH218545   4.451   4.407   0.325 -0.0110 -0.6829  0.8329
 6194TIP3    H118546   4.508   4.331   0.313  0.7187  0.0023 -0.3643
 6194TIP3    H218547   4.398   4.410   0.245  1.1864  1.0042  0.0177
 6195TIP3   OH218548   1.160   5.622   3.676 -0.0474 -0.3428 -0.3467
 6195TIP3    H118549   1.234   5.643   3.620  0.9836  0.9202  1.3965
 6195TIP3    H218550   1.197   5.618   3.764 -1.7162 -1.6374  0.3500
 6196TIP3   OH218551   4.549   1.370   4.632 -0.0306  0.1559  0.2256
 6196TIP3    H118552   4.498   1.345   4.555  1.3914  0.0149 -0.7095
 6196TIP3    H218553   4.503   1.445   4.668  0.1634  1.2790 -1.7298
 6197TIP3   OH218554   1.269   4.316   2.451 -0.1434  0.0382 -0.1585
 6197TIP3    H118555   1.209   4.248   2.481 -0.9056  0.1571 -1.3461
 6197TIP3    H218556   1.317   4.342   2.530 -1.8151  0.0967  0.8993
 6198TIP3   OH218557   0.816   4.476   3.946 -0.0048 -0.3982  0.4054
 6198TIP3    H118558   0.869   4.528   3.885 -0.3609 -1.2952 -0.6952
 6198TIP3    H218559   0.733   4.523   3.951  1.0165  1.3560  2.6110
 6199TIP3   OH218560   5.140   0.287   5.806 -0.0412  0.3130 -0.1993
 6199TIP3    H118561   5.155   0.197   5.836  1.3873  0.8086  0.6504
 6199TIP3    H218562   5.070   0.320   5.862 -0.8452 -0.3619 -0.7674
 6200TIP3   OH218563   3.953   0.623   3.950 -0.0833  0.4902 -0.2172
 6200TIP3    H118564   4.033   0.608   4.001 -0.1376 -0.6591 -0.4596
 6200TIP3    H218565   3.894   0.553   3.976 -1.1864  1.5523  0.2532
 6201TIP3   OH218566   0.090   0.922   0.501 -0.1004 -0.1348  0.1724
 6201TIP3    H118567   0.172   0.874   0.499  0.8139  1.3826 -0.8058
 6201TIP3    H218568   0.115   1.012   0.525 -1.4876  0.3338 -0.0003
 6202TIP3   OH218569   1.701   1.151   4.874 -0.0594 -0.2418 -0.5029
 6202TIP3    H118570   1.607   1.170   4.866  0.3470  1.5743 -1.3940
 6202TIP3    H218571   1.713   1.070   4.825 -0.7873  0.8709 -2.6769
 6203TIP3   OH218572   4.736   4.363   1.740 -0.8573  0.7341 -0.2689
 6203TIP3    H118573   4.709   4.370   1.832 -0.4626  0.8817 -0.1622
 6203TIP3    H218574   4.654   4.362   1.691 -1.2012 -1.6080  0.2174
 6204TIP3   OH218575   3.645   6.629   2.199 -0.4138  0.5024 -0.1095
 6204TIP3    H118576   3.648   6.557   2.261  0.0567 -0.2026 -0.9258
 6204TIP3    H218577   3.733   6.668   2.203 -0.5812  0.8616  0.1276
 6205TIP3   OH218578   4.000   0.158   4.475 -0.3783 -0.0825 -0.1994
 6205TIP3    H118579   3.935   0.218   4.511  0.6934  1.0614 -0.1044
 6205TIP3    H218580   4.079   0.211   4.464  1.4156 -1.9750  2.1783
 6206TIP3   OH218581   2.130   1.284   0.444  0.2673 -0.3292  0.4367
 6206TIP3    H118582   2.170   1.210   0.490 -1.6333 -0.9657  1.1553
 6206TIP3    H218583   2.039   1.285   0.474 -0.1910  1.2760 -0.8471
 6207TIP3   OH218584   6.587   5.322   4.627  0.3287  0.1355  0.4363
 6207TIP3    H118585   6.544   5.248   4.671 -1.7183  0.8010 -0.3459
 6207TIP3    H218586   6.587   5.298   4.535 -1.3541  1.5241  0.0288
 6208TIP3   OH218587   4.746   3.992   1.126  0.2921  0.6060 -0.5994
 6208TIP3    H118588   4.804   4.026   1.193 -2.9051  3.5438  1.0503
 6208TIP3    H218589   4.722   4.069   1.074 -0.9602 -0.7081 -2.1012
 6209TIP3   OH218590   3.552   4.362   2.157  0.3887  0.1204 -0.0435
 6209TIP3    H118591   3.493   4.438   2.156 -1.5463 -1.3138  0.2844
 6209TIP3    H218592   3.587   4.359   2.068 -0.4714  0.6896 -0.4186
 6210TIP3   OH218593   0.937   1.909   5.399 -0.0923  0.4334 -0.1350
 6210TIP3    H118594   0.881   1.922   5.476  0.3499 -0.7345  0.4111
 6210TIP3    H218595   0.905   1.972   5.335 -0.1902  1.7777  1.1578
 6211TIP3   OH218596   4.937   6.736   0.747  0.9520  0.8997 -0.5031
 6211TIP3    H118597   4.842   6.738   0.738  0.8604  1.8699  0.4590
 6211TIP3    H218598   4.953   6.755   0.840  1.9966 -2.3330  0.1386
 6212TIP3   OH218599   5.734   2.529   4.991 -0.1291 -0.1403 -0.4539
 6212TIP3    H118600   5.804   2.504   5.051  0.4492 -0.1720 -1.1364
 6212TIP3    H218601   5.713   2.619   5.016 -0.6353 -0.5061  0.4929
 6213TIP3   OH218602   2.162   3.499   5.229 -0.2261  0.3607  0.4595
 6213TIP3    H118603   2.249   3.466   5.251  0.8965  3.6693  1.6396
 6213TIP3    H218604   2.107   3.475   5.304  0.0059 -0.4937  0.3672
 6214TIP3   OH218605   0.846   1.071   5.079 -0.2023 -0.5062 -0.5792
 6214TIP3    H118606   0.884   0.994   5.122 -1.4355 -0.5275  0.5083
 6214TIP3    H218607   0.783   1.106   5.142 -0.3510  0.8511 -1.4414
 6215TIP3   OH218608   2.292   5.813   1.080  0.3985 -0.4448 -0.2386
 6215TIP3    H118609   2.243   5.790   1.158  1.4305 -1.1274  0.2384
 6215TIP3    H218610   2.306   5.907   1.086  1.7943 -0.7014  1.2332
 6216TIP3   OH218611   7.167   1.342   3.597  0.0648  0.4107  0.2453
 6216TIP3    H118612   7.236   1.406   3.574 -0.5377  0.8061 -0.5011
 6216TIP3    H218613   7.113   1.388   3.661 -1.0064  1.0902 -1.0967
 6217TIP3   OH218614   1.567   4.029   0.910  0.4241  0.2052  0.5068
 6217TIP3    H118615   1.528   4.003   0.993 -1.6761 -2.7501 -1.1975
 6217TIP3    H218616   1.525   4.113   0.889 -1.3200 -0.4839  1.0632
 6218TIP3   OH218617   1.913   3.039   0.763 -0.1113 -0.4847 -0.1664
 6218TIP3    H118618   1.928   2.976   0.692  3.0005  0.1030 -0.1875
 6218TIP3    H218619   1.892   3.121   0.717  1.1747 -0.2809 -0.4347
 6219TIP3   OH218620   0.444   5.032   3.121 -0.1466 -0.0802 -0.2722
 6219TIP3    H118621   0.411   5.096   3.058 -1.3196 -0.4838 -0.1054
 6219TIP3    H218622   0.403   4.950   3.094  1.0238 -0.6835 -0.2455
 6220TIP3   OH218623   5.009   1.429   5.083  0.3125 -0.1062 -0.2276
 6220TIP3    H118624   5.019   1.449   5.177 -1.9902  2.2309 -0.3366
 6220TIP3    H218625   5.088   1.464   5.043 -0.3622  2.5630  0.5165
 6221TIP3   OH218626   0.003   1.289   5.155 -0.5146 -0.1510 -0.0332
 6221TIP3    H118627   0.041   1.263   5.239 -0.3224  0.8867  0.2102
 6221TIP3    H218628   0.022   1.215   5.096  3.0769  0.7744 -0.3046
 6222TIP3   OH218629   5.209   4.750   2.622  0.1134 -0.0352  0.2947
 6222TIP3    H118630   5.146   4.688   2.587  0.2185 -0.2992  0.5717
 6222TIP3    H218631   5.201   4.742   2.717 -0.7279  1.2416  0.3571
 6223TIP3   OH218632   2.869   5.579   0.745  0.4200 -0.0607 -0.3494
 6223TIP3    H118633   2.893   5.645   0.809 -0.3271 -0.7521  0.6731
 6223TIP3    H218634   2.789   5.612   0.704  1.0784  0.5384 -1.1916
 6224TIP3   OH218635   0.455   2.983   5.507 -0.8283  0.4810  0.8124
 6224TIP3    H118636   0.403   2.903   5.513 -0.4366  0.1250 -0.2530
 6224TIP3    H218637   0.406   3.038   5.445  1.1716 -0.8188 -2.1400
 6225TIP3   OH218638   4.039   1.149   4.557  0.6757  0.2828  0.5649
 6225TIP3    H118639   4.083   1.231   4.534 -0.5579  0.4483 -1.4555
 6225TIP3    H218640   3.983   1.130   4.481  0.4769 -2.1213  1.2439
 6226TIP3   OH218641   7.070   6.659   1.429 -0.3134  0.5063  0.0502
 6226TIP3    H118642   7.063   6.610   1.511 -2.4028 -0.0325 -0.3850
 6226TIP3    H218643   6.996   6.629   1.376  1.6143 -0.0584 -2.5550
 6227TIP3   OH218644   3.872   3.684   2.256  0.1966  0.3429 -0.4594
 6227TIP3    H118645   3.796   3.631   2.231 -0.1100  1.0395 -1.0180
 6227TIP3    H218646   3.835   3.760   2.300  0.6585 -0.1242  0.7878
 6228TIP3   OH218647   4.828   2.637   1.155  0.0937  0.4077  0.1876
 6228TIP3    H118648   4.799   2.557   1.111 -0.4705 -0.3308  1.8048
 6228TIP3    H218649   4.920   2.647   1.131 -0.2762  0.2367 -1.3902
 6229TIP3   OH218650   3.400   5.818   3.913  0.1778 -0.6680  0.0049
 6229TIP3    H118651   3.411   5.908   3.883  2.1890 -0.5460  0.9722
 6229TIP3    H218652   3.373   5.827   4.004  2.9058 -0.9563  0.9292
 6230TIP3   OH218653   5.835   2.511   2.151 -0.0836  0.1650 -0.0272
 6230TIP3    H118654   5.760   2.469   2.109 -0.2601  0.8898 -0.4654
 6230TIP3    H218655   5.911   2.477   2.104 -0.1128 -0.7059  0.5331
 6231TIP3   OH218656   3.586   2.457   1.129 -0.0733  0.4703 -0.6684
 6231TIP3    H118657   3.597   2.418   1.042 -0.0267 -2.3228  0.4978
 6231TIP3    H218658   3.649   2.412   1.184 -2.9064 -0.9783  1.6824
 6232TIP3   OH218659   3.685   4.552   3.172  0.1583 -0.2541  0.3089
 6232TIP3    H118660   3.693   4.558   3.077  0.9291  1.2051  0.4386
 6232TIP3    H218661   3.601   4.594   3.191  0.4758  0.3712  0.3458
 6233TIP3   OH218662   5.695   6.435   0.310  0.1010  0.4867  0.3019
 6233TIP3    H118663   5.651   6.360   0.350  1.8833 -0.6494  0.2245
 6233TIP3    H218664   5.719   6.405   0.222  0.0634  1.4598 -0.0548
 6234TIP3   OH218665   6.056   3.713   2.713 -0.1470  0.1887  0.2277
 6234TIP3    H118666   5.982   3.774   2.711  0.8677  1.4477 -0.7586
 6234TIP3    H218667   6.117   3.746   2.647  0.5617 -1.7867 -0.1890
 6235TIP3   OH218668   3.749   4.549   2.278 -0.6567  0.4302 -0.2644
 6235TIP3    H118669   3.745   4.537   2.372 -3.3962  2.1849 -0.0743
 6235TIP3    H218670   3.687   4.486   2.242 -0.9088  0.9479 -0.7577
 6236TIP3   OH218671   4.861   3.381   3.595 -0.3482  0.5519  0.0599
 6236TIP3    H118672   4.838   3.433   3.672  0.9315  0.9327  0.2129
 6236TIP3    H218673   4.887   3.445   3.529 -0.1415  0.1705 -0.2333
 6237TIP3   OH218674   0.972   4.267   4.047 -0.0523 -0.0333 -0.5309
 6237TIP3    H118675   0.983   4.305   4.135  2.3186 -0.1533 -0.7124
 6237TIP3    H218676   0.944   4.341   3.993 -0.2591  0.3406  0.0701
 6238TIP3   OH218677   2.813   2.202   0.887  0.3903 -0.5798  0.6445
 6238TIP3    H118678   2.903   2.217   0.858  0.1894  0.2246  0.4142
 6238TIP3    H218679   2.782   2.288   0.914 -0.6627 -0.6555 -0.2831
 6239TIP3   OH218680   5.975   5.369   4.884  0.0987  0.1721 -0.2469
 6239TIP3    H118681   5.992   5.388   4.791 -0.4014  0.0398 -0.3659
 6239TIP3    H218682   5.886   5.333   4.885  0.5367 -0.9560  0.1265
 6240TIP3   OH218683   0.458   1.824   2.769  0.3303 -0.0619 -0.2498
 6240TIP3    H118684   0.510   1.769   2.827  0.0198 -0.2650 -0.1622
 6240TIP3    H218685   0.444   1.905   2.818  0.2223 -0.1631 -0.1117
 6241TIP3   OH218686   6.261   1.133   5.236 -0.2953  0.3577 -0.0526
 6241TIP3    H118687   6.333   1.144   5.298 -0.8741 -2.1934  1.1828
 6241TIP3    H218688   6.305   1.119   5.152  0.9305 -3.6356  1.0631
 6242TIP3   OH218689   6.746   0.800   3.985  0.1941 -0.6749  0.4866
 6242TIP3    H118690   6.685   0.864   3.948 -0.3955 -1.1572  0.6127
 6242TIP3    H218691   6.788   0.759   3.909  1.3663  0.5823  0.4070
 6243TIP3   OH218692   2.334   3.932   1.759  0.4929 -0.0835  0.1582
 6243TIP3    H118693   2.353   4.007   1.816  3.1676  0.4211 -1.2224
 6243TIP3    H218694   2.252   3.955   1.716 -0.6958  0.2961  2.4446
 6244TIP3   OH218695   6.629   1.866   1.543 -0.4548  0.1816  0.1347
 6244TIP3    H118696   6.576   1.897   1.470  0.8032 -0.8756 -1.3029
 6244TIP3    H218697   6.703   1.926   1.547  0.3782 -0.7431 -0.6466
 6245TIP3   OH218698   4.313   6.796   3.394  0.2819  0.3062 -0.1019
 6245TIP3    H118699   4.251   6.832   3.456  0.9635  1.6532 -0.1482
 6245TIP3    H218700   4.260   6.767   3.320 -0.6136 -2.0006  1.3363
 6246TIP3   OH218701   0.576   2.828   3.536 -0.2731 -0.5972 -0.2287
 6246TIP3    H118702   0.491   2.872   3.542 -0.8184 -1.3586 -1.8588
 6246TIP3    H218703   0.607   2.825   3.627 -0.6741  2.1572  0.0961
 6247TIP3   OH218704   3.824   0.744   1.640  0.2720 -0.1758  0.0430
 6247TIP3    H118705   3.798   0.699   1.560 -1.7655  0.4240  0.3267
 6247TIP3    H218706   3.850   0.674   1.700 -2.4601 -1.0257  0.3402
 6248TIP3   OH218707   0.543   1.264   3.169 -0.0330 -0.0979  0.2396
 6248TIP3    H118708   0.560   1.170   3.163  1.2018  0.1536 -0.6158
 6248TIP3    H218709   0.492   1.274   3.250 -0.2996 -1.5037  0.2761
 6249TIP3   OH218710  -0.024   5.528   1.122 -0.3302  0.0460 -0.1382
 6249TIP3    H118711   0.048   5.590   1.137 -1.3588  1.0647  0.7932
 6249TIP3    H218712  -0.019   5.468   1.196 -0.0315 -0.3042 -0.4380
 6250TIP3   OH218713   2.815   5.429   4.420 -0.1905 -0.0127 -0.3662
 6250TIP3    H118714   2.744   5.457   4.477 -0.1951  0.0331 -0.3941
 6250TIP3    H218715   2.877   5.501   4.422  0.7751 -0.8161  1.1836
 6251TIP3   OH218716   5.169   5.597   2.594 -0.3815 -0.0606 -0.0069
 6251TIP3    H118717   5.237   5.541   2.556 -2.0836 -1.5792 -0.9654
 6251TIP3    H218718   5.156   5.563   2.682  0.4468  0.5825  0.3761
 6252TIP3   OH218719   4.637   2.130   4.807  0.0825  0.1304  0.1680
 6252TIP3    H118720   4.698   2.118   4.734  1.3053  0.9153  1.0116
 6252TIP3    H218721   4.693   2.155   4.880 -1.0471 -1.1994  1.5430
 6253TIP3   OH218722   1.408   0.768   5.663 -0.3171  0.2899  0.0073
 6253TIP3    H118723   1.388   0.682   5.700  2.4939 -0.6811 -0.4642
 6253TIP3    H218724   1.384   0.830   5.732 -2.5107 -0.8128  0.3034
 6254TIP3   OH218725   0.225   4.997   0.908  0.5372  0.0422  0.8587
 6254TIP3    H118726   0.256   5.058   0.841 -0.1563  0.2353  0.7064
 6254TIP3    H218727   0.234   5.045   0.990 -1.5992  1.0382  0.5847
 6255TIP3   OH218728   3.862   1.583   0.133 -0.0124  0.0034 -0.0266
 6255TIP3    H118729   3.796   1.515   0.148  0.3542 -0.6285 -1.1924
 6255TIP3    H218730   3.921   1.575   0.208 -0.2105 -0.6756  0.0710
 6256TIP3   OH218731   2.879   0.958   3.314 -0.0894 -0.2974 -0.2145
 6256TIP3    H118732   2.827   0.989   3.388 -0.8901 -4.1880  1.1176
 6256TIP3    H218733   2.815   0.943   3.244  0.4139  1.6519 -1.1680
 6257TIP3   OH218734   5.077   3.414   1.872  0.3722 -0.1562 -0.3085
 6257TIP3    H118735   5.168   3.419   1.844  0.1590  0.0690 -0.9826
 6257TIP3    H218736   5.035   3.359   1.807 -0.6255  2.2388 -1.8257
 6258TIP3   OH218737   3.025   0.531   4.036  0.1043  0.1307 -0.0867
 6258TIP3    H118738   2.936   0.496   4.033  0.5378 -0.9651 -0.4012
 6258TIP3    H218739   3.040   0.566   3.949 -0.3758  1.2602  0.2651
 6259TIP3   OH218740   2.764   3.816   4.424  0.2055  0.6723 -0.1595
 6259TIP3    H118741   2.670   3.822   4.441 -0.0315  0.1380 -1.2108
 6259TIP3    H218742   2.770   3.794   4.331  1.2830 -2.1046  0.4810
 6260TIP3   OH218743   5.004   3.168   4.368 -0.1411 -0.0528  0.2326
 6260TIP3    H118744   5.045   3.182   4.453 -1.6699 -2.9832  1.5967
 6260TIP3    H218745   5.010   3.074   4.354  0.4250  0.3636 -3.1826
 6261TIP3   OH218746   3.474   1.220   4.824 -0.0449  0.1072 -0.2132
 6261TIP3    H118747   3.543   1.170   4.780  0.3708  2.0708 -1.9709
 6261TIP3    H218748   3.393   1.187   4.787  0.0862 -0.6841  0.1971
 6262TIP3   OH218749   0.493   6.589   1.569 -0.1407  0.4257  0.3319
 6262TIP3    H118750   0.585   6.578   1.546  0.5219  0.9401  2.4815
 6262TIP3    H218751   0.491   6.578   1.664 -2.4347 -0.3233  0.2608
 6263TIP3   OH218752   5.072   5.175   3.038 -0.0158 -0.3543  0.3571
 6263TIP3    H118753   5.066   5.199   3.131  0.1208  0.0646  0.2606
 6263TIP3    H218754   5.159   5.204   3.011  0.2225 -1.1353  0.2799
 6264TIP3   OH218755   2.595   3.157   1.413  0.5106 -0.5567 -0.2915
 6264TIP3    H118756   2.500   3.172   1.415  0.0575 -2.7131  2.7811
 6264TIP3    H218757   2.633   3.242   1.435 -0.6699  0.3210 -1.4552
 6265TIP3   OH218758   0.658   0.061   3.011  0.1775  0.3228  0.0977
 6265TIP3    H118759   0.745   0.022   3.019 -0.0198 -0.3993 -1.0452
 6265TIP3    H218760   0.599  -0.013   2.994 -0.6020  0.8507  0.4041
 6266TIP3   OH218761   2.588   0.588   2.733  0.1115 -0.6744  0.3162
 6266TIP3    H118762   2.676   0.614   2.759 -0.2085  0.6017  0.1779
 6266TIP3    H218763   2.530   0.636   2.792 -0.5848  1.3608 -1.8661
 6267TIP3   OH218764   3.497   5.678   4.983 -0.1769  0.1110 -0.4722
 6267TIP3    H118765   3.429   5.745   4.982 -0.3776 -0.0782 -0.1145
 6267TIP3    H218766   3.515   5.659   4.891 -0.4098  0.3620 -0.5696
 6268TIP3   OH218767   1.380   6.723   4.664  0.4143  0.8213 -0.1049
 6268TIP3    H118768   1.314   6.783   4.628 -1.2564 -1.0964 -0.4352
 6268TIP3    H218769   1.408   6.671   4.589  1.1658  0.5918  0.3287
 6269TIP3   OH218770   4.896   0.261   4.760 -0.4353  0.4955  0.0648
 6269TIP3    H118771   4.815   0.312   4.759 -0.0615  1.1078  0.2958
 6269TIP3    H218772   4.914   0.243   4.668 -2.2645 -1.9979  0.1196
 6270TIP3   OH218773   3.017   4.141   4.022 -0.1128  0.3399 -0.2981
 6270TIP3    H118774   3.008   4.160   3.929 -0.5471  0.2835 -0.2682
 6270TIP3    H218775   3.010   4.046   4.028  0.1152  0.3256 -0.2278
 6271TIP3   OH218776   5.299   1.097   4.346 -0.4104  0.1743  0.3077
 6271TIP3    H118777   5.264   1.082   4.434 -0.6803  1.2829  0.4035
 6271TIP3    H218778   5.285   1.190   4.330 -0.2505  0.0118 -0.8697
 6272TIP3   OH218779   7.115   5.419   2.670 -0.0214  0.0843  0.4624
 6272TIP3    H118780   7.061   5.340   2.665 -1.5258  1.0734  0.3716
 6272TIP3    H218781   7.136   5.440   2.579 -1.5281  0.9984  0.2829
 6273TIP3   OH218782   4.130   1.937   1.481 -0.5259  0.1532 -0.0002
 6273TIP3    H118783   4.164   1.859   1.525  0.8637  0.7619  0.0565
 6273TIP3    H218784   4.063   1.970   1.541 -1.1873 -1.0177 -0.0560
 6274TIP3   OH218785   7.078   1.408   4.711 -0.6270  0.4615  0.0691
 6274TIP3    H118786   7.143   1.345   4.680 -0.3146  1.5504 -1.6177
 6274TIP3    H218787   7.121   1.453   4.784 -0.8324 -1.1759  1.2449
 6275TIP3   OH218788   4.162   1.137   2.719  0.0932 -0.0758 -0.1981
 6275TIP3    H118789   4.136   1.215   2.769  1.4111 -1.2832  2.6170
 6275TIP3    H218790   4.223   1.091   2.777  0.8962 -2.2291 -2.5609
 6276TIP3   OH218791   4.180   3.180   0.378 -0.0476  0.4179  0.0809
 6276TIP3    H118792   4.171   3.085   0.370  0.5192  0.3548  0.2116
 6276TIP3    H218793   4.091   3.211   0.395 -0.5101  0.0596 -1.4875
 6277TIP3   OH218794   0.841   6.039   5.179  0.5767 -0.0767  0.0327
 6277TIP3    H118795   0.858   5.955   5.137 -0.4453 -0.8005  1.0022
 6277TIP3    H218796   0.893   6.036   5.260  0.0190 -0.0686  0.3989
 6278TIP3   OH218797   1.462   3.074   4.188 -0.1722 -0.1448  0.2383
 6278TIP3    H118798   1.427   3.026   4.263 -0.7146  1.6899  1.2333
 6278TIP3    H218799   1.465   3.010   4.117 -3.3294 -1.0182  0.7437
 6279TIP3   OH218800   2.307   4.259   4.986  0.0594  0.1165  0.0734
 6279TIP3    H118801   2.286   4.181   4.934  2.0200 -1.1577  1.0802
 6279TIP3    H218802   2.288   4.332   4.928 -0.9159 -1.1381 -1.2609
 6280TIP3   OH218803   2.607   5.851   1.387 -1.1607 -0.6121 -0.1917
 6280TIP3    H118804   2.630   5.859   1.480 -0.9301  0.1863 -0.3076
 6280TIP3    H218805   2.690   5.828   1.344 -1.2274 -0.7905 -0.2258
 6281TIP3   OH218806   2.154   3.448   1.420  0.2718  0.2660 -0.0608
 6281TIP3    H118807   2.128   3.508   1.489  0.0481 -0.4859  0.5197
 6281TIP3    H218808   2.073   3.430   1.372 -0.0564 -1.0442  0.9375
 6282TIP3   OH218809   4.543   2.409   1.473  0.2481 -0.5009  0.0175
 6282TIP3    H118810   4.533   2.476   1.405  1.7200  0.5749  0.8093
 6282TIP3    H218811   4.577   2.456   1.549  1.6067 -2.1642  0.5252
 6283TIP3   OH218812   3.064   4.917   2.041 -0.4435 -0.0537 -0.1823
 6283TIP3    H118813   3.156   4.893   2.026  0.1168  1.0637  1.1566
 6283TIP3    H218814   3.059   5.009   2.014 -1.9202 -0.8233 -2.9044
 6284TIP3   OH218815   4.414   2.264   0.151 -0.4275  0.4044 -0.8529
 6284TIP3    H118816   4.507   2.260   0.126 -0.6274  0.3292 -1.5912
 6284TIP3    H218817   4.397   2.179   0.191 -0.3759  0.1252 -1.4208
 6285TIP3   OH218818   2.087   5.647   0.435  0.2930 -0.0851 -0.1788
 6285TIP3    H118819   1.999   5.679   0.419  0.1113 -0.2675  0.4147
 6285TIP3    H218820   2.076   5.580   0.502  0.7139 -1.1347 -1.1390
 6286TIP3   OH218821   2.919   5.514   3.220 -0.1731 -0.4858  0.2464
 6286TIP3    H118822   2.905   5.440   3.278 -0.3963  1.0565  2.2970
 6286TIP3    H218823   2.999   5.493   3.172 -0.3743 -2.1404  0.5982
 6287TIP3   OH218824   2.137   4.144   5.348  0.2651  0.6057 -0.2042
 6287TIP3    H118825   2.108   4.055   5.369  0.3872  0.8938  1.2897
 6287TIP3    H218826   2.229   4.134   5.322  1.2068  0.5587  2.7662
 6288TIP3   OH218827   3.133   5.647   4.189 -0.1316 -0.3232 -0.0611
 6288TIP3    H118828   3.192   5.718   4.162 -0.0028 -1.3336 -2.7998
 6288TIP3    H218829   3.089   5.621   4.108 -1.8460 -1.8854  1.2803
 6289TIP3   OH218830   2.849   3.043   4.290  0.3287 -0.2101  0.6101
 6289TIP3    H118831   2.896   2.983   4.233  1.6396  2.3428 -1.2238
 6289TIP3    H218832   2.896   3.039   4.374  1.3137 -0.6133  0.0460
 6290TIP3   OH218833   3.164   1.898   0.078  0.1249  0.6584  0.0939
 6290TIP3    H118834   3.168   1.976   0.133  1.0402  1.0821 -0.5421
 6290TIP3    H218835   3.136   1.931  -0.008 -0.3125  0.1595  0.0409
 6291TIP3   OH218836   6.014   0.205   5.129 -0.0122  0.3084  0.1178
 6291TIP3    H118837   6.020   0.132   5.191 -0.0058  0.6214  0.4854
 6291TIP3    H218838   5.923   0.235   5.136 -0.2245 -0.1374 -0.5792
 6292TIP3   OH218839   4.983   3.581   1.495  0.1123  0.3959  0.1908
 6292TIP3    H118840   4.909   3.588   1.434 -0.7862  0.3257  1.2370
 6292TIP3    H218841   4.988   3.488   1.516  0.3131  0.4427  0.3493
 6293TIP3   OH218842   2.803   4.925   2.226 -0.5785 -0.2381 -1.2322
 6293TIP3    H118843   2.811   4.830   2.222 -1.1679 -0.4089  0.7260
 6293TIP3    H218844   2.884   4.955   2.266 -0.5839  0.0455 -1.4289
 6294TIP3   OH218845   4.856   3.058   2.310  0.8265 -0.1837 -0.2873
 6294TIP3    H118846   4.890   3.035   2.224  0.1338 -0.8875 -0.3811
 6294TIP3    H218847   4.931   3.049   2.369  1.4254  0.8006 -0.8929
 6295TIP3   OH218848   3.413   4.055   3.553  1.0072  0.1980 -0.1019
 6295TIP3    H118849   3.481   4.051   3.620  1.0470 -0.2954 -0.1717
 6295TIP3    H218850   3.340   4.101   3.596  1.0995  0.0506  0.2158
 6296TIP3   OH218851   4.871   1.250   1.334  0.0668 -0.0156 -0.0993
 6296TIP3    H118852   4.931   1.307   1.381 -0.3228 -0.1114  0.5246
 6296TIP3    H218853   4.867   1.287   1.245  0.0649  0.7328  0.2093
 6297TIP3   OH218854   4.336   1.898   3.576 -0.2795 -0.1979 -0.0775
 6297TIP3    H118855   4.247   1.868   3.558 -0.2127 -0.9318  0.7737
 6297TIP3    H218856   4.337   1.919   3.669  0.4999 -0.4443 -0.0166
 6298TIP3   OH218857   5.646   3.682   1.523 -0.0244  0.0041 -0.0457
 6298TIP3    H118858   5.599   3.634   1.455  0.4070 -0.3573 -0.0919
 6298TIP3    H218859   5.729   3.636   1.532  0.9885  1.5284 -1.0806
 6299TIP3   OH218860   0.228   2.929   0.353  0.0448  0.0962  0.5159
 6299TIP3    H118861   0.144   2.922   0.399 -0.1534 -0.4303  0.0845
 6299TIP3    H218862   0.294   2.913   0.421 -0.2568 -0.9573  0.5834
 6300TIP3   OH218863   6.867   2.687   5.353  0.5279  0.0966 -0.3207
 6300TIP3    H118864   6.815   2.653   5.280  1.0524 -1.3877 -0.0363
 6300TIP3    H218865   6.927   2.616   5.375  0.7693  0.7203  1.1896
 6301TIP3   OH218866   1.188   5.136   2.407 -0.0322 -0.0049 -0.1620
 6301TIP3    H118867   1.277   5.141   2.370 -0.2400  1.8510 -0.5037
 6301TIP3    H218868   1.181   5.214   2.461 -0.8340 -1.0988  1.3783
 6302TIP3   OH218869   2.684   5.351   3.783  0.0979 -0.4453 -0.0995
 6302TIP3    H118870   2.658   5.338   3.874 -0.7278 -0.6904 -0.3600
 6302TIP3    H218871   2.605   5.384   3.740  0.1745 -1.3076 -0.9347
 6303TIP3   OH218872   6.411   3.407   4.965  0.2538  0.1334  0.3491
 6303TIP3    H118873   6.422   3.370   4.877 -0.4581 -0.0697  0.3366
 6303TIP3    H218874   6.392   3.500   4.949  0.5177  0.1809  0.3089
 6304TIP3   OH218875   5.237   2.257   2.688 -0.2141 -0.2477 -0.0026
 6304TIP3    H118876   5.195   2.343   2.698 -1.5895 -0.6947 -1.4060
 6304TIP3    H218877   5.192   2.218   2.612  2.1302 -1.1765 -0.9946
 6305TIP3   OH218878   0.733   5.046   1.926  0.0366  0.1217 -0.4206
 6305TIP3    H118879   0.788   5.124   1.924 -1.1380  1.0684  1.2514
 6305TIP3    H218880   0.793   4.973   1.911  1.2283  1.2887 -1.6511
 6306TIP3   OH218881   7.021   2.124   4.038  0.2910  0.2050  0.0973
 6306TIP3    H118882   6.932   2.125   4.073  0.4235  1.1318  0.4261
 6306TIP3    H218883   7.063   2.201   4.075  0.5763  0.9952 -1.7485
 6307TIP3   OH218884   2.255   0.549   4.871 -0.3350 -0.2389  0.1828
 6307TIP3    H118885   2.227   0.631   4.911 -0.5005 -0.5820  0.7878
 6307TIP3    H218886   2.229   0.482   4.934 -0.9423 -0.8352 -0.6716
 6308TIP3   OH218887   0.117   1.958   0.370 -0.4206 -0.4614 -0.1418
 6308TIP3    H118888   0.033   2.001   0.385 -0.3956 -0.4089 -0.1532
 6308TIP3    H218889   0.154   1.948   0.458  0.3461  1.0859 -0.2606
 6309TIP3   OH218890   5.363   6.616   2.952 -0.1666 -0.2781 -0.1433
 6309TIP3    H118891   5.274   6.619   2.916  0.1943  0.6698 -1.0116
 6309TIP3    H218892   5.390   6.525   2.941 -0.9740 -0.5400 -0.0133
 6310TIP3   OH218893   0.718   0.776   0.233  0.1596  0.4182  0.4516
 6310TIP3    H118894   0.781   0.842   0.205  0.1842  0.4380  0.5526
 6310TIP3    H218895   0.654   0.772   0.162 -0.3026  1.1572  0.8065
 6311TIP3   OH218896   4.202   2.768   0.633  0.1792  0.1953 -0.1582
 6311TIP3    H118897   4.283   2.732   0.669  1.2081 -0.5374 -2.9600
 6311TIP3    H218898   4.212   2.863   0.645  0.1844 -0.0166  1.8939
 6312TIP3   OH218899   5.625   1.275   1.845  0.2936 -0.2873 -0.1253
 6312TIP3    H118900   5.679   1.196   1.855  1.7291  0.6097 -0.5017
 6312TIP3    H218901   5.565   1.254   1.774 -0.9295 -1.8480  1.2656
 6313TIP3   OH218902   1.773   0.855   4.433  0.1994  0.0255 -0.2702
 6313TIP3    H118903   1.752   0.935   4.385  0.4552  0.5466  0.4658
 6313TIP3    H218904   1.707   0.851   4.502 -0.5618 -1.0605 -1.0225
 6314TIP3   OH218905   0.897   4.639   2.868 -0.4162  0.2130  0.3152
 6314TIP3    H118906   0.871   4.600   2.785 -0.4380  1.7378 -0.4384
 6314TIP3    H218907   0.830   4.705   2.886  0.3858  0.9419  0.7513
 6315TIP3   OH218908   3.826   0.225   1.061  0.3314 -0.8111  0.0727
 6315TIP3    H118909   3.815   0.320   1.057 -0.6432 -0.8887  0.6195
 6315TIP3    H218910   3.813   0.196   0.971 -1.6691 -0.6280  0.2565
 6316TIP3   OH218911   3.795   3.475   1.334  0.0116 -1.0345  0.0703
 6316TIP3    H118912   3.794   3.433   1.248 -1.7372  0.1521 -0.5475
 6316TIP3    H218913   3.826   3.406   1.394  1.3090 -1.8670 -1.4859
 6317TIP3   OH218914   2.639   2.751   2.157  0.0710  0.0243  0.6757
 6317TIP3    H118915   2.662   2.673   2.208 -0.1493 -0.0233  0.7050
 6317TIP3    H218916   2.647   2.823   2.218 -1.4166 -0.1706  1.1388
 6318TIP3   OH218917   2.620   4.709   3.535 -0.1428 -0.3775  0.1410
 6318TIP3    H118918   2.528   4.730   3.549 -0.2758 -1.0975  0.3959
 6318TIP3    H218919   2.620   4.617   3.511  0.4407 -0.1546 -0.7366
 6319TIP3   OH218920   0.302   5.665   3.580  0.0411 -0.1184  0.1013
 6319TIP3    H118921   0.272   5.718   3.653  2.6200 -0.0369  1.2281
 6319TIP3    H218922   0.269   5.577   3.598  1.9644 -0.4808  2.3823
 6320TIP3   OH218923   5.988   4.414   0.113 -0.2213  0.7946 -0.3422
 6320TIP3    H118924   5.982   4.398   0.207 -0.2305 -0.8058 -0.5929
 6320TIP3    H218925   6.070   4.464   0.103 -0.2244  0.9901  0.5063
 6321TIP3   OH218926   4.848   6.182   2.881 -0.4144 -0.0826  0.3464
 6321TIP3    H118927   4.918   6.228   2.835 -0.0935  0.7520  1.5912
 6321TIP3    H218928   4.828   6.106   2.826  1.3763 -0.2732 -0.1080
 6322TIP3   OH218929   4.116   2.851   3.561  0.2048  0.4834  0.3230
 6322TIP3    H118930   4.207   2.861   3.588  0.3488  1.5514 -0.5143
 6322TIP3    H218931   4.091   2.936   3.524 -1.0097  0.0909  0.1723
 6323TIP3   OH218932   1.874   4.234   4.902 -0.2459  0.2717  0.3847
 6323TIP3    H118933   1.924   4.207   4.978 -0.0018 -0.1034  0.0973
 6323TIP3    H218934   1.909   4.182   4.830 -1.7771 -0.8070  0.3706
 6324TIP3   OH218935   0.764   4.378   2.271  0.6477  0.1497  0.0779
 6324TIP3    H118936   0.733   4.460   2.232 -0.2131 -0.0768  0.2589
 6324TIP3    H218937   0.859   4.388   2.276  0.6096  0.8788 -0.4809
 6325TIP3   OH218938   4.966   5.436   1.256  0.0236 -0.3185 -0.1480
 6325TIP3    H118939   4.899   5.367   1.261  0.2356 -0.5427 -0.3579
 6325TIP3    H218940   4.969   5.460   1.163 -0.4719  0.3990  0.0172
 6326TIP3   OH218941   2.454   5.223   2.280  0.0876  0.1164 -0.1723
 6326TIP3    H118942   2.545   5.237   2.305 -0.0308 -0.2423  0.4693
 6326TIP3    H218943   2.448   5.129   2.262 -0.2592  0.0635  0.2119
 6327TIP3   OH218944   6.563   4.625   4.120 -0.1788  0.3116 -0.5235
 6327TIP3    H118945   6.564   4.530   4.111  3.3385  0.3095 -1.6814
 6327TIP3    H218946   6.503   4.654   4.052  0.0981 -1.0465 -1.3979
 6328TIP3   OH218947   0.985   5.717   0.707 -0.1260 -0.1799  0.7596
 6328TIP3    H118948   0.983   5.626   0.737  2.7673 -0.3365  0.7412
 6328TIP3    H218949   1.044   5.761   0.769 -2.0760  1.9260  1.2516
 6329TIP3   OH218950   1.158   3.683   1.787  0.7242 -0.0263  0.7056
 6329TIP3    H118951   1.116   3.689   1.873  0.7990  0.7723  0.6996
 6329TIP3    H218952   1.216   3.607   1.793  1.9059  0.9231  1.8907
 6330TIP3   OH218953   5.265   1.420   0.545  0.1813  1.0452  0.2038
 6330TIP3    H118954   5.235   1.492   0.490  1.6210  0.7176 -1.0645
 6330TIP3    H218955   5.360   1.423   0.539  0.3158 -0.0667  1.3223
 6331TIP3   OH218956   3.731   0.460   0.917  0.3190 -0.7168  0.0545
 6331TIP3    H118957   3.714   0.549   0.888 -0.1986 -0.3427  1.4522
 6331TIP3    H218958   3.760   0.414   0.838  1.5756  0.9228 -0.5020
 6332TIP3   OH218959   3.688   6.762   0.163 -0.5639 -0.3447  0.2085
 6332TIP3    H118960   3.644   6.736   0.243  0.2376 -0.8661  0.4971
 6332TIP3    H218961   3.619   6.767   0.097 -1.3188  0.5975  1.0302
 6333TIP3   OH218962   5.338   5.487   5.014 -0.0681  0.2269  0.9520
 6333TIP3    H118963   5.357   5.578   4.992  0.5162 -0.6071 -2.7278
 6333TIP3    H218964   5.244   5.486   5.033 -0.1150  1.5742  0.8970
 6334TIP3   OH218965   0.490   2.948   0.378 -0.4766 -0.2393  0.0022
 6334TIP3    H118966   0.560   2.990   0.428 -0.7572 -0.5266  0.6573
 6334TIP3    H218967   0.455   3.018   0.322  2.1909 -0.7576 -2.5014
 6335TIP3   OH218968   6.449   1.886   0.740 -0.7449  0.4272 -0.2731
 6335TIP3    H118969   6.506   1.940   0.685 -0.7861  0.5738 -0.1740
 6335TIP3    H218970   6.384   1.947   0.774 -2.1185 -0.0673 -1.8959
 6336TIP3   OH218971   6.600   2.404   2.777 -0.3244 -0.1460 -0.5414
 6336TIP3    H118972   6.645   2.394   2.861 -1.5225 -0.2904  0.1123
 6336TIP3    H218973   6.574   2.496   2.775 -0.6274 -0.2309 -0.5765
 6337TIP3   OH218974   1.105   3.988   4.261 -0.1518  0.7446  0.2599
 6337TIP3    H118975   1.036   4.022   4.319 -0.4798 -0.8779  0.8675
 6337TIP3    H218976   1.057   3.952   4.186  0.0147 -0.3287  0.6533
 6338TIP3   OH218977   6.051   6.791   1.638 -0.2049  0.0310  0.1592
 6338TIP3    H118978   6.033   6.699   1.657  0.8108 -0.7228 -2.2091
 6338TIP3    H218979   6.046   6.834   1.723  3.3032 -2.8746  2.1283
 6339TIP3   OH218980   0.083   3.847   0.711  0.0078  0.4168  0.6064
 6339TIP3    H118981   0.059   3.796   0.789  1.8723 -0.1749  0.8652
 6339TIP3    H218982   0.005   3.845   0.656  0.6601 -5.3545 -0.7721
 6340TIP3   OH218983   6.379   4.620   5.091 -0.3153  0.1602  0.4584
 6340TIP3    H118984   6.404   4.546   5.036  2.5200  0.0440  1.7446
 6340TIP3    H218985   6.410   4.698   5.044  0.1047  0.2221  0.8244
 6341TIP3   OH218986   3.141   3.275   3.839 -0.0780  0.2662 -0.7353
 6341TIP3    H118987   3.133   3.244   3.929 -1.8412  0.5548 -0.7561
 6341TIP3    H218988   3.051   3.288   3.810  0.4583  0.3384 -2.4958
 6342TIP3   OH218989   6.810   3.539   2.375 -0.0483  0.1992 -0.5857
 6342TIP3    H118990   6.866   3.500   2.442 -1.1277 -0.6311 -0.1377
 6342TIP3    H218991   6.752   3.468   2.347 -1.0473  1.0926 -0.8486
 6343TIP3   OH218992   5.870   2.402   4.125  0.4961 -0.1695  0.0887
 6343TIP3    H118993   5.905   2.316   4.147 -0.1891 -0.6439 -0.6184
 6343TIP3    H218994   5.899   2.459   4.196  0.1548 -1.1913  1.0723
 6344TIP3   OH218995   2.647   0.275   5.475 -0.8953  0.2591 -0.1788
 6344TIP3    H118996   2.629   0.220   5.399  1.1076  0.2177 -0.6689
 6344TIP3    H218997   2.742   0.275   5.483 -1.0036  1.2134  1.6410
 6345TIP3   OH218998   1.668   4.869   1.704 -0.0605  0.3558 -0.2532
 6345TIP3    H118999   1.589   4.881   1.757 -1.0499  0.6968 -1.7579
 6345TIP3    H219000   1.739   4.900   1.761 -1.0206  0.3529  1.0065
 6346TIP3   OH219001   1.169   1.533   3.728  0.4600 -0.0566 -0.0407
 6346TIP3    H119002   1.132   1.523   3.640  0.4752 -1.3428  0.0699
 6346TIP3    H219003   1.177   1.627   3.740 -0.1636  0.1659 -1.1586
 6347TIP3   OH219004   6.832   0.752   0.517  0.0868 -0.2123 -0.5329
 6347TIP3    H119005   6.925   0.741   0.500  0.0407  0.1712 -1.0793
 6347TIP3    H219006   6.791   0.740   0.431 -0.2508  0.8239 -0.5322
 6348TIP3   OH219007   1.465   6.704   0.602  0.2613 -0.3118  0.2733
 6348TIP3    H119008   1.528   6.776   0.598 -1.2117  0.9587 -2.3520
 6348TIP3    H219009   1.509   6.631   0.558  0.9144 -0.3574  0.9695
 6349TIP3   OH219010  -0.014   1.026   1.376 -0.1363 -0.1993 -0.3136
 6349TIP3    H119011   0.069   1.072   1.374 -1.2854  2.4890  3.1169
 6349TIP3    H219012  -0.005   0.963   1.448 -1.6531  1.8655  1.8581
 6350TIP3   OH219013   4.306   4.936   2.553  0.3761  0.1549 -0.5402
 6350TIP3    H119014   4.288   4.874   2.624 -1.7716 -0.0650 -1.2119
 6350TIP3    H219015   4.369   4.998   2.591  0.5402 -0.9000  1.0050
 6351TIP3   OH219016   1.717   3.746   2.776 -0.6427 -0.2365  0.3364
 6351TIP3    H119017   1.740   3.664   2.735 -1.1254 -0.1557 -0.1020
 6351TIP3    H219018   1.722   3.728   2.870 -2.3823 -1.2546  0.2774
 6352TIP3   OH219019   4.315   5.309   5.120  0.3686  0.2637  0.4251
 6352TIP3    H119020   4.301   5.258   5.040  0.1807  0.1310  0.5407
 6352TIP3    H219021   4.291   5.398   5.096 -1.2784 -0.0528  0.7707
 6353TIP3   OH219022   2.656   1.675   5.418 -0.5575 -0.0280 -0.1906
 6353TIP3    H119023   2.697   1.755   5.451  0.7092 -0.1303 -1.4098
 6353TIP3    H219024   2.603   1.644   5.491 -0.2573  1.3649  0.6655
 6354TIP3   OH219025   4.487   2.059   3.372 -0.3412 -0.2896 -0.2030
 6354TIP3    H119026   4.575   2.082   3.403 -1.0917  3.5022 -0.4365
 6354TIP3    H219027   4.443   2.024   3.449  0.1541  1.7391  1.0641
 6355TIP3   OH219028   3.526   4.897   3.240 -0.3921 -0.0206 -0.3252
 6355TIP3    H119029   3.617   4.905   3.266 -0.5559  0.9422 -0.0329
 6355TIP3    H219030   3.496   4.987   3.227 -1.0097 -0.3771 -1.4359
 6356TIP3   OH219031   0.931   3.780   4.635  0.2482  0.1343  0.0379
 6356TIP3    H119032   0.855   3.826   4.599  0.6046  0.6198 -0.0930
 6356TIP3    H219033   0.987   3.849   4.670  0.0977 -0.2953  1.1793
 6357TIP3   OH219034   0.036   6.081   3.734  0.2406 -0.6174  0.0444
 6357TIP3    H119035   0.003   6.171   3.737  2.4172  0.2201  1.8074
 6357TIP3    H219036   0.053   6.065   3.642 -1.1465  0.3736 -0.4271
 6358TIP3   OH219037   6.268   0.417   0.704  0.2702  0.0358 -0.6054
 6358TIP3    H119038   6.227   0.333   0.720  1.2467 -0.3046  0.1822
 6358TIP3    H219039   6.306   0.408   0.617 -1.0263  0.2586 -1.2260
 6359TIP3   OH219040   6.595   0.131   2.545  0.1863  0.0766  0.1157
 6359TIP3    H119041   6.634   0.182   2.474  0.6090  1.2764  1.1716
 6359TIP3    H219042   6.565   0.196   2.608  0.0171 -0.9617  1.1433
 6360TIP3   OH219043   5.008   0.685   4.740  0.2132 -0.4306 -0.0994
 6360TIP3    H119044   5.038   0.611   4.686  1.7636 -1.6321  2.2505
 6360TIP3    H219045   4.958   0.645   4.810  2.4270  0.4675  2.1489
 6361TIP3   OH219046   6.471   0.063   1.581  0.1098  0.5093  0.4124
 6361TIP3    H119047   6.514   0.035   1.500  0.0170 -0.7734  0.7755
 6361TIP3    H219048   6.526   0.133   1.615 -0.9774  2.6264 -1.8300
 6362TIP3   OH219049   1.976   6.221   4.643 -0.1252 -0.0901  0.2267
 6362TIP3    H119050   2.069   6.207   4.661  0.4254  2.4651 -0.3582
 6362TIP3    H219051   1.937   6.237   4.729  0.3944  0.9073  0.2872
 6363TIP3   OH219052   1.571   5.825   1.590 -0.2675  0.2713  0.4156
 6363TIP3    H119053   1.566   5.757   1.524 -0.4961 -0.2428  0.9555
 6363TIP3    H219054   1.665   5.836   1.606 -0.2455 -0.3498  0.7582
 6364TIP3   OH219055   6.368   3.943   3.346  0.0722  0.0531 -0.2542
 6364TIP3    H119056   6.302   3.875   3.357  0.5002 -0.1695  1.2115
 6364TIP3    H219057   6.451   3.899   3.363  0.3972  0.8236  0.2452
 6365TIP3   OH219058   6.783   1.134   0.083 -0.2140  0.2194 -0.2512
 6365TIP3    H119059   6.710   1.180   0.124  0.0286  0.0943  0.3234
 6365TIP3    H219060   6.813   1.195   0.015  0.7486  1.3995  1.1553
 6366TIP3   OH219061   0.882   4.691   0.059 -0.7894 -0.1861 -0.5507
 6366TIP3    H119062   0.806   4.723   0.108 -0.5101 -0.8581  0.3358
 6366TIP3    H219063   0.919   4.770   0.019 -1.2009  0.3319  0.0682
 6367TIP3   OH219064   0.027   3.419   0.605  0.7468 -0.5738  0.0469
 6367TIP3    H119065  -0.002   3.332   0.632 -0.4414 -0.4724 -0.8125
 6367TIP3    H219066   0.022   3.417   0.509 -1.8639  1.2481  0.0505
 6368TIP3   OH219067   6.562   6.679   4.339  0.1385 -0.8269 -0.0226
 6368TIP3    H119068   6.491   6.735   4.370  0.2786 -0.1248 -0.9282
 6368TIP3    H219069   6.616   6.662   4.416 -0.1633 -0.0911  0.3522
 6369TIP3   OH219070   3.796   4.825   2.598 -0.1540  0.4241  0.2911
 6369TIP3    H119071   3.843   4.883   2.658  0.4532  0.1359  0.1050
 6369TIP3    H219072   3.775   4.748   2.651  0.9407 -0.1094  0.0015
 6370TIP3   OH219073   1.521   6.002   3.052  0.2596  0.3658 -0.4280
 6370TIP3    H119074   1.537   5.908   3.044 -0.4906  0.0498  1.3538
 6370TIP3    H219075   1.429   6.009   3.076  0.4629  1.5118  0.1031
 6371TIP3   OH219076   5.511   5.282   3.648  0.9125 -0.6960 -0.2167
 6371TIP3    H119077   5.465   5.236   3.718  0.2425  0.7600  0.3328
 6371TIP3    H219078   5.528   5.369   3.683 -0.3089  0.4120 -2.2076
 6372TIP3   OH219079   6.358   3.836   3.758  0.7513 -0.8860 -0.2488
 6372TIP3    H119080   6.279   3.784   3.774  0.5989 -0.5641  0.0607
 6372TIP3    H219081   6.424   3.772   3.732  1.4054 -1.6843  2.8990
 6373TIP3   OH219082   2.521   5.006   3.446 -0.2859  0.2159  0.9372
 6373TIP3    H119083   2.460   4.939   3.475 -0.3815  0.5364  1.4974
 6373TIP3    H219084   2.543   5.054   3.526 -2.7486  2.9809  0.1413
 6374TIP3   OH219085   5.247   1.440   2.593  0.0754  0.0453  0.0829
 6374TIP3    H119086   5.255   1.469   2.502 -0.1199  0.0650  0.0711
 6374TIP3    H219087   5.162   1.396   2.597  0.0183  0.1694  0.2884
 6375TIP3   OH219088   5.886   4.874   1.505  0.4998 -0.7002 -0.0198
 6375TIP3    H119089   5.865   4.932   1.432 -1.8637 -1.7525 -0.2539
 6375TIP3    H219090   5.830   4.797   1.493  1.3121 -1.6968  1.9535
 6376TIP3   OH219091   0.153   3.966   5.009  0.3591 -0.0199  0.0315
 6376TIP3    H119092   0.157   3.963   5.105  1.2839 -0.9814 -0.0165
 6376TIP3    H219093   0.069   3.925   4.988  0.1109  0.2736  0.4317
 6377TIP3   OH219094   6.884   4.698   5.200  0.2071  0.2556 -0.1850
 6377TIP3    H119095   6.812   4.645   5.235 -0.5800  0.0212 -2.0081
 6377TIP3    H219096   6.958   4.680   5.258 -0.9236 -0.2815  1.1559
 6378TIP3   OH219097   6.401   0.071   3.413 -0.7135 -0.5151  0.0038
 6378TIP3    H119098   6.409  -0.023   3.428  0.1118 -0.5127 -0.3823
 6378TIP3    H219099   6.378   0.107   3.499 -1.2183 -1.0811  0.1165
 6379TIP3   OH219100   5.282   3.153   3.767  0.4079 -0.2200 -0.1214
 6379TIP3    H119101   5.220   3.117   3.830  0.0714  2.1540  1.0451
 6379TIP3    H219102   5.229   3.213   3.714  0.6685 -2.2066 -2.8056
 6380TIP3   OH219103   4.074   3.945   2.428 -0.3547 -0.1758 -0.4487
 6380TIP3    H119104   4.040   3.929   2.340 -0.3314 -0.7844 -0.3500
 6380TIP3    H219105   4.078   3.858   2.468  0.3710  0.0111 -0.1119
 6381TIP3   OH219106   2.995   2.646   4.067 -0.5681  0.2149  0.4615
 6381TIP3    H119107   3.052   2.610   4.134  2.4426  2.6574 -0.5451
 6381TIP3    H219108   3.018   2.597   3.987 -0.1094  0.9719  0.1209
 6382TIP3   OH219109   4.767   1.677   3.953  0.2496 -0.3314  0.4045
 6382TIP3    H119110   4.699   1.617   3.923 -0.2340 -0.2580  1.3154
 6382TIP3    H219111   4.824   1.689   3.877 -0.8513 -0.2510 -0.4330
 6383TIP3   OH219112   1.079   3.009   0.669  0.4758 -0.4177  0.1048
 6383TIP3    H119113   1.008   2.986   0.729  0.1137 -1.5946 -0.7295
 6383TIP3    H219114   1.144   2.940   0.682  0.3171 -0.7875 -0.9483
 6384TIP3   OH219115   1.363   0.111   5.156  0.0243  0.0810  0.2457
 6384TIP3    H119116   1.365   0.186   5.097 -0.7074  0.2853  0.4716
 6384TIP3    H219117   1.270   0.090   5.165  0.2067 -0.6623  0.4218
 6385TIP3   OH219118   5.741   2.691   4.094  0.4670 -0.5042  0.1983
 6385TIP3    H119119   5.675   2.760   4.099  0.1513 -0.6959 -0.8860
 6385TIP3    H219120   5.713   2.625   4.157 -0.4787 -0.6433 -0.3461
 6386TIP3   OH219121   2.659   3.868   1.893 -0.3310  0.0956 -0.7700
 6386TIP3    H119122   2.686   3.893   1.981 -0.4599  0.2001 -0.7595
 6386TIP3    H219123   2.723   3.802   1.866  0.9620  1.5796 -1.4206
 6387TIP3   OH219124   3.911   6.206   4.709  0.3537  0.1036  0.0573
 6387TIP3    H119125   3.916   6.164   4.794 -1.8556 -1.1608 -0.3602
 6387TIP3    H219126   3.926   6.135   4.646  0.6631  0.7669 -0.6386
 6388TIP3   OH219127   0.709   6.115   0.565  0.6664 -0.3808  0.0550
 6388TIP3    H119128   0.619   6.129   0.536  0.1918  1.6055  2.2279
 6388TIP3    H219129   0.705   6.036   0.619  0.7155 -1.5347 -1.5468
 6389TIP3   OH219130   3.885   4.429   2.010  0.2140 -0.1440 -0.0333
 6389TIP3    H119131   3.908   4.397   2.097 -3.8427 -1.9216  0.6258
 6389TIP3    H219132   3.893   4.525   2.017  0.6853 -0.2972  2.0615
 6390TIP3   OH219133   6.077   3.760   0.178 -0.0567 -0.1058 -0.0342
 6390TIP3    H119134   6.049   3.757   0.086  1.3562  3.0854 -0.7133
 6390TIP3    H219135   5.996   3.749   0.228 -1.1836  0.1097 -1.7246
 6391TIP3   OH219136   1.392   6.011   1.664 -0.7922 -0.1695 -0.5874
 6391TIP3    H119137   1.429   6.098   1.650  1.2721 -0.9097 -0.0278
 6391TIP3    H219138   1.459   5.951   1.632 -1.3611 -1.5920  0.7534
 6392TIP3   OH219139   2.346   0.049   2.549 -0.2463 -0.0121 -0.0542
 6392TIP3    H119140   2.368   0.135   2.513  0.0641 -1.0194 -2.5019
 6392TIP3    H219141   2.400   0.041   2.627  0.6280  1.5438 -0.4566
 6393TIP3   OH219142   4.191   5.087   0.655  0.4330  0.3159 -0.7848
 6393TIP3    H119143   4.287   5.093   0.654  0.6423 -2.2041 -1.4467
 6393TIP3    H219144   4.170   5.032   0.579 -1.2168 -2.4893  1.5205
 6394TIP3   OH219145   2.920   6.374   4.633 -0.7916  0.0290 -0.2766
 6394TIP3    H119146   2.949   6.287   4.605 -0.8760 -0.2873  0.6174
 6394TIP3    H219147   3.000   6.420   4.657 -0.8692 -0.2952  0.6303
 6395TIP3   OH219148   2.023   0.522   0.417 -0.3929 -0.1386  0.2580
 6395TIP3    H119149   1.941   0.477   0.439 -0.4358  0.1801  0.7407
 6395TIP3    H219150   2.042   0.577   0.493 -1.2375  1.9808 -0.9817
 6396TIP3   OH219151   3.178   0.030   4.299  0.0678 -0.0038  0.0580
 6396TIP3    H119152   3.199   0.119   4.325  2.0020 -0.1933 -0.7397
 6396TIP3    H219153   3.092   0.037   4.257 -0.5358  1.1931  1.4151
 6397TIP3   OH219154   6.435   0.331   2.671 -0.3926 -0.3598 -0.6937
 6397TIP3    H119155   6.386   0.405   2.706 -0.1170 -0.0021 -1.0499
 6397TIP3    H219156   6.403   0.255   2.720  0.4159  0.2072  0.7738
 6398TIP3   OH219157   1.390   4.881   1.819  0.5160 -0.4885  0.0592
 6398TIP3    H119158   1.370   4.789   1.835  0.4561 -1.2203 -3.4346
 6398TIP3    H219159   1.306   4.920   1.797  0.8301 -0.0907 -0.4539
 6399TIP3   OH219160   1.615   4.297   0.845 -0.0095 -0.5064 -0.0006
 6399TIP3    H119161   1.709   4.312   0.838 -0.1325  0.2789 -0.1141
 6399TIP3    H219162   1.575   4.377   0.810 -0.6912  0.1855  2.1609
 6400TIP3   OH219163   1.924   2.471   3.074  0.4132 -0.3521  0.2839
 6400TIP3    H119164   1.950   2.401   3.134  2.8320  0.2196 -0.0228
 6400TIP3    H219165   1.887   2.539   3.130  1.1691 -0.4901  0.9575
 6401TIP3   OH219166   2.649   5.445   5.788  0.6514  0.0414 -0.3415
 6401TIP3    H119167   2.663   5.478   5.699  1.6289 -0.0565 -0.2323
 6401TIP3    H219168   2.647   5.524   5.843 -1.6173  0.2448 -0.6191
 6402TIP3   OH219169   3.704   6.391   0.471  0.1867 -0.1235  0.7837
 6402TIP3    H119170   3.653   6.462   0.433 -0.4840 -1.4284 -0.9310
 6402TIP3    H219171   3.664   6.375   0.556 -2.2059 -0.9106 -0.3753
 6403TIP3   OH219172   7.040   6.605   3.885  0.1460 -0.3555 -0.5295
 6403TIP3    H119173   6.970   6.587   3.821  0.0282  1.0964 -0.8563
 6403TIP3    H219174   7.016   6.554   3.962 -2.9529  2.2611  0.4600
 6404TIP3   OH219175   2.754   4.088   4.101 -0.4905 -0.3198  0.0083
 6404TIP3    H119176   2.832   4.121   4.056 -1.8356 -0.4495 -2.6151
 6404TIP3    H219177   2.773   4.101   4.194  2.5647 -0.1994 -0.5221
 6405TIP3   OH219178   4.132   6.743   5.916 -0.2528  0.1826 -0.5276
 6405TIP3    H119179   4.227   6.748   5.923 -0.1601 -0.4249 -1.1881
 6405TIP3    H219180   4.114   6.762   5.824 -0.7943  0.5519 -0.3521
 6406TIP3   OH219181   0.643   6.064   4.306  0.0808  0.1652  0.3067
 6406TIP3    H119182   0.722   6.112   4.331  0.2768  0.4140 -0.7663
 6406TIP3    H219183   0.576   6.131   4.294  1.0366  0.5983 -3.9499
 6407TIP3   OH219184   1.831   2.755   2.424  0.1536  0.0531  0.0279
 6407TIP3    H119185   1.894   2.717   2.484  0.4243 -1.0177 -0.9018
 6407TIP3    H219186   1.783   2.680   2.388  0.9918  0.4751 -2.1765
 6408TIP3   OH219187   3.822   5.812   0.050 -0.1666  0.3485 -0.5450
 6408TIP3    H119188   3.773   5.843  -0.026 -0.2745 -0.3851 -0.7836
 6408TIP3    H219189   3.903   5.861   0.049  0.2035 -0.2566 -1.6319
 6409TIP3   OH219190   3.004   2.831   2.152  0.2192 -0.4561  0.1954
 6409TIP3    H119191   3.034   2.895   2.087 -1.9152 -0.0102 -0.4183
 6409TIP3    H219192   3.054   2.752   2.131  1.1037  0.2963 -0.6374
 6410TIP3   OH219193   6.896   4.000   1.400  0.0546  0.1041  0.3174
 6410TIP3    H119194   6.906   3.970   1.490 -0.3315 -1.3489 -0.0978
 6410TIP3    H219195   6.904   4.096   1.405 -0.1294  0.0565  1.9028
 6411TIP3   OH219196   4.332   0.438   3.501 -0.4710 -0.2401 -0.6020
 6411TIP3    H119197   4.268   0.368   3.512 -0.7275 -0.3012 -2.1908
 6411TIP3    H219198   4.408   0.409   3.550 -1.8028  0.1022  1.8426
 6412TIP3   OH219199   4.762   3.431   0.539 -0.3736 -0.2871  0.1811
 6412TIP3    H119200   4.677   3.406   0.505 -0.3547 -0.7148  0.4449
 6412TIP3    H219201   4.785   3.510   0.490 -0.1243 -1.1566 -1.1389
 6413TIP3   OH219202   2.982   4.149   3.062  0.2283 -0.1235 -0.0594
 6413TIP3    H119203   2.976   4.139   2.967  1.0020  1.1170 -0.2687
 6413TIP3    H219204   2.944   4.069   3.097 -0.4166 -0.4368 -1.4066
 6414TIP3   OH219205   6.790   6.725   2.851  0.0310  0.5783  0.1653
 6414TIP3    H119206   6.710   6.681   2.823 -1.0137  1.7071  1.2614
 6414TIP3    H219207   6.829   6.757   2.770 -0.3247 -0.4595 -0.4377
 6415TIP3   OH219208   0.094   2.911   0.643 -0.3567 -0.7456 -0.4433
 6415TIP3    H119209   0.189   2.916   0.631 -0.3405 -0.7589 -0.3224
 6415TIP3    H219210   0.076   2.817   0.655 -0.0729 -0.5488  2.0186
 6416TIP3   OH219211   5.989   0.872   0.694 -0.6594  0.6729  0.8833
 6416TIP3    H119212   5.997   0.877   0.598  0.1822 -0.3455  0.8805
 6416TIP3    H219213   5.911   0.818   0.708 -0.3754  0.2257  0.7592
 6417TIP3   OH219214   4.485   6.078   3.184 -0.2093 -0.1604 -0.5216
 6417TIP3    H119215   4.558   6.030   3.145 -1.2887 -1.8500 -0.5746
 6417TIP3    H219216   4.471   6.036   3.269 -1.1457  0.1119 -0.5265
 6418TIP3   OH219217   3.249   0.830   4.776  0.6901  0.1527 -0.3432
 6418TIP3    H119218   3.247   0.920   4.745  0.3419  0.0449 -0.6252
 6418TIP3    H219219   3.273   0.837   4.869 -1.5027  0.6893  0.2323
 6419TIP3   OH219220   1.354   3.639   3.434  0.5407 -0.0752  0.5358
 6419TIP3    H119221   1.340   3.548   3.407 -1.5926  0.5952 -0.9171
 6419TIP3    H219222   1.376   3.633   3.527 -0.9439 -2.0325  0.8494
 6420TIP3   OH219223   6.376   0.480   3.673 -0.1884  0.4693 -0.0395
 6420TIP3    H119224   6.446   0.535   3.639  2.1907 -1.4149  1.4912
 6420TIP3    H219225   6.349   0.522   3.754 -0.6430  1.0083 -0.4566
 6421TIP3   OH219226   5.139   3.330   4.966 -0.0913 -0.6158 -0.0653
 6421TIP3    H119227   5.221   3.368   4.936  0.0210  1.5632  2.6261
 6421TIP3    H219228   5.147   3.327   5.062 -3.0253 -0.6060  0.2871
 6422TIP3   OH219229   6.001   2.801   1.927  0.1503  0.2198  0.7738
 6422TIP3    H119230   5.917   2.809   1.972 -1.1497  0.3555 -1.4662
 6422TIP3    H219231   5.982   2.747   1.850  2.1216  0.2396  0.2067
 6423TIP3   OH219232   4.211   1.554   2.230 -0.6654 -0.1980  0.3503
 6423TIP3    H119233   4.181   1.631   2.182  0.5744  0.2595  0.2790
 6423TIP3    H219234   4.133   1.500   2.239 -1.1802  0.2512 -1.1282
 6424TIP3   OH219235   4.132   5.893   5.427 -0.3411  0.4303  0.1412
 6424TIP3    H119236   4.160   5.947   5.500  0.8349  2.8417 -1.9379
 6424TIP3    H219237   4.050   5.932   5.397 -0.1511  0.2935 -0.5939
 6425TIP3   OH219238   3.564   6.775   4.086 -0.0541  0.0701 -0.3038
 6425TIP3    H119239   3.531   6.777   4.176  0.0727  2.0880 -0.2636
 6425TIP3    H219240   3.645   6.826   4.088 -0.2508  0.4738 -1.6427
 6426TIP3   OH219241   4.690   1.293   4.908  0.3857  0.0188  0.3124
 6426TIP3    H119242   4.633   1.343   4.966  0.7561  1.4520 -0.5046
 6426TIP3    H219243   4.651   1.301   4.822 -0.0427 -1.9176  0.2754
 6427TIP3   OH219244   2.680   2.109   3.551  0.2401 -0.6526 -0.0823
 6427TIP3    H119245   2.661   2.155   3.469 -0.4021 -3.3883 -1.5757
 6427TIP3    H219246   2.726   2.030   3.524 -0.8415 -2.1207  2.1098
 6428TIP3   OH219247   6.031   1.208   2.683 -0.4088  0.2151  0.1173
 6428TIP3    H119248   5.981   1.185   2.761 -0.0018  2.7772  1.2228
 6428TIP3    H219249   5.967   1.251   2.626 -0.1429  0.7152  0.1920
 6429TIP3   OH219250   0.540   4.651   4.437  0.0207  0.0207 -0.4256
 6429TIP3    H119251   0.516   4.561   4.417  0.1022 -0.4163  1.3117
 6429TIP3    H219252   0.459   4.691   4.470 -0.7201  1.4000 -3.5242
 6430TIP3   OH219253   6.928   5.607   1.025 -0.4600  0.2387  0.3830
 6430TIP3    H119254   6.955   5.669   0.958 -0.0311 -2.5333 -2.2278
 6430TIP3    H219255   7.006   5.595   1.080  0.0163  0.6329 -0.2034
 6431TIP3   OH219256   3.783   3.913   0.387 -0.3554  0.0636  0.2376
 6431TIP3    H119257   3.863   3.954   0.354 -0.1942 -2.1089 -2.4453
 6431TIP3    H219258   3.712   3.967   0.351 -0.1301 -1.2182 -2.3092
 6432TIP3   OH219259   2.521   6.740   3.663 -0.1628  0.2989  0.1214
 6432TIP3    H119260   2.446   6.692   3.698 -0.1643  0.2865  0.1011
 6432TIP3    H219261   2.598   6.698   3.703 -0.1498  0.1070 -0.1026
 6433TIP3   OH219262   6.161   3.356   0.664 -0.1911 -0.0176 -0.3026
 6433TIP3    H119263   6.127   3.350   0.754 -1.0999  0.6067 -0.5930
 6433TIP3    H219264   6.256   3.361   0.675 -0.1951 -1.2751  0.5555
 6434TIP3   OH219265   0.279   5.163   1.911  1.0053 -0.0900  0.4069
 6434TIP3    H119266   0.338   5.088   1.918  0.6905 -0.2923  0.9697
 6434TIP3    H219267   0.195   5.125   1.885  0.8921  0.0942  0.5013
 6435TIP3   OH219268   4.655   6.783   4.071  0.0114  0.2730 -0.1533
 6435TIP3    H119269   4.567   6.765   4.104  0.7393  0.6211  2.1753
 6435TIP3    H219270   4.694   6.840   4.137  1.8225  0.5483 -1.3872
 6436TIP3   OH219271   4.524   4.878   4.094  0.3243  0.1459 -0.0464
 6436TIP3    H119272   4.429   4.884   4.082  0.4175 -1.2159 -1.9247
 6436TIP3    H219273   4.538   4.895   4.187 -1.9049 -1.0302  0.5781
 6437TIP3   OH219274   4.571   4.665   1.804 -0.3434 -0.3436 -0.1933
 6437TIP3    H119275   4.503   4.691   1.866  1.5124  1.2346  1.3261
 6437TIP3    H219276   4.569   4.570   1.803 -2.0027 -0.3384  0.4434
 6438TIP3   OH219277   0.818   4.470   1.319 -0.0775 -0.0689 -0.1570
 6438TIP3    H119278   0.785   4.420   1.243 -1.0852  0.1681  0.1134
 6438TIP3    H219279   0.791   4.418   1.395 -1.4195  1.0189  0.1435
 6439TIP3   OH219280   4.223   1.828   5.803 -0.0321 -0.1322 -0.2282
 6439TIP3    H119281   4.271   1.801   5.724  0.1349  1.5808 -0.7406
 6439TIP3    H219282   4.252   1.917   5.820 -0.6461 -0.2041  1.3525
 6440TIP3   OH219283   5.716   3.843   2.361 -0.1557 -0.2180 -0.3462
 6440TIP3    H119284   5.799   3.883   2.336  0.7529 -1.5303  0.4414
 6440TIP3    H219285   5.738   3.788   2.436 -2.2075  1.3037  1.5192
 6441TIP3   OH219286   3.659   4.579   0.383 -0.6532  0.5112 -0.1996
 6441TIP3    H119287   3.633   4.536   0.465 -0.9967  1.0895  0.0023
 6441TIP3    H219288   3.579   4.583   0.331 -0.1444 -1.1568 -1.1954
 6442TIP3   OH219289   3.869   1.679   4.899  0.2192 -0.0481 -0.4487
 6442TIP3    H119290   3.910   1.598   4.932  3.3379  0.7496 -2.0171
 6442TIP3    H219291   3.837   1.722   4.978  0.2847 -1.8516  0.6372
 6443TIP3   OH219292   5.782   5.506   1.398 -0.0283 -0.1066 -0.0924
 6443TIP3    H119293   5.837   5.563   1.344 -1.2590 -1.2550 -2.7567
 6443TIP3    H219294   5.828   5.499   1.481  3.3115 -0.1849 -1.8148
 6444TIP3   OH219295   1.518   0.601   5.390  0.1996  0.0821  0.0136
 6444TIP3    H119296   1.554   0.576   5.476  0.2571  1.1219  0.3081
 6444TIP3    H219297   1.585   0.659   5.353  0.7308 -1.3167 -1.2729
 6445TIP3   OH219298   0.130   4.620   5.283  0.1125 -0.0465  0.1648
 6445TIP3    H119299   0.111   4.537   5.240  0.0019  0.2939 -0.4671
 6445TIP3    H219300   0.223   4.636   5.266  0.3548 -0.4637  1.0479
 6446TIP3   OH219301   4.262   1.968   4.550 -0.2326  0.0662 -0.1284
 6446TIP3    H119302   4.270   1.922   4.466  1.0469  0.2710 -0.1438
 6446TIP3    H219303   4.213   1.909   4.606  0.1117 -0.6835 -0.6086
 6447TIP3   OH219304   1.599   6.547   3.305  0.3627  0.2552 -0.1730
 6447TIP3    H119305   1.642   6.509   3.228  1.6097  0.6381  0.3138
 6447TIP3    H219306   1.624   6.639   3.303 -0.5705  0.5224  0.0548
 6448TIP3   OH219307   7.022   5.271   2.929  0.0729 -0.0152 -0.0256
 6448TIP3    H119308   7.106   5.228   2.912  0.3229  0.4872 -0.0636
 6448TIP3    H219309   7.044   5.362   2.946 -0.2980 -0.1989  1.6015
 6449TIP3   OH219310   2.418   3.192   1.107  0.2565  0.3328 -0.5222
 6449TIP3    H119311   2.478   3.211   1.035  0.4074  1.9941 -0.0228
 6449TIP3    H219312   2.438   3.260   1.173 -2.5768  1.3972 -0.6181
 6450TIP3   OH219313   3.808   3.204   3.361  0.4377  0.3060 -0.5773
 6450TIP3    H119314   3.790   3.298   3.359  0.6927  0.3481 -1.4425
 6450TIP3    H219315   3.722   3.162   3.355  0.4253  0.4982 -2.1811
 6451TIP3   OH219316   6.182   1.200   1.406  0.6724  0.4865  0.3854
 6451TIP3    H119317   6.099   1.237   1.435 -0.4505 -0.8982 -0.9615
 6451TIP3    H219318   6.229   1.275   1.367 -0.6714  0.9476 -0.4085
 6452TIP3   OH219319   7.151   1.509   5.410 -0.1686  0.0549  0.0657
 6452TIP3    H119320   7.159   1.418   5.380 -1.2916  0.3949 -1.3902
 6452TIP3    H219321   7.241   1.536   5.430  0.2885 -1.0741 -0.3862
 6453TIP3   OH219322   0.910   6.157   5.628 -0.3064  0.0799  0.2166
 6453TIP3    H119323   0.820   6.155   5.596 -0.1587 -0.4266 -0.1856
 6453TIP3    H219324   0.961   6.191   5.554 -0.2942  1.3933  0.7908
 6454TIP3   OH219325   6.958   1.382   4.078 -0.1516  0.0909 -0.0679
 6454TIP3    H119326   6.899   1.431   4.136 -0.2094 -0.4990  0.3825
 6454TIP3    H219327   7.028   1.351   4.136 -0.1733 -0.4483 -0.3279
 6455TIP3   OH219328   0.226   2.015   4.435  0.6258  0.4383  0.3754
 6455TIP3    H119329   0.133   2.015   4.413  0.3792 -1.0389  1.2871
 6455TIP3    H219330   0.270   2.002   4.351 -0.0452  0.0908  0.0662
 6456TIP3   OH219331   5.120   0.678   1.660  0.0610 -1.0479  0.5303
 6456TIP3    H119332   5.038   0.728   1.652 -0.4080 -1.4892  2.1849
 6456TIP3    H219333   5.141   0.653   1.570 -0.0365  1.5405 -0.2942
 6457TIP3   OH219334   1.945   6.625   2.575  0.2456  0.0991 -0.4494
 6457TIP3    H119335   1.978   6.629   2.485  0.9756  0.4734 -0.1688
 6457TIP3    H219336   1.921   6.716   2.595  2.8021  0.6029  0.7261
 6458TIP3   OH219337   1.937   1.547   2.236  0.6418 -0.3008  0.3067
 6458TIP3    H119338   1.979   1.489   2.299 -0.0279  0.5481  1.5822
 6458TIP3    H219339   1.848   1.512   2.226 -0.5466  1.6555  2.8191
 6459TIP3   OH219340   0.948   1.341   0.656 -0.3792  0.1449 -0.0015
 6459TIP3    H119341   0.878   1.298   0.606  0.9141  0.0519 -1.8129
 6459TIP3    H219342   0.971   1.278   0.725 -0.7465 -0.6505 -0.5924
 6460TIP3   OH219343   6.085   4.300   2.958  0.1380  0.0391  0.1762
 6460TIP3    H119344   6.008   4.264   3.001  1.0686 -0.2386  1.6972
 6460TIP3    H219345   6.112   4.233   2.895 -2.9790  1.6674 -3.2470
 6461TIP3   OH219346   5.910   1.665   1.606 -0.0104 -0.5996  0.2956
 6461TIP3    H119347   5.901   1.678   1.701  1.5602  0.9981  0.2732
 6461TIP3    H219348   5.843   1.600   1.585 -1.8235  0.5290  2.1587
 6462TIP3   OH219349   6.000   3.161   4.178 -0.2782 -0.6406 -0.3070
 6462TIP3    H119350   6.076   3.168   4.119 -0.6326 -0.3261 -0.7326
 6462TIP3    H219351   5.930   3.126   4.123 -0.6099 -0.3551 -0.0704
 6463TIP3   OH219352   0.968   0.304   4.586  0.1465  0.2199  0.0836
 6463TIP3    H119353   0.991   0.395   4.571  0.7521 -0.1596 -1.4901
 6463TIP3    H219354   0.906   0.283   4.516  1.3196 -1.0269 -0.6218
 6464TIP3   OH219355   1.365   4.671   4.776  0.9661  0.6790 -0.3805
 6464TIP3    H119356   1.284   4.712   4.805 -0.8806 -2.2513 -0.8817
 6464TIP3    H219357   1.381   4.708   4.689 -0.3516  0.7061 -0.6325
 6465TIP3   OH219358   5.082   4.255   5.188  0.5273 -0.1755 -0.6146
 6465TIP3    H119359   5.036   4.266   5.105  0.3286  4.2407 -0.1357
 6465TIP3    H219360   5.035   4.312   5.249  1.7954 -1.8321  2.1111
 6466TIP3   OH219361   1.004   5.982   3.050 -0.5446 -0.4766 -0.0776
 6466TIP3    H119362   0.967   5.938   2.973 -1.2836 -0.0080  0.0036
 6466TIP3    H219363   0.987   5.922   3.122 -0.6228 -0.5254 -0.1361
 6467TIP3   OH219364   3.332   0.236   4.414  0.7965  0.2650  0.0780
 6467TIP3    H119365   3.281   0.311   4.446  2.7893  1.3609  0.8792
 6467TIP3    H219366   3.369   0.196   4.493  1.6800 -0.0980 -0.5011
 6468TIP3   OH219367   5.182   1.288   2.109  0.4942  0.3104  0.0345
 6468TIP3    H119368   5.251   1.344   2.145  0.2882  0.6835 -0.1452
 6468TIP3    H219369   5.120   1.276   2.180  0.4892  0.3917  0.0438
 6469TIP3   OH219370   4.077   1.516   1.346 -0.2266 -0.0269  0.2976
 6469TIP3    H119371   4.116   1.442   1.300  0.1998 -0.3189  1.1095
 6469TIP3    H219372   3.983   1.507   1.332 -0.1861 -0.8190  0.5490
 6470TIP3   OH219373   6.102   2.739   1.192  0.0204  0.3044  0.0997
 6470TIP3    H119374   6.049   2.661   1.208  1.3599 -1.1987 -2.3095
 6470TIP3    H219375   6.138   2.762   1.278 -0.4247 -1.7111  0.8729
 6471TIP3   OH219376   2.502   5.658   1.801 -0.0594 -0.4758  0.0655
 6471TIP3    H119377   2.485   5.567   1.827 -0.4718 -0.6502 -0.7886
 6471TIP3    H219378   2.583   5.652   1.749  0.1006 -0.3018  0.2937
 6472TIP3   OH219379   6.738   6.454   3.334  0.5074  0.0043 -0.2114
 6472TIP3    H119380   6.756   6.442   3.241  1.3847 -1.1016  0.0695
 6472TIP3    H219381   6.653   6.413   3.348 -0.2445  1.3263 -0.7448
 6473TIP3   OH219382   1.081   4.671   4.604 -0.4519 -0.7157 -0.6674
 6473TIP3    H119383   1.107   4.652   4.694  0.6380  1.5996 -0.4259
 6473TIP3    H219384   1.132   4.610   4.551 -0.0446 -1.1543  0.2144
 6474TIP3   OH219385   1.555   2.825   4.543  0.4691 -0.1144  0.4182
 6474TIP3    H119386   1.560   2.921   4.539  1.7260 -0.1792  0.1979
 6474TIP3    H219387   1.492   2.802   4.475  0.4191  0.5348  0.2349
 6475TIP3   OH219388   2.604   1.814   0.920 -0.0910  0.0861  0.0324
 6475TIP3    H119389   2.569   1.877   0.858 -1.2070  0.2935  0.8344
 6475TIP3    H219390   2.527   1.765   0.951  0.6917 -1.3759 -0.2381
 6476TIP3   OH219391   6.106   4.554   3.786 -0.1129  0.6978 -0.2789
 6476TIP3    H119392   6.014   4.547   3.811 -0.0747  0.7811 -0.1169
 6476TIP3    H219393   6.154   4.518   3.860  0.0105  1.1982 -0.1068
 6477TIP3   OH219394   2.363   6.432   4.419 -0.8102  0.6705  0.3926
 6477TIP3    H119395   2.425   6.447   4.491 -0.6436 -0.3989  0.4928
 6477TIP3    H219396   2.306   6.508   4.420 -0.1402  1.1782  0.9746
 6478TIP3   OH219397   6.316   0.170   3.981 -0.2807 -0.1502  0.5446
 6478TIP3    H119398   6.226   0.200   3.991 -0.4543 -1.2119  2.8816
 6478TIP3    H219399   6.367   0.228   4.039  0.6440  0.6508 -0.9927
 6479TIP3   OH219400   3.830   1.822   5.134 -0.2559  0.5942  0.6753
 6479TIP3    H119401   3.738   1.815   5.161 -0.7491  0.0320 -1.0146
 6479TIP3    H219402   3.841   1.915   5.114 -0.4573  0.6734  0.9321
 6480TIP3   OH219403   1.873   6.365   4.050 -0.0117 -0.1914 -0.4984
 6480TIP3    H119404   1.811   6.406   4.111 -0.2373 -0.2746 -0.6694
 6480TIP3    H219405   1.936   6.321   4.107 -0.5224 -0.7169 -0.3286
 6481TIP3   OH219406   2.247   3.886   2.979  0.1007 -0.6331 -0.1241
 6481TIP3    H119407   2.247   3.804   2.930 -1.9357 -2.9146  3.2922
 6481TIP3    H219408   2.336   3.891   3.016 -0.3798 -2.7540  1.5671
 6482TIP3   OH219409   4.259   3.211   3.988 -0.5975 -0.6765 -0.7979
 6482TIP3    H119410   4.331   3.163   4.029  0.7121  0.5305 -1.6303
 6482TIP3    H219411   4.285   3.221   3.897 -1.1536  0.9885 -0.8074
 6483TIP3   OH219412   4.508   1.342   5.636  0.6664  0.0160  0.0194
 6483TIP3    H119413   4.493   1.259   5.682 -0.8066  0.0697 -0.3079
 6483TIP3    H219414   4.436   1.398   5.665  0.3592  0.4285 -1.4660
 6484TIP3   OH219415   4.473   3.446   2.944  0.5536  0.0735  0.3804
 6484TIP3    H119416   4.385   3.410   2.944  0.4453  0.3245 -0.4766
 6484TIP3    H219417   4.530   3.371   2.963  0.3766 -0.7217 -1.8797
 6485TIP3   OH219418   6.341   4.966   1.566  0.2946  0.0668  0.5865
 6485TIP3    H119419   6.377   4.924   1.488  0.7984  1.2761  0.1473
 6485TIP3    H219420   6.390   5.048   1.574 -0.8278  0.6958  1.2771
 6486TIP3   OH219421   6.046   5.649   3.967 -0.3415 -0.4306 -0.2959
 6486TIP3    H119422   5.955   5.634   3.943 -0.5906  1.1573 -0.4302
 6486TIP3    H219423   6.086   5.684   3.887  0.2809 -0.7162 -0.1131
 6487TIP3   OH219424   1.289   1.756   4.972 -0.0303  0.2715 -0.0004
 6487TIP3    H119425   1.256   1.718   5.054  0.3991 -0.0177  0.0447
 6487TIP3    H219426   1.297   1.850   4.991 -0.1359  0.2366  0.2239
 6488TIP3   OH219427   5.440   0.362   5.422 -0.1395 -0.3530 -0.0171
 6488TIP3    H119428   5.448   0.295   5.355  0.2984  1.5819 -2.0336
 6488TIP3    H219429   5.357   0.343   5.466 -0.2375 -1.9130 -0.8180
 6489TIP3   OH219430   2.576   5.894   0.260 -0.2620  0.0726 -0.5378
 6489TIP3    H119431   2.507   5.891   0.193  0.4055 -2.0493 -1.2267
 6489TIP3    H219432   2.558   5.818   0.316  1.0364 -0.0565 -0.2605
 6490TIP3   OH219433   0.353   5.136   3.536  0.0815 -0.1232 -0.1913
 6490TIP3    H119434   0.403   5.214   3.560 -0.1999  0.4170 -1.3098
 6490TIP3    H219435   0.266   5.168   3.514  0.4897 -0.4259 -2.5938
 6491TIP3   OH219436   1.659   6.308   4.465  0.3531 -0.4076  0.0869
 6491TIP3    H119437   1.731   6.244   4.467  0.4071 -0.3488  1.5585
 6491TIP3    H219438   1.653   6.334   4.374  2.0234 -0.6305 -0.1291
 6492TIP3   OH219439   0.886   0.992   0.476 -0.5317  0.4308 -0.1773
 6492TIP3    H119440   0.820   1.040   0.526 -0.6732 -0.2439  0.2898
 6492TIP3    H219441   0.967   1.004   0.526 -0.6234 -0.0435  0.0866
 6493TIP3   OH219442   0.882   3.094   2.038 -0.3943  0.1231 -0.3907
 6493TIP3    H119443   0.935   3.111   1.961 -0.0410 -0.2680 -0.2396
 6493TIP3    H219444   0.797   3.066   2.004 -0.9208  1.9273 -0.6436
 6494TIP3   OH219445   5.550   4.816   3.322  0.0108  0.3004  0.2361
 6494TIP3    H119446   5.484   4.763   3.365  0.9236 -0.1913  1.0515
 6494TIP3    H219447   5.544   4.792   3.229 -0.9262  0.2465  0.3078
 6495TIP3   OH219448   4.387   3.205   2.516  0.0078  0.0581 -0.0560
 6495TIP3    H119449   4.474   3.232   2.488 -0.6165  1.3371 -0.8644
 6495TIP3    H219450   4.399   3.177   2.607  1.1934  0.5683 -0.0390
 6496TIP3   OH219451   0.796   6.098   4.898 -0.3383 -0.4172  0.2112
 6496TIP3    H119452   0.796   6.094   4.993  0.4265 -1.4824  0.1906
 6496TIP3    H219453   0.715   6.144   4.875 -0.1227  0.5902  1.3867
 6497TIP3   OH219454   3.685   4.203   4.884 -0.0210  0.6438  0.3615
 6497TIP3    H119455   3.652   4.238   4.801  0.5190  2.5842  0.9230
 6497TIP3    H219456   3.768   4.162   4.862 -0.3589  0.2562 -0.2153
 6498TIP3   OH219457   5.731   0.110   2.584 -0.3411  0.7784 -0.3919
 6498TIP3    H119458   5.772   0.031   2.619 -1.4676  0.6794  0.7513
 6498TIP3    H219459   5.684   0.081   2.506 -2.0835 -0.0317  0.9052
 6499TIP3   OH219460   3.450   2.139   4.740 -0.4451  0.0512 -0.2540
 6499TIP3    H119461   3.454   2.044   4.726 -0.0452  0.0851 -0.3864
 6499TIP3    H219462   3.481   2.150   4.830  0.0075  0.0948 -0.4097
 6500TIP3   OH219463   4.760   1.041   1.062 -0.1270  0.3461 -0.4328
 6500TIP3    H119464   4.754   1.136   1.061 -1.5973  0.3130  1.1260
 6500TIP3    H219465   4.756   1.017   1.155 -0.9700 -1.2905 -0.8491
 6501TIP3   OH219466   4.249   5.857   4.768  0.2501  0.9795 -0.0455
 6501TIP3    H119467   4.248   5.953   4.773  0.1977  0.9383  1.0933
 6501TIP3    H219468   4.289   5.829   4.851  1.9573  0.0431 -1.1326
 6502TIP3   OH219469   1.140   5.001   0.021  0.0557  0.1330  0.7518
 6502TIP3    H119470   1.127   4.907   0.007 -1.8696  0.5403 -0.6028
 6502TIP3    H219471   1.053   5.034   0.043  0.2573  1.9111 -0.8521
 6503TIP3   OH219472   5.488   2.142   2.765 -0.5748  0.2436 -0.5262
 6503TIP3    H119473   5.508   2.203   2.837 -1.6202  0.0919 -0.0854
 6503TIP3    H219474   5.409   2.179   2.724 -1.3147 -0.8727 -0.1581
 6504TIP3   OH219475   6.051   2.965   0.278  0.5017  0.0137  0.2945
 6504TIP3    H119476   5.959   2.988   0.267  1.2353  3.0476 -0.3453
 6504TIP3    H219477   6.096   3.049   0.283  3.2859 -1.3840  0.3117
 6505TIP3   OH219478   6.864   4.526   3.811  0.1069  0.2776  0.3917
 6505TIP3    H119479   6.951   4.526   3.771 -0.5300 -1.6614 -1.1671
 6505TIP3    H219480   6.875   4.476   3.892  0.0075 -2.5182 -1.1752
 6506TIP3   OH219481   1.177   0.966   2.558 -0.0400  0.3888  0.1064
 6506TIP3    H119482   1.168   1.003   2.646  0.7594 -0.1138  0.4025
 6506TIP3    H219483   1.265   0.991   2.530 -0.4378  0.9036 -0.7244
 6507TIP3   OH219484   7.110   6.445   0.492 -0.5239  0.4457 -0.7605
 6507TIP3    H119485   7.170   6.514   0.518 -0.5245  0.3020 -0.3656
 6507TIP3    H219486   7.105   6.388   0.568 -0.1061 -0.2809 -1.2610
 6508TIP3   OH219487   3.191   1.120   1.852 -0.4586 -0.0869  0.0865
 6508TIP3    H119488   3.114   1.109   1.908  0.3314  1.4674  1.5513
 6508TIP3    H219489   3.243   1.187   1.895  0.5148  0.7371 -2.1944
 6509TIP3   OH219490   4.497   2.999   5.776 -0.3238  0.3209  0.0884
 6509TIP3    H119491   4.418   3.006   5.722  0.8601 -1.7847 -2.1293
 6509TIP3    H219492   4.468   2.951   5.854 -1.4149  0.3281 -0.2894
 6510TIP3   OH219493   6.370   2.278   5.688  0.1209 -0.0244  0.0361
 6510TIP3    H119494   6.434   2.308   5.753  0.8128 -0.0645 -0.6071
 6510TIP3    H219495   6.289   2.322   5.712  0.9276  1.8245 -0.4596
 6511TIP3   OH219496   5.796   3.319   2.625 -0.4184  0.0786  0.4871
 6511TIP3    H119497   5.866   3.372   2.588 -0.5649  0.6574  1.0170
 6511TIP3    H219498   5.814   3.230   2.595  1.4948 -0.0901  1.9459
 6512TIP3   OH219499   3.047   0.484   1.250 -0.3372  0.3307 -0.0726
 6512TIP3    H119500   3.074   0.529   1.170 -2.4896  0.0340 -1.0251
 6512TIP3    H219501   3.007   0.553   1.303  1.0038  0.5088  0.7581
 6513TIP3   OH219502   1.954   4.986   5.436  0.2593 -0.1817  0.2763
 6513TIP3    H119503   1.927   4.931   5.509  2.4362 -0.0514  1.2728
 6513TIP3    H219504   1.995   4.925   5.374 -0.0261 -0.0697 -0.0228
 6514TIP3   OH219505   5.335   2.938   4.725  0.4488  0.1797  0.3815
 6514TIP3    H119506   5.287   2.860   4.753 -0.9217  0.8451  0.0323
 6514TIP3    H219507   5.380   2.912   4.645  1.1233 -0.6156  1.0034
 6515TIP3   OH219508   0.548   4.912   0.445 -0.3371  0.1869 -0.0580
 6515TIP3    H119509   0.571   4.863   0.524 -0.3572 -0.5254 -0.4856
 6515TIP3    H219510   0.620   4.895   0.384 -1.0251 -0.4680 -0.7140
 6516TIP3   OH219511   5.043   5.277   2.448  0.4554  0.8668  0.1973
 6516TIP3    H119512   5.000   5.222   2.383 -1.2069  1.0082  1.1272
 6516TIP3    H219513   5.098   5.336   2.397  1.4259 -0.8718 -0.8879
 6517TIP3   OH219514   6.139   5.399   4.111 -0.0774  0.0884 -0.0088
 6517TIP3    H119515   6.138   5.431   4.201 -0.5127 -0.1435  0.0739
 6517TIP3    H219516   6.099   5.470   4.060  0.1981  0.2323 -0.0213
 6518TIP3   OH219517   1.540   4.547   3.358 -0.3888 -0.2742 -0.1418
 6518TIP3    H119518   1.593   4.593   3.293  1.0138 -1.6630 -0.0448
 6518TIP3    H219519   1.593   4.547   3.437 -0.6160 -1.4998  0.0310
 6519TIP3   OH219520   2.513   0.633   4.768 -0.1892  0.1730 -0.0807
 6519TIP3    H119521   2.440   0.607   4.824  1.4466 -2.8283  0.8859
 6519TIP3    H219522   2.524   0.727   4.785 -1.5539 -0.0414  2.4261
 6520TIP3   OH219523   7.188   1.065   5.670  0.6223  0.0005  0.4030
 6520TIP3    H119524   7.220   0.974   5.673  1.8807  0.4480  2.0292
 6520TIP3    H219525   7.101   1.061   5.709  0.3943 -0.5989 -0.1482
 6521TIP3   OH219526   0.041   1.071   0.899  0.2324  0.2977 -0.2972
 6521TIP3    H119527  -0.040   1.102   0.857  0.3146 -0.0335 -0.7175
 6521TIP3    H219528   0.012   0.999   0.956 -0.2305  2.3031  2.1548
 6522TIP3   OH219529   2.660   2.969   0.948  0.3189 -0.2031 -0.0191
 6522TIP3    H119530   2.628   3.051   0.911  0.6283  1.2692  2.7105
 6522TIP3    H219531   2.601   2.952   1.022  1.8835 -0.9337  1.1142
 6523TIP3   OH219532   5.943   5.223   2.237 -0.0784  0.3540 -0.3816
 6523TIP3    H119533   6.008   5.154   2.222 -1.3279 -0.7679 -0.8045
 6523TIP3    H219534   5.869   5.178   2.278 -0.9802  1.4072 -0.8129
 6524TIP3   OH219535   2.804   1.517   5.799  0.0143  0.0297 -0.3348
 6524TIP3    H119536   2.726   1.477   5.760 -0.9836  0.4451  1.1697
 6524TIP3    H219537   2.839   1.572   5.729  0.3121 -1.9109 -1.8031
 6525TIP3   OH219538   3.997   6.737   2.197 -0.4036  0.2109 -0.3322
 6525TIP3    H119539   4.076   6.759   2.147 -1.3695  2.0414 -1.1644
 6525TIP3    H219540   3.995   6.802   2.267 -0.7834 -0.3195  0.1569
 6526TIP3   OH219541   5.697   4.982   2.136  0.0260 -0.1174  0.0953
 6526TIP3    H119542   5.639   4.967   2.062  0.8206  0.0208 -0.5817
 6526TIP3    H219543   5.647   4.955   2.213 -0.7063 -0.5457 -0.5210
 6527TIP3   OH219544   2.562   3.497   4.153 -0.0328 -0.8199  0.2276
 6527TIP3    H119545   2.560   3.401   4.153  1.3946 -0.8715 -0.2601
 6527TIP3    H219546   2.510   3.522   4.230 -0.7861 -1.9613  0.1151
 6528TIP3   OH219547   0.850   6.761   3.076 -0.6218 -1.1481 -0.2084
 6528TIP3    H119548   0.905   6.786   3.002 -0.7790 -0.7908 -0.2030
 6528TIP3    H219549   0.911   6.753   3.150 -0.6777  0.0050 -0.0227
 6529TIP3   OH219550   5.007   6.679   1.794  0.3060  0.4853  0.3245
 6529TIP3    H119551   4.946   6.748   1.818  1.8304  1.8184  0.5702
 6529TIP3    H219552   5.093   6.721   1.797  1.0523 -0.5895 -2.5474
 6530TIP3   OH219553   3.441   2.451   4.847  0.0314  0.5919  0.2346
 6530TIP3    H119554   3.361   2.429   4.800 -0.4039  1.2543  0.6544
 6530TIP3    H219555   3.502   2.479   4.778 -0.3521  0.8274 -0.0142
 6531TIP3   OH219556   1.482   2.263   2.294 -0.2158 -0.1562  0.0555
 6531TIP3    H119557   1.490   2.179   2.340 -2.2248 -0.1333  0.5401
 6531TIP3    H219558   1.474   2.328   2.364  0.7153  0.4001 -0.3282
 6532TIP3   OH219559   2.711   6.474   4.482 -0.3952 -0.3691  0.3038
 6532TIP3    H119560   2.785   6.462   4.542  0.5645  0.4044 -0.6915
 6532TIP3    H219561   2.734   6.421   4.406 -1.0415 -0.4021  0.1269
 6533TIP3   OH219562   0.823   0.678   3.681  0.0486  0.1829 -0.0314
 6533TIP3    H119563   0.895   0.667   3.743 -1.0701 -4.2438  0.8272
 6533TIP3    H219564   0.850   0.627   3.604  0.2674  3.4416 -2.2880
 6534TIP3   OH219565   3.305   1.706   4.050 -0.3785  0.1577 -0.3985
 6534TIP3    H119566   3.296   1.791   4.092 -0.0129  0.1469 -0.2859
 6534TIP3    H219567   3.349   1.652   4.116 -1.1027 -0.2758 -0.2628
 6535TIP3   OH219568   4.751   1.314   4.227 -0.7240  0.0292 -0.6530
 6535TIP3    H119569   4.806   1.390   4.209  1.1949 -1.2598 -0.5246
 6535TIP3    H219570   4.707   1.297   4.143  0.0472  0.3372 -1.1351
 6536TIP3   OH219571   2.365   2.186   4.060  0.1219 -0.4088  0.4433
 6536TIP3    H119572   2.322   2.111   4.018  3.5941 -0.4882 -3.6732
 6536TIP3    H219573   2.327   2.262   4.016  1.0859 -0.2385 -0.1276
 6537TIP3   OH219574   4.017   0.166   1.937  0.3436  0.3278  0.0894
 6537TIP3    H119575   3.981   0.122   1.860 -2.3479  1.8691  0.3536
 6537TIP3    H219576   4.049   0.250   1.904  0.3325  0.4715  0.4367
 6538TIP3   OH219577   2.018   2.000   4.481  0.2441  0.3243 -0.0411
 6538TIP3    H119578   2.087   1.934   4.482 -0.3066 -0.2539  1.5652
 6538TIP3    H219579   2.051   2.067   4.421  0.8262 -1.3596 -1.7327
 6539TIP3   OH219580   1.949   3.440   4.332 -0.2895  0.1282 -0.3586
 6539TIP3    H119581   1.954   3.448   4.237 -1.5675  1.5318 -0.3525
 6539TIP3    H219582   1.989   3.521   4.365 -3.6441  1.7398  0.1215
 6540TIP3   OH219583   2.396   4.191   5.679 -0.1511 -0.0334 -0.1532
 6540TIP3    H119584   2.472   4.246   5.697 -1.2225  1.3057  0.4613
 6540TIP3    H219585   2.328   4.223   5.739 -1.1573 -1.3003 -0.5559
 6541TIP3   OH219586   2.005   3.505   3.575  0.5301  0.6894  0.2556
 6541TIP3    H119587   2.051   3.499   3.492 -1.1771  0.4550 -0.7339
 6541TIP3    H219588   2.025   3.424   3.620 -1.4827 -0.9667 -1.6094
 6542TIP3   OH219589   4.213   1.482   5.417 -0.1215 -0.2628 -0.1207
 6542TIP3    H119590   4.144   1.542   5.389  1.5089  2.1307  0.6691
 6542TIP3    H219591   4.241   1.438   5.337 -1.0839  0.3456 -0.8065
 6543TIP3   OH219592   6.088   0.272   4.114  0.0453 -0.3447 -0.0019
 6543TIP3    H119593   6.061   0.237   4.199  1.7743  2.2020  1.7676
 6543TIP3    H219594   6.046   0.358   4.110  1.2773  0.2327 -0.9701
 6544TIP3   OH219595   3.116   2.552   4.955 -0.1531  0.6199  0.4685
 6544TIP3    H119596   3.207   2.561   4.930  0.5832  0.8883  2.9927
 6544TIP3    H219597   3.086   2.473   4.910  1.2507  0.6255 -0.5154
 6545TIP3   OH219598   2.175   5.941   5.241  0.4044 -0.5111 -0.0514
 6545TIP3    H119599   2.247   5.931   5.303 -0.8548 -0.2488  1.5008
 6545TIP3    H219600   2.160   5.852   5.207  0.2790 -0.9039  0.9945
 6546TIP3   OH219601   6.188   0.467   1.453 -0.0357  0.3077 -0.0057
 6546TIP3    H119602   6.111   0.501   1.408  0.4357  0.3041 -0.8366
 6546TIP3    H219603   6.181   0.372   1.444 -0.7038  0.2201  1.2312
 6547TIP3   OH219604   5.635   3.322   1.999  0.5236  0.1379  0.6767
 6547TIP3    H119605   5.723   3.295   1.973  0.4844 -0.0187  0.7072
 6547TIP3    H219606   5.613   3.265   2.072  1.1460  1.4092  1.9275
 6548TIP3   OH219607   0.333   0.643   1.565 -0.5810  0.9611  0.0896
 6548TIP3    H119608   0.385   0.583   1.511  0.3261  0.9143  0.9614
 6548TIP3    H219609   0.376   0.639   1.651 -2.6815  0.0913  1.1738
 6549TIP3   OH219610   6.961   3.679   2.943 -0.0363  1.0159 -0.2505
 6549TIP3    H119611   6.935   3.742   3.010  0.1114 -0.0167  0.7899
 6549TIP3    H219612   7.045   3.712   2.910  1.2861  0.0794  2.0230
 6550TIP3   OH219613   0.261   0.322   4.360  0.3041  0.3688 -0.0847
 6550TIP3    H119614   0.334   0.368   4.320 -0.0271  1.4609  0.5383
 6550TIP3    H219615   0.184   0.350   4.312  0.2288 -0.4920 -0.4954
 6551TIP3   OH219616   0.773   4.990   5.637  0.1009 -0.0644  0.3940
 6551TIP3    H119617   0.807   5.050   5.703 -0.7157  0.2181  0.5637
 6551TIP3    H219618   0.682   5.017   5.624  0.6417  0.8593 -1.9520
 6552TIP3   OH219619   1.691   0.777   2.267 -0.0318 -0.3288 -0.5580
 6552TIP3    H119620   1.644   0.814   2.342 -0.6750 -1.6124 -0.3055
 6552TIP3    H219621   1.782   0.772   2.296 -0.3135 -1.0201  0.2303
 6553TIP3   OH219622   0.945   2.878   1.164 -0.1026 -0.0023 -0.5705
 6553TIP3    H119623   0.968   2.785   1.169  0.8409  0.0892 -2.2599
 6553TIP3    H219624   0.850   2.880   1.175 -0.3877 -1.3945 -2.2291
 6554TIP3   OH219625   4.048   3.678   3.143  0.1979  0.4955  0.7811
 6554TIP3    H119626   4.133   3.666   3.185  0.0228  0.4547  1.1288
 6554TIP3    H219627   3.986   3.633   3.200 -0.0228  0.2926  0.3864
 6555TIP3   OH219628   7.083   4.029   0.272 -0.0627 -0.3958  0.4426
 6555TIP3    H119629   7.048   4.111   0.308  1.0637 -0.8299  2.7207
 6555TIP3    H219630   7.016   3.963   0.292 -1.0100 -0.0918 -1.4691
 6556TIP3   OH219631   1.071   4.171   2.674 -0.0683  0.0165  0.2943
 6556TIP3    H119632   1.106   4.082   2.681  1.3238  0.3762 -1.5317
 6556TIP3    H219633   0.989   4.161   2.627 -0.0302 -0.3209  0.2963
 6557TIP3   OH219634   5.516   4.778   0.184  0.1064 -0.6276 -0.5155
 6557TIP3    H119635   5.529   4.846   0.118 -0.0722 -0.0985 -0.0049
 6557TIP3    H219636   5.538   4.696   0.138 -1.4085 -0.4277 -1.6825
 6558TIP3   OH219637   2.213   3.722   5.746  0.4061 -0.2056 -0.4090
 6558TIP3    H119638   2.266   3.669   5.807 -0.3788 -0.1339  0.3472
 6558TIP3    H219639   2.206   3.807   5.789 -2.4120 -0.9183  0.7740
 6559TIP3   OH219640   4.899   6.249   0.437  0.7408 -0.0075  0.4247
 6559TIP3    H119641   4.858   6.238   0.350  0.5328 -0.5147  0.5795
 6559TIP3    H219642   4.825   6.264   0.496  1.0169  2.7210  0.1976
 6560TIP3   OH219643   6.618   3.461   1.711  0.9421 -0.1817 -0.4066
 6560TIP3    H119644   6.616   3.377   1.665 -0.3033 -0.3270 -0.1473
 6560TIP3    H219645   6.650   3.440   1.799  1.1073 -0.3009 -0.4956
 6561TIP3   OH219646   0.765   5.937   1.980  0.0276 -0.3023 -0.2012
 6561TIP3    H119647   0.821   5.951   2.056 -1.2368  0.1688  0.6774
 6561TIP3    H219648   0.756   6.024   1.941 -0.1235 -0.3603 -0.2973
 6562TIP3   OH219649   1.466   3.047   4.953 -0.3514  0.3551 -0.0208
 6562TIP3    H119650   1.516   3.127   4.935 -0.0415  0.3582  0.8303
 6562TIP3    H219651   1.383   3.060   4.906  0.5267  0.2219 -1.7012
 6563TIP3   OH219652   5.446   6.189   4.098  0.6125  0.1612  0.1505
 6563TIP3    H119653   5.351   6.204   4.091  0.7310  0.5983 -0.7169
 6563TIP3    H219654   5.480   6.272   4.131  0.7762  0.2685 -0.2859
 6564TIP3   OH219655   7.088   1.612   5.718 -0.8078  0.6025 -0.1735
 6564TIP3    H119656   7.115   1.692   5.762  0.9310 -1.0384  1.9983
 6564TIP3    H219657   7.128   1.616   5.631 -0.8074  2.0616 -0.1179
 6565TIP3   OH219658   3.411   0.498   1.359 -0.4030 -0.0045 -0.0392
 6565TIP3    H119659   3.318   0.521   1.366 -0.7581 -1.1786 -0.6217
 6565TIP3    H219660   3.426   0.488   1.265 -0.2884 -2.0874  0.1724
 6566TIP3   OH219661   4.511   4.456   2.910  0.4620  0.2224  0.0915
 6566TIP3    H119662   4.595   4.418   2.886  1.3715  2.1472 -0.0145
 6566TIP3    H219663   4.522   4.550   2.893 -1.4526  0.6198  0.7958
 6567TIP3   OH219664   4.241   1.231   2.192  0.0098 -0.3068 -0.2366
 6567TIP3    H119665   4.152   1.200   2.209  0.6781 -2.2811  0.0573
 6567TIP3    H219666   4.275   1.254   2.279  0.6346 -2.2114  0.0803
 6568TIP3   OH219667   1.254   5.925   3.173 -0.1948 -0.0351 -0.2005
 6568TIP3    H119668   1.203   5.884   3.103 -0.5685 -1.1076  0.6765
 6568TIP3    H219669   1.189   5.958   3.235  0.1394 -0.6385  0.4935
 6569TIP3   OH219670   5.688   0.389   3.015 -0.2201 -0.5071 -0.4468
 6569TIP3    H119671   5.753   0.436   3.067  1.1468 -1.8155 -0.8983
 6569TIP3    H219672   5.622   0.362   3.079 -0.3668  0.8531  0.0194
 6570TIP3   OH219673   3.032   1.860   5.458  0.1358  0.0269  0.3571
 6570TIP3    H119674   2.962   1.914   5.422  0.6920  0.9757  0.6462
 6570TIP3    H219675   3.100   1.861   5.391  0.4351  0.2953  0.6571
 6571TIP3   OH219676   7.237   5.570   5.736 -0.0121  0.3851  0.0073
 6571TIP3    H119677   7.186   5.490   5.743  2.5464 -1.3447  0.0965
 6571TIP3    H219678   7.207   5.611   5.654 -1.0605 -0.8853 -0.2691
 6572TIP3   OH219679   6.869   4.990   4.443  0.1791  0.3790 -0.4859
 6572TIP3    H119680   6.947   4.965   4.393 -0.1127 -0.3117 -0.6033
 6572TIP3    H219681   6.828   4.907   4.467  0.2680  0.6997  0.8267
 6573TIP3   OH219682   5.039   6.518   4.965  0.1428  0.2123  0.2267
 6573TIP3    H119683   5.035   6.463   5.044  1.0338 -0.3489 -0.1048
 6573TIP3    H219684   5.083   6.463   4.900  0.1096  0.9522 -0.4330
 6574TIP3   OH219685   6.913   4.670   2.140  0.3554 -0.0418 -0.0990
 6574TIP3    H119686   6.917   4.746   2.198 -0.1690  0.1068 -0.2440
 6574TIP3    H219687   6.866   4.603   2.191  0.5201 -0.1517 -0.0925
 6575TIP3   OH219688   0.999   4.388   5.170  0.1704  0.1945  0.4732
 6575TIP3    H119689   0.948   4.385   5.089  3.1977  0.1245 -1.6114
 6575TIP3    H219690   0.978   4.473   5.208 -1.5930  0.0909 -0.1579
 6576TIP3   OH219691   2.060   3.348   0.523  0.0542 -0.5395 -0.3490
 6576TIP3    H119692   2.062   3.259   0.489 -0.5197 -0.6390 -0.1322
 6576TIP3    H219693   1.987   3.348   0.585  0.1163  0.0541 -0.2747
 6577TIP3   OH219694   1.249   4.400   2.720 -0.5454 -0.4204  0.0450
 6577TIP3    H119695   1.289   4.389   2.806 -1.3977  1.3360  0.7126
 6577TIP3    H219696   1.199   4.320   2.706 -1.4240 -0.2267  1.7831
 6578TIP3   OH219697   2.942   3.417   2.201  0.4702  0.0056 -0.3149
 6578TIP3    H119698   2.974   3.409   2.291 -0.1659  1.3159  0.0608
 6578TIP3    H219699   2.851   3.388   2.205  0.8799 -1.4391 -0.8854
 6579TIP3   OH219700   2.842   6.764   3.657 -0.3380  0.4127 -0.4646
 6579TIP3    H119701   2.838   6.786   3.750 -1.3057 -0.4952 -0.2820
 6579TIP3    H219702   2.936   6.756   3.639 -0.1620 -0.5225  0.7119
 6580TIP3   OH219703   6.786   0.376   3.175 -0.4126 -0.9782 -0.6285
 6580TIP3    H119704   6.746   0.415   3.252 -2.3982 -1.2569 -1.4660
 6580TIP3    H219705   6.762   0.435   3.103  3.0956  0.4119 -0.8408
 6581TIP3   OH219706   6.813   0.182   0.481 -0.2548  0.4888 -0.2946
 6581TIP3    H119707   6.807   0.097   0.524 -3.0946  0.9826  0.4924
 6581TIP3    H219708   6.886   0.173   0.419  1.6931 -1.3984  2.0507
 6582TIP3   OH219709   4.023   2.626   4.465  0.2210 -0.0955  0.4252
 6582TIP3    H119710   4.109   2.596   4.495 -0.1749 -2.2528 -0.4485
 6582TIP3    H219711   4.016   2.595   4.375 -1.7159 -0.5611  0.6835
 6583TIP3   OH219712   6.086   3.666   4.556 -1.1686 -0.1099 -0.3146
 6583TIP3    H119713   6.168   3.716   4.560 -1.5686  0.5378 -0.1175
 6583TIP3    H219714   6.026   3.723   4.508 -2.2887  0.5674  1.7569
 6584TIP3   OH219715   2.574   5.112   3.688 -0.8440 -0.1965 -0.0801
 6584TIP3    H119716   2.633   5.178   3.725 -3.7224  2.4048  0.2752
 6584TIP3    H219717   2.534   5.071   3.765  0.8395 -2.4725 -0.2971
 6585TIP3   OH219718   6.123   1.006   4.913  0.0105 -0.4312 -0.7355
 6585TIP3    H119719   6.066   1.058   4.857  0.3887 -0.7834 -1.4576
 6585TIP3    H219720   6.063   0.962   4.973 -0.5840 -1.4733 -2.0361
 6586TIP3   OH219721   5.091   4.791   1.839 -0.2431  0.3888 -0.2587
 6586TIP3    H119722   5.131   4.721   1.890  1.3803 -0.1696 -2.1639
 6586TIP3    H219723   5.017   4.750   1.794  0.1274  0.1181 -0.6287
 6587TIP3   OH219724   3.346   3.913   2.157  0.0212  0.2502 -0.3137
 6587TIP3    H119725   3.349   3.867   2.241  0.1039 -0.3670 -0.6564
 6587TIP3    H219726   3.315   4.001   2.180  0.0720  0.0981  0.3672
 6588TIP3   OH219727   6.220   5.536   0.212  0.3027 -0.2242 -0.2507
 6588TIP3    H119728   6.231   5.456   0.161  2.4533  0.1283 -0.4475
 6588TIP3    H219729   6.298   5.588   0.192 -0.2600  1.2327  1.0997
 6589TIP3   OH219730   2.583   4.842   4.383  0.1010 -0.3660 -0.2540
 6589TIP3    H119731   2.568   4.801   4.468  0.3599  2.1321  1.0877
 6589TIP3    H219732   2.496   4.867   4.352  0.1363  0.1822  0.0770
 6590TIP3   OH219733   5.943   4.226   4.812  0.3297 -0.5421 -0.0531
 6590TIP3    H119734   5.916   4.213   4.903 -1.6743 -1.6297 -0.7382
 6590TIP3    H219735   5.974   4.316   4.809 -0.3345 -0.2139  1.5305
 6591TIP3   OH219736   2.193   0.277   3.148  0.1349  0.3954 -0.1571
 6591TIP3    H119737   2.269   0.263   3.092  0.2625  0.5233 -0.0130
 6591TIP3    H219738   2.120   0.240   3.098  0.6990 -2.4646  0.9472
 6592TIP3   OH219739   2.746   1.759   3.399  0.0368  0.0607 -0.3683
 6592TIP3    H119740   2.798   1.839   3.401  0.8111 -0.4172 -0.6713
 6592TIP3    H219741   2.656   1.789   3.401  0.3198  0.8983  0.6468
 6593TIP3   OH219742   4.699   1.252   3.657  0.2015  0.7187  0.0109
 6593TIP3    H119743   4.758   1.327   3.647 -1.1638  2.2982  2.5755
 6593TIP3    H219744   4.755   1.180   3.686  1.0984  1.7479  0.9153
 6594TIP3   OH219745   2.382   6.200   2.667 -0.1702 -0.1760  0.4116
 6594TIP3    H119746   2.352   6.289   2.649 -0.4472 -0.5040 -0.7832
 6594TIP3    H219747   2.313   6.143   2.634  0.3355 -0.8653  0.5016
 6595TIP3   OH219748   7.224   0.064   1.950  0.1523  0.1875 -0.2858
 6595TIP3    H119749   7.229   0.142   2.004 -0.5247 -1.5602  2.4900
 6595TIP3    H219750   7.136   0.066   1.912  0.0262  0.6138  0.0294
 6596TIP3   OH219751   1.277   6.378   5.873  0.0675  0.0315  0.5229
 6596TIP3    H119752   1.238   6.298   5.839 -0.0660  0.6023 -0.7133
 6596TIP3    H219753   1.223   6.401   5.949 -1.2614  0.1332 -0.4143
 6597TIP3   OH219754   3.025   5.952   3.418  0.0730  0.2459 -0.1205
 6597TIP3    H119755   3.106   5.955   3.469  0.7247  1.4999 -1.1551
 6597TIP3    H219756   3.017   5.860   3.391  0.7861 -0.0185  0.5392
 6598TIP3   OH219757   5.584   1.559   5.816 -0.0264  0.5454 -0.0141
 6598TIP3    H119758   5.649   1.540   5.749  1.2916  0.9791  1.1045
 6598TIP3    H219759   5.528   1.481   5.818  0.8100 -0.0819 -0.5813
 6599TIP3   OH219760   4.012   5.121   4.197 -0.1284 -0.0395  0.1844
 6599TIP3    H119761   3.933   5.140   4.147 -0.6665 -3.2609 -0.4075
 6599TIP3    H219762   4.082   5.118   4.132  0.3296  1.7529  0.5578
 6600TIP3   OH219763   5.569   6.589   1.341  0.1820 -0.6315 -0.0649
 6600TIP3    H119764   5.480   6.624   1.353  0.6750  0.3561  0.8075
 6600TIP3    H219765   5.565   6.544   1.257 -1.7047 -2.3522  0.8391
 6601TIP3   OH219766   0.344   0.701   4.008  0.4234 -0.5762  0.0988
 6601TIP3    H119767   0.380   0.734   4.090 -0.4283  0.0513  0.2406
 6601TIP3    H219768   0.356   0.772   3.946  2.2927 -1.5376 -0.7187
 6602TIP3   OH219769   2.459   1.041   1.876  0.0102 -0.5128 -0.0478
 6602TIP3    H119770   2.446   0.952   1.910 -1.0145 -0.4474 -0.2304
 6602TIP3    H219771   2.390   1.051   1.810  0.5235  0.1933 -0.4871
 6603TIP3   OH219772   7.009   4.989   1.179  0.7349 -0.0607  0.1606
 6603TIP3    H119773   7.020   4.968   1.087  0.4544 -0.2301  0.1666
 6603TIP3    H219774   6.919   4.964   1.199  0.6985  0.2565  0.4027
 6604TIP3   OH219775   3.989   0.444   1.549  0.1452 -0.3586  0.0028
 6604TIP3    H119776   4.000   0.480   1.638  1.5059 -1.2051  0.1896
 6604TIP3    H219777   3.944   0.361   1.562  2.5717 -1.7289  0.1948
 6605TIP3   OH219778   4.971   1.570   1.716 -0.2977  0.8404  0.0735
 6605TIP3    H119779   4.928   1.656   1.715  0.6740  1.3794  1.5542
 6605TIP3    H219780   5.010   1.563   1.803 -2.9574 -2.4601  1.2195
 6606TIP3   OH219781   2.109   2.408   2.869  0.4164  0.3658 -0.3662
 6606TIP3    H119782   2.051   2.430   2.942 -0.8678  0.9959 -1.5315
 6606TIP3    H219783   2.172   2.347   2.906 -1.7490 -1.3711  0.7016
 6607TIP3   OH219784   1.486   1.408   0.692 -0.5811 -0.3895 -0.5999
 6607TIP3    H119785   1.544   1.373   0.624  0.3485 -0.3880  0.1878
 6607TIP3    H219786   1.522   1.376   0.774 -0.3610  1.4703  0.0766
 6608TIP3   OH219787   2.226   0.127   5.464 -0.1124  0.2187 -0.0821
 6608TIP3    H119788   2.187   0.165   5.543  1.5289 -0.5824  1.1867
 6608TIP3    H219789   2.311   0.170   5.456  0.0001 -0.1575 -1.0746
 6609TIP3   OH219790   0.586   5.645   4.953 -0.0793  0.5776 -0.1014
 6609TIP3    H119791   0.630   5.588   4.890  0.8772 -0.8894  1.8067
 6609TIP3    H219792   0.546   5.713   4.899 -0.3488 -1.2685 -2.3921
 6610TIP3   OH219793   0.274   6.689   4.913 -0.1037 -0.2533  0.2865
 6610TIP3    H119794   0.283   6.624   4.982 -0.2804  0.0192  0.5679
 6610TIP3    H219795   0.339   6.663   4.847 -0.4113 -0.9129  0.2323
 6611TIP3   OH219796   4.551   0.364   3.658  0.0242 -0.1920  0.3740
 6611TIP3    H119797   4.574   0.457   3.664  1.2028 -0.5274  1.6617
 6611TIP3    H219798   4.604   0.331   3.585  0.0831  0.0304  0.3157
 6612TIP3   OH219799   1.421   2.410   1.471  0.1119  0.0635  0.3762
 6612TIP3    H119800   1.368   2.358   1.410 -1.8371  1.4485  0.7736
 6612TIP3    H219801   1.459   2.346   1.531 -2.1727 -0.9523  0.8360
 6613TIP3   OH219802   4.152   1.859   5.063 -0.4521  0.0076  0.4213
 6613TIP3    H119803   4.061   1.837   5.080 -0.3279 -0.9180  0.0140
 6613TIP3    H219804   4.197   1.842   5.145 -0.6068  0.2042  0.5457
 6614TIP3   OH219805   4.689   6.435   2.620  0.4180 -0.0584 -0.1616
 6614TIP3    H119806   4.622   6.436   2.689  0.4946  1.4211 -0.0750
 6614TIP3    H219807   4.654   6.377   2.553  0.0151 -0.9563  0.7975
 6615TIP3   OH219808   0.313   0.085   0.648 -0.0768 -0.1047 -0.4078
 6615TIP3    H119809   0.260   0.137   0.587 -1.3292 -0.0223  0.7264
 6615TIP3    H219810   0.250   0.032   0.697  0.6399  1.2639  2.1866
 6616TIP3   OH219811   6.548   5.629   2.430 -0.0039 -0.1726 -0.1735
 6616TIP3    H119812   6.467   5.622   2.480  0.7326  1.0442  1.2719
 6616TIP3    H219813   6.544   5.557   2.367 -3.6246  1.5951 -2.2772
 6617TIP3   OH219814   0.247   6.248   0.269  0.0947  0.2317 -0.1898
 6617TIP3    H119815   0.325   6.218   0.221 -0.8130  1.4648 -2.6412
 6617TIP3    H219816   0.183   6.178   0.257  0.4920 -0.3637  1.0257
 6618TIP3   OH219817   2.602   3.424   1.984  0.5360 -0.0065  0.3086
 6618TIP3    H119818   2.595   3.445   2.077  1.1557 -0.1796  0.4001
 6618TIP3    H219819   2.601   3.328   1.982 -1.3457 -0.0179 -0.0268
 6619TIP3   OH219820   1.898   5.675   5.573  0.1921  0.5547 -0.2081
 6619TIP3    H119821   1.843   5.615   5.624  0.6365 -1.8400 -2.3192
 6619TIP3    H219822   1.844   5.700   5.498  0.7980  0.9661 -0.5195
 6620TIP3   OH219823   4.452   1.164   4.021 -0.0623  0.6269  0.0316
 6620TIP3    H119824   4.386   1.115   3.972  0.0680  1.9305 -1.5410
 6620TIP3    H219825   4.440   1.137   4.112 -1.1297 -0.9697 -0.5407
 6621TIP3   OH219826   3.493   4.880   3.822  0.1310  0.2423 -0.3324
 6621TIP3    H119827   3.437   4.911   3.750 -0.9273 -1.0828 -0.1012
 6621TIP3    H219828   3.438   4.885   3.900  0.4075 -0.8621 -0.0573
 6622TIP3   OH219829   6.460   1.744   4.502  0.0951  0.2424 -0.1176
 6622TIP3    H119830   6.549   1.711   4.493  0.7373  1.5178  1.1704
 6622TIP3    H219831   6.467   1.838   4.486 -0.8706  0.4805  0.6900
 6623TIP3   OH219832   4.436   4.141   1.126 -0.0616 -0.0308 -0.1700
 6623TIP3    H119833   4.360   4.089   1.152  0.9952 -1.8628 -0.5331
 6623TIP3    H219834   4.451   4.118   1.034  2.4692 -1.8873  0.5718
 6624TIP3   OH219835   6.478   1.411   0.569  0.7739  0.5440 -0.4517
 6624TIP3    H119836   6.429   1.370   0.641 -2.0076 -1.0451 -3.0158
 6624TIP3    H219837   6.540   1.345   0.541 -0.6954 -0.3593 -1.7625
 6625TIP3   OH219838   4.721   6.661   2.121  0.5445 -0.1161  0.2132
 6625TIP3    H119839   4.755   6.713   2.048 -1.6489  1.2047  0.0400
 6625TIP3    H219840   4.681   6.726   2.180 -0.6848 -1.4480  0.9039
 6626TIP3   OH219841   1.722   1.515   1.619  0.2490  0.3889 -0.0369
 6626TIP3    H119842   1.813   1.501   1.594 -0.0373  0.9359 -1.4654
 6626TIP3    H219843   1.727   1.559   1.704  1.2835 -0.1904  0.2246
 6627TIP3   OH219844   5.961   5.107   3.651  0.0405 -0.2510  0.0983
 6627TIP3    H119845   6.016   5.172   3.695  0.9978  0.0903 -1.5466
 6627TIP3    H219846   5.999   5.097   3.564  0.3733 -3.5761  0.4871
 6628TIP3   OH219847   3.387   5.355   3.767 -0.3656 -0.0920  0.7640
 6628TIP3    H119848   3.409   5.436   3.720 -0.4510 -0.3883  0.2066
 6628TIP3    H219849   3.299   5.371   3.801 -0.5119 -0.0751  0.3792
 6629TIP3   OH219850   1.404   5.326   1.001 -0.3479 -0.1658  0.8157
 6629TIP3    H119851   1.465   5.354   1.069 -1.9313 -0.1927  2.3149
 6629TIP3    H219852   1.401   5.230   1.009  0.2963 -0.2814 -0.0838
 6630TIP3   OH219853   0.877   3.172   5.650 -0.0411 -0.8128 -0.0310
 6630TIP3    H119854   0.782   3.168   5.642 -0.0106  0.6912 -1.9830
 6630TIP3    H219855   0.896   3.131   5.734 -2.4533 -0.5917  0.6906
 6631TIP3   OH219856   1.120   4.989   3.409 -0.5393 -0.8701 -0.2433
 6631TIP3    H119857   1.098   5.051   3.479 -2.0967 -0.0356 -1.3925
 6631TIP3    H219858   1.213   5.002   3.393 -0.3643 -0.4311  1.0509
 6632TIP3   OH219859   6.745   0.919   2.206  0.1823 -0.3765 -0.3577
 6632TIP3    H119860   6.821   0.975   2.193 -0.3421  0.0857 -1.5882
 6632TIP3    H219861   6.683   0.973   2.255  0.8938 -1.0058  1.3211
 6633TIP3   OH219862   1.711   3.114   1.110  0.2447  0.1713 -0.7792
 6633TIP3    H119863   1.659   3.068   1.176  1.1143 -0.1922 -0.3367
 6633TIP3    H219864   1.724   3.049   1.041  3.6043 -1.2108  0.9382
 6634TIP3   OH219865   3.918   2.434   0.251  0.1604  0.6282 -0.0666
 6634TIP3    H119866   3.968   2.516   0.245 -0.5240  1.1103  0.6468
 6634TIP3    H219867   3.949   2.382   0.177  1.7641  0.8825  0.3883
 6635TIP3   OH219868   2.430   4.689   1.028 -0.0099 -0.5156  0.4816
 6635TIP3    H119869   2.518   4.658   1.047 -0.5126 -2.1865  0.2378
 6635TIP3    H219870   2.437   4.730   0.941  0.8140  0.7791  1.1251
 6636TIP3   OH219871   1.966   1.353   4.281 -0.3449  0.2495  0.5155
 6636TIP3    H119872   1.995   1.329   4.194 -0.1064 -1.4711  1.0387
 6636TIP3    H219873   1.876   1.382   4.270 -0.8541 -1.4937 -0.0954
 6637TIP3   OH219874   0.922   4.421   3.585  0.2597 -0.0120  0.0163
 6637TIP3    H119875   1.013   4.445   3.563  0.5454 -0.9329  0.1330
 6637TIP3    H219876   0.926   4.327   3.600 -0.6659 -0.0041  0.3433
 6638TIP3   OH219877   7.062   0.492   1.826  0.9516 -0.2631  0.3172
 6638TIP3    H119878   7.024   0.575   1.795  1.3884 -0.1691  0.0228
 6638TIP3    H219879   7.020   0.476   1.910  0.3539 -0.0939  0.0546
 6639TIP3   OH219880   0.102   5.152   2.506  0.0648  0.6699  0.2219
 6639TIP3    H119881   0.165   5.114   2.566 -0.9571  1.1235  1.6415
 6639TIP3    H219882   0.021   5.157   2.557 -0.8969  0.8669 -1.2770
 6640TIP3   OH219883   4.170   4.509   5.744  0.5547  0.0860  0.5158
 6640TIP3    H119884   4.168   4.604   5.755  0.4832  0.0621  0.7137
 6640TIP3    H219885   4.192   4.474   5.831 -1.0903 -0.1466  0.8804
 6641TIP3   OH219886   3.675   5.442   4.928  0.2755 -0.2403 -0.0634
 6641TIP3    H119887   3.657   5.350   4.948  1.6156  0.1073  3.3033
 6641TIP3    H219888   3.767   5.442   4.899  1.1125  0.2009  2.3452
 6642TIP3   OH219889   6.609   0.164   3.088 -0.0679 -0.1717  0.1267
 6642TIP3    H119890   6.661   0.242   3.108  0.8448 -0.7503  0.0757
 6642TIP3    H219891   6.522   0.197   3.069  0.3244  0.8408  0.0583
 6643TIP3   OH219892   0.655   5.809   0.406  0.1130  0.6560  0.5619
 6643TIP3    H119893   0.706   5.730   0.423 -0.8155 -0.0348  0.1958
 6643TIP3    H219894   0.721   5.878   0.394  0.9921 -0.3960 -0.9255
 6644TIP3   OH219895   2.883   3.286   0.024 -0.1513  0.4688 -0.5498
 6644TIP3    H119896   2.790   3.289   0.047 -0.5562  1.7559 -2.1373
 6644TIP3    H219897   2.898   3.195  -0.002  0.1029 -0.8170  3.4639
 6645TIP3   OH219898   5.401   0.019   4.525  0.6615  0.3378  0.0217
 6645TIP3    H119899   5.478  -0.027   4.490  1.3044  2.1996 -1.1980
 6645TIP3    H219900   5.342   0.025   4.450 -0.8583 -1.3183  1.0235
 6646TIP3   OH219901   2.788   1.316   4.970  0.0411  0.0734  0.0542
 6646TIP3    H119902   2.760   1.228   4.947  0.2172  0.1402 -0.4394
 6646TIP3    H219903   2.883   1.310   4.977  1.0964  1.4607 -6.4383
 6647TIP3   OH219904   5.623   0.091   4.263  0.3156 -0.1350 -0.1454
 6647TIP3    H119905   5.716   0.071   4.254  0.8680  1.3896  1.6594
 6647TIP3    H219906   5.588   0.083   4.175  1.6785 -2.8426 -0.5485
 6648TIP3   OH219907   0.422   1.588   2.137 -0.2798 -0.2276  0.4235
 6648TIP3    H119908   0.440   1.541   2.056 -0.7353 -1.0450  0.7924
 6648TIP3    H219909   0.331   1.568   2.157 -0.9877  2.0168 -0.1961
 6649TIP3   OH219910   1.542   5.279   2.094 -0.5369  0.2294 -0.2769
 6649TIP3    H119911   1.613   5.259   2.034 -0.0690 -0.5717  0.5209
 6649TIP3    H219912   1.464   5.282   2.039 -0.1954 -1.0150 -0.8498
 6650TIP3   OH219913   0.850   4.621   0.934  0.1642 -0.4084 -0.0637
 6650TIP3    H119914   0.758   4.621   0.962 -0.2154 -2.4559 -1.1043
 6650TIP3    H219915   0.851   4.680   0.858  0.1494  1.0828  1.0322
 6651TIP3   OH219916   7.132   5.333   5.794  0.4752  0.3561  0.7351
 6651TIP3    H119917   7.079   5.271   5.744  1.7491  0.0988 -0.3582
 6651TIP3    H219918   7.141   5.293   5.880  0.3737 -0.4445  0.3825
 6652TIP3   OH219919   5.379   4.294   4.804 -0.1006  0.5763 -0.0493
 6652TIP3    H119920   5.431   4.372   4.820  1.2145 -0.2051 -0.3522
 6652TIP3    H219921   5.381   4.246   4.887  0.8436 -0.1125 -0.4545
 6653TIP3   OH219922   0.678   2.124   3.783 -0.1499  0.3717 -0.0877
 6653TIP3    H119923   0.730   2.144   3.861  1.4814 -0.7534 -0.8540
 6653TIP3    H219924   0.653   2.032   3.794  2.2157 -0.6019 -1.9922
 6654TIP3   OH219925   1.375   2.796   1.394  0.1158 -0.0776 -0.4505
 6654TIP3    H119926   1.295   2.848   1.399 -0.9384 -1.6095 -0.4498
 6654TIP3    H219927   1.381   2.753   1.479  0.0517 -1.1825 -0.9867
 6655TIP3   OH219928   3.528   4.009   1.689 -0.3317  0.0783  0.2335
 6655TIP3    H119929   3.434   4.013   1.701 -0.4423 -0.3876 -0.4087
 6655TIP3    H219930   3.550   4.088   1.640 -0.6772 -0.7374 -1.2959
 6656TIP3   OH219931   4.465   2.059   1.940 -0.4382 -0.5733  0.3445
 6656TIP3    H119932   4.462   2.151   1.967 -0.7358 -0.3847 -0.2951
 6656TIP3    H219933   4.444   2.010   2.019  0.0283 -0.1032  0.7660
 6657TIP3   OH219934   3.571   0.321   5.570 -0.7179 -0.3462  0.0892
 6657TIP3    H119935   3.555   0.278   5.486 -0.0422  1.0772 -0.8016
 6657TIP3    H219936   3.666   0.331   5.574 -0.8799  1.8009 -0.1705
 6658TIP3   OH219937   2.480   6.085   1.240 -0.0611 -0.0118 -0.7905
 6658TIP3    H119938   2.512   5.997   1.258 -1.2390  0.2122  3.3327
 6658TIP3    H219939   2.560   6.136   1.225  0.8208 -1.2573 -0.4970
 6659TIP3   OH219940   0.365   6.480   4.713 -0.2778 -0.3327 -0.4271
 6659TIP3    H119941   0.384   6.424   4.788 -0.9412  0.2182  0.1611
 6659TIP3    H219942   0.432   6.457   4.648  0.7050 -0.3559  0.5695
 6660TIP3   OH219943   3.489   5.530   5.231 -0.2759  0.3515  0.4399
 6660TIP3    H119944   3.504   5.545   5.138  3.5584 -0.0169  0.8415
 6660TIP3    H219945   3.430   5.600   5.257 -1.5203  0.4245 -2.2267
 6661TIP3   OH219946   0.246   2.372   3.186 -0.1963 -1.0155 -0.3095
 6661TIP3    H119947   0.189   2.298   3.164 -2.7351  0.7674 -0.2018
 6661TIP3    H219948   0.187   2.437   3.226  1.6960  1.4783 -1.2816
 6662TIP3   OH219949   5.246   4.414   3.606 -0.0510  0.1319 -0.0220
 6662TIP3    H119950   5.286   4.350   3.547 -0.5447  1.0292 -1.3614
 6662TIP3    H219951   5.303   4.490   3.602 -1.2676  1.0277 -1.1286
 6663TIP3   OH219952   5.311   3.953   3.158 -0.2684 -0.1134 -0.4242
 6663TIP3    H119953   5.306   3.864   3.124 -2.1754  0.1675 -0.9860
 6663TIP3    H219954   5.267   3.948   3.243 -0.4014  0.3066 -0.4694
 6664TIP3   OH219955   0.352   6.357   3.456 -0.0914 -0.7587 -0.5346
 6664TIP3    H119956   0.381   6.300   3.529 -3.0651 -1.2135  0.4150
 6664TIP3    H219957   0.324   6.296   3.388  1.2024 -0.3229 -1.5140
 6665TIP3   OH219958   1.319   0.984   0.048 -0.3709  0.2392 -0.6220
 6665TIP3    H119959   1.233   0.996   0.090 -1.0238  1.4944 -2.2035
 6665TIP3    H219960   1.382   1.014   0.114 -1.1787  0.0420  0.2769
 6666TIP3   OH219961   4.733   3.957   0.629 -0.3078 -0.4147  0.1005
 6666TIP3    H119962   4.698   4.046   0.639 -0.5592 -0.2117 -2.0633
 6666TIP3    H219963   4.772   3.937   0.714 -1.6952  1.1091  1.1598
 6667TIP3   OH219964   0.357   5.319   4.686  0.4185 -0.5049  0.4825
 6667TIP3    H119965   0.298   5.245   4.688  0.3287 -0.6531 -2.7117
 6667TIP3    H219966   0.442   5.283   4.660  0.2417  0.4707 -1.7082
 6668TIP3   OH219967   6.153   6.263   1.072 -0.3438  0.0256  0.7536
 6668TIP3    H119968   6.074   6.211   1.058  0.1821 -0.3214 -1.1754
 6668TIP3    H219969   6.184   6.236   1.158 -2.8154  0.8792  2.0103
 6669TIP3   OH219970   7.044   1.821   5.387  0.3727 -0.4746 -0.1514
 6669TIP3    H119971   7.118   1.764   5.410  1.9718  2.2056  1.9940
 6669TIP3    H219972   6.988   1.819   5.464  0.3728  0.7117 -0.1118
 6670TIP3   OH219973   1.817   5.628   0.363 -0.3557  0.3514 -0.1538
 6670TIP3    H119974   1.757   5.630   0.438  0.0382  2.0460  0.1714
 6670TIP3    H219975   1.762   5.605   0.288 -1.6742  2.7318 -0.0302
 6671TIP3   OH219976   3.563   1.582   0.015  0.1283  0.7874 -0.0112
 6671TIP3    H119977   3.628   1.528   0.058  0.8843 -0.2990 -2.3571
 6671TIP3    H219978   3.573   1.669   0.054  3.5974  0.8858 -0.8092
 6672TIP3   OH219979   3.465   6.530   5.502  0.3729  0.4290  0.3259
 6672TIP3    H119980   3.476   6.527   5.407  1.2132  0.3101  0.4147
 6672TIP3    H219981   3.515   6.455   5.534  0.8116  0.9565  0.9132
 6673TIP3   OH219982   3.071   2.285   0.830  0.1071  0.4876  0.1108
 6673TIP3    H119983   3.098   2.303   0.920  3.1228  0.8381 -0.7501
 6673TIP3    H219984   3.100   2.361   0.780 -1.4586  0.2847 -1.1820
 6674TIP3   OH219985   0.749   4.155   4.757 -0.2084  0.2398 -0.4457
 6674TIP3    H119986   0.811   4.218   4.793 -1.6355  1.4904 -0.0984
 6674TIP3    H219987   0.664   4.182   4.791 -0.8213 -2.2161  0.1622
 6675TIP3   OH219988   4.609   5.399   0.415  0.4726 -0.1492 -0.4036
 6675TIP3    H119989   4.675   5.340   0.451 -0.5170 -0.6486  0.6523
 6675TIP3    H219990   4.590   5.461   0.486 -0.1706 -0.0068 -0.6884
 6676TIP3   OH219991   3.982   3.625   1.570  0.3149  0.1862  0.3069
 6676TIP3    H119992   3.932   3.639   1.490 -1.3167  2.0621  1.5566
 6676TIP3    H219993   4.063   3.584   1.541  0.6645  2.6060 -2.5369
 6677TIP3   OH219994   2.134   4.340   0.170  0.5455  0.0088 -0.0330
 6677TIP3    H119995   2.053   4.304   0.207  0.7049 -0.5994 -0.2595
 6677TIP3    H219996   2.203   4.282   0.204  0.7181 -0.4325 -1.0979
 6678TIP3   OH219997   6.642   6.673   2.489 -0.5880 -0.0368 -0.0008
 6678TIP3    H119998   6.734   6.686   2.513 -0.7830  0.1135  0.6689
 6678TIP3    H219999   6.640   6.587   2.446  0.3015  1.0159 -2.3209
 6679TIP3   OH220000   4.854   1.195   5.104  0.5199 -0.2617 -0.3407
 6679TIP3    H120001   4.793   1.198   5.030  0.6335  1.0720 -0.4095
 6679TIP3    H220002   4.891   1.283   5.108 -0.8672  0.3231  2.4569
 6680TIP3   OH220003   5.381   2.501   4.137  0.6489  0.1559  0.1861
 6680TIP3    H120004   5.306   2.502   4.078  1.4874  0.6311 -0.9105
 6680TIP3    H220005   5.457   2.503   4.079  1.5135 -0.0510  1.2757
 6681TIP3   OH220006   2.937   3.136   0.925 -0.7616  0.2027 -0.4637
 6681TIP3    H120007   2.982   3.187   0.992 -1.0518  0.1204 -0.2035
 6681TIP3    H220008   2.856   3.108   0.967 -0.9364  0.1356 -0.8444
 6682TIP3   OH220009   1.966   3.683   4.160  0.0207  0.2460  0.0489
 6682TIP3    H120010   2.001   3.600   4.128 -0.3668 -0.8254  2.2249
 6682TIP3    H220011   1.871   3.671   4.159 -0.0572  0.8493 -0.1053
 6683TIP3   OH220012   0.511   1.767   4.780  0.4757  0.1540 -0.2852
 6683TIP3    H120013   0.448   1.769   4.852 -1.1564 -0.4569 -1.6241
 6683TIP3    H220014   0.560   1.687   4.794 -1.2858 -1.1075 -0.9727
 6684TIP3   OH220015   2.906   2.218   1.691 -0.1513 -0.1251 -0.1302
 6684TIP3    H120016   2.877   2.302   1.654 -0.6853  0.3301  1.2590
 6684TIP3    H220017   2.878   2.153   1.627 -0.9054  0.6383 -0.5977
 6685TIP3   OH220018   0.453   2.160   5.397 -0.2341 -0.0380 -0.4477
 6685TIP3    H120019   0.463   2.110   5.316  1.1489  0.5382 -0.6508
 6685TIP3    H220020   0.361   2.146   5.422 -0.1936 -1.7516 -1.0916
 6686TIP3   OH220021   0.351   5.607   0.255  0.3502  0.5398  0.0399
 6686TIP3    H120022   0.312   5.544   0.194  0.8782 -0.5387  0.7779
 6686TIP3    H220023   0.397   5.669   0.199 -1.2048  1.0224 -0.7754
 6687TIP3   OH220024   7.242   4.870   1.306  0.2067  0.9448  0.5700
 6687TIP3    H120025   7.170   4.920   1.267  0.1599  1.3479  1.1611
 6687TIP3    H220026   7.220   4.864   1.399 -1.4580 -2.9620  0.1135
 6688TIP3   OH220027   5.862   6.331   4.186 -0.0707  0.3024 -0.5009
 6688TIP3    H120028   5.908   6.273   4.126  0.4070  0.5431 -0.3674
 6688TIP3    H220029   5.845   6.410   4.135  1.8472  1.1967  0.1540
 6689TIP3   OH220030   7.164   3.862   5.755 -0.3940  0.3213  0.1600
 6689TIP3    H120031   7.091   3.814   5.795 -1.9863  0.7115 -2.0940
 6689TIP3    H220032   7.199   3.803   5.690  1.6823 -0.0226  1.5077
 6690TIP3   OH220033   2.155   2.787   1.450  0.1821 -0.0039 -0.6668
 6690TIP3    H120034   2.113   2.863   1.491 -0.1454 -1.3873  1.7606
 6690TIP3    H220035   2.230   2.823   1.404 -0.3493  1.8640 -0.1732
 6691TIP3   OH220036   1.908   0.721   4.679 -0.2280  0.2104 -0.1251
 6691TIP3    H120037   1.860   0.638   4.691  1.4911 -0.6621  1.1831
 6691TIP3    H220038   1.932   0.721   4.586 -1.5933  0.0476 -0.5116
 6692TIP3   OH220039   5.903   0.355   1.078 -0.7264  0.2146  0.2280
 6692TIP3    H120040   5.862   0.413   1.014  0.7958 -0.3501 -1.3597
 6692TIP3    H220041   5.901   0.268   1.036 -2.1914 -0.7594  2.1778
 6693TIP3   OH220042   6.743   2.549   4.389 -0.0378 -0.1298 -0.0664
 6693TIP3    H120043   6.746   2.643   4.371 -0.3562 -0.1444 -0.2095
 6693TIP3    H220044   6.655   2.523   4.363 -0.0573 -0.4087  0.2811
 6694TIP3   OH220045   2.519   3.136   3.460 -0.3108  0.3157  0.4190
 6694TIP3    H120046   2.453   3.087   3.410  1.4241 -1.9682  0.1568
 6694TIP3    H220047   2.520   3.093   3.545 -1.3596  2.4522  1.5830
 6695TIP3   OH220048   5.468   1.796   2.114 -0.5610  0.1980  0.3489
 6695TIP3    H120049   5.472   1.739   2.190  1.2698 -0.7690 -0.3960
 6695TIP3    H220050   5.419   1.746   2.048 -0.4867  0.2187  0.2769
 6696TIP3   OH220051   2.570   0.098   2.760  0.4143 -0.3792 -0.2032
 6696TIP3    H120052   2.658   0.064   2.745  1.1216 -0.3497  3.2283
 6696TIP3    H220053   2.525   0.028   2.808 -1.3241 -0.1973 -1.4755
 6697TIP3   OH220054   0.493   1.670   2.400 -0.2932  0.1229 -0.1005
 6697TIP3    H120055   0.453   1.755   2.416  1.5537  0.9594  0.2653
 6697TIP3    H220056   0.479   1.654   2.307 -0.5400  0.8778 -0.2013
 6698TIP3   OH220057   3.496   0.802   1.605  0.1417 -0.2337 -0.8123
 6698TIP3    H120058   3.464   0.741   1.671  0.3863 -0.3876 -0.8357
 6698TIP3    H220059   3.590   0.809   1.621 -0.0314  0.9159 -0.1696
 6699TIP3   OH220060   6.018   2.804   3.105  0.0566  0.3012 -0.0984
 6699TIP3    H120061   5.974   2.883   3.074  2.0246 -0.1922 -4.9806
 6699TIP3    H220062   5.965   2.732   3.074  0.4564 -0.3232  0.6177
 6700TIP3   OH220063   6.504   0.052   5.628  0.0541  0.6564  0.1311
 6700TIP3    H120064   6.584   0.086   5.587 -0.0702  0.5996 -0.1651
 6700TIP3    H220065   6.476   0.122   5.688 -0.6740  1.4820 -1.0991
 6701TIP3   OH220066   6.095   2.723   0.451  0.5632 -0.7513  0.6863
 6701TIP3    H120067   6.183   2.732   0.488  0.3346 -2.0451  1.6164
 6701TIP3    H220068   6.075   2.810   0.416  2.4241 -0.5804 -0.0680
 6702TIP3   OH220069   6.170   5.952   0.995  0.4260 -0.1828 -0.8193
 6702TIP3    H120070   6.229   6.016   1.036 -1.9361  0.0398  2.5845
 6702TIP3    H220071   6.211   5.867   1.012  0.9404  0.0930 -0.6459
 6703TIP3   OH220072   3.090   2.832   5.443  0.1151  0.1331 -0.8366
 6703TIP3    H120073   3.135   2.794   5.367  1.2079 -0.8184  0.2387
 6703TIP3    H220074   3.063   2.919   5.414 -1.0864 -0.8457 -2.8880
 6704TIP3   OH220075   1.676   1.077   3.184  0.2226  0.1789  0.2368
 6704TIP3    H120076   1.700   1.048   3.096  0.8785  1.6529 -0.0882
 6704TIP3    H220077   1.580   1.068   3.186 -0.0864  2.1834 -1.4565
 6705TIP3   OH220078   6.128   0.494   4.635  0.2688 -0.7566 -0.1087
 6705TIP3    H120079   6.200   0.447   4.594  0.4078 -1.4178  0.8796
 6705TIP3    H220080   6.171   0.560   4.690  0.0787  0.7327 -1.6523
 6706TIP3   OH220081   7.149   6.701   0.277  0.3971 -0.2817  0.1828
 6706TIP3    H120082   7.072   6.701   0.221 -0.5125 -0.2583  1.4042
 6706TIP3    H220083   7.189   6.615   0.263  0.8662  0.1351 -1.3517
 6707TIP3   OH220084   4.636   4.382   4.749  0.3354  0.8034  0.3618
 6707TIP3    H120085   4.593   4.316   4.803 -0.7064  1.7959  0.7932
 6707TIP3    H220086   4.621   4.351   4.659 -2.4016  1.6735  0.4125
 6708TIP3   OH220087   5.892   4.142   0.049  0.1735  0.1477  0.0734
 6708TIP3    H120088   5.918   4.233   0.037 -2.4903  1.0791  0.7763
 6708TIP3    H220089   5.845   4.141   0.132  1.5199 -2.2434  0.9172
 6709TIP3   OH220090   0.126   4.003   3.753 -0.0294  0.3496 -0.2035
 6709TIP3    H120091   0.052   4.019   3.811  0.7166 -2.3129  1.6531
 6709TIP3    H220092   0.192   4.068   3.778 -0.8012  1.1309 -0.1631
 6710TIP3   OH220093   4.346   6.534   4.897  0.0008 -0.5555 -0.1691
 6710TIP3    H120094   4.385   6.554   4.812  0.1224  0.7635  0.1842
 6710TIP3    H220095   4.416   6.493   4.947  0.6662  0.8843  0.1160
 6711TIP3   OH220096   2.593   2.514   5.249 -0.2402 -0.9528  0.6017
 6711TIP3    H120097   2.507   2.556   5.244 -0.2174 -1.0038 -2.5278
 6711TIP3    H220098   2.627   2.519   5.159  2.9374 -1.1839  1.6497
 6712TIP3   OH220099   5.885   1.436   0.165 -0.0040  0.8296 -0.5098
 6712TIP3    H120100   5.819   1.400   0.224 -1.3015  2.1368 -1.0972
 6712TIP3    H220101   5.917   1.360   0.115 -0.0282 -0.0355  0.7508
 6713TIP3   OH220102   1.112   0.863   0.885  0.5500  0.1802 -0.2919
 6713TIP3    H120103   1.024   0.837   0.912 -0.0525  0.5890 -1.7331
 6713TIP3    H220104   1.167   0.788   0.910 -0.6011 -1.1041 -1.3806
 6714TIP3   OH220105   4.049   4.557   3.320 -0.5877  0.0054  0.1779
 6714TIP3    H120106   4.003   4.638   3.343 -0.9521 -0.4681  1.2269
 6714TIP3    H220107   4.133   4.563   3.366 -0.5489 -0.1350  0.1262
 6715TIP3   OH220108   1.461   5.175   2.363  0.4525 -0.0316 -0.2300
 6715TIP3    H120109   1.506   5.226   2.296 -0.6606 -0.1759 -1.1189
 6715TIP3    H220110   1.505   5.090   2.362  1.9778  0.6944  0.9016
 6716TIP3   OH220111   2.503   1.175   2.527 -0.9486  0.4349 -0.6923
 6716TIP3    H120112   2.532   1.109   2.464 -1.0428  0.7444 -1.0588
 6716TIP3    H220113   2.441   1.128   2.583 -1.5818  0.3996 -1.4068
 6717TIP3   OH220114   6.230   3.560   1.041  0.5072 -0.2537  0.8651
 6717TIP3    H120115   6.200   3.615   0.968  0.0800 -0.6259  0.7547
 6717TIP3    H220116   6.278   3.620   1.098 -0.3571  0.3473  0.9794
 6718TIP3   OH220117   2.313   2.277   2.942 -0.4051  0.5292  0.7504
 6718TIP3    H120118   2.326   2.218   3.017 -0.7624  0.9489  1.1435
 6718TIP3    H220119   2.388   2.336   2.945 -0.8426  1.0556  1.2506
 6719TIP3   OH220120   3.008   3.022   0.561 -0.8220  0.1495  0.2669
 6719TIP3    H120121   2.920   3.059   0.573 -1.3493 -1.5031  1.9325
 6719TIP3    H220122   3.017   2.957   0.631  0.0962 -2.7906 -2.3429
 6720TIP3   OH220123   1.231   6.322   0.900  0.0404  0.5269  0.1210
 6720TIP3    H120124   1.238   6.356   0.989  1.1428 -0.4557  0.4379
 6720TIP3    H220125   1.297   6.370   0.851  0.1450  0.3455  0.0819
 6721TIP3   OH220126   6.724   0.663   3.741 -0.4119  0.2732  0.0515
 6721TIP3    H120127   6.728   0.742   3.687 -1.3959 -0.0993 -0.5881
 6721TIP3    H220128   6.725   0.591   3.678  3.6573 -0.4365  0.6561
 6722TIP3   OH220129   1.592   6.774   2.700  0.3757  0.1723 -0.3898
 6722TIP3    H120130   1.654   6.804   2.634  0.8991 -0.1441 -0.0476
 6722TIP3    H220131   1.641   6.773   2.782 -0.4556  1.1972  0.1405
 6723TIP3   OH220132   3.605   1.237   0.438 -0.5627  0.3090  0.4267
 6723TIP3    H120133   3.533   1.205   0.492 -0.3925 -0.3059  0.2977
 6723TIP3    H220134   3.655   1.294   0.497 -0.9721  0.4894  0.6061
 6724TIP3   OH220135   4.167   2.142   4.928  0.1874  0.1252 -0.2604
 6724TIP3    H120136   4.212   2.109   5.007 -0.9984  2.6161  1.5829
 6724TIP3    H220137   4.226   2.209   4.894  0.2140 -0.2265 -0.9142
 6725TIP3   OH220138   6.716   0.061   4.680  0.0190  0.0671  0.8712
 6725TIP3    H120139   6.715   0.036   4.772 -0.9079  0.8632  1.0816
 6725TIP3    H220140   6.739   0.154   4.680 -0.9089  0.3063  0.3617
 6726TIP3   OH220141   2.787   0.395   0.743 -0.1971  0.4321  0.1021
 6726TIP3    H120142   2.802   0.301   0.729  1.9587  0.6172  0.7363
 6726TIP3    H220143   2.695   0.409   0.721  0.0417 -1.3626 -2.4001
 6727TIP3   OH220144   2.557   3.866   0.598  0.2931  0.0631 -0.5841
 6727TIP3    H120145   2.623   3.808   0.635  0.3381  0.1511 -0.5264
 6727TIP3    H220146   2.508   3.811   0.537 -2.4006 -1.2191  2.4442
 6728TIP3   OH220147   0.951   5.733   3.216 -0.1079  0.1256  0.1372
 6728TIP3    H120148   0.885   5.773   3.273  0.9122  0.4118  1.1487
 6728TIP3    H220149   0.995   5.668   3.271 -0.8341 -1.4841 -1.0977
 6729TIP3   OH220150   3.071   1.763   4.625  0.1940  0.2708 -0.0040
 6729TIP3    H120151   2.977   1.746   4.612  0.1479  0.8053 -0.4193
 6729TIP3    H220152   3.098   1.699   4.690 -0.4197 -0.0218 -0.0283
 6730TIP3   OH220153   6.354   1.917   4.885 -0.2121  0.3100  0.1285
 6730TIP3    H120154   6.348   1.989   4.822 -1.5000 -0.1196 -0.2663
 6730TIP3    H220155   6.429   1.865   4.855 -0.1921  0.6662 -0.4584
 6731TIP3   OH220156   1.988   2.446   3.915 -0.2843 -0.0034 -0.0378
 6731TIP3    H120157   1.940   2.526   3.937  0.7627  0.6264  0.0723
 6731TIP3    H220158   1.981   2.439   3.820 -3.0829 -1.5964  0.1700
 6732TIP3   OH220159   2.566   3.886   3.990  0.1007  1.2018 -0.1071
 6732TIP3    H120160   2.635   3.951   4.002  0.1712  1.3028 -0.9733
 6732TIP3    H220161   2.490   3.936   3.961 -0.4563  1.1320  1.1583
 6733TIP3   OH220162   0.368   6.591   2.383  0.4529 -0.3156  0.2228
 6733TIP3    H120163   0.318   6.671   2.401  0.5296 -0.6885  2.3231
 6733TIP3    H220164   0.454   6.622   2.356 -0.0260  0.2919 -0.6954
 6734TIP3   OH220165   3.181   6.406   1.305  0.1082  0.3254 -0.1833
 6734TIP3    H120166   3.130   6.407   1.224  1.0766 -0.4803 -0.8265
 6734TIP3    H220167   3.117   6.380   1.372 -0.7028  1.0066 -0.6666
 6735TIP3   OH220168   3.352   4.758   3.379 -0.7292 -0.1951 -0.6945
 6735TIP3    H120169   3.389   4.717   3.457 -1.1756 -0.9726 -0.8888
 6735TIP3    H220170   3.413   4.830   3.360 -0.1584 -0.5119 -0.1229
 6736TIP3   OH220171   6.199   5.684   4.613 -0.7980 -0.1493  0.3613
 6736TIP3    H120172   6.154   5.735   4.546  1.4563  0.0558 -1.0909
 6736TIP3    H220173   6.248   5.618   4.565 -0.2196 -0.9152  1.9247
 6737TIP3   OH220174   0.842   3.055   4.673 -0.0019  0.1637 -0.3920
 6737TIP3    H120175   0.778   3.084   4.608 -0.4706  1.7998  0.7217
 6737TIP3    H220176   0.916   3.115   4.662 -0.5031  1.1383  1.2030
 6738TIP3   OH220177   4.582   3.981   1.724  0.3692 -0.5534 -0.1299
 6738TIP3    H120178   4.671   3.958   1.750 -0.0421 -1.0160  0.9564
 6738TIP3    H220179   4.590   4.066   1.681  1.3654 -0.7254 -0.3104
 6739TIP3   OH220180   6.979   3.337   1.993  0.0141 -0.0093 -0.2138
 6739TIP3    H120181   7.071   3.318   2.012 -0.2740 -0.6706  0.5707
 6739TIP3    H220182   6.944   3.256   1.956 -0.2545  0.2397 -0.5140
 6740TIP3   OH220183   1.438   0.354   3.900  0.3609 -0.2184 -0.1747
 6740TIP3    H120184   1.468   0.323   3.815  2.0554 -0.8380  0.6003
 6740TIP3    H220185   1.348   0.322   3.907  0.4183 -0.7141 -1.4439
 6741TIP3   OH220186   0.433   4.890   2.481 -0.5131  0.0636 -0.3726
 6741TIP3    H120187   0.426   4.983   2.462 -1.5914  0.0358 -0.1870
 6741TIP3    H220188   0.518   4.864   2.446  0.1814  1.2915  0.3398
 6742TIP3   OH220189   3.885   2.304   0.498  0.0006  0.0192 -0.0040
 6742TIP3    H120190   3.975   2.272   0.507 -0.3592 -0.8335  0.6787
 6742TIP3    H220191   3.885   2.351   0.415  0.7417 -1.1045 -0.6615
 6743TIP3   OH220192   4.346   0.201   1.124 -0.0734 -0.0338 -0.0185
 6743TIP3    H120193   4.421   0.188   1.066  0.0570  0.0238  0.1359
 6743TIP3    H220194   4.348   0.125   1.182  0.1374  0.2014  0.2828
 6744TIP3   OH220195   3.464   1.937   0.632  0.4482  0.6989  0.4360
 6744TIP3    H120196   3.549   1.925   0.676  1.6928 -2.4644 -2.3240
 6744TIP3    H220197   3.409   1.868   0.668 -0.3620  1.5428  0.8487
 6745TIP3   OH220198   4.479   4.236   2.351  0.3137  0.4663  0.0332
 6745TIP3    H120199   4.556   4.292   2.336 -0.7091  1.4692 -1.9999
 6745TIP3    H220200   4.513   4.147   2.345  1.3392  0.8828 -0.8624
 6746TIP3   OH220201   5.558   5.809   5.789 -0.4393 -0.1972 -0.2514
 6746TIP3    H120202   5.508   5.760   5.855  0.5811 -3.0495 -1.4409
 6746TIP3    H220203   5.514   5.894   5.784 -1.4790 -0.4107  2.9589
 6747TIP3   OH220204   3.459   5.946   2.064 -0.4354  0.5417 -0.1366
 6747TIP3    H120205   3.482   5.942   2.156 -0.6473  0.6050 -0.0801
 6747TIP3    H220206   3.392   6.014   2.058 -1.7364 -0.6746 -0.0497
 6748TIP3   OH220207   3.567   3.114   2.410  0.3575  0.0741  0.4166
 6748TIP3    H120208   3.662   3.113   2.397  0.5005 -1.9114  1.2773
 6748TIP3    H220209   3.537   3.188   2.357  2.2142 -0.1060 -1.0117
 6749TIP3   OH220210   6.457   1.195   3.778  0.6055 -0.1642  0.9049
 6749TIP3    H120211   6.471   1.210   3.872  0.2531 -0.4085  0.9954
 6749TIP3    H220212   6.534   1.234   3.737  2.0419 -2.2180  1.4548
 6750TIP3   OH220213   2.187   1.921   2.343 -0.0010  0.0770 -0.4380
 6750TIP3    H120214   2.111   1.876   2.306 -0.4120  0.4143 -0.0209
 6750TIP3    H220215   2.158   2.012   2.353  0.2701  0.0933  0.2378
 6751TIP3   OH220216   1.704   5.389   3.254 -0.6385  0.1486 -0.1730
 6751TIP3    H120217   1.694   5.473   3.209 -3.0716  0.2585  0.4282
 6751TIP3    H220218   1.744   5.331   3.188  1.5053  1.8242 -0.4507
 6752TIP3   OH220219   6.827   1.517   5.824  0.5179  0.0734  0.2398
 6752TIP3    H120220   6.756   1.526   5.761  0.1074  0.6676  0.7715
 6752TIP3    H220221   6.905   1.546   5.776  0.3401 -0.2249 -0.2315
 6753TIP3   OH220222   5.942   5.048   4.175 -0.2426  0.2409 -0.5890
 6753TIP3    H120223   5.891   5.083   4.102 -1.3138 -2.5907 -1.3303
 6753TIP3    H220224   5.994   4.977   4.136 -0.0420 -0.6393  1.2001
 6754TIP3   OH220225   6.176   1.616   5.384 -0.3048  0.0345 -0.5883
 6754TIP3    H120226   6.184   1.651   5.473 -0.5760 -0.3426 -0.4135
 6754TIP3    H220227   6.263   1.580   5.364  0.4992  2.2360 -1.4025
 6755TIP3   OH220228   0.794   0.849   2.757 -0.2206  0.2008 -0.3917
 6755TIP3    H120229   0.852   0.924   2.769  0.3782 -0.3308  0.1298
 6755TIP3    H220230   0.792   0.836   2.662  1.5894 -0.5659 -0.3695
 6756TIP3   OH220231   6.827   1.944   3.744  0.0077  0.0692 -0.2208
 6756TIP3    H120232   6.784   1.901   3.670  0.4700 -1.3918  0.3248
 6756TIP3    H220233   6.920   1.941   3.723  0.0066  2.0053 -0.7599
 6757TIP3   OH220234   1.637   6.461   2.208 -0.0849  0.4776 -0.0991
 6757TIP3    H120235   1.693   6.411   2.266 -1.2246  1.1045  1.6049
 6757TIP3    H220236   1.653   6.424   2.121  1.8656 -0.2937  0.5447
 6758TIP3   OH220237   2.661   5.510   5.514  0.0689 -0.5284 -0.5836
 6758TIP3    H120238   2.615   5.441   5.467 -1.4654  0.1280 -0.1022
 6758TIP3    H220239   2.730   5.539   5.454 -0.3780 -1.2816 -1.4733
 6759TIP3   OH220240   0.997   0.275   4.887 -0.4701  0.4524  0.3872
 6759TIP3    H120241   0.981   0.186   4.919  2.1663 -0.6885 -1.1766
 6759TIP3    H220242   0.992   0.268   4.792  1.9387  1.4126  0.1174
 6760TIP3   OH220243   2.051   1.620   4.613  0.1908 -1.0414 -0.1578
 6760TIP3    H120244   2.126   1.605   4.670  1.0607  0.5592 -0.8117
 6760TIP3    H220245   1.997   1.542   4.623  0.2655 -0.8186  2.8609
 6761TIP3   OH220246   4.108   5.072   4.456  0.0529 -0.4061  0.0716
 6761TIP3    H120247   4.086   5.095   4.366 -0.3266  0.1840  0.3054
 6761TIP3    H220248   4.191   5.115   4.472  0.0407 -0.3750  0.0515
 6762TIP3   OH220249   5.459   3.569   5.398 -0.1095 -0.0271  0.4411
 6762TIP3    H120250   5.489   3.481   5.373 -0.6213 -0.3489  0.9390
 6762TIP3    H220251   5.371   3.575   5.362 -0.8502 -0.4845  2.0798
 6763TIP3   OH220252   1.983   4.757   0.694  0.4703 -0.6527  0.2756
 6763TIP3    H120253   1.937   4.836   0.720 -1.7920 -1.6767 -0.3440
 6763TIP3    H220254   1.997   4.767   0.600  2.3529  0.0005  0.5809
 6764TIP3   OH220255   0.118   4.805   0.075  0.6119  0.5594 -0.3232
 6764TIP3    H120256   0.036   4.808   0.123  1.2697  0.5575  0.8458
 6764TIP3    H220257   0.133   4.712   0.059  0.6726  0.5157 -0.0165
 6765TIP3   OH220258   3.187   2.182   1.775 -0.0035  0.4018 -0.3800
 6765TIP3    H120259   3.095   2.184   1.749 -0.3167  0.8665  0.6947
 6765TIP3    H220260   3.211   2.274   1.785  1.1084  0.3754 -2.3451
 6766TIP3   OH220261   4.322   0.744   2.693  0.3782 -0.0424  0.4993
 6766TIP3    H120262   4.379   0.810   2.654  0.3686 -0.0691  0.4400
 6766TIP3    H220263   4.380   0.695   2.753  1.4338 -2.5672 -2.3313
 6767TIP3   OH220264   6.419   4.519   0.126 -0.0758  0.8316 -0.4918
 6767TIP3    H120265   6.436   4.498   0.034  1.7216  1.2704 -0.2938
 6767TIP3    H220266   6.447   4.442   0.174  0.2814  1.1145 -0.2340
 6768TIP3   OH220267   4.055   2.404   4.907  0.6045 -0.3127  0.3180
 6768TIP3    H120268   4.078   2.359   4.988 -0.3864  0.1663  0.8917
 6768TIP3    H220269   4.044   2.334   4.843 -0.4597 -0.8846  1.0821
 6769TIP3   OH220270   1.491   5.169   0.493  0.0476  0.0569 -0.2211
 6769TIP3    H120271   1.530   5.205   0.574 -1.1870 -0.0120  0.4195
 6769TIP3    H220272   1.413   5.122   0.523  0.4325 -1.3157 -1.2975
 6770TIP3   OH220273   4.750   2.695   5.031 -0.3839 -0.0812 -0.0642
 6770TIP3    H120274   4.704   2.631   5.085 -0.6583  1.0360  1.0717
 6770TIP3    H220275   4.681   2.751   4.996 -0.1601 -0.4627 -1.1554
 6771TIP3   OH220276   4.481   6.428   2.412  0.0225  0.0563  0.0200
 6771TIP3    H120277   4.496   6.514   2.451  0.1866  0.5437 -1.0744
 6771TIP3    H220278   4.409   6.390   2.463  0.3877  0.5646  0.9237
 6772TIP3   OH220279   0.816   5.875   5.584 -0.1338  0.0594  0.1002
 6772TIP3    H120280   0.789   5.955   5.629  1.6946 -0.5930  2.6109
 6772TIP3    H220281   0.899   5.899   5.542 -1.7339  0.6082 -3.0113
 6773TIP3   OH220282   5.537   1.253   2.865 -0.2185 -0.7222  0.0975
 6773TIP3    H120283   5.504   1.336   2.832  0.6216  0.6340  2.4539
 6773TIP3    H220284   5.464   1.215   2.913  0.0860 -0.1561  1.0365
 6774TIP3   OH220285   6.033   3.856   4.366 -0.2356 -0.0537  0.2529
 6774TIP3    H120286   5.996   3.941   4.389 -1.3327 -0.4205 -0.0620
 6774TIP3    H220287   6.127   3.870   4.364 -0.4607  1.6656 -1.7407
 6775TIP3   OH220288   2.315   2.160   4.587 -0.3358  0.1572 -0.2128
 6775TIP3    H120289   2.322   2.218   4.511  0.2844 -0.7036 -0.8293
 6775TIP3    H220290   2.337   2.073   4.554 -3.4571 -0.8935  0.1717
 6776TIP3   OH220291   2.920   5.357   5.648 -0.2868  0.6742 -0.9427
 6776TIP3    H120292   2.944   5.450   5.653 -1.9225  1.1438 -1.4185
 6776TIP3    H220293   2.909   5.331   5.740  2.9554  0.1153 -0.5804
 6777TIP3   OH220294   4.144   3.233   5.247 -0.4674  0.0637 -0.1492
 6777TIP3    H120295   4.099   3.315   5.267 -0.3310 -0.1666  1.2024
 6777TIP3    H220296   4.083   3.165   5.278  0.2397 -0.2851  0.4953
 6778TIP3   OH220297   6.453   1.261   3.203  0.1675  0.1848 -0.2011
 6778TIP3    H120298   6.517   1.304   3.146 -0.8418  2.6070  0.3691
 6778TIP3    H220299   6.505   1.230   3.277  1.0303 -0.1850 -0.9349
 6779TIP3   OH220300   6.958   0.562   5.007  0.2321  0.1710  0.3826
 6779TIP3    H120301   6.919   0.639   5.046 -1.7965  0.5471 -2.1560
 6779TIP3    H220302   6.990   0.591   4.921 -1.0528 -1.8361 -0.8717
 6780TIP3   OH220303   3.978   2.283   1.053 -0.2399  0.4536  0.0656
 6780TIP3    H120304   3.902   2.298   1.109 -1.1924 -0.1857 -1.0174
 6780TIP3    H220305   3.986   2.188   1.049  0.1312  0.5059 -0.4660
 6781TIP3   OH220306   1.512   4.006   2.026 -0.0754 -0.0703  0.6225
 6781TIP3    H120307   1.516   4.071   2.096 -1.9319  0.1990  0.5287
 6781TIP3    H220308   1.424   4.016   1.990 -0.2208 -2.2744  0.2564
 6782TIP3   OH220309   5.623   3.250   5.448  0.0633  0.0554  0.9595
 6782TIP3    H120310   5.686   3.309   5.489 -0.2780  1.2412 -0.1537
 6782TIP3    H220311   5.611   3.180   5.512  4.0833 -1.3893  0.4292
 6783TIP3   OH220312   2.710   0.614   2.199  0.2532  0.0305  0.5406
 6783TIP3    H120313   2.705   0.659   2.284  0.9660 -0.5858  0.9240
 6783TIP3    H220314   2.788   0.558   2.206  1.4431  1.3634 -1.2071
 6784TIP3   OH220315   3.706   3.702   1.733 -0.0036  0.2537  0.0983
 6784TIP3    H120316   3.689   3.680   1.641  0.3726 -1.7980  0.4729
 6784TIP3    H220317   3.699   3.619   1.779  0.2443  1.1764  1.8815
 6785TIP3   OH220318   5.517   5.301   2.931  0.1716  0.2992  0.0189
 6785TIP3    H120319   5.493   5.260   2.847  1.6964  0.4269 -0.5034
 6785TIP3    H220320   5.580   5.241   2.970  0.2497  0.7522  0.6037
 6786TIP3   OH220321   6.921   5.847   3.577 -0.6264 -0.1139  0.1824
 6786TIP3    H120322   6.923   5.909   3.503 -1.6646  0.0390  0.2715
 6786TIP3    H220323   7.006   5.803   3.573  1.1289  2.8995  1.4999
 6787TIP3   OH220324   3.831   4.796   3.614  0.2565 -0.0367 -0.6848
 6787TIP3    H120325   3.890   4.804   3.688  1.3008 -0.3559 -1.4526
 6787TIP3    H220326   3.760   4.739   3.644 -0.0174  0.8916  0.4595
 6788TIP3   OH220327   6.326   2.144   1.947 -0.7592  0.2092 -0.5889
 6788TIP3    H120328   6.307   2.053   1.969  0.2911 -0.4070 -2.1007
 6788TIP3    H220329   6.262   2.166   1.879 -1.5507  0.9113  0.3329
 6789TIP3   OH220330   3.324   6.607   4.198 -0.4937 -0.3769  0.5829
 6789TIP3    H120331   3.410   6.567   4.211 -0.2569  0.0710  0.4061
 6789TIP3    H220332   3.314   6.669   4.270  0.2081  1.0560 -0.5020
 6790TIP3   OH220333   5.914   5.604   0.142  0.3043 -0.3723 -0.8637
 6790TIP3    H120334   5.920   5.652   0.060  0.3037  0.5287 -0.3464
 6790TIP3    H220335   5.996   5.555   0.148  0.3438 -0.3659 -1.3486
 6791TIP3   OH220336   1.790   0.443   4.784  0.4835 -0.0209 -0.6199
 6791TIP3    H120337   1.764   0.402   4.867  0.2449  1.2362 -0.0440
 6791TIP3    H220338   1.855   0.384   4.747  0.8133 -0.4580  0.6139
 6792TIP3   OH220339   5.828   3.856   2.708  0.1271  0.6648 -0.5377
 6792TIP3    H120340   5.783   3.881   2.788  0.6211  2.4907 -0.7762
 6792TIP3    H220341   5.791   3.771   2.685  0.6488 -0.3566  2.1029
 6793TIP3   OH220342   6.358   3.502   3.258 -0.0878 -0.0135 -0.2032
 6793TIP3    H120343   6.450   3.475   3.256 -0.0914  0.0125 -1.0420
 6793TIP3    H220344   6.310   3.422   3.235 -0.3360 -0.2379  1.0247
 6794TIP3   OH220345   2.184   0.532   0.870 -0.3967 -0.1952  0.2874
 6794TIP3    H120346   2.245   0.593   0.830 -1.3897  1.1870  0.7691
 6794TIP3    H220347   2.239   0.468   0.915  0.6816  0.0054 -0.7118
 6795TIP3   OH220348   3.457   1.811   3.506  0.1421 -0.3083 -0.2903
 6795TIP3    H120349   3.412   1.751   3.447 -0.5127  0.7737 -0.9371
 6795TIP3    H220350   3.550   1.800   3.485  0.0408 -1.1638 -0.3159
 6796TIP3   OH220351   5.798   1.329   4.526  0.1782  0.2314 -0.3316
 6796TIP3    H120352   5.776   1.271   4.599  3.2827  1.9547  2.2365
 6796TIP3    H220353   5.753   1.411   4.546  0.9595  0.6817 -0.3674
 6797TIP3   OH220354   5.455   4.585   3.506 -0.1370  0.2204 -0.3560
 6797TIP3    H120355   5.550   4.577   3.518  0.2208  0.4500 -2.7200
 6797TIP3    H220356   5.439   4.552   3.418 -2.1945  0.8183 -0.2497
 6798TIP3   OH220357   6.810   4.694   3.443 -0.4519  0.2917 -0.2159
 6798TIP3    H120358   6.735   4.735   3.400 -1.4113 -0.2406  0.8943
 6798TIP3    H220359   6.775   4.615   3.484  0.2801  0.9771  1.9090
 6799TIP3   OH220360   6.001   2.973   3.619  0.0985 -0.2707 -0.1647
 6799TIP3    H120361   6.030   2.933   3.537  0.5268 -0.9660  0.3145
 6799TIP3    H220362   6.066   2.944   3.684  0.3549  1.1204  0.2202
 6800TIP3   OH220363   6.448   2.961   3.536 -0.2246 -0.2210  0.4833
 6800TIP3    H120364   6.413   2.976   3.448 -0.9719 -0.4441  0.7355
 6800TIP3    H220365   6.527   2.909   3.522 -0.2223 -0.0816 -0.0654
 6801TIP3   OH220366   3.639   0.780   0.325 -0.1914  0.1897 -0.0952
 6801TIP3    H120367   3.692   0.738   0.257 -0.9568 -0.6219 -0.2084
 6801TIP3    H220368   3.680   0.865   0.338  0.1963  0.2112 -1.3188
 6802TIP3   OH220369   5.614   6.403   1.122 -0.9654 -0.8346  0.2458
 6802TIP3    H120370   5.663   6.340   1.174  1.8747  0.0615 -1.1357
 6802TIP3    H220371   5.593   6.356   1.041  0.9893 -0.1493 -0.7071
 6803TIP3   OH220372   0.031   5.094   0.600  0.2023  0.4329  0.1775
 6803TIP3    H120373   0.121   5.068   0.582 -0.0053  0.1282 -0.4427
 6803TIP3    H220374  -0.019   5.060   0.525 -0.7975 -1.4836  1.6117
 6804TIP3   OH220375   0.170   4.862   4.899  0.7452 -0.4043  0.2560
 6804TIP3    H120376   0.132   4.879   4.985  1.9547 -1.1504  0.9627
 6804TIP3    H220377   0.103   4.812   4.853 -1.6184  3.2325 -0.7656
 6805TIP3   OH220378   5.212   1.633   3.336 -0.2956  0.3039 -0.1463
 6805TIP3    H120379   5.191   1.604   3.247  1.3683 -1.5747  0.0115
 6805TIP3    H220380   5.296   1.593   3.356 -1.0046 -0.0389  2.6115
 6806TIP3   OH220381   1.032   2.850   1.680 -0.2106  0.1685  0.7340
 6806TIP3    H120382   1.055   2.759   1.702  0.8018  0.2749  0.1582
 6806TIP3    H220383   1.055   2.900   1.758 -0.6138 -0.0453  0.9924
 6807TIP3   OH220384   1.873   5.551   2.985 -0.3451 -0.2411  0.5185
 6807TIP3    H120385   1.840   5.624   3.038 -0.1164  0.8114 -0.7067
 6807TIP3    H220386   1.906   5.488   3.048  0.6433  1.3003  1.6254
 6808TIP3   OH220387   6.866   4.436   4.606  0.4866  0.2712 -0.2160
 6808TIP3    H120388   6.857   4.386   4.525 -0.9421  1.3526 -0.7810
 6808TIP3    H220389   6.887   4.525   4.578  1.7752  0.2890  0.7069
 6809TIP3   OH220390   4.086   5.313   4.806  0.2133  0.0570  0.1078
 6809TIP3    H120391   4.019   5.344   4.745  0.9812  0.4084 -0.5868
 6809TIP3    H220392   4.167   5.355   4.776  0.5431  0.5558  1.6221
 6810TIP3   OH220393   2.512   5.405   4.392 -0.1222 -0.5663 -0.2078
 6810TIP3    H120394   2.466   5.355   4.459 -1.4891  0.5859 -0.2330
 6810TIP3    H220395   2.572   5.461   4.441 -0.0544 -0.7692 -0.0555
 6811TIP3   OH220396   3.165   0.853   4.429  0.3349 -0.3562  0.2043
 6811TIP3    H120397   3.152   0.898   4.346  1.3172  1.8398  1.1548
 6811TIP3    H220398   3.096   0.787   4.432  0.3959 -0.6036 -2.3951
 6812TIP3   OH220399   3.278   6.701   0.403 -0.0422  0.6883  0.1611
 6812TIP3    H120400   3.299   6.768   0.338  0.5012 -0.1943 -0.5998
 6812TIP3    H220401   3.231   6.634   0.354  0.3521  0.0192  0.6784
 6813TIP3   OH220402   5.387   4.225   5.790  0.3354 -0.2564 -0.5718
 6813TIP3    H120403   5.362   4.281   5.863  1.7145 -2.4598  1.7671
 6813TIP3    H220404   5.451   4.276   5.740  0.1381  0.9389  0.3594
 6814TIP3   OH220405   1.781   2.351   0.510  0.5768 -0.2038  0.5762
 6814TIP3    H120406   1.871   2.330   0.483  0.3579 -1.4462  0.7393
 6814TIP3    H220407   1.740   2.385   0.431  1.3545  0.9618  0.6528
 6815TIP3   OH220408   2.121   1.160   4.951  0.7363 -0.3708  0.4792
 6815TIP3    H120409   2.129   1.099   4.878  1.9775  0.3988 -0.0688
 6815TIP3    H220410   2.027   1.177   4.957  0.3890 -2.1296  0.5095
 6816TIP3   OH220411   5.130   1.996   3.906  0.0405 -0.6141  0.2641
 6816TIP3    H120412   5.197   2.062   3.923 -0.2955 -0.3848  0.7038
 6816TIP3    H220413   5.160   1.918   3.952 -0.6042 -0.1517  1.5189
 6817TIP3   OH220414   4.605   6.391   2.159  0.3908  0.2274  0.2328
 6817TIP3    H120415   4.660   6.469   2.149  0.0372  0.5765  0.9427
 6817TIP3    H220416   4.562   6.402   2.244 -0.4034 -0.2798 -0.0881
 6818TIP3   OH220417   3.471   3.064   0.340 -1.0390 -0.1254  0.2844
 6818TIP3    H120418   3.377   3.061   0.323 -0.8719  0.6887 -0.8573
 6818TIP3    H220419   3.498   3.151   0.311 -0.3442  0.6194  2.8805
 6819TIP3   OH220420   4.287   1.439   1.152 -0.7661 -0.4124 -0.0023
 6819TIP3    H120421   4.328   1.442   1.066  1.0677  0.3664  0.8336
 6819TIP3    H220422   4.202   1.399   1.137 -0.4227 -0.4632 -2.1339
 6820TIP3   OH220423   0.840   6.271   2.136 -0.0374  0.8312  0.1075
 6820TIP3    H120424   0.889   6.345   2.171  2.5542  0.3930 -2.2064
 6820TIP3    H220425   0.895   6.195   2.154  0.5623  0.3799 -3.0414
 6821TIP3   OH220426   4.140   0.807   3.690 -0.6923  0.1848 -0.2817
 6821TIP3    H120427   4.049   0.827   3.666 -0.4259  2.3485  0.2940
 6821TIP3    H220428   4.140   0.713   3.708 -2.5788 -0.0564 -1.2794
 6822TIP3   OH220429   0.120   3.904   3.474 -0.1026 -0.3368 -0.1265
 6822TIP3    H120430   0.081   3.930   3.557  1.2078 -2.3477  1.2079
 6822TIP3    H220431   0.193   3.965   3.461 -0.0413 -0.2880  0.4312
 6823TIP3   OH220432   4.297   6.789   1.063  0.5513 -0.6362  0.1869
 6823TIP3    H120433   4.352   6.773   1.140  1.7858 -1.6922 -0.8644
 6823TIP3    H220434   4.290   6.704   1.021  0.3183  0.0129 -1.1323
 6824TIP3   OH220435   0.397   1.389   4.544 -0.1009 -0.1277  0.0131
 6824TIP3    H120436   0.387   1.478   4.511  0.0344  0.9619  2.6067
 6824TIP3    H220437   0.483   1.360   4.513  0.6202  1.3524  0.5590
 6825TIP3   OH220438   4.748   3.651   0.291  0.0353  0.2876 -0.2287
 6825TIP3    H120439   4.695   3.578   0.259 -1.1595  0.1532  1.8201
 6825TIP3    H220440   4.838   3.624   0.277 -0.3968 -1.3093 -0.1324
 6826TIP3   OH220441   7.126   2.363   4.073 -0.5946  0.0217  0.2245
 6826TIP3    H120442   7.122   2.430   4.005 -1.1095  0.5072  0.7247
 6826TIP3    H220443   7.220   2.347   4.085 -0.4868  0.2220 -0.3104
 6827TIP3   OH220444   4.104   6.642   1.372  0.1934  0.0438 -0.4239
 6827TIP3    H120445   4.011   6.652   1.354  0.2332  2.4140  0.3540
 6827TIP3    H220446   4.109   6.567   1.432 -1.3000  0.3879  0.1652
 6828TIP3   OH220447   0.858   4.809   3.942  0.1729  0.1498 -0.0481
 6828TIP3    H120448   0.802   4.843   3.872 -0.9686 -0.6114  0.4804
 6828TIP3    H220449   0.918   4.749   3.897 -0.6073 -0.4004 -0.3671
 6829TIP3   OH220450   2.860   6.459   3.330 -0.5264 -0.4602  1.3947
 6829TIP3    H120451   2.829   6.372   3.304  2.0096 -1.3546  1.1264
 6829TIP3    H220452   2.953   6.459   3.308 -0.6411  2.7289  0.4069
 6830TIP3   OH220453   5.489   5.432   5.692  0.5603  0.0763 -0.0914
 6830TIP3    H120454   5.485   5.523   5.721  0.3297 -0.0887  0.4151
 6830TIP3    H220455   5.481   5.436   5.597 -0.3251  0.5324 -0.0120
 6831TIP3   OH220456   5.549   2.164   5.289 -0.2917  0.4954 -0.3681
 6831TIP3    H120457   5.517   2.093   5.233  0.2631  1.0548 -1.4264
 6831TIP3    H220458   5.471   2.196   5.335 -0.9541  0.6837 -1.5816
 6832TIP3   OH220459   3.687   6.751   3.478 -0.1136 -0.1602 -0.0200
 6832TIP3    H120460   3.636   6.688   3.429  0.2253 -0.7106  0.3225
 6832TIP3    H220461   3.695   6.827   3.420  0.5666 -0.9284 -0.9542
 6833TIP3   OH220462   2.293   6.658   4.680  0.4687  0.0587 -0.3411
 6833TIP3    H120463   2.240   6.693   4.609  0.9411  2.1902  0.2794
 6833TIP3    H220464   2.235   6.599   4.727 -0.3898 -0.0059 -1.4374
 6834TIP3   OH220465   1.106   2.579   3.553 -0.3099 -0.4040  0.0299
 6834TIP3    H120466   1.079   2.547   3.466 -0.7163  0.7695 -0.2978
 6834TIP3    H220467   1.047   2.653   3.570 -0.9714 -1.3031  1.8130
 6835TIP3   OH220468   5.102   6.662   2.829 -0.2428  0.6042  0.6236
 6835TIP3    H120469   5.077   6.709   2.749 -0.1462 -1.1154 -0.4584
 6835TIP3    H220470   5.053   6.580   2.826  0.9071 -0.1566  1.5644
 6836TIP3   OH220471   3.758   1.337   5.755  0.6492  0.2328 -0.0670
 6836TIP3    H120472   3.747   1.279   5.679  1.1044  0.8305 -0.5975
 6836TIP3    H220473   3.852   1.354   5.759  0.7041 -0.2342  0.9765
 6837TIP3   OH220474   4.172   4.060   4.936 -0.0099  0.0878 -0.4350
 6837TIP3    H120475   4.205   4.148   4.955 -0.4697  0.2447 -0.3500
 6837TIP3    H220476   4.168   4.017   5.022 -1.3785  0.5485 -0.2502
 6838TIP3   OH220477   2.900   0.489   5.192 -0.2560  0.6282  0.4067
 6838TIP3    H120478   2.838   0.419   5.171 -1.1423  1.5655 -0.1651
 6838TIP3    H220479   2.857   0.540   5.260 -0.4318  1.6806 -0.4703
 6839TIP3   OH220480   6.643   4.475   3.474  0.1256  0.6053 -0.0991
 6839TIP3    H120481   6.632   4.498   3.567  0.3493  1.0207 -0.1738
 6839TIP3    H220482   6.555   4.450   3.445 -0.0491  0.9946  0.0873
 6840TIP3   OH220483   1.712   3.848   4.660  0.1584 -0.3230  0.0152
 6840TIP3    H120484   1.710   3.915   4.592 -2.3138 -0.2103  0.1096
 6840TIP3    H220485   1.759   3.775   4.620  3.7887  1.6749  0.2496
 6841TIP3   OH220486   2.108   4.741   3.639 -0.2736 -0.7266  0.0611
 6841TIP3    H120487   2.036   4.736   3.575 -1.2480 -2.3946  1.2206
 6841TIP3    H220488   2.065   4.730   3.723  1.0472  0.9700  1.0236
 6842TIP3   OH220489   4.943   5.214   4.844 -0.4495 -0.4363  0.3308
 6842TIP3    H120490   4.954   5.260   4.761 -2.0082  0.1134  0.4069
 6842TIP3    H220491   4.980   5.127   4.828 -0.4109 -0.2191 -0.8238
 6843TIP3   OH220492   3.585   4.570   3.861  0.6380 -0.1350 -1.0436
 6843TIP3    H120493   3.639   4.644   3.834  1.5261 -0.8511 -1.2674
 6843TIP3    H220494   3.585   4.512   3.785  1.9926 -1.5108 -0.0466
 6844TIP3   OH220495   5.243   6.006   2.716 -0.1283 -0.5694 -0.1090
 6844TIP3    H120496   5.205   6.054   2.643 -0.2184  0.0127  0.3117
 6844TIP3    H220497   5.233   6.065   2.791 -1.4694 -1.7569  0.7067
 6845TIP3   OH220498   6.833   4.176   2.261 -0.2889  0.3385 -0.2258
 6845TIP3    H120499   6.902   4.159   2.196 -0.9122 -2.2154 -0.3169
 6845TIP3    H220500   6.755   4.134   2.225 -0.9793  0.0144  1.5477
 6846TIP3   OH220501   5.965   3.566   4.800  0.5023  0.1491  0.2250
 6846TIP3    H120502   6.006   3.598   4.720 -1.2004  1.6031 -0.1379
 6846TIP3    H220503   5.892   3.627   4.816 -0.5920 -1.4184  1.6304
 6847TIP3   OH220504   2.946   2.877   5.686 -0.2090  0.3427 -0.6337
 6847TIP3    H120505   2.902   2.803   5.727 -0.2837  0.6885 -0.0736
 6847TIP3    H220506   2.990   2.840   5.610 -2.8739  0.2519 -2.2498
 6848TIP3   OH220507   4.415   0.733   4.221  0.4769  0.6688  0.6602
 6848TIP3    H120508   4.404   0.734   4.316 -0.6019  1.3856  0.5431
 6848TIP3    H220509   4.502   0.771   4.206  0.4742  0.9476  1.3307
 6849TIP3   OH220510   4.889   6.708   3.400  0.7004 -0.0450 -0.1344
 6849TIP3    H120511   4.813   6.659   3.367 -0.4422  0.7074  1.2802
 6849TIP3    H220512   4.902   6.778   3.336 -1.2825  1.2067  0.7227
 6850TIP3   OH220513   5.454   3.903   4.015  0.4097 -0.0819  0.1829
 6850TIP3    H120514   5.394   3.879   3.945  0.4364  0.5974 -0.0811
 6850TIP3    H220515   5.482   3.992   3.993  1.8954 -0.5631  0.0379
 6851TIP3   OH220516   6.934   2.091   1.403  0.4227  0.3769 -0.1096
 6851TIP3    H120517   6.918   2.180   1.371  0.0223  1.1273  2.0454
 6851TIP3    H220518   6.968   2.103   1.492  1.0786 -1.6171 -0.0429
 6852TIP3   OH220519   0.921   1.457   1.156 -0.5988 -0.3790  0.9043
 6852TIP3    H120520   1.007   1.477   1.193  0.0251 -0.5190 -0.4260
 6852TIP3    H220521   0.931   1.372   1.115 -0.9356  0.2628 -0.5586
 6853TIP3   OH220522   3.844   4.537   1.195  0.2407  0.3435 -0.4743
 6853TIP3    H120523   3.751   4.514   1.187  0.5699 -1.1121 -0.3800
 6853TIP3    H220524   3.862   4.536   1.289  0.5912 -0.4398 -0.5428
 6854TIP3   OH220525   0.443   0.584   5.197  0.2661 -0.3317 -0.2027
 6854TIP3    H120526   0.375   0.517   5.204  0.1262 -0.2587 -0.7571
 6854TIP3    H220527   0.411   0.656   5.251 -0.3611 -0.0972 -0.8568
 6855TIP3   OH220528   4.565   2.509   2.751 -0.1703  0.3705 -0.4381
 6855TIP3    H120529   4.557   2.530   2.844 -3.0880  2.4456 -1.0284
 6855TIP3    H220530   4.571   2.414   2.747 -0.0193  0.2456  1.8414
 6856TIP3   OH220531   3.977   3.665   0.360  0.4550 -0.4768 -0.4148
 6856TIP3    H120532   4.043   3.729   0.332 -0.2831  0.0588 -0.9796
 6856TIP3    H220533   3.896   3.715   0.364  0.4427 -0.5218  2.6257
 6857TIP3   OH220534   3.593   0.180   1.802  0.2279 -0.4848  0.6226
 6857TIP3    H120535   3.680   0.195   1.837 -0.1529  0.5862  1.1366
 6857TIP3    H220536   3.581   0.248   1.736 -0.4994 -0.1469  1.0883
 6858TIP3   OH220537   5.094   2.648   1.093 -0.1727  0.0120  1.1444
 6858TIP3    H120538   5.083   2.651   0.998  3.4173  1.6068  0.6054
 6858TIP3    H220539   5.173   2.596   1.106  0.2402  1.0255  3.1205
 6859TIP3   OH220540   6.166   6.413   4.873  0.3060  0.1716  0.2815
 6859TIP3    H120541   6.107   6.346   4.908  0.0908  0.1778 -0.0606
 6859TIP3    H220542   6.107   6.481   4.841  0.4895  0.0318 -0.3599
 6860TIP3   OH220543   6.361   6.365   0.964  0.3667 -0.0266 -0.0266
 6860TIP3    H120544   6.293   6.325   1.018 -0.2968  0.2252 -0.6653
 6860TIP3    H220545   6.405   6.426   1.023 -0.5138  0.4334  0.1731
 6861TIP3   OH220546   5.098   3.294   2.187  0.0036 -0.3047  0.3969
 6861TIP3    H120547   5.156   3.367   2.209 -0.6747  0.3900 -0.1118
 6861TIP3    H220548   5.031   3.331   2.130 -1.0638 -1.0536  1.1085
 6862TIP3   OH220549   6.058   0.687   3.596  0.0845  0.1128  0.6953
 6862TIP3    H120550   6.123   0.618   3.582 -0.0577  0.3460 -1.4998
 6862TIP3    H220551   6.046   0.690   3.691  0.1394 -2.8224  0.8834
 6863TIP3   OH220552   0.365   6.180   1.150  0.0947 -0.3840  0.0494
 6863TIP3    H120553   0.339   6.272   1.142  1.7532  0.3772  2.4485
 6863TIP3    H220554   0.440   6.172   1.090 -0.9960 -0.6441 -1.3358
 6864TIP3   OH220555   6.242   2.661   5.219 -0.2904  0.3971 -0.1655
 6864TIP3    H120556   6.186   2.696   5.289  1.1376  0.1974  1.1325
 6864TIP3    H220557   6.306   2.729   5.202  1.0173 -0.5782  0.6606
 6865TIP3   OH220558   6.371   1.736   1.542  0.1603  0.2866  0.0253
 6865TIP3    H120559   6.341   1.716   1.453  3.3883 -1.0417 -0.9209
 6865TIP3    H220560   6.455   1.780   1.530  1.8469 -1.9878  2.3356
 6866TIP3   OH220561   5.096   4.930   5.089  0.0760  0.0998  0.1274
 6866TIP3    H120562   5.163   4.865   5.070  2.7228  2.3110  1.1495
 6866TIP3    H220563   5.092   4.985   5.011 -1.1867 -0.4716 -0.2338
 6867TIP3   OH220564   6.737   6.558   5.808 -0.0099  0.5134  0.2029
 6867TIP3    H120565   6.694   6.473   5.798 -1.8112  1.3365  0.4779
 6867TIP3    H220566   6.695   6.597   5.885 -1.0160  2.6464 -1.3483
 6868TIP3   OH220567   6.923   3.287   4.074  0.5077  0.2868  0.7509
 6868TIP3    H120568   6.958   3.329   3.995  1.9621 -0.9525  0.6998
 6868TIP3    H220569   6.835   3.258   4.049  0.9801 -0.1562 -0.4506
 6869TIP3   OH220570   0.350   0.428   5.766 -0.1214 -0.2005 -0.2982
 6869TIP3    H120571   0.269   0.430   5.716 -1.0606 -0.6546  1.1608
 6869TIP3    H220572   0.326   0.391   5.850  1.9772 -2.1190 -0.4477
 6870TIP3   OH220573   3.434   0.442   0.462  0.5232 -0.3379 -0.5067
 6870TIP3    H120574   3.380   0.451   0.384 -1.1747 -2.0274  0.3909
 6870TIP3    H220575   3.385   0.489   0.530  2.4691  2.0027 -0.5779
 6871TIP3   OH220576   5.157   0.767   1.906 -0.1039 -0.5191 -0.0464
 6871TIP3    H120577   5.079   0.821   1.919  1.7449  2.0079  1.6024
 6871TIP3    H220578   5.154   0.742   1.814 -1.6204  1.6208 -0.6576
 6872TIP3   OH220579   7.160   3.132   3.924  0.2524  0.2829 -0.0584
 6872TIP3    H120580   7.085   3.112   3.981 -0.1627 -1.6543 -1.2136
 6872TIP3    H220581   7.127   3.198   3.864 -0.5921 -0.6429 -0.6349
 6873TIP3   OH220582   6.543   5.236   5.023  0.2608 -0.0296 -0.3623
 6873TIP3    H120583   6.529   5.214   4.931  1.8882 -0.5947 -0.5014
 6873TIP3    H220584   6.636   5.222   5.037  0.2651  1.2258  1.0739
 6874TIP3   OH220585   5.868   0.857   0.180  0.5644 -0.1167 -0.0876
 6874TIP3    H120586   5.886   0.890   0.092 -1.4187  2.1099  0.2422
 6874TIP3    H220587   5.772   0.851   0.185  0.5689  0.5596  2.1299
 6875TIP3   OH220588   0.287   1.153   4.497 -0.0983 -0.4539  0.2248
 6875TIP3    H120589   0.293   1.145   4.402 -0.9446 -2.0946  0.2818
 6875TIP3    H220590   0.321   1.241   4.515  2.3063 -0.9644 -1.3491
 6876TIP3   OH220591   3.958   3.598   1.023 -0.3056 -0.1672  0.3126
 6876TIP3    H120592   3.957   3.694   1.025 -1.1234 -0.1637  0.0350
 6876TIP3    H220593   4.017   3.577   0.951 -1.8222  0.1813 -1.1135
 6877TIP3   OH220594   0.660   2.312   2.220  0.3367  0.4547 -0.0262
 6877TIP3    H120595   0.745   2.286   2.257  0.4090  0.9973  0.1928
 6877TIP3    H220596   0.653   2.405   2.239 -0.0842  0.5212 -0.4941
 6878TIP3   OH220597   1.131   0.650   3.193 -1.3964  0.2117 -0.6796
 6878TIP3    H120598   1.223   0.677   3.186 -1.0794 -0.2852  1.0424
 6878TIP3    H220599   1.090   0.686   3.115 -0.1263  2.0176 -0.5922
 6879TIP3   OH220600   4.670   4.025   5.434 -0.5313  0.1554 -0.1223
 6879TIP3    H120601   4.677   4.070   5.350 -0.4047  1.0439  0.3478
 6879TIP3    H220602   4.608   3.954   5.419 -0.4366  0.2497 -0.9870
 6880TIP3   OH220603   0.877   5.405   2.354  0.1269  0.4208  0.3408
 6880TIP3    H120604   0.939   5.475   2.334 -0.8207  1.1361 -0.1901
 6880TIP3    H220605   0.861   5.413   2.448 -0.3600  1.2550  0.1954
 6881TIP3   OH220606   6.802   2.465   1.101 -0.0344  0.6658  0.1406
 6881TIP3    H120607   6.735   2.526   1.070 -0.3221 -0.5176 -1.7052
 6881TIP3    H220608   6.862   2.455   1.027  0.2476 -0.9582  0.5472
 6882TIP3   OH220609   2.823   3.101   3.901  0.0392 -0.2415  0.0171
 6882TIP3    H120610   2.870   3.159   3.841  0.0015 -0.1376  0.0874
 6882TIP3    H220611   2.795   3.027   3.847 -0.9109  0.3533 -0.3082
 6883TIP3   OH220612   6.238   4.286   0.588  0.1054 -0.2093 -0.9347
 6883TIP3    H120613   6.184   4.363   0.568  0.6802  0.0260 -1.6257
 6883TIP3    H220614   6.209   4.259   0.675 -1.8314 -0.7069 -1.6884
 6884TIP3   OH220615   1.423   4.369   1.522 -0.3274 -0.0956 -0.0393
 6884TIP3    H120616   1.337   4.407   1.504 -0.4655 -1.0221 -1.5670
 6884TIP3    H220617   1.404   4.291   1.574 -0.5456 -0.7963 -1.1141
 6885TIP3   OH220618   1.145   2.603   2.184 -0.4249 -0.1218 -0.4607
 6885TIP3    H120619   1.072   2.644   2.137 -1.9339 -0.0653  1.7569
 6885TIP3    H220620   1.140   2.640   2.272  0.3490 -2.4417  0.6352
 6886TIP3   OH220621   6.978   5.666   1.733  0.0212 -0.2455 -0.0188
 6886TIP3    H120622   6.973   5.745   1.679  1.9219 -0.1588 -0.1152
 6886TIP3    H220623   6.979   5.699   1.823 -0.8110 -0.2716  0.0115
 6887TIP3   OH220624   6.254   0.771   0.782 -0.2008  0.0170 -0.5939
 6887TIP3    H120625   6.187   0.821   0.735  0.9846  2.0475 -0.2451
 6887TIP3    H220626   6.217   0.683   0.790 -2.8773  1.0670 -0.2941
 6888TIP3   OH220627   2.013   0.791   2.822 -0.0490  0.2485 -0.0080
 6888TIP3    H120628   2.056   0.867   2.861 -0.4732  0.3434  0.2913
 6888TIP3    H220629   2.012   0.810   2.728 -1.3752  1.2774  0.1781
 6889TIP3   OH220630   2.955   3.041   2.875  0.5995 -0.0430 -0.1713
 6889TIP3    H120631   2.876   2.988   2.870 -0.0910  0.9854 -0.3582
 6889TIP3    H220632   3.024   2.985   2.839  0.5412 -1.9770  2.3962
 6890TIP3   OH220633   0.860   1.376   1.761 -0.2014  0.2583 -0.0042
 6890TIP3    H120634   0.938   1.386   1.816 -0.4628 -2.1976  0.9274
 6890TIP3    H220635   0.892   1.329   1.684 -0.9453 -2.0360  1.0194
 6891TIP3   OH220636   2.461   0.718   2.939 -0.5609 -0.5915 -0.2187
 6891TIP3    H120637   2.521   0.792   2.927  0.4983 -1.3748  0.0833
 6891TIP3    H220638   2.406   0.744   3.013 -0.8994  0.3228 -0.7760
 6892TIP3   OH220639   7.075   1.488   0.105 -0.9410 -0.1627 -0.3103
 6892TIP3    H120640   7.025   1.460   0.182 -0.2083 -0.9679 -0.1209
 6892TIP3    H220641   7.156   1.525   0.141 -1.0556  0.4429 -0.6526
 6893TIP3   OH220642   6.427   5.621   3.979  0.0939  0.4221 -0.6078
 6893TIP3    H120643   6.479   5.668   3.914 -0.1034 -0.9467 -1.8078
 6893TIP3    H220644   6.420   5.532   3.945 -1.2756  0.0318  0.5713
 6894TIP3   OH220645   4.862   5.856   3.801  0.1754  0.0090 -0.0280
 6894TIP3    H120646   4.887   5.793   3.868 -0.0555  2.7781  2.8858
 6894TIP3    H220647   4.793   5.908   3.841 -0.2781  1.5509 -2.6091
 6895TIP3   OH220648   5.379   1.220   3.996  0.1010  0.3720  0.4539
 6895TIP3    H120649   5.317   1.149   4.010 -0.7381  0.3744 -2.5936
 6895TIP3    H220650   5.394   1.221   3.902  0.8013  3.6471  0.4733
 6896TIP3   OH220651   1.439   6.291   4.193  0.2035  0.1475  0.3292
 6896TIP3    H120652   1.424   6.245   4.276  0.7541  0.4132  0.5773
 6896TIP3    H220653   1.359   6.343   4.180 -0.5167 -1.0081 -0.0563
 6897TIP3   OH220654   1.406   2.483   4.957  0.4782  0.1040  0.0884
 6897TIP3    H120655   1.370   2.567   4.928 -0.5738 -0.2449  0.3462
 6897TIP3    H220656   1.485   2.471   4.904  0.6582  1.2664  0.0683
 6898TIP3   OH220657   3.730   6.181   0.759  0.2574  0.1002 -0.6753
 6898TIP3    H120658   3.821   6.150   0.767 -0.1749 -1.3727 -1.1524
 6898TIP3    H220659   3.677   6.105   0.783 -0.8716  0.4841 -1.8615
 6899TIP3   OH220660   4.252   1.762   0.754 -0.7657  0.1316  0.2632
 6899TIP3    H120661   4.194   1.691   0.781 -0.8964  0.4084  0.7231
 6899TIP3    H220662   4.312   1.773   0.827  0.2663 -0.5641 -0.4583
 6900TIP3   OH220663   7.026   1.282   1.852  0.4186  0.2460  0.0002
 6900TIP3    H120664   7.028   1.196   1.894 -0.9620  0.0942 -0.2042
 6900TIP3    H220665   7.082   1.273   1.775  0.6465 -0.3326  0.2351
 6901TIP3   OH220666   6.587   3.676   0.873 -0.3900  0.0684  0.0120
 6901TIP3    H120667   6.559   3.709   0.959  1.0818  1.2268  0.0959
 6901TIP3    H220668   6.558   3.585   0.872 -3.1643  0.8353  0.4774
 6902TIP3   OH220669   1.115   4.596   0.688 -0.4215 -0.3800  0.2237
 6902TIP3    H120670   1.028   4.634   0.680 -0.1407  0.2750  0.1940
 6902TIP3    H220671   1.128   4.584   0.782  0.8618  2.9845  0.6209
 6903TIP3   OH220672   3.217   2.436   2.819  0.3137 -0.4829  0.4049
 6903TIP3    H120673   3.242   2.463   2.731 -0.8818  2.5897  0.8667
 6903TIP3    H220674   3.122   2.439   2.819  0.2714 -1.2454  1.5851
 6904TIP3   OH220675   3.535   1.084   5.437 -0.0881 -0.6774 -0.0953
 6904TIP3    H120676   3.469   1.015   5.443  1.3094 -1.9251  2.6840
 6904TIP3    H220677   3.600   1.050   5.376 -0.3351 -0.9829 -0.1902
 6905TIP3   OH220678   0.193   6.047   4.255  0.0111  0.2059 -0.0023
 6905TIP3    H120679   0.254   6.091   4.314 -0.6002 -0.4169  1.1320
 6905TIP3    H220680   0.107   6.062   4.295 -0.6356  1.3057 -1.7193
 6906TIP3   OH220681   7.176   5.542   0.192  0.1168  0.4545  0.2094
 6906TIP3    H120682   7.099   5.502   0.152 -0.2472  1.6236 -0.3045
 6906TIP3    H220683   7.195   5.487   0.268 -0.6356 -0.4073 -0.2039
 6907TIP3   OH220684   1.605   5.477   0.179 -0.3303 -0.1851  0.1064
 6907TIP3    H120685   1.538   5.458   0.245  0.1356  0.8111  0.8959
 6907TIP3    H220686   1.556   5.511   0.104 -0.7527 -0.0339  0.4452
 6908TIP3   OH220687   1.600   3.767   0.192  0.5827  0.2114  0.2363
 6908TIP3    H120688   1.539   3.841   0.189 -0.1624 -0.3622  0.8140
 6908TIP3    H220689   1.652   3.775   0.112 -0.7665  0.3002 -0.6631
 6909TIP3   OH220690   6.152   5.044   2.119 -0.3054  0.3532  0.7742
 6909TIP3    H120691   6.177   4.955   2.144  0.9402  0.3969 -0.2497
 6909TIP3    H220692   6.085   5.033   2.052 -1.8541  0.2315  2.2663
 6910TIP3   OH220693   5.701   5.402   2.250  0.9678 -0.4639  0.0970
 6910TIP3    H120694   5.788   5.371   2.223  2.1024 -0.0823  2.9430
 6910TIP3    H220695   5.713   5.495   2.268  0.0049 -0.4487  0.7001
 6911TIP3   OH220696   5.098   6.266   5.413  0.0414 -0.4035  0.1914
 6911TIP3    H120697   5.049   6.327   5.468  1.4433 -0.2817  1.3534
 6911TIP3    H220698   5.149   6.214   5.474  0.6900 -1.1189 -0.9298
 6912TIP3   OH220699   3.079   2.581   1.178  0.1169 -0.5534  0.2496
 6912TIP3    H120700   3.015   2.639   1.137 -0.0477 -0.9875 -0.1103
 6912TIP3    H220701   3.107   2.628   1.257 -0.2838 -0.1479  0.1524
 6913TIP3   OH220702   2.357   5.463   0.348  0.3914  0.4808  0.0320
 6913TIP3    H120703   2.310   5.381   0.331 -0.3924  1.2607 -1.9245
 6913TIP3    H220704   2.390   5.454   0.437 -0.0102 -1.7874  0.0144
 6914TIP3   OH220705   6.119   6.462   0.330  0.3904 -0.3606  0.0413
 6914TIP3    H120706   6.150   6.552   0.317 -0.4126 -0.1721 -0.6239
 6914TIP3    H220707   6.196   6.408   0.315  1.0340  0.2388  1.0429
 6915TIP3   OH220708   7.092   1.984   0.612 -0.0358  0.2988  0.0988
 6915TIP3    H120709   7.089   2.018   0.523  0.2818 -1.9242 -0.8454
 6915TIP3    H220710   7.001   1.984   0.642 -0.2981 -0.0386 -0.6890
 6916TIP3   OH220711   0.638   3.571   0.274 -0.0014 -0.3088 -0.0979
 6916TIP3    H120712   0.586   3.640   0.314  0.1585  0.0767 -0.5407
 6916TIP3    H220713   0.622   3.581   0.180 -0.9293 -1.6421 -0.1045
 6917TIP3   OH220714   0.676   6.326   2.478 -0.6802 -0.0711  0.1097
 6917TIP3    H120715   0.695   6.419   2.474 -0.4654 -0.1019  0.4083
 6917TIP3    H220716   0.582   6.321   2.498 -0.9024  0.0783 -0.8283
 6918TIP3   OH220717   1.130   1.450   0.248 -0.2656 -0.0545 -0.5063
 6918TIP3    H120718   1.181   1.372   0.270  0.6297  0.7722  0.4413
 6918TIP3    H220719   1.190   1.523   0.264 -1.6657  0.9408  0.4312
 6919TIP3   OH220720   1.079   1.965   5.860 -0.1329 -0.4085  0.1682
 6919TIP3    H120721   1.128   1.994   5.783 -0.1084 -0.4927  0.1525
 6919TIP3    H220722   1.027   2.042   5.885 -0.4130 -0.4956 -0.1450
 6920TIP3   OH220723   2.882   0.983   5.503 -0.3654 -0.3615  0.5698
 6920TIP3    H120724   2.797   0.997   5.544  0.1560  1.7209  1.0555
 6920TIP3    H220725   2.946   0.996   5.573  0.3796 -2.6425  0.3980
 6921TIP3   OH220726   4.441   5.804   0.663  0.9180 -0.4549  0.0816
 6921TIP3    H120727   4.417   5.892   0.692  1.7470 -0.1560 -0.1353
 6921TIP3    H220728   4.469   5.759   0.743  0.9884 -0.3661  0.1065
 6922TIP3   OH220729   2.625   0.436   4.618 -0.2115  0.3518 -0.1519
 6922TIP3    H120730   2.540   0.399   4.595  0.1320 -0.5156 -0.0543
 6922TIP3    H220731   2.604   0.520   4.660 -0.9732  0.5225 -0.8463
 6923TIP3   OH220732   0.800   4.759   4.542  0.4559 -0.0865  0.1505
 6923TIP3    H120733   0.727   4.808   4.582  0.5869  1.0306 -0.9016
 6923TIP3    H220734   0.778   4.667   4.558  0.2159  0.2764  2.2299
 6924TIP3   OH220735   6.908   4.100   3.156 -0.0846 -0.1793  0.2406
 6924TIP3    H120736   6.935   4.131   3.070 -0.2404 -0.1091  0.2167
 6924TIP3    H220737   6.990   4.081   3.202 -0.0074 -1.2936 -0.3129
 6925TIP3   OH220738   2.326   5.100   5.290  0.5120  0.2895 -0.7175
 6925TIP3    H120739   2.416   5.121   5.313  0.0122  2.3132 -0.4035
 6925TIP3    H220740   2.273   5.150   5.353 -0.8485 -1.5261 -0.3282
 6926TIP3   OH220741   6.159   2.368   5.510 -0.2324 -0.5936  0.1859
 6926TIP3    H120742   6.107   2.288   5.514 -3.1530  1.2129  0.9998
 6926TIP3    H220743   6.179   2.379   5.417  0.3277 -2.2451  0.0638
 6927TIP3   OH220744   2.636   1.905   4.640 -0.0952 -0.4927 -0.3054
 6927TIP3    H120745   2.717   1.893   4.688  0.1938  0.3994 -0.5485
 6927TIP3    H220746   2.573   1.848   4.683 -0.5256  2.0291  2.7540
 6928TIP3   OH220747   0.774   1.617   4.980  0.1037  0.3394 -0.0180
 6928TIP3    H120748   0.841   1.549   4.990  0.1396  0.7043  2.9111
 6928TIP3    H220749   0.809   1.673   4.910  1.7272 -0.7626 -0.1606
 6929TIP3   OH220750   4.709   6.389   1.118 -0.3514  0.0487 -0.1259
 6929TIP3    H120751   4.800   6.396   1.146 -0.6767  2.0970  0.6163
 6929TIP3    H220752   4.676   6.312   1.164  1.2239 -1.2926 -1.1614
 6930TIP3   OH220753   4.935   0.978   1.602  0.0963 -0.7649  0.5356
 6930TIP3    H120754   4.862   1.010   1.549 -0.0327  0.6381  1.5112
 6930TIP3    H220755   5.012   1.019   1.563  0.1646 -0.8728  0.5571
 6931TIP3   OH220756   1.862   6.664   3.708  0.1138  0.3781  0.2940
 6931TIP3    H120757   1.787   6.692   3.760 -0.6729  0.0332 -0.6175
 6931TIP3    H220758   1.938   6.684   3.762 -0.5751  1.6285  0.8362
 6932TIP3   OH220759   4.553   5.366   1.927 -0.2400  0.4014 -0.1402
 6932TIP3    H120760   4.497   5.296   1.895  0.4295 -0.2176  0.0101
 6932TIP3    H220761   4.632   5.321   1.960  1.0857  1.3316 -1.8668
 6933TIP3   OH220762   4.056   1.878   4.140  0.3306  0.0962  0.1619
 6933TIP3    H120763   4.055   1.829   4.058 -0.5738 -0.1521  0.3146
 6933TIP3    H220764   3.982   1.843   4.190  0.2507  0.9692  0.6643
 6934TIP3   OH220765   3.307   2.138   2.179 -0.1490 -0.4160 -0.1381
 6934TIP3    H120766   3.379   2.089   2.219  0.4685  0.7615  0.2436
 6934TIP3    H220767   3.244   2.071   2.152  0.2063 -1.3573  1.2671
 6935TIP3   OH220768   6.714   3.137   4.738 -0.3487 -0.2712  0.2339
 6935TIP3    H120769   6.699   3.207   4.674 -0.0460 -1.2730 -0.9569
 6935TIP3    H220770   6.716   3.183   4.822 -1.9684  0.9294 -0.3150
 6936TIP3   OH220771   5.157   4.820   4.004 -0.3103  0.6391  0.8213
 6936TIP3    H120772   5.111   4.739   4.026 -2.5634  1.5117 -0.3604
 6936TIP3    H220773   5.194   4.804   3.917  1.7453 -0.0398  1.7410
 6937TIP3   OH220774   4.945   1.977   0.442 -0.3875 -0.0895 -0.1251
 6937TIP3    H120775   4.862   1.967   0.395 -0.2278 -0.3303 -0.3545
 6937TIP3    H220776   5.006   2.012   0.377  0.1646 -1.5777 -0.4397
 6938TIP3   OH220777   3.299   4.352   1.505  0.1527  0.2256 -0.1938
 6938TIP3    H120778   3.218   4.307   1.530 -0.4339  1.6284  0.5847
 6938TIP3    H220779   3.270   4.419   1.443  0.8212  0.3338 -0.3959
 6939TIP3   OH220780   0.096   2.663   3.541 -0.2982  0.7237 -0.3315
 6939TIP3    H120781   0.048   2.593   3.586  0.2802  0.1103 -0.6565
 6939TIP3    H220782   0.187   2.652   3.570 -0.1212  1.0382 -0.7660
 6940TIP3   OH220783   6.013   1.002   0.363  0.2333 -0.0542 -0.0224
 6940TIP3    H120784   6.094   0.955   0.343  0.9251  1.1380 -0.0635
 6940TIP3    H220785   5.949   0.967   0.301  0.8128 -0.7125 -0.2574
 6941TIP3   OH220786   5.829   2.056   4.334  0.2303 -0.4094  0.3765
 6941TIP3    H120787   5.925   2.056   4.327  0.1559  1.7684 -2.5212
 6941TIP3    H220788   5.807   2.146   4.358 -1.0942 -1.2163  2.3510
 6942TIP3   OH220789   3.987   4.692   1.004 -0.2255 -0.2379 -0.4613
 6942TIP3    H120790   3.943   4.645   1.075  0.8738 -1.8269 -0.7714
 6942TIP3    H220791   3.942   4.662   0.924 -0.0626 -0.1280 -0.5938
 6943TIP3   OH220792   1.442   1.316   0.083 -0.7683 -0.3797  0.4309
 6943TIP3    H120793   1.414   1.288   0.171  0.2712 -2.1830  0.2518
 6943TIP3    H220794   1.533   1.286   0.077 -0.2098  1.3985 -0.5911
 6944TIP3   OH220795   3.133   1.318   4.144  0.6201 -1.1978  0.1656
 6944TIP3    H120796   3.042   1.308   4.117  0.4762 -2.8011  1.0861
 6944TIP3    H220797   3.128   1.361   4.229  0.6025 -2.3618  0.7828
 6945TIP3   OH220798   7.042   4.427   4.848  0.9999  0.3858  0.0119
 6945TIP3    H120799   6.986   4.390   4.780  0.9939 -0.9600  0.7210
 6945TIP3    H220800   7.015   4.519   4.854 -0.8560 -0.1259  0.0537
 6946TIP3   OH220801   0.935   3.181   1.139  0.4171 -0.1991 -0.1091
 6946TIP3    H120802   0.962   3.089   1.137 -0.7477 -0.5407 -1.4852
 6946TIP3    H220803   0.896   3.197   1.053  0.2384  1.4859  0.2445
 6947TIP3   OH220804   6.591   0.557   5.494  0.1126 -0.4337 -0.2603
 6947TIP3    H120805   6.531   0.495   5.450  0.0663 -2.1351  2.0272
 6947TIP3    H220806   6.674   0.510   5.500  0.6859  0.5480 -0.2818
 6948TIP3   OH220807   3.349   0.568   1.721 -0.3320 -0.5257 -0.2182
 6948TIP3    H120808   3.296   0.543   1.645 -1.2680 -1.3137  0.6621
 6948TIP3    H220809   3.303   0.531   1.796  1.8588 -1.9268  0.5470
 6949TIP3   OH220810   4.146   2.331   2.810  0.0057  0.1825  0.7416
 6949TIP3    H120811   4.210   2.360   2.745 -0.7726  1.3996  0.4724
 6949TIP3    H220812   4.117   2.245   2.780  0.1897  0.4128 -0.1157
 6950TIP3   OH220813  -0.008   3.342   5.617 -0.2176  0.1913  0.1071
 6950TIP3    H120814   0.056   3.280   5.650  0.2184  0.4426 -0.2462
 6950TIP3    H220815   0.011   3.424   5.662 -1.0411 -0.0169  0.8628
 6951TIP3   OH220816   3.841   1.130   3.495 -0.1231  0.1592  0.2593
 6951TIP3    H120817   3.769   1.104   3.438 -0.8085  0.5174  0.9413
 6951TIP3    H220818   3.806   1.122   3.583  1.9637 -3.7767  0.9368
 6952TIP3   OH220819   5.334   3.316   0.299  0.2183 -0.6590 -0.0953
 6952TIP3    H120820   5.393   3.247   0.270  0.8343 -0.3977  0.5254
 6952TIP3    H220821   5.298   3.352   0.218  5.1403  2.9885 -1.1176
 6953TIP3   OH220822   1.505   5.700   5.517 -0.4486  0.0126 -0.0235
 6953TIP3    H120823   1.413   5.704   5.491 -0.4353  0.6077  0.0135
 6953TIP3    H220824   1.547   5.648   5.448 -0.9677 -1.0079  0.4191
 6954TIP3   OH220825   1.941   6.465   4.433 -0.3798 -0.6031 -0.2771
 6954TIP3    H120826   1.861   6.475   4.484  0.2936  0.2979  0.6397
 6954TIP3    H220827   1.988   6.392   4.474 -0.5869 -0.9480 -0.6413
 6955TIP3   OH220828   0.156   3.413   3.414 -0.2036  0.2134  0.1243
 6955TIP3    H120829   0.206   3.365   3.348 -0.5689 -0.7084  0.5012
 6955TIP3    H220830   0.147   3.501   3.378 -0.9347 -0.4252 -1.3595
 6956TIP3   OH220831   6.345   6.726   5.295 -0.6639  0.1586 -0.9105
 6956TIP3    H120832   6.318   6.637   5.271  0.6636 -0.5263 -0.0243
 6956TIP3    H220833   6.292   6.783   5.240 -3.1522 -1.0814  0.0439
 6957TIP3   OH220834   6.951   0.367   0.632  0.7600  0.2390  0.5121
 6957TIP3    H120835   6.904   0.327   0.558 -0.0635 -1.3667  1.8429
 6957TIP3    H220836   6.881   0.402   0.688  1.4160  2.9423 -0.1825
 6958TIP3   OH220837   0.424   1.905   3.707  0.0863 -0.2320  0.3266
 6958TIP3    H120838   0.351   1.916   3.646  1.0533  3.1589 -0.3859
 6958TIP3    H220839   0.496   1.872   3.653  0.2261  0.3209  0.1768
 6959TIP3   OH220840   1.735   6.409   5.743 -0.4320 -0.3987  0.1590
 6959TIP3    H120841   1.665   6.393   5.807 -0.4967  0.3704  0.2920
 6959TIP3    H220842   1.812   6.430   5.796 -0.4099 -0.0617  0.0003
 6960TIP3   OH220843   2.914   5.811   1.326  0.0429 -0.3412  0.2762
 6960TIP3    H120844   2.973   5.883   1.304 -0.6709  0.5066  1.0555
 6960TIP3    H220845   2.950   5.774   1.406  0.4799 -0.9420 -0.1932
 6961TIP3   OH220846   2.180   1.118   3.286  0.1661 -0.6437 -0.0736
 6961TIP3    H120847   2.109   1.101   3.225 -1.9332 -1.0668  2.3516
 6961TIP3    H220848   2.174   1.212   3.304 -1.1434 -1.0003  1.6130
 6962TIP3   OH220849   1.380   5.750   1.206 -0.2930 -0.2081 -0.2078
 6962TIP3    H120850   1.449   5.729   1.268  0.2394  1.6546 -0.1148
 6962TIP3    H220851   1.341   5.831   1.239 -0.7356  0.2213 -1.6883
 6963TIP3   OH220852   6.497   2.431   0.204 -0.2199 -0.0422  0.1384
 6963TIP3    H120853   6.522   2.475   0.122  0.4714  0.7353  0.7502
 6963TIP3    H220854   6.420   2.379   0.180 -0.3434  0.5720 -0.8882
 6964TIP3   OH220855   4.624   5.406   2.705 -0.2247 -0.3534  0.0193
 6964TIP3    H120856   4.529   5.417   2.702 -0.1934 -0.2365 -2.5196
 6964TIP3    H220857   4.647   5.365   2.622  1.9946 -0.1139  0.4368
 6965TIP3   OH220858   1.786   1.036   2.667 -0.2705 -0.0765  0.0192
 6965TIP3    H120859   1.743   1.111   2.626  1.3334 -0.0479 -1.7829
 6965TIP3    H220860   1.879   1.061   2.670  0.2818 -1.9363 -0.5547
 6966TIP3   OH220861   0.041   0.440   5.066 -0.1081  0.1786  0.2330
 6966TIP3    H120862   0.042   0.530   5.100 -0.0851  0.7017 -1.0881
 6966TIP3    H220863   0.123   0.402   5.097  0.0358  0.7201  0.5319
 6967TIP3   OH220864   2.014   4.357   3.372  0.5851 -0.0534  0.5690
 6967TIP3    H120865   2.017   4.449   3.400  0.7885  0.1105  0.0112
 6967TIP3    H220866   2.068   4.311   3.436  0.4684  0.2104  0.8624
 6968TIP3   OH220867   0.377   1.469   0.523  0.1874 -0.4678  0.1326
 6968TIP3    H120868   0.282   1.476   0.537  0.2572 -0.6970  0.7250
 6968TIP3    H220869   0.387   1.480   0.428 -0.4935 -1.0555 -0.0233
 6969TIP3   OH220870   1.594   3.060   5.545 -0.2443  0.1898  0.2822
 6969TIP3    H120871   1.645   2.984   5.573  0.0750  0.1427 -0.4148
 6969TIP3    H220872   1.642   3.096   5.471  0.0319  1.5510  1.0818
 6970TIP3   OH220873   1.385   0.858   3.991 -0.1789  0.3420 -0.1090
 6970TIP3    H120874   1.467   0.824   3.955 -0.3491  0.5054 -0.6697
 6970TIP3    H220875   1.349   0.786   4.042 -0.2183 -0.1004 -0.7540
 6971TIP3   OH220876   5.163   5.047   0.151 -0.3630  0.3318 -0.2058
 6971TIP3    H120877   5.153   5.010   0.064  1.1605 -0.4053 -0.1021
 6971TIP3    H220878   5.090   5.011   0.201  0.0609 -1.1041 -0.5822
 6972TIP3   OH220879   6.412   1.468   4.164  0.0505  0.2815 -0.3317
 6972TIP3    H120880   6.396   1.546   4.110  2.2348  0.4663 -0.8158
 6972TIP3    H220881   6.407   1.500   4.254 -0.2400  0.7075 -0.4932
 6973TIP3   OH220882   6.575   4.350   0.937 -0.5500 -0.6159 -0.2486
 6973TIP3    H120883   6.500   4.319   0.988  1.4367 -4.0174  0.9909
 6973TIP3    H220884   6.639   4.378   1.003 -0.1845  0.8837 -1.2015
 6974TIP3   OH220885   4.995   1.021   2.156 -0.3009  1.1035  0.2954
 6974TIP3    H120886   5.035   1.090   2.210  1.4324  0.1115  0.3257
 6974TIP3    H220887   5.034   1.033   2.069 -0.9531  0.9337 -0.0274
 6975TIP3   OH220888   1.132   0.610   5.364  0.3387  0.0867 -0.1921
 6975TIP3    H120889   1.136   0.683   5.426  0.6058  0.7062 -0.9167
 6975TIP3    H220890   1.216   0.566   5.372 -0.5840 -1.4615  1.7680
 6976TIP3   OH220891   1.629   3.480   1.713 -0.4200 -0.0215 -0.6301
 6976TIP3    H120892   1.713   3.520   1.694 -0.8034  0.5761 -1.1107
 6976TIP3    H220893   1.564   3.541   1.676 -1.1067  0.0953  0.6895
 6977TIP3   OH220894   1.008   3.226   4.542 -0.0309  0.2747 -0.2315
 6977TIP3    H120895   1.099   3.197   4.533 -0.0417  0.6694 -1.9964
 6977TIP3    H220896   1.014   3.316   4.573  0.1266 -0.0896  0.8375
 6978TIP3   OH220897   2.997   1.851   4.083  0.7097  0.4555  0.0429
 6978TIP3    H120898   3.013   1.820   4.173  1.4293  0.3168 -0.1316
 6978TIP3    H220899   2.914   1.810   4.059  1.1714 -0.5976  0.1629
 6979TIP3   OH220900   6.155   1.152   3.634 -0.3779 -0.1791 -0.5864
 6979TIP3    H120901   6.241   1.168   3.672 -0.3181  0.2897 -0.9101
 6979TIP3    H220902   6.120   1.239   3.615 -1.4570 -0.3079  0.6826
 6980TIP3   OH220903   3.205   3.244   2.061 -0.1384  0.3914  0.5444
 6980TIP3    H120904   3.199   3.191   1.981 -0.8466 -0.1977  0.9615
 6980TIP3    H220905   3.245   3.326   2.034  0.0142  0.0325 -0.3333
 6981TIP3   OH220906   2.113   4.008   4.481  0.2697  0.1947 -0.0970
 6981TIP3    H120907   2.053   4.069   4.437 -0.3873 -0.7082 -0.4744
 6981TIP3    H220908   2.195   4.017   4.433  0.4597  1.4135  0.4008
 6982TIP3   OH220909   2.393   6.525   2.410  0.0226  0.0607  0.5069
 6982TIP3    H120910   2.358   6.437   2.405  1.3149 -0.4659  0.2279
 6982TIP3    H220911   2.488   6.514   2.401  0.5213  1.1925  3.3022
 6983TIP3   OH220912   0.980   2.426   5.028  0.4531  0.1300 -0.0183
 6983TIP3    H120913   0.918   2.353   5.019  0.4146  0.1972 -0.3206
 6983TIP3    H220914   0.946   2.493   4.969  1.9118 -0.5858 -1.7754
 6984TIP3   OH220915   6.156   0.125   0.789 -0.1908  0.1098  0.7397
 6984TIP3    H120916   6.242   0.090   0.814 -0.5051  0.2650  2.1454
 6984TIP3    H220917   6.097   0.095   0.859 -1.9088 -2.3527 -1.5632
 6985TIP3   OH220918   6.421   5.532   2.902  0.3544 -0.3389  0.1341
 6985TIP3    H120919   6.461   5.445   2.894 -1.2503 -1.1023  0.0810
 6985TIP3    H220920   6.383   5.533   2.989 -0.3894 -0.0312 -0.1851
 6986TIP3   OH220921   1.216   4.241   4.384 -0.4406 -0.4490 -0.3093
 6986TIP3    H120922   1.140   4.201   4.342  0.9006 -2.3962 -1.0177
 6986TIP3    H220923   1.246   4.176   4.447  0.1673  0.6387  0.5630
 6987TIP3   OH220924   2.734   5.508   5.198  0.7289 -0.1129  0.2986
 6987TIP3    H120925   2.761   5.505   5.106  1.4319 -0.5775  0.5185
 6987TIP3    H220926   2.786   5.441   5.241  0.2047 -0.0852  0.9932
 6988TIP3   OH220927   0.810   5.598   1.840  0.0922  0.1251  0.2014
 6988TIP3    H120928   0.740   5.570   1.900 -1.8682  0.7279 -1.7120
 6988TIP3    H220929   0.817   5.692   1.853 -1.3362  0.4959 -1.4537
 6989TIP3   OH220930   2.577   3.969   0.263  0.2695 -0.3642 -0.5242
 6989TIP3    H120931   2.659   3.962   0.311  1.1849 -0.6333 -2.0305
 6989TIP3    H220932   2.533   3.886   0.280  0.5808 -0.4544 -0.1444
 6990TIP3   OH220933   7.207   3.017   1.466  0.2101 -0.3112  0.2570
 6990TIP3    H120934   7.233   3.020   1.373  1.3554  0.4769  0.5868
 6990TIP3    H220935   7.124   2.969   1.465 -0.3046  0.5163 -1.2880
 6991TIP3   OH220936   1.377   0.764   3.392 -0.3679 -0.0318 -0.0217
 6991TIP3    H120937   1.368   0.768   3.297  0.6714  1.2445 -0.0881
 6991TIP3    H220938   1.470   0.746   3.407 -0.5484 -0.3722  0.7562
 6992TIP3   OH220939   6.451   2.217   3.660 -0.1876  0.2393 -0.5136
 6992TIP3    H120940   6.442   2.180   3.572 -0.3674  0.6254 -0.6625
 6992TIP3    H220941   6.403   2.156   3.717  0.7083 -0.5088 -0.5378
 6993TIP3   OH220942   3.393   4.472   4.580 -0.3129 -0.8414 -0.5416
 6993TIP3    H120943   3.298   4.483   4.580 -0.3218 -0.9154 -0.6527
 6993TIP3    H220944   3.424   4.523   4.506  0.0776  1.9890  1.4325
 6994TIP3   OH220945   4.071   2.563   3.609  0.1657  0.1089 -0.0312
 6994TIP3    H120946   3.987   2.522   3.588 -1.1828  1.1099  2.7805
 6994TIP3    H220947   4.056   2.657   3.593  1.4585  0.1074 -1.4172
 6995TIP3   OH220948   6.384   0.630   4.760  0.4094  0.4104 -0.0428
 6995TIP3    H120949   6.441   0.706   4.749  1.0832  0.2802  2.1370
 6995TIP3    H220950   6.444   0.557   4.771 -0.2380 -0.3934 -1.5603
 6996TIP3   OH220951   5.531   1.954   4.436 -0.4394 -0.2289  0.1144
 6996TIP3    H120952   5.457   1.955   4.375 -0.8312 -1.4095  0.5440
 6996TIP3    H220953   5.491   1.952   4.523  0.0936 -0.8962  0.3526
 6997TIP3   OH220954   4.119   6.646   5.460  0.1344 -0.2957 -0.1529
 6997TIP3    H120955   4.122   6.556   5.492 -1.8759  0.1816  1.6922
 6997TIP3    H220956   4.116   6.699   5.540 -1.7806  1.2068 -1.1352
 6998TIP3   OH220957   7.206   6.112   4.463  0.2096  0.7019  0.6743
 6998TIP3    H120958   7.116   6.144   4.458 -0.0120 -0.0751 -0.7925
 6998TIP3    H220959   7.253   6.179   4.513 -0.8442  1.8637  0.1447
 6999TIP3   OH220960   6.502   2.362   5.260  0.2409 -0.5395  0.3319
 6999TIP3    H120961   6.482   2.289   5.202 -1.1534  0.7901 -0.9444
 6999TIP3    H220962   6.583   2.399   5.225  0.7409 -1.1985  0.7526
 7000TIP3   OH220963   6.577   2.431   4.734  0.0761 -0.2850 -0.2502
 7000TIP3    H120964   6.549   2.476   4.655 -0.8313  1.6782  1.1011
 7000TIP3    H220965   6.615   2.501   4.789  0.2321 -1.4878  1.2408
 7001TIP3   OH220966   0.911   1.276   3.424  0.5618 -0.1455  0.0918
 7001TIP3    H120967   0.990   1.315   3.462  1.8884  1.4433 -3.7981
 7001TIP3    H220968   0.921   1.182   3.437  1.6717  0.1842  2.0377
 7002TIP3   OH220969   3.370   0.861   4.165 -0.8468 -0.0488 -0.2624
 7002TIP3    H120970   3.288   0.896   4.201 -0.5886  1.0969 -0.7621
 7002TIP3    H220971   3.351   0.843   4.073 -0.5395  0.2099 -0.3777
 7003TIP3   OH220972   1.882   2.368   4.409 -0.1872 -0.4463  0.2277
 7003TIP3    H120973   1.823   2.443   4.405 -1.2446 -1.2872 -0.3631
 7003TIP3    H220974   1.964   2.404   4.442 -0.9936  0.7666  0.9894
 7004TIP3   OH220975   0.109   2.208   5.790 -0.3932  0.9734 -0.4091
 7004TIP3    H120976   0.188   2.259   5.805  0.2648  0.9647 -3.2274
 7004TIP3    H220977   0.122   2.168   5.704 -2.9510 -0.0414 -0.4243
 7005TIP3   OH220978   3.978   0.770   3.284 -0.6341  0.3148  0.2340
 7005TIP3    H120979   4.011   0.854   3.317  0.6652  0.0369 -0.3347
 7005TIP3    H220980   3.993   0.774   3.190 -1.3926 -0.2099  0.0815
 7006TIP3   OH220981   0.751   1.089   5.561 -0.0453  1.0291 -0.5492
 7006TIP3    H120982   0.713   1.002   5.574  2.2497  0.3759  3.2440
 7006TIP3    H220983   0.676   1.146   5.546 -1.9502 -1.0523  0.4234
 7007TIP3   OH220984   6.877   6.754   5.112  0.3252 -0.0121  0.4352
 7007TIP3    H120985   6.849   6.666   5.137 -0.4168  0.1715  0.2855
 7007TIP3    H220986   6.882   6.802   5.195 -1.4780  0.4138  0.3266
 7008TIP3   OH220987   4.248   2.845   2.226  0.0615 -0.2834 -0.4817
 7008TIP3    H120988   4.335   2.808   2.212 -0.3700 -0.9523 -1.4630
 7008TIP3    H220989   4.233   2.903   2.151 -0.4783 -0.4493 -0.5123
 7009TIP3   OH220990   6.415   0.778   3.133 -0.1104  0.0569  0.0475
 7009TIP3    H120991   6.455   0.816   3.211  0.1594  1.0348 -0.5421
 7009TIP3    H220992   6.483   0.720   3.097  0.1674  0.4415 -0.0488
 7010TIP3   OH220993   1.286   2.201   5.736  0.2138 -0.6398  0.5617
 7010TIP3    H120994   1.281   2.297   5.739  0.0960 -0.6397  0.3562
 7010TIP3    H220995   1.199   2.171   5.764 -0.2302 -0.6652 -0.7825
 7011TIP3   OH220996   6.004   3.159   3.379 -0.0269  0.0786  0.0539
 7011TIP3    H120997   5.985   3.094   3.446 -0.9572  0.4036  0.1269
 7011TIP3    H220998   5.959   3.127   3.301  0.4702  0.0545 -0.2265
 7012TIP3   OH220999   2.603   6.195   4.518  0.3673  0.4112 -0.0186
 7012TIP3    H121000   2.538   6.198   4.588 -0.1727 -0.7663 -0.4455
 7012TIP3    H221001   2.662   6.268   4.536  0.3929 -0.0238  1.7944
 7013TIP3   OH221002   4.025   4.013   0.075 -0.5251 -0.2098  0.0305
 7013TIP3    H121003   3.991   4.050   0.156  1.1683  1.3276  0.1002
 7013TIP3    H221004   4.119   4.030   0.078 -0.0090 -2.4277 -1.0877
 7014TIP3   OH221005   6.936   1.110   4.289  0.0931  1.1242 -0.0764
 7014TIP3    H121006   7.020   1.133   4.329  0.8895  0.7754 -1.4665
 7014TIP3    H221007   6.870   1.152   4.345  0.8730 -1.6318  3.2275
 7015TIP3   OH221008   3.583   2.826   3.360  0.3083  0.4616  0.2717
 7015TIP3    H121009   3.653   2.836   3.295  0.5009  0.5646  0.4933
 7015TIP3    H221010   3.528   2.903   3.350  1.7407  1.7831  1.9252
 7016TIP3   OH221011   1.372   0.427   3.534  0.0745  0.4174  0.0517
 7016TIP3    H121012   1.383   0.345   3.583  1.1915 -0.0493 -0.9198
 7016TIP3    H221013   1.453   0.435   3.484 -0.1441  1.9862 -0.0916
 7017TIP3   OH221014   5.373   0.194   0.114 -0.5779  0.3676 -0.5842
 7017TIP3    H121015   5.335   0.137   0.182 -2.2924  2.0522 -0.0456
 7017TIP3    H221016   5.340   0.281   0.135  1.4929  1.4886 -1.7427
 7018TIP3   OH221017   3.234   5.530   5.520 -0.1522  0.0758 -0.0519
 7018TIP3    H121018   3.154   5.556   5.565  0.0667  0.2721  0.2257
 7018TIP3    H221019   3.251   5.441   5.552 -1.5607 -0.9242 -1.9070
 7019TIP3   OH221020   0.616   0.885   0.485 -1.0043  0.1852  0.6031
 7019TIP3    H121021   0.650   0.855   0.401  1.3659  1.1787  1.1312
 7019TIP3    H221022   0.562   0.961   0.464 -0.8361  0.1278 -0.0477
 7020TIP3   OH221023   3.811   4.651   0.701  0.5143 -0.0317  0.0020
 7020TIP3    H121024   3.849   4.593   0.635  0.6991 -0.5520  0.5563
 7020TIP3    H221025   3.769   4.720   0.651  1.0029 -0.2011 -0.6508
 7021TIP3   OH221026   5.991   4.576   2.766 -0.3765 -0.1387 -0.4082
 7021TIP3    H121027   6.067   4.566   2.709  0.0274  0.6460 -0.0250
 7021TIP3    H221028   6.028   4.590   2.853 -0.9779 -0.6777 -0.0590
 7022TIP3   OH221029   4.280   4.722   3.013 -0.0849  0.2977  0.2104
 7022TIP3    H121030   4.283   4.800   3.069 -0.8762 -0.7593  1.8054
 7022TIP3    H221031   4.298   4.649   3.072 -0.2873 -0.8284 -1.0558
 7023TIP3   OH221032   6.567   1.843   4.189  0.3085 -0.3050 -0.0158
 7023TIP3    H121033   6.609   1.796   4.261  1.0787  1.7064  0.9336
 7023TIP3    H221034   6.583   1.788   4.112  3.9589 -0.1753  0.4415
 7024TIP3   OH221035   6.739   2.479   3.466  0.2163 -0.0474 -0.2602
 7024TIP3    H121036   6.799   2.482   3.391  0.3447 -1.9385 -0.2797
 7024TIP3    H221037   6.671   2.417   3.439 -1.1052  1.1239  0.2565
 7025TIP3   OH221038   3.632   1.122   3.317 -0.2334  0.0201  0.2658
 7025TIP3    H121039   3.611   1.191   3.254 -0.4154 -1.3016 -1.1739
 7025TIP3    H221040   3.554   1.066   3.317 -0.1702 -0.0958  1.5725
 7026TIP3   OH221041   4.637   3.728   3.470 -0.7478  0.3033 -0.1320
 7026TIP3    H121042   4.566   3.792   3.477 -2.2177 -1.3194  0.3582
 7026TIP3    H221043   4.635   3.681   3.554  0.9377  0.2328 -0.0950
 7027TIP3   OH221044   1.616   5.392   2.933 -0.3230  0.2099 -0.2160
 7027TIP3    H121045   1.683   5.453   2.963 -1.6246  0.7897  1.7008
 7027TIP3    H221046   1.649   5.360   2.848  0.9247  2.6862 -0.7583
 7028TIP3   OH221047   3.805   1.131   4.017  0.4165  0.2151  0.5131
 7028TIP3    H121048   3.881   1.075   4.004 -0.9756 -1.5479 -0.4480
 7028TIP3    H221049   3.730   1.077   3.992 -1.2061  1.7601  1.7510
 7029TIP3   OH221050   6.858   2.511   0.139  0.0167  0.5539  0.1840
 7029TIP3    H121051   6.824   2.452   0.072  0.4570  0.8290 -0.2905
 7029TIP3    H221052   6.822   2.597   0.116 -0.8214  0.4319  1.0144
 7030TIP3   OH221053   6.038   1.250   5.184  0.0883  0.3290  0.0061
 7030TIP3    H121054   6.075   1.329   5.143  0.4214 -0.4279 -1.1877
 7030TIP3    H221055   6.115   1.202   5.215 -0.0957  0.2684  0.3720
 7031TIP3   OH221056   5.162   6.424   1.555  0.0880 -0.1451 -0.2868
 7031TIP3    H121057   5.176   6.439   1.648 -0.6013  0.2330 -0.2349
 7031TIP3    H221058   5.070   6.447   1.540 -0.3199 -1.8866 -0.7124
 7032TIP3   OH221059   1.325   3.477   1.799 -0.3331 -0.3950 -0.5349
 7032TIP3    H121060   1.398   3.415   1.796 -0.5509 -0.6421 -0.7550
 7032TIP3    H221061   1.317   3.500   1.891 -0.5053 -1.0029 -0.3906
 7033TIP3   OH221062   2.953   5.094   2.434  0.1479 -0.5364  0.3988
 7033TIP3    H121063   2.984   5.182   2.458 -1.7120  0.0371  0.8578
 7033TIP3    H221064   2.872   5.083   2.482 -0.2822 -2.0390 -0.5994
 7034TIP3   OH221065   1.232   5.572   3.229 -0.4877 -0.1839  1.0010
 7034TIP3    H121066   1.184   5.580   3.311 -0.1878 -1.0410  1.2804
 7034TIP3    H221067   1.290   5.648   3.226 -0.9347  0.1648  1.2890
 7035TIP3   OH221068   5.302   4.730   4.261 -0.7011  0.2900 -0.1982
 7035TIP3    H121069   5.225   4.756   4.211  0.2232  0.1480 -1.7696
 7035TIP3    H221070   5.296   4.635   4.267 -1.5112  0.4113  1.1862
 7036TIP3   OH221071   3.241   2.057   5.349 -0.0133  0.3910  0.5036
 7036TIP3    H121072   3.333   2.079   5.365 -0.1091  1.0247  0.2222
 7036TIP3    H221073   3.192   2.110   5.412 -0.2567  1.0891 -0.2612
 7037TIP3   OH221074   1.716   0.312   5.538 -0.7098 -0.1031  0.6286
 7037TIP3    H121075   1.689   0.300   5.447  1.2337  1.4021 -0.1979
 7037TIP3    H221076   1.776   0.239   5.554  0.2985  0.5987  0.1179
 7038TIP3   OH221077   3.651   2.055   4.524  0.0017 -0.2352  0.5250
 7038TIP3    H121078   3.590   2.115   4.565  2.7035  3.0487  0.1782
 7038TIP3    H221079   3.737   2.080   4.559  1.6035 -2.0721 -1.7324
 7039TIP3   OH221080   1.896   3.685   3.761 -0.1291  0.1454  0.0535
 7039TIP3    H121081   1.803   3.690   3.740 -0.6562 -2.7168  1.3075
 7039TIP3    H221082   1.937   3.645   3.685 -0.0957  0.3720 -0.0493
 7040TIP3   OH221083   5.893   0.038   4.367 -0.0175 -0.2409 -0.3965
 7040TIP3    H121084   5.877   0.118   4.416 -0.0468  0.2550 -1.2029
 7040TIP3    H221085   5.940  -0.019   4.428  0.7264  0.6999 -0.0744
 7041TIP3   OH221086   2.640   5.876   2.587  0.1850 -0.0239 -0.1707
 7041TIP3    H121087   2.591   5.846   2.663 -0.1481 -1.9837 -1.0994
 7041TIP3    H221088   2.573   5.905   2.525  0.4956  3.8403  1.0251
 7042TIP3   OH221089   7.156   0.371   4.651  0.1333  0.2849  0.3279
 7042TIP3    H121090   7.231   0.407   4.699 -0.5443  0.0959  1.5528
 7042TIP3    H221091   7.154   0.421   4.570  0.8929  1.0806  0.7834
 7043TIP3   OH221092   1.831   1.070   0.555 -0.0774  0.3092  0.6682
 7043TIP3    H121093   1.806   0.978   0.559 -0.7922  0.5422  1.9926
 7043TIP3    H221094   1.923   1.070   0.582  0.5519 -0.2070 -1.2945
 7044TIP3   OH221095   6.854   4.894   3.616 -0.4423 -0.1548 -0.1940
 7044TIP3    H121096   6.843   4.819   3.557  0.6003 -0.1421 -0.4266
 7044TIP3    H221097   6.807   4.966   3.573 -0.3136 -0.3347 -0.6348
 7045TIP3   OH221098   6.062   1.728   2.653 -0.2465 -0.9283 -0.6982
 7045TIP3    H121099   6.018   1.711   2.737  1.1011  1.2780  0.5714
 7045TIP3    H221100   6.119   1.803   2.671 -1.2645  0.8521 -4.0700
 7046TIP3   OH221101   4.590   4.814   0.377 -0.6796  0.0568 -0.0120
 7046TIP3    H121102   4.605   4.800   0.471 -1.7331  1.0644  0.3256
 7046TIP3    H221103   4.619   4.732   0.336  0.5150 -0.1236  1.0983
 7047TIP3   OH221104   5.583   0.594   1.591 -0.1407  0.0155  0.4960
 7047TIP3    H121105   5.664   0.549   1.566  0.6483  1.7801 -0.3236
 7047TIP3    H221106   5.599   0.627   1.679  1.0175  2.3497 -0.5021
 7048TIP3   OH221107   1.969   1.825   2.210  0.6187  0.0145 -0.0136
 7048TIP3    H121108   1.886   1.869   2.228  1.0073  0.1307  1.6257
 7048TIP3    H221109   1.946   1.732   2.212 -0.1630  0.0215 -3.2910
 7049TIP3   OH221110   3.434   0.674   0.854 -0.0117 -0.1700 -0.6677
 7049TIP3    H121111   3.360   0.673   0.793 -0.9875  0.8296  0.4494
 7049TIP3    H221112   3.510   0.650   0.800 -0.9515 -0.0679 -2.0976
 7050TIP3   OH221113   3.605  -0.028   3.992 -0.5337 -0.4699  0.2367
 7050TIP3    H121114   3.621   0.036   4.061 -1.8478 -0.3886  0.4927
 7050TIP3    H221115   3.532   0.009   3.942 -0.5118 -1.1937 -0.3417
 7051TIP3   OH221116   4.643   4.266   4.493 -0.1476  0.6596  0.1939
 7051TIP3    H121117   4.606   4.301   4.411 -0.7924  1.9667  1.0156
 7051TIP3    H221118   4.736   4.255   4.474 -0.7567 -2.1331 -1.7367
 7052TIP3   OH221119   1.121   1.285   2.614  0.1038  0.0216  0.1807
 7052TIP3    H121120   1.181   1.360   2.611 -1.1412  1.0644  0.6917
 7052TIP3    H221121   1.164   1.222   2.672  1.1567  0.3321 -0.2335
 7053TIP3   OH221122   2.750   6.401   0.875 -0.2349 -0.2796 -0.3994
 7053TIP3    H121123   2.840   6.422   0.849  0.1556 -1.0219  0.3222
 7053TIP3    H221124   2.709   6.486   0.892  0.7659  0.0132  0.6756
 7054TIP3   OH221125   4.147   5.689   2.016  0.8168 -0.0312 -0.0793
 7054TIP3    H121126   4.072   5.705   2.073  0.3556 -0.1926 -0.6344
 7054TIP3    H221127   4.120   5.615   1.962  2.0170 -1.2091  0.8696
 7055TIP3   OH221128   5.803   6.156   1.165  0.0681  0.0443  0.3174
 7055TIP3    H121129   5.762   6.076   1.198  0.3791  0.3270  1.4257
 7055TIP3    H221130   5.880   6.168   1.221 -0.3741  1.5051  0.6563
 7056TIP3   OH221131   0.338   2.980   3.480 -0.8151 -0.7980 -0.5530
 7056TIP3    H121132   0.261   3.008   3.530  0.6837  1.5307  0.6347
 7056TIP3    H221133   0.384   3.061   3.460  1.2252 -2.1042 -1.4217
 7057TIP3   OH221134   5.239   4.675   1.605 -0.2015 -0.0207  0.2053
 7057TIP3    H121135   5.304   4.677   1.676 -0.1534 -1.5980  0.2418
 7057TIP3    H221136   5.221   4.767   1.587  0.5432  0.4275  1.5721
 7058TIP3   OH221137   5.870   1.416   1.971  0.4278  0.4347  0.0866
 7058TIP3    H121138   5.839   1.334   2.010  0.4394  0.5610  0.3617
 7058TIP3    H221139   5.834   1.416   1.883 -0.2713  0.5398  0.3725
 7059TIP3   OH221140   5.376   0.231   5.187  0.1796 -0.0423  0.6114
 7059TIP3    H121141   5.439   0.238   5.115 -0.4768 -0.1846  0.0101
 7059TIP3    H221142   5.379   0.139   5.213 -0.1315 -0.1608  0.2452
 7060TIP3   OH221143   4.706   3.718   4.429 -0.2577  0.3294 -0.0542
 7060TIP3    H121144   4.668   3.647   4.378  1.0363  0.0883 -0.7239
 7060TIP3    H221145   4.766   3.675   4.490  0.6569  0.8309 -0.5688
 7061TIP3   OH221146   2.086   1.043   2.918 -0.2680  0.2738 -0.1430
 7061TIP3    H121147   2.036   1.098   2.978 -0.3482 -0.9249  0.9466
 7061TIP3    H221148   2.116   1.102   2.849 -1.2723  1.4386  0.3967
 7062TIP3   OH221149   2.169   5.965   0.127 -0.2220  0.1234 -0.0844
 7062TIP3    H121150   2.109   6.038   0.112  0.1647  0.4031 -0.2919
 7062TIP3    H221151   2.150   5.903   0.056 -0.6881 -0.0715  0.2077
 7063TIP3   OH221152   4.024   6.617   2.605  0.0288  0.5027 -0.4037
 7063TIP3    H121153   4.048   6.583   2.518  0.2125  1.2706 -0.6643
 7063TIP3    H221154   3.929   6.627   2.601 -0.0356 -0.0063 -0.3067
 7064TIP3   OH221155   5.884   3.962   3.013  0.5399  0.7120  0.9585
 7064TIP3    H121156   5.889   4.015   3.092 -0.0924  0.9354  0.8599
 7064TIP3    H221157   5.791   3.964   2.989  0.8414  1.3109 -0.2333
 7065TIP3   OH221158   4.339   3.542   1.888 -0.2468 -0.2658  0.1120
 7065TIP3    H121159   4.263   3.487   1.906 -0.6211  0.9367  2.5504
 7065TIP3    H221160   4.412   3.480   1.880 -1.2216 -1.3313 -0.9964
 7066TIP3   OH221161   5.089   0.453   1.880 -0.1762  0.3651  0.2266
 7066TIP3    H121162   5.132   0.467   1.964 -2.5895  1.3899  1.3885
 7066TIP3    H221163   5.069   0.541   1.848  0.8119  0.0027 -1.5424
 7067TIP3   OH221164   1.331   6.096   0.339 -0.4246  0.2739 -0.1991
 7067TIP3    H121165   1.412   6.060   0.301 -0.9384  0.7355 -1.8101
 7067TIP3    H221166   1.269   6.024   0.337  0.0809 -0.2634  1.6135
 7068TIP3   OH221167   1.148   3.691   2.366 -0.0645 -0.8237  0.4079
 7068TIP3    H121168   1.213   3.732   2.309  0.3952 -2.4764 -0.3110
 7068TIP3    H221169   1.198   3.652   2.437 -0.4722 -0.3688  0.9564
 7069TIP3   OH221170   2.706   4.373   3.925 -0.3800  0.1976 -0.4759
 7069TIP3    H121171   2.694   4.417   4.009 -2.1254 -0.9012 -0.0997
 7069TIP3    H221172   2.739   4.286   3.948 -0.0283  0.1804 -1.0078
 7070TIP3   OH221173   3.484   1.688   1.640 -0.5161 -0.1226  0.3159
 7070TIP3    H121174   3.573   1.659   1.659 -0.5888 -0.5883 -0.0375
 7070TIP3    H221175   3.493   1.781   1.619 -0.0759 -0.2200  0.0667
 7071TIP3   OH221176   0.208   5.046   1.632  0.0162 -0.2663  0.3094
 7071TIP3    H121177   0.138   5.018   1.691 -0.4951 -1.2270 -0.7157
 7071TIP3    H221178   0.288   5.012   1.672 -0.5186 -2.6507 -0.5114
 7072TIP3   OH221179   2.313   1.442   0.099  0.2382 -0.5318 -0.1706
 7072TIP3    H121180   2.239   1.484   0.143  1.1098  0.4333  0.4177
 7072TIP3    H221181   2.340   1.505   0.032 -0.9138 -1.8743 -1.9706
 7073TIP3   OH221182   0.452   3.832   1.483  0.2334  0.6470  0.3561
 7073TIP3    H121183   0.363   3.846   1.451  0.4712  1.0034 -0.1735
 7073TIP3    H221184   0.494   3.779   1.415  0.6603  1.1629  0.2070
 7074TIP3   OH221185   2.847   6.185   3.302  0.5721 -0.1290  0.4858
 7074TIP3    H121186   2.780   6.180   3.234 -0.6590 -1.4313  1.7240
 7074TIP3    H221187   2.874   6.094   3.316  1.0655  0.1561  1.4779
 7075TIP3   OH221188   7.152   3.355   1.381 -0.5310  0.5556  0.1506
 7075TIP3    H121189   7.140   3.302   1.302 -5.1876  1.4531  0.0090
 7075TIP3    H221190   7.152   3.291   1.453  1.4708 -0.0605 -0.3105
 7076TIP3   OH221191   6.033   4.621   1.865 -0.0269 -0.1805  0.2281
 7076TIP3    H121192   6.096   4.677   1.821  0.1464 -0.3188  0.3002
 7076TIP3    H221193   5.979   4.681   1.917 -2.2742  0.4175 -2.5289
 7077TIP3   OH221194   4.800   6.605   0.466 -0.6634  0.3903  0.0017
 7077TIP3    H121195   4.794   6.672   0.399 -1.9542  1.0843  0.7763
 7077TIP3    H221196   4.735   6.539   0.440 -0.4142  0.1441  0.0039
 7078TIP3   OH221197   4.964   4.778   1.247  0.1964 -0.2508 -0.2330
 7078TIP3    H121198   5.005   4.715   1.306 -1.3938 -0.2677  0.9210
 7078TIP3    H221199   5.009   4.861   1.264  0.8852 -0.6129 -0.2531
 7079TIP3   OH221200   6.596   5.266   3.243  0.5284 -0.0370  0.4384
 7079TIP3    H121201   6.552   5.348   3.221 -1.3836 -0.8649  0.9366
 7079TIP3    H221202   6.687   5.279   3.216  0.6064  2.7288  1.7593
 7080TIP3   OH221203   6.349   4.472   5.584 -0.1944  0.0124  0.0127
 7080TIP3    H121204   6.311   4.511   5.506  0.2309 -1.2807 -0.8765
 7080TIP3    H221205   6.289   4.496   5.655 -1.4250 -0.0826 -0.9687
 7081TIP3   OH221206   1.249   6.625   1.803  0.0897 -0.1975 -0.1621
 7081TIP3    H121207   1.186   6.586   1.863 -0.2601 -0.0063 -0.4015
 7081TIP3    H221208   1.322   6.652   1.858  0.5518 -1.5959 -0.0349
 7082TIP3   OH221209   4.269   0.829   0.831 -0.5568  0.5355  0.2983
 7082TIP3    H121210   4.194   0.770   0.820  0.5215 -1.0152  0.8477
 7082TIP3    H221211   4.267   0.854   0.923  0.4605 -0.8107  0.7249
 7083TIP3   OH221212   0.950   3.904   3.108 -0.2269  0.0812 -0.0013
 7083TIP3    H121213   0.967   3.986   3.154 -0.8164  0.6522 -0.7527
 7083TIP3    H221214   0.996   3.837   3.158 -0.4792  0.7425  1.1401
 7084TIP3   OH221215   3.468   1.029   4.464  0.0293  0.2041  0.4412
 7084TIP3    H121216   3.376   1.005   4.479 -0.0284  0.6147  0.7666
 7084TIP3    H221217   3.470   1.063   4.375 -0.4869  1.8359  1.0165
 7085TIP3   OH221218   6.801   0.237   4.005 -0.0829 -0.4922  0.3460
 7085TIP3    H121219   6.779   0.295   3.932 -2.0106 -0.0546  1.1846
 7085TIP3    H221220   6.833   0.157   3.964 -0.0230  0.1647 -0.9371
 7086TIP3   OH221221   1.431   2.334   4.129 -0.2540 -0.0579 -0.0696
 7086TIP3    H121222   1.449   2.240   4.121 -1.5311 -0.4356  1.0206
 7086TIP3    H221223   1.375   2.354   4.054  0.2608 -0.0994 -0.4656
 7087TIP3   OH221224   2.491   1.885   3.286 -0.1318 -0.0036 -0.7704
 7087TIP3    H121225   2.407   1.840   3.296 -0.9594  1.5770 -0.2754
 7087TIP3    H221226   2.493   1.910   3.194 -0.1799 -0.0683 -0.7895
 7088TIP3   OH221227   3.594   2.516   2.758 -0.2203  0.0015  0.6086
 7088TIP3    H121228   3.674   2.464   2.752 -0.3971 -0.3188  0.9988
 7088TIP3    H221229   3.560   2.518   2.669  0.2111  0.1204  0.4446
 7089TIP3   OH221230   6.374   3.974   4.404 -0.3282  0.3184 -0.0271
 7089TIP3    H121231   6.396   3.975   4.497 -0.0028  0.7069 -0.1050
 7089TIP3    H221232   6.406   3.889   4.373  0.6571  0.6749 -0.0330
 7090TIP3   OH221233   1.521   4.743   3.833  0.3909  0.2618  0.1275
 7090TIP3    H121234   1.451   4.716   3.774  0.4596 -0.0905  0.2071
 7090TIP3    H221235   1.481   4.812   3.886 -0.1564 -0.4894  0.7210
 7091TIP3   OH221236   4.585   3.701   0.573 -0.0120 -0.5067 -0.3523
 7091TIP3    H121237   4.674   3.719   0.602 -0.4359  0.7750  0.2455
 7091TIP3    H221238   4.585   3.722   0.480  0.5468 -1.4940 -0.5908
 7092TIP3   OH221239   6.815   6.721   0.770 -0.4062 -0.6182 -0.3205
 7092TIP3    H121240   6.728   6.741   0.806 -0.5209  0.8222 -1.3062
 7092TIP3    H221241   6.816   6.765   0.685  1.9143  0.8760  0.3773
 7093TIP3   OH221242   1.977   3.541   2.783 -0.4784 -0.0259 -0.2274
 7093TIP3    H121243   1.937   3.463   2.745 -1.7957  0.6347 -0.2322
 7093TIP3    H221244   1.955   3.537   2.876 -0.4178  0.2658 -0.2001
 7094TIP3   OH221245   0.561   2.387   1.482 -0.3945 -0.0623  0.0461
 7094TIP3    H121246   0.633   2.374   1.421 -0.1053 -0.1427  0.4019
 7094TIP3    H221247   0.603   2.403   1.567 -0.7872  0.2615  0.1849
 7095TIP3   OH221248   0.031   4.453   5.866  0.5210  0.2006  0.4049
 7095TIP3    H121249   0.039   4.515   5.794  0.0798  0.7075  0.7861
 7095TIP3    H221250   0.078   4.375   5.836 -0.0742  0.2242 -0.6305
 7096TIP3   OH221251   5.250   0.039   5.448 -0.7473  0.1365 -0.4269
 7096TIP3    H121252   5.328   0.021   5.395 -1.3649 -0.6763 -1.0831
 7096TIP3    H221253   5.217  -0.048   5.471 -0.1971  0.4502  1.7781
 7097TIP3   OH221254   4.508   3.587   5.436 -0.2053  0.3783  0.7119
 7097TIP3    H121255   4.532   3.555   5.524 -2.3029  0.6675  1.4602
 7097TIP3    H221256   4.497   3.507   5.384 -0.5967  0.1134  1.1913
 7098TIP3   OH221257   1.110   2.877   1.401  0.2163  0.0912  0.3371
 7098TIP3    H121258   1.076   2.881   1.490  0.3435  1.6467  0.3379
 7098TIP3    H221259   1.040   2.834   1.351  0.0764 -0.6413  1.1309
 7099TIP3   OH221260   6.954   0.825   3.056  0.0974 -0.4011 -0.2449
 7099TIP3    H121261   6.964   0.920   3.060  0.9668 -0.4759 -0.5089
 7099TIP3    H221262   6.988   0.793   3.139 -1.5403 -0.3963  0.4718
 7100TIP3   OH221263   0.399   4.093   5.782 -0.0128  0.2228 -0.3539
 7100TIP3    H121264   0.373   4.008   5.744 -1.4229  0.7189 -0.5805
 7100TIP3    H221265   0.451   4.070   5.858 -0.3901 -0.8676 -0.4031
 7101TIP3   OH221266   0.637   6.218   5.215 -0.0906  0.0316  0.5461
 7101TIP3    H121267   0.704   6.151   5.202  1.7378  1.3992  2.3449
 7101TIP3    H221268   0.676   6.298   5.180 -1.2033  0.6825  0.7434
 7102TIP3   OH221269   3.633   3.922   0.620 -0.2276  0.0536 -0.2950
 7102TIP3    H121270   3.537   3.917   0.621 -0.1850 -0.8526  1.1593
 7102TIP3    H221271   3.657   3.895   0.531 -1.1831 -3.3106  0.3490
 7103TIP3   OH221272   4.529   4.377   5.830  0.5355  0.2854 -0.5934
 7103TIP3    H121273   4.571   4.291   5.836 -0.8577 -0.3092  2.1875
 7103TIP3    H221274   4.486   4.377   5.744  1.5117 -1.3083 -1.1158
 7104TIP3   OH221275  -0.002   0.144   2.952 -0.1299  0.1419  0.7268
 7104TIP3    H121276   0.063   0.178   2.890 -0.3572  1.1731  1.0262
 7104TIP3    H221277   0.049   0.124   3.031  0.0640 -0.5799  0.4222
 7105TIP3   OH221278   2.641   4.309   5.783  0.3839  0.1618 -0.2785
 7105TIP3    H121279   2.603   4.377   5.839 -0.6948  0.8158 -1.7621
 7105TIP3    H221280   2.711   4.354   5.736 -0.0848  0.1588 -0.9873
 7106TIP3   OH221281   5.839   4.692   4.120  0.2164  0.0384 -0.3980
 7106TIP3    H121282   5.919   4.743   4.136  0.7296 -1.2356  1.3526
 7106TIP3    H221283   5.838   4.626   4.189 -2.2070 -0.1819 -0.5589
 7107TIP3   OH221284   0.931   3.808   2.486 -0.2052  0.3420 -0.5010
 7107TIP3    H121285   0.926   3.875   2.418 -0.6330 -0.1350 -0.9502
 7107TIP3    H221286   1.002   3.750   2.457  0.6362  0.9759  0.2425
 7108TIP3   OH221287   6.117   1.225   5.682 -0.5098 -0.2733 -0.3978
 7108TIP3    H121288   6.095   1.132   5.678 -1.6916 -0.0278 -0.0113
 7108TIP3    H221289   6.038   1.270   5.652 -0.1980  0.6271  0.0846
 7109TIP3   OH221290   5.387   3.887   0.908 -0.1659  0.2174 -0.6780
 7109TIP3    H121291   5.461   3.831   0.886 -0.5322 -0.2811 -0.6642
 7109TIP3    H221292   5.349   3.847   0.986  0.4578  1.3382  0.2328
 7110TIP3   OH221293   6.223   6.593   3.457  0.9639 -0.5640 -0.3976
 7110TIP3    H121294   6.312   6.608   3.425  0.6284 -0.0827 -1.1173
 7110TIP3    H221295   6.205   6.670   3.511  0.6933 -0.2727 -0.8996
 7111TIP3   OH221296   3.973   2.799   2.236  0.1275 -0.8188  0.1703
 7111TIP3    H121297   3.956   2.832   2.147  0.0683 -0.3491  0.3544
 7111TIP3    H221298   4.068   2.802   2.245  0.1878 -1.5460 -0.1320
 7112TIP3   OH221299   3.415   5.602   2.602  0.4188 -0.4604 -0.0081
 7112TIP3    H121300   3.361   5.658   2.546  1.2644 -1.1425 -1.5697
 7112TIP3    H221301   3.503   5.612   2.567  0.6883 -2.2615  0.0992
 7113TIP3   OH221302   2.569   4.082   3.016  0.8321 -0.3207 -0.5709
 7113TIP3    H121303   2.546   3.994   3.046 -3.0762  0.2107 -1.4510
 7113TIP3    H221304   2.577   4.133   3.096 -0.0292 -0.8532 -0.1276
 7114TIP3   OH221305   6.350   1.675   5.128  0.1436 -0.1357  0.6081
 7114TIP3    H121306   6.431   1.693   5.176 -0.6552 -0.1769  2.0529
 7114TIP3    H221307   6.306   1.760   5.123  1.4294  0.4884 -2.5925
 7115TIP3   OH221308   1.370   6.526   2.171 -0.3362 -0.3835 -0.0375
 7115TIP3    H121309   1.456   6.494   2.199  0.0382  0.1762 -0.5261
 7115TIP3    H221310   1.310   6.454   2.191  0.6262 -1.8132 -2.0288
 7116TIP3   OH221311   3.016   6.123   1.592  0.0861  0.2627  0.2416
 7116TIP3    H121312   3.109   6.131   1.615  0.5603  0.5731 -1.6192
 7116TIP3    H221313   2.996   6.203   1.543 -1.4127  0.5934  1.3410
 7117TIP3   OH221314   6.441   1.420   4.900  0.6661  0.0676  0.3198
 7117TIP3    H121315   6.459   1.514   4.889 -0.6261  0.2128 -0.8457
 7117TIP3    H221316   6.476   1.380   4.821  0.8981 -0.3946  0.6535
 7118TIP3   OH221317   5.500   3.782   5.568 -0.2825  0.3048  0.6405
 7118TIP3    H121318   5.418   3.832   5.567  0.4079  1.5154 -1.0978
 7118TIP3    H221319   5.496   3.727   5.490  1.6961  2.5509 -1.2491
 7119TIP3   OH221320   1.210   2.383   2.030 -0.3630  0.2454  0.5208
 7119TIP3    H121321   1.299   2.412   2.051 -0.4914  0.0373  1.3631
 7119TIP3    H221322   1.154   2.428   2.093 -0.7260 -0.6131  0.8246
 7120TIP3   OH221323   6.945   4.495   2.519 -0.0696 -0.8180 -0.2511
 7120TIP3    H121324   6.880   4.424   2.513 -1.6231  0.5579 -0.2799
 7120TIP3    H221325   6.960   4.505   2.613  0.2597 -1.2700 -0.2529
 7121TIP3   OH221326   6.509   2.090   2.862 -0.3803  0.3631 -0.0675
 7121TIP3    H121327   6.455   2.115   2.786 -2.2286 -1.8666  0.4034
 7121TIP3    H221328   6.474   2.142   2.934 -0.0792  0.8859 -0.2911
 7122TIP3   OH221329   6.095   4.647   4.532 -0.2919  0.2823  0.2614
 7122TIP3    H121330   6.156   4.682   4.467 -0.1654  1.1073  0.8000
 7122TIP3    H221331   6.143   4.653   4.615  0.0662 -2.0487  0.2641
 7123TIP3   OH221332   3.117   2.273   4.160  0.4635 -0.1307 -0.1511
 7123TIP3    H121333   3.105   2.296   4.068  0.6913  1.0573  0.0994
 7123TIP3    H221334   3.101   2.355   4.208 -0.1953 -0.8557  0.9141
 7124TIP3   OH221335   1.871   6.397   2.729 -0.0856 -0.2235  0.1507
 7124TIP3    H121336   1.903   6.479   2.691 -1.1312 -0.2210 -0.7873
 7124TIP3    H221337   1.782   6.417   2.757 -1.1320 -1.5273 -1.9686
 7125TIP3   OH221338   3.683   1.395   0.202  0.1495 -0.0237  0.3984
 7125TIP3    H121339   3.637   1.379   0.284 -0.2745 -2.0011 -0.1713
 7125TIP3    H221340   3.742   1.321   0.193 -0.1069 -0.0639 -1.2589
 7126TIP3   OH221341   2.529   3.299   5.090 -0.3035  0.1072  0.2814
 7126TIP3    H121342   2.539   3.210   5.056 -0.6033 -0.0736  0.6612
 7126TIP3    H221343   2.545   3.355   5.014 -0.1584 -0.2690  0.0284
 7127TIP3   OH221344   3.982   5.919   4.795 -0.2587 -0.1122 -0.0346
 7127TIP3    H121345   4.077   5.912   4.784  0.1986 -1.2719  3.3530
 7127TIP3    H221346   3.947   5.841   4.753  0.3828 -0.1671 -0.4822
 7128TIP3   OH221347   0.726   4.902   2.447 -0.3641  0.1449  0.2197
 7128TIP3    H121348   0.819   4.902   2.472 -0.0450 -1.6683 -0.8158
 7128TIP3    H221349   0.704   4.995   2.439  1.0510  0.6459  1.5087
 7129TIP3   OH221350   1.590   5.456   2.552  0.4126  0.3208  0.5589
 7129TIP3    H121351   1.639   5.453   2.470 -0.4894 -0.2204  0.0311
 7129TIP3    H221352   1.512   5.506   2.532 -0.5796 -1.1372  0.6554
 7130TIP3   OH221353   0.225   0.426   4.013  0.3846  0.6084 -0.4928
 7130TIP3    H121354   0.275   0.507   4.024 -2.4418  2.5156 -0.6244
 7130TIP3    H221355   0.172   0.441   3.935 -1.8124 -0.4325  0.7252
 7131TIP3   OH221356   3.147   3.605   2.140  0.4335  0.0816 -0.3776
 7131TIP3    H121357   3.116   3.524   2.179 -0.8895  0.0619 -1.4107
 7131TIP3    H221358   3.140   3.670   2.210 -1.0354 -0.1477 -0.2831
 7132TIP3   OH221359   0.718   1.721   0.781  0.3485 -0.6791 -0.0126
 7132TIP3    H121360   0.660   1.798   0.780 -0.4573 -1.2579  0.5010
 7132TIP3    H221361   0.714   1.687   0.692  0.3496 -0.3832 -0.1271
 7133TIP3   OH221362   2.606   5.375   1.028 -0.1099 -0.4098 -0.2309
 7133TIP3    H121363   2.591   5.466   1.004 -1.8371 -0.5880  0.0894
 7133TIP3    H221364   2.677   5.379   1.093 -0.3967  0.7249  0.0299
 7134TIP3   OH221365   2.804   3.876   0.960  0.2936 -0.3164 -0.1132
 7134TIP3    H121366   2.892   3.869   0.924  1.3940 -0.4791  2.4197
 7134TIP3    H221367   2.808   3.952   1.018 -2.1402  1.5533 -2.1770
 7135TIP3   OH221368   2.000   2.277   3.239 -0.0201 -0.2878  0.1683
 7135TIP3    H121369   2.067   2.216   3.270  1.7501  1.1146 -0.7726
 7135TIP3    H221370   1.931   2.220   3.204  1.4611 -1.7740 -0.4749
 7136TIP3   OH221371   7.093   6.048   4.845  1.1375 -0.5461  0.3863
 7136TIP3    H121372   7.084   6.119   4.782  0.0244 -0.5474  0.5268
 7136TIP3    H221373   7.029   6.068   4.914  0.7239 -1.7184  0.3739
 7137TIP3   OH221374   2.528   1.340   4.175 -0.0105  0.3682 -0.2199
 7137TIP3    H121375   2.607   1.381   4.139 -0.5257  2.1507  0.5493
 7137TIP3    H221376   2.510   1.390   4.255 -1.9926  0.0578 -0.4335
 7138TIP3   OH221377   2.844   1.315   0.022  0.2229  0.2748  0.4349
 7138TIP3    H121378   2.827   1.400  -0.017 -2.5828 -0.4429 -0.1212
 7138TIP3    H221379   2.868   1.334   0.113  0.3417  1.6728  0.1227
 7139TIP3   OH221380   4.817   6.558   4.812 -0.4831 -0.0857 -0.3152
 7139TIP3    H121381   4.896   6.548   4.864 -0.6171 -0.2636 -0.1415
 7139TIP3    H221382   4.836   6.512   4.730 -0.4349 -0.1923 -0.2436
 7140TIP3   OH221383   5.128   1.821   1.798 -0.0831  0.1870  0.8426
 7140TIP3    H121384   5.158   1.911   1.806 -0.5429  0.6904 -1.8770
 7140TIP3    H221385   5.192   1.780   1.739 -0.5780 -0.8817  1.0303
 7141TIP3   OH221386   2.933   5.289   4.782  0.1371  0.2108 -0.4825
 7141TIP3    H121387   2.959   5.355   4.717 -0.4644  0.8376 -0.1037
 7141TIP3    H221388   2.937   5.206   4.735  0.5785  0.5548 -1.0710
 7142TIP3   OH221389   3.275   4.858   4.080  0.1817 -0.6067  0.3707
 7142TIP3    H121390   3.182   4.839   4.085  0.5334 -2.4085  0.9481
 7142TIP3    H221391   3.314   4.776   4.050  1.1540  1.4043 -4.8754
 7143TIP3   OH221392   7.077   0.008   0.727  0.2659 -0.3247  0.2127
 7143TIP3    H121393   7.026  -0.031   0.657  0.6545  1.0275 -0.8491
 7143TIP3    H221394   7.013   0.052   0.783  0.1734  0.6164 -0.6246
 7144TIP3   OH221395   0.459   1.083   4.223  0.1399  0.0029  0.5853
 7144TIP3    H121396   0.366   1.103   4.233  0.0907 -0.8396  2.0945
 7144TIP3    H221397   0.483   1.122   4.139 -1.2816  1.2956  0.7305
 7145TIP3   OH221398   1.349   4.657   5.544 -0.0277  0.8510  0.0659
 7145TIP3    H121399   1.411   4.717   5.502  0.6657 -0.3913 -0.7491
 7145TIP3    H221400   1.283   4.640   5.477  0.1538  0.1663  0.0616
 7146TIP3   OH221401   3.771   6.391   3.011  0.5344  0.5372  0.5794
 7146TIP3    H121402   3.848   6.429   2.969  0.7466  0.3676  0.8133
 7146TIP3    H221403   3.726   6.343   2.942  0.8983  0.2316  0.5547
 7147TIP3   OH221404   6.830   2.804   1.657 -0.6009  0.4348 -0.1936
 7147TIP3    H121405   6.870   2.719   1.676 -0.5637  0.6975  1.0236
 7147TIP3    H221406   6.739   2.784   1.637 -0.4815  0.0657 -0.3714
 7148TIP3   OH221407   1.100   5.959   0.272  0.1572 -0.8469 -0.6115
 7148TIP3    H121408   1.009   5.941   0.249  0.0081 -2.8371  1.2452
 7148TIP3    H221409   1.096   5.992   0.361  1.1702  0.6381 -1.0827
 7149TIP3   OH221410   1.925   0.600   0.797 -0.0262  0.7538 -0.4085
 7149TIP3    H121411   1.986   0.638   0.734  0.0346  0.6033 -0.4402
 7149TIP3    H221412   1.969   0.607   0.882  0.0215  0.6738 -0.4269
 7150TIP3   OH221413   3.717   5.583   4.350  0.2264 -0.2878 -0.0585
 7150TIP3    H121414   3.740   5.676   4.345 -0.9263  0.0829  0.8647
 7150TIP3    H221415   3.754   5.544   4.271 -0.2947  1.1948 -1.0798
 7151TIP3   OH221416   6.237   6.124   5.412  0.7304 -0.6962 -0.2618
 7151TIP3    H121417   6.248   6.126   5.317 -0.6434 -0.9176 -0.4386
 7151TIP3    H221418   6.265   6.036   5.437  0.6179 -0.8095 -0.5266
 7152TIP3   OH221419   1.004   1.556   0.503  0.3527  0.3168 -0.2353
 7152TIP3    H121420   0.979   1.495   0.573 -0.4030  0.4914 -0.3413
 7152TIP3    H221421   1.086   1.521   0.469 -0.7187 -1.4202 -1.1742
 7153TIP3   OH221422   5.963   0.603   0.253  0.2271  0.2109 -0.3366
 7153TIP3    H121423   5.951   0.698   0.248 -3.9636 -0.0960  0.5157
 7153TIP3    H221424   5.899   0.568   0.191  1.4609 -2.1170 -0.4008
 7154TIP3   OH221425   6.999   1.872   1.611 -0.5771  0.2045 -0.4277
 7154TIP3    H121426   6.977   1.841   1.522  1.4898 -0.2801 -0.8298
 7154TIP3    H221427   7.015   1.791   1.660 -0.6468  0.5061  0.0870
 7155TIP3   OH221428   2.818   6.376   0.598 -0.0284  0.2551  0.7909
 7155TIP3    H121429   2.732   6.363   0.638  0.2238 -0.4254  1.1194
 7155TIP3    H221430   2.858   6.448   0.648  0.3186 -0.6435  1.8279
 7156TIP3   OH221431   6.421   6.492   4.187 -0.1397 -0.3774 -0.3340
 7156TIP3    H121432   6.330   6.516   4.206 -0.0193  0.4338 -0.7757
 7156TIP3    H221433   6.473   6.552   4.240  0.1533 -0.5685 -0.4031
 7157TIP3   OH221434   6.633   3.744   1.666  0.0141 -0.1778 -0.3922
 7157TIP3    H121435   6.671   3.657   1.651  1.7990  0.7809 -1.7422
 7157TIP3    H221436   6.562   3.751   1.602 -0.3925 -0.7499 -0.0208
 7158TIP3   OH221437   3.951   4.413   0.584  0.1307 -1.0124 -0.4643
 7158TIP3    H121438   3.996   4.378   0.660  0.7471 -1.8423 -1.1817
 7158TIP3    H221439   4.015   4.470   0.541 -0.6000  0.3829  0.2527
 7159TIP3   OH221440   1.864   5.563   0.642  0.1228  0.4806 -0.5271
 7159TIP3    H121441   1.882   5.502   0.714  1.1615  0.2519 -0.9647
 7159TIP3    H221442   1.774   5.593   0.658  0.0529 -0.1830  0.4089
 7160TIP3   OH221443   0.356   5.260   2.178  0.4453  0.5430 -0.2477
 7160TIP3    H121444   0.339   5.247   2.085  1.5270  0.6809 -0.4789
 7160TIP3    H221445   0.418   5.191   2.201  1.1558  1.2647  0.0592
 7161TIP3   OH221446   3.001   3.782   2.306 -0.0011  0.0363 -0.4140
 7161TIP3    H121447   3.014   3.876   2.313  1.5386  0.0077 -2.1599
 7161TIP3    H221448   2.927   3.771   2.246  0.6388  0.1592 -1.2476
 7162TIP3   OH221449   5.195   6.642   2.047  0.1181 -0.1445  0.1822
 7162TIP3    H121450   5.223   6.710   2.108  0.3139 -0.1471  0.0940
 7162TIP3    H221451   5.099   6.650   2.045 -0.1369 -1.6143  2.2657
 7163TIP3   OH221452   0.015   2.620   1.164  0.2301 -0.0138 -0.0569
 7163TIP3    H121453   0.083   2.638   1.229 -0.9777 -1.3584  1.6486
 7163TIP3    H221454   0.033   2.531   1.134  0.5538  0.4606 -1.3419
 7164TIP3   OH221455   6.802   1.711   4.343  0.2413 -0.2787  0.1080
 7164TIP3    H121456   6.858   1.633   4.344  0.1762 -0.3227  0.2575
 7164TIP3    H221457   6.799   1.740   4.434  0.8725  0.3353 -0.0582
 7165TIP3   OH221458   5.959   0.406   5.370  0.1189 -0.2668 -0.1764
 7165TIP3    H121459   5.878   0.387   5.322  0.9667  0.4329 -1.9849
 7165TIP3    H221460   5.937   0.388   5.461 -1.8600 -0.7816 -0.6923
 7166TIP3   OH221461   5.444   3.568   3.406 -0.2737  0.0322 -0.0245
 7166TIP3    H121462   5.355   3.549   3.378 -0.1679 -1.5387  0.6278
 7166TIP3    H221463   5.448   3.537   3.497  1.2723 -1.1112 -0.4344
 7167TIP3   OH221464   2.296   0.525   2.111 -0.5684 -0.3142  0.3018
 7167TIP3    H121465   2.278   0.476   2.031  0.1173  0.1650 -0.1491
 7167TIP3    H221466   2.392   0.529   2.116 -0.6125  1.1547  0.2195
 7168TIP3   OH221467   3.347   4.875   0.319 -0.2894  0.0134  0.0221
 7168TIP3    H121468   3.354   4.925   0.238 -0.3955 -0.1720 -0.1033
 7168TIP3    H221469   3.412   4.914   0.378 -0.0376 -0.0143 -0.2372
 7169TIP3   OH221470   5.490   1.609   4.177  0.3762  0.4077  0.2073
 7169TIP3    H121471   5.519   1.518   4.192  0.4129  0.2416 -0.8345
 7169TIP3    H221472   5.418   1.621   4.239 -0.2386 -0.6459 -0.2755
 7170TIP3   OH221473   1.421   1.406   2.336 -0.2667  0.3715 -0.0467
 7170TIP3    H121474   1.375   1.322   2.331 -1.0791  0.6389  1.9669
 7170TIP3    H221475   1.507   1.388   2.299 -0.8662 -0.9974 -0.8651
 7171TIP3   OH221476   4.438   5.970   2.697  0.0287  0.2619 -0.0237
 7171TIP3    H121477   4.397   6.025   2.631  0.9625  0.8743 -0.1072
 7171TIP3    H221478   4.453   5.886   2.653 -2.8881 -0.6910  0.5744
 7172TIP3   OH221479   6.330   4.977   4.024  0.1747  0.3036 -0.0378
 7172TIP3    H121480   6.368   4.897   3.986  1.8650  1.0079  0.0858
 7172TIP3    H221481   6.271   5.010   3.956  1.0204  0.0317 -0.9316
 7173TIP3   OH221482   5.232   3.622   5.237 -0.0176  0.0970  0.0201
 7173TIP3    H121483   5.157   3.643   5.293  0.5601  0.8840  0.5350
 7173TIP3    H221484   5.196   3.613   5.149 -0.7635  0.0870  0.3271
 7174TIP3   OH221485   3.577   4.493   1.203  0.3687 -0.3084  0.4552
 7174TIP3    H121486   3.507   4.537   1.250 -0.1536 -0.5316 -0.1024
 7174TIP3    H221487   3.537   4.413   1.169  0.3705  0.4237 -1.4070
 7175TIP3   OH221488   5.355   4.591   5.677  0.1175 -0.0685 -0.3214
 7175TIP3    H121489   5.297   4.518   5.659 -0.3981  0.9671 -3.5615
 7175TIP3    H221490   5.318   4.633   5.754 -2.3923 -0.5195 -1.2000
 7176TIP3   OH221491   2.176   2.232   5.083 -0.2165  0.6462  0.0847
 7176TIP3    H121492   2.226   2.199   5.158  0.0750 -0.5553 -0.6133
 7176TIP3    H221493   2.241   2.271   5.025 -0.4649  1.7423  0.5271
 7177TIP3   OH221494   6.885   5.420   0.230 -0.2379 -0.4081  0.2982
 7177TIP3    H121495   6.834   5.385   0.157 -1.7181 -0.7915  1.4626
 7177TIP3    H221496   6.825   5.481   0.274  0.9612  0.5732  0.6176
 7178TIP3   OH221497   3.814   0.036   3.253 -0.1354  0.2890  0.0526
 7178TIP3    H121498   3.784  -0.024   3.321 -1.7601 -1.8911 -2.4265
 7178TIP3    H221499   3.749   0.106   3.253  0.4320  0.8520  1.3420
 7179TIP3   OH221500   1.315   0.600   1.944 -0.0069  0.3313  0.3574
 7179TIP3    H121501   1.394   0.651   1.924 -0.9370  0.9323 -2.1537
 7179TIP3    H221502   1.283   0.637   2.027  0.3251  2.6703 -0.4876
 7180TIP3   OH221503   1.346   2.288   0.312 -0.1710 -0.2023  0.0473
 7180TIP3    H121504   1.293   2.234   0.254 -2.8099  0.9944  1.1743
 7180TIP3    H221505   1.392   2.225   0.368 -0.8136 -1.3143 -0.6357
 7181TIP3   OH221506   2.381   0.028   4.044 -0.1071  0.1726 -0.3186
 7181TIP3    H121507   2.311   0.085   4.011  1.2055 -0.0655 -4.0790
 7181TIP3    H221508   2.358  -0.059   4.011  0.4837 -0.5136  0.9922
 7182TIP3   OH221509   1.327   4.443   3.223  0.3348  0.5714  0.3615
 7182TIP3    H121510   1.252   4.427   3.280  0.8761 -3.6762  0.2199
 7182TIP3    H221511   1.402   4.444   3.282  0.4465  2.3525  0.2445
 7183TIP3   OH221512   7.030   1.853   0.913 -0.1105 -0.4313  0.1669
 7183TIP3    H121513   7.002   1.857   1.004  0.3034  2.8228  0.2578
 7183TIP3    H221514   6.950   1.863   0.862 -0.1817 -0.9203  0.1733
 7184TIP3   OH221515   2.911   2.807   4.889  0.6554  0.3583  0.4678
 7184TIP3    H121516   2.982   2.750   4.920  1.1968  1.0196  0.4554
 7184TIP3    H221517   2.928   2.817   4.795 -1.1479 -1.8908 -0.2071
 7185TIP3   OH221518   5.171   6.287   3.107  0.0469  0.0904 -0.4907
 7185TIP3    H121519   5.095   6.341   3.086 -0.8597 -1.5476 -1.6555
 7185TIP3    H221520   5.136   6.198   3.116  1.5772 -0.4426  0.7086
 7186TIP3   OH221521   6.489   0.145   0.621  0.4655 -0.1310 -0.1634
 7186TIP3    H121522   6.584   0.134   0.627  0.4051  0.2202  1.8281
 7186TIP3    H221523   6.453   0.061   0.649  0.1727  0.3660  0.9649
 7187TIP3   OH221524   5.072   2.970   1.837  0.3850  0.6284  0.4055
 7187TIP3    H121525   5.087   3.017   1.755  0.8458  0.7290  0.5433
 7187TIP3    H221526   5.080   2.878   1.813  0.1306  0.6413  0.2635
 7188TIP3   OH221527   0.419   4.962   5.211 -0.5291 -0.1138  0.5138
 7188TIP3    H121528   0.327   4.938   5.200 -0.7018  0.3922  0.7927
 7188TIP3    H221529   0.430   5.040   5.157 -0.6561  0.6943  1.5958
 7189TIP3   OH221530   7.004   5.381   3.957 -0.1350  0.1982  0.0211
 7189TIP3    H121531   6.929   5.324   3.974 -1.8778  2.3976  0.0093
 7189TIP3    H221532   7.032   5.411   4.043  1.4930 -1.4288  0.1262
 7190TIP3   OH221533   4.396   6.693   2.211 -0.2891 -0.1966 -0.0285
 7190TIP3    H121534   4.365   6.749   2.140 -0.5844 -1.0990 -0.6281
 7190TIP3    H221535   4.466   6.744   2.252 -1.3903  1.1366  0.2538
 7191TIP3   OH221536   1.956   2.472   2.098  0.3231 -0.4130  0.1878
 7191TIP3    H121537   1.885   2.407   2.096  0.7829 -0.9343  0.6706
 7191TIP3    H221538   1.998   2.464   2.012 -0.9149  0.7244 -0.5726
 7192TIP3   OH221539   0.127   6.526   2.533  0.1812  0.0700  0.4481
 7192TIP3    H121540   0.217   6.558   2.545  0.4640 -1.0827  1.5481
 7192TIP3    H221541   0.136   6.432   2.519 -0.8426 -0.0102  0.2348
 7193TIP3   OH221542   2.704   4.984   0.396  0.5676 -0.2303  0.0047
 7193TIP3    H121543   2.746   5.028   0.471 -1.6326 -1.9527  2.4513
 7193TIP3    H221544   2.777   4.947   0.346  2.2336 -3.2099  4.0681
 7194TIP3   OH221545   3.842   4.828   2.256  0.3482  0.5175  1.0698
 7194TIP3    H121546   3.798   4.746   2.278  1.1604  0.2421  1.7166
 7194TIP3    H221547   3.828   4.885   2.332 -0.2360  0.9908  0.6125
 7195TIP3   OH221548   1.742   5.722   4.797  0.2765 -0.0786 -0.0393
 7195TIP3    H121549   1.756   5.817   4.795 -2.3676  0.3844 -0.0297
 7195TIP3    H221550   1.816   5.686   4.748 -1.1838  2.3564 -4.6534
 7196TIP3   OH221551   2.721   3.460   0.359 -0.5742 -0.2736 -0.8902
 7196TIP3    H121552   2.788   3.425   0.418  0.8269  0.8613 -1.7516
 7196TIP3    H221553   2.735   3.414   0.276 -0.5033  0.3265 -1.2205
 7197TIP3   OH221554   4.966   5.960   3.356 -0.0909 -0.1873  0.4120
 7197TIP3    H121555   4.964   6.049   3.322  0.4567 -0.3098  0.0513
 7197TIP3    H221556   4.989   5.905   3.281  1.0100 -0.4729  0.9363
 7198TIP3   OH221557   5.652   6.641   5.397 -0.0938  0.1102 -0.2383
 7198TIP3    H121558   5.720   6.580   5.426 -0.1006  0.1095 -0.2234
 7198TIP3    H221559   5.693   6.727   5.406 -0.8167  0.2964  1.8684
 7199TIP3   OH221560   4.500   3.552   4.757 -0.2205 -0.2429  0.1333
 7199TIP3    H121561   4.425   3.543   4.698 -0.2098 -0.3519  0.1355
 7199TIP3    H221562   4.479   3.495   4.830  0.6074 -1.5634 -0.6205
 7200TIP3   OH221563   0.202   5.429   1.844  0.5183  0.3230  0.2293
 7200TIP3    H121564   0.283   5.463   1.883  0.4388 -1.1804  1.8237
 7200TIP3    H221565   0.203   5.336   1.864 -1.7315  0.3075  0.5189
 7201TIP3   OH221566   6.107   1.757   3.160  0.4149  0.2529 -0.1891
 7201TIP3    H121567   6.144   1.676   3.124 -2.3883 -0.9375 -0.6200
 7201TIP3    H221568   6.096   1.814   3.084 -0.6608 -0.2614 -0.4362
 7202TIP3   OH221569   6.173   0.408   5.717  0.4857  0.5816 -0.5289
 7202TIP3    H121570   6.188   0.445   5.804  1.8133  0.1280 -0.5454
 7202TIP3    H221571   6.079   0.422   5.701 -0.2051 -0.9780  1.7348
 7203TIP3   OH221572   2.175   5.207   5.517  0.0896 -0.0854  0.2740
 7203TIP3    H121573   2.135   5.121   5.502 -0.8190  0.4750 -0.6592
 7203TIP3    H221574   2.181   5.215   5.612  2.0361 -2.0042  0.3997
 7204TIP3   OH221575   2.505   2.506   4.140 -1.0438  0.6711  0.1613
 7204TIP3    H121576   2.559   2.487   4.064 -1.6611  0.3608 -0.2133
 7204TIP3    H221577   2.439   2.568   4.108 -1.0471  0.8672  0.5478
 7205TIP3   OH221578   2.432   1.237   4.843 -0.5669 -0.3051 -0.1694
 7205TIP3    H121579   2.468   1.213   4.928  0.1853 -0.0143 -0.4020
 7205TIP3    H221580   2.361   1.174   4.828  1.9111 -3.0706 -1.1881
 7206TIP3   OH221581   1.507   2.216   5.560  0.1494 -0.0392 -0.4202
 7206TIP3    H121582   1.582   2.185   5.610 -0.3620 -1.2348 -0.3306
 7206TIP3    H221583   1.441   2.238   5.627 -0.0088 -0.2127 -0.5149
 7207TIP3   OH221584   4.219   3.182   1.192 -0.1844  0.0828 -0.1502
 7207TIP3    H121585   4.195   3.091   1.208  0.7945 -0.4859 -1.7183
 7207TIP3    H221586   4.302   3.194   1.238 -0.1285  0.0953 -0.2565
 7208TIP3   OH221587   1.951   5.326   3.776 -0.5519 -0.3583  0.0564
 7208TIP3    H121588   2.036   5.286   3.792 -0.9140 -0.8673  0.7695
 7208TIP3    H221589   1.967   5.420   3.781  0.1481 -0.4215 -0.7979
 7209TIP3   OH221590   5.823   5.272   0.211  0.5895  0.0889  0.0000
 7209TIP3    H121591   5.812   5.350   0.157 -1.6795 -0.5948 -0.6323
 7209TIP3    H221592   5.850   5.204   0.150  1.6533  0.1218  0.4000
 7210TIP3   OH221593   6.123   5.568   5.531  0.4145 -0.2620 -0.1821
 7210TIP3    H121594   6.048   5.508   5.529  0.8001 -0.7493 -0.3031
 7210TIP3    H221595   6.177   5.541   5.457  1.0038 -0.3071  0.2559
 7211TIP3   OH221596   3.119   6.552   2.986  0.0473  0.2235 -0.3912
 7211TIP3    H121597   3.201   6.520   2.949  0.3500 -0.3224  0.7273
 7211TIP3    H221598   3.054   6.538   2.917  0.9138  0.8489 -1.3637
 7212TIP3   OH221599   4.279   3.282   5.580  0.0906 -0.2589  0.0406
 7212TIP3    H121600   4.313   3.327   5.502  0.9050 -0.1126  0.4645
 7212TIP3    H221601   4.302   3.190   5.566  1.0532 -0.1001  0.5153
 7213TIP3   OH221602   0.082   1.673   4.063  0.4869 -0.1589 -0.0634
 7213TIP3    H121603   0.038   1.629   3.989 -1.6700  0.3309  0.8385
 7213TIP3    H221604   0.067   1.766   4.047  0.4547 -0.0245  0.7200
 7214TIP3   OH221605   1.584   3.035   2.586 -0.2863 -0.3805  0.9576
 7214TIP3    H121606   1.513   3.074   2.536 -1.4274 -1.2943  1.8218
 7214TIP3    H221607   1.664   3.069   2.545 -1.1401 -1.5662 -1.8766
 7215TIP3   OH221608   4.232   6.800   4.932  0.4810 -0.2569 -0.2490
 7215TIP3    H121609   4.248   6.708   4.908 -2.6090 -0.5723 -1.5223
 7215TIP3    H221610   4.215   6.798   5.026 -2.4418 -1.5832 -0.6943
 7216TIP3   OH221611   0.126   2.295   1.603 -0.2147  0.0210  0.2390
 7216TIP3    H121612   0.158   2.288   1.512  1.3883  1.2086  0.6626
 7216TIP3    H221613   0.205   2.287   1.656 -1.2892 -1.9732  1.6472
 7217TIP3   OH221614   2.709   2.502   3.527 -0.2965 -0.1999  0.1578
 7217TIP3    H121615   2.727   2.593   3.551  0.2844 -0.1208 -0.5567
 7217TIP3    H221616   2.775   2.452   3.574 -0.6116 -0.2567  0.5456
 7218TIP3   OH221617   0.571   3.222   1.534  0.1205 -0.6545  0.1681
 7218TIP3    H121618   0.539   3.311   1.543  2.4938  0.1578  1.2397
 7218TIP3    H221619   0.594   3.214   1.441  2.8994  1.0367  0.6097
 7219TIP3   OH221620   3.295   0.114   1.226  0.8096  0.3413  0.1731
 7219TIP3    H121621   3.312   0.041   1.285  1.4746  0.6930  0.4355
 7219TIP3    H221622   3.372   0.117   1.169  0.1232 -0.0638 -0.7920
 7220TIP3   OH221623   0.407   4.803   4.022  0.2859 -0.4456  0.5127
 7220TIP3    H121624   0.473   4.872   4.026  0.4855 -0.6746  1.6091
 7220TIP3    H221625   0.450   4.730   3.978  0.2530 -0.0735 -0.1506
 7221TIP3   OH221626   1.322   4.590   4.143 -0.0384 -0.1380 -0.1283
 7221TIP3    H121627   1.368   4.643   4.208  0.6011  0.4240 -1.0218
 7221TIP3    H221628   1.358   4.502   4.154  1.4534  0.3302 -0.9430
 7222TIP3   OH221629   5.694   1.746   3.620  0.2167 -0.1895  0.1584
 7222TIP3    H121630   5.763   1.727   3.683  0.2407  0.9775  0.4930
 7222TIP3    H221631   5.722   1.702   3.540  1.4591  0.4524  0.2198
 7223TIP3   OH221632   4.099   4.297   3.181  0.0104 -0.2184 -0.3042
 7223TIP3    H121633   4.174   4.300   3.121 -0.6112  0.1746 -1.0862
 7223TIP3    H221634   4.093   4.385   3.216  1.1964 -0.7756  1.4211
 7224TIP3   OH221635   6.432   6.210   4.785  0.2732 -0.2095 -0.1968
 7224TIP3    H121636   6.361   6.239   4.727 -0.5862 -0.6408  0.6082
 7224TIP3    H221637   6.391   6.144   4.842  1.3152 -0.4390  0.3074
 7225TIP3   OH221638   1.557   4.496   4.613  0.6232 -0.2024  0.6872
 7225TIP3    H121639   1.593   4.479   4.700  2.3685  1.3824  0.3426
 7225TIP3    H221640   1.610   4.568   4.579 -1.8182  1.1495 -0.5839
 7226TIP3   OH221641   4.003   4.480   3.938  0.4897  0.2000  0.2370
 7226TIP3    H121642   4.000   4.558   3.881  1.1684  1.0546  1.3290
 7226TIP3    H221643   3.993   4.406   3.878  0.1773  1.1185 -0.8732
 7227TIP3   OH221644   0.781   3.698   3.794 -0.2651 -0.0714  0.4046
 7227TIP3    H121645   0.700   3.704   3.845 -1.3422 -1.6141 -1.0165
 7227TIP3    H221646   0.803   3.789   3.773 -1.3782  0.4061  1.1855
 7228TIP3   OH221647   5.433   4.383   1.878  0.5453 -0.3571 -0.1690
 7228TIP3    H121648   5.510   4.352   1.829  1.6465 -1.0848  1.8981
 7228TIP3    H221649   5.461   4.383   1.969 -2.3034 -1.9086  0.8381
 7229TIP3   OH221650   3.152   2.800   4.574  0.3190 -0.0228 -0.5777
 7229TIP3    H121651   3.208   2.844   4.638  0.8443 -1.3804 -0.0528
 7229TIP3    H221652   3.192   2.714   4.563 -2.0777 -1.3658  0.4135
 7230TIP3   OH221653   5.933   4.062   4.535  0.1650 -0.4520 -0.2224
 7230TIP3    H121654   5.871   4.112   4.588 -1.2334 -1.6645 -0.6300
 7230TIP3    H221655   6.009   4.049   4.592 -0.7065 -0.4885  0.9677
 7231TIP3   OH221656   0.541   5.507   4.469  0.0906  0.3521 -0.3400
 7231TIP3    H121657   0.556   5.454   4.391  1.9982  1.7909 -1.0237
 7231TIP3    H221658   0.446   5.520   4.470 -0.2787 -1.8369 -0.9182
 7232TIP3   OH221659   6.254   4.571   5.350 -0.2423  0.0014 -0.6433
 7232TIP3    H121660   6.290   4.585   5.262  1.0900 -1.1224 -0.3181
 7232TIP3    H221661   6.169   4.529   5.335  0.3184 -0.9023 -1.3947
 7233TIP3   OH221662   4.068   3.846   1.944  0.3492 -0.3300  0.1756
 7233TIP3    H121663   4.080   3.756   1.973 -0.0699 -0.3423  0.3193
 7233TIP3    H221664   4.153   3.872   1.911  0.1820 -1.1895 -1.0197
 7234TIP3   OH221665   4.974   0.051   3.277  0.1306  0.0813  0.2809
 7234TIP3    H121666   5.027  -0.001   3.336  2.2000  2.6081  0.8337
 7234TIP3    H221667   4.959  -0.005   3.201  0.0270 -2.1366  1.8654
 7235TIP3   OH221668   6.991   4.843   3.868 -0.1931 -0.2042 -0.1850
 7235TIP3    H121669   6.949   4.865   3.785  1.6534 -0.3345 -1.2039
 7235TIP3    H221670   6.929   4.784   3.911 -0.5766 -1.3223 -2.1400
 7236TIP3   OH221671   0.668   3.451   2.444 -0.4128 -0.2946 -0.4732
 7236TIP3    H121672   0.629   3.390   2.506 -1.1898  0.2100 -0.4503
 7236TIP3    H221673   0.684   3.530   2.495  1.4058 -0.7427 -0.2806
 7237TIP3   OH221674   5.835   5.377   0.616 -0.9298  0.4696 -0.0688
 7237TIP3    H121675   5.858   5.456   0.569 -0.6983  1.5184  1.7146
 7237TIP3    H221676   5.749   5.353   0.582 -0.8162  1.2398 -0.9307
 7238TIP3   OH221677   4.562   4.377   0.919 -0.0903 -0.3392  0.0631
 7238TIP3    H121678   4.577   4.445   0.853 -0.2424  1.5214  1.8484
 7238TIP3    H221679   4.467   4.375   0.930  0.0281  0.7876  1.5814
 7239TIP3   OH221680   6.819   4.152   3.859 -0.2100 -0.6378  0.4798
 7239TIP3    H121681   6.820   4.060   3.888  0.9212 -0.9613 -0.5114
 7239TIP3    H221682   6.750   4.155   3.793  0.2994 -0.9818 -0.0786
 7240TIP3   OH221683   2.403   1.468   0.967  0.5096  0.4631 -0.4460
 7240TIP3    H121684   2.473   1.451   1.030  0.7379  0.0657 -0.8043
 7240TIP3    H221685   2.342   1.525   1.014  0.8727  0.4884  0.0025
 7241TIP3   OH221686   1.080   6.184   1.291 -0.3755  0.5269  0.4467
 7241TIP3    H121687   1.076   6.277   1.314  1.6176  1.0602 -1.0631
 7241TIP3    H221688   1.025   6.176   1.214 -0.7207  0.4042  0.7050
 7242TIP3   OH221689   3.344   5.893   4.930 -0.4233 -0.5104 -1.0074
 7242TIP3    H121690   3.367   5.940   5.010 -1.3932  1.1556 -1.6474
 7242TIP3    H221691   3.336   5.961   4.864 -1.0659 -1.6862 -2.1878
 7243TIP3   OH221692   5.289   3.837   0.600 -0.1822 -0.3287 -0.2137
 7243TIP3    H121693   5.249   3.923   0.590  1.0014  0.0715 -2.1540
 7243TIP3    H221694   5.217   3.779   0.622 -1.4172  0.7472 -1.2810
 7244TIP3   OH221695   2.130   6.157   5.005  0.1362 -0.3759  0.0005
 7244TIP3    H121696   2.155   6.168   4.913 -0.0086  0.4250  0.0459
 7244TIP3    H221697   2.169   6.074   5.031  1.1397 -0.0655 -0.4617
 7245TIP3   OH221698   2.699   4.761   5.838  0.3628 -0.4890  0.1270
 7245TIP3    H121699   2.794   4.753   5.835  0.2679 -1.5723 -0.1209
 7245TIP3    H221700   2.679   4.823   5.767  0.9657  0.7769  1.0129
 7246TIP3   OH221701   5.211   6.324   2.224 -0.2117 -0.0749  1.1272
 7246TIP3    H121702   5.145   6.386   2.192  1.3350  1.1146  0.1299
 7246TIP3    H221703   5.225   6.349   2.315 -0.9960 -0.2244  1.2944
 7247TIP3   OH221704   0.117   3.762   4.140  0.1219 -0.1546 -0.0781
 7247TIP3    H121705   0.160   3.782   4.223  1.0561  1.5625 -0.9021
 7247TIP3    H221706   0.053   3.695   4.161  3.4183 -3.2222  1.1920
 7248TIP3   OH221707   0.154   4.647   3.940 -0.1226 -0.0631 -0.0065
 7248TIP3    H121708   0.221   4.689   3.994 -2.0608  1.6525  1.2560
 7248TIP3    H221709   0.201   4.616   3.863  2.0934  1.0808  0.7926
 7249TIP3   OH221710   1.740   0.929   1.606 -0.4891  0.0702  0.1289
 7249TIP3    H121711   1.820   0.976   1.583 -0.5754  0.0312 -0.2725
 7249TIP3    H221712   1.743   0.849   1.553 -0.6416 -0.0773  0.3417
 7250TIP3   OH221713   1.287   6.011   1.226  0.3588 -0.4925 -0.2916
 7250TIP3    H121714   1.223   6.071   1.265  0.2912 -2.3524  2.7137
 7250TIP3    H221715   1.359   6.069   1.197 -0.0181  1.1414  1.8039
 7251TIP3   OH221716   5.469   6.438   4.501  0.4600  0.0677 -0.2691
 7251TIP3    H121717   5.458   6.507   4.566 -0.5538  0.5122 -0.8866
 7251TIP3    H221718   5.505   6.483   4.424 -0.5409 -0.0155 -0.7977
 7252TIP3   OH221719   7.147   5.084   5.084  0.5526 -0.7520  0.4353
 7252TIP3    H121720   7.209   5.114   5.018  2.3006 -0.2006  2.2237
 7252TIP3    H221721   7.132   5.161   5.140  1.5896 -1.9459  2.4814
 7253TIP3   OH221722   1.632   4.749   0.343 -0.3477 -0.2193 -0.0485
 7253TIP3    H121723   1.717   4.747   0.387 -0.3565 -1.5789 -0.0512
 7253TIP3    H221724   1.602   4.658   0.345 -2.1725  0.3671  0.6712
 7254TIP3   OH221725   6.505  -0.010   4.004 -0.3212  0.4102  0.0854
 7254TIP3    H121726   6.551   0.039   4.071 -0.7688  0.4462  0.3727
 7254TIP3    H221727   6.429   0.044   3.981  0.1063  0.6411 -0.8283
 7255TIP3   OH221728   6.884   2.100   4.536 -0.6702  0.4524  0.1717
 7255TIP3    H121729   6.812   2.114   4.475 -1.5134 -0.9227  0.7993
 7255TIP3    H221730   6.884   2.178   4.592 -1.1874  0.7929 -0.2925
 7256TIP3   OH221731   3.800   3.340   0.231  0.0942  0.5388 -0.1899
 7256TIP3    H121732   3.757   3.254   0.232 -0.7689  0.9531  0.0711
 7256TIP3    H221733   3.747   3.392   0.291  2.3259  0.4484  2.0021
 7257TIP3   OH221734   0.736   6.518   2.853 -0.3709  0.5270 -0.5430
 7257TIP3    H121735   0.827   6.507   2.824 -0.4197  0.1056 -0.5449
 7257TIP3    H221736   0.713   6.433   2.892 -0.1315  1.2365  1.2328
 7258TIP3   OH221737   3.164   2.362   5.717  0.1396 -0.0618 -0.1154
 7258TIP3    H121738   3.098   2.293   5.717  1.0397 -0.9850 -2.1341
 7258TIP3    H221739   3.128   2.429   5.775 -0.4001 -2.4927  2.5586
 7259TIP3   OH221740   5.918   3.663   5.420 -0.1833 -0.2995  0.0802
 7259TIP3    H121741   5.888   3.742   5.375 -0.6021 -1.4645 -1.8420
 7259TIP3    H221742   6.013   3.664   5.409 -0.2657 -0.4807 -0.7475
 7260TIP3   OH221743   2.144   6.615   2.940 -0.2311 -0.1875 -0.3187
 7260TIP3    H121744   2.184   6.693   2.901 -1.3061  0.7299  0.3404
 7260TIP3    H221745   2.185   6.608   3.026 -2.2703  1.5139  0.8944
 7261TIP3   OH221746   3.110   5.994   2.952 -0.5659  0.8447 -0.3063
 7261TIP3    H121747   3.192   6.013   2.907 -0.6682 -1.1625 -1.4786
 7261TIP3    H221748   3.088   6.074   2.999  0.7597  2.2503 -1.9897
 7262TIP3   OH221749   4.285   0.391   2.099 -0.1755 -0.6317 -0.0902
 7262TIP3    H121750   4.283   0.404   2.004  0.1237 -0.5240 -0.0806
 7262TIP3    H221751   4.262   0.476   2.136 -0.6873 -0.7717 -0.0685
 7263TIP3   OH221752   1.406   1.042   2.430 -0.2438  0.1197  0.0114
 7263TIP3    H121753   1.461   0.971   2.399 -0.2428  0.1469 -0.0498
 7263TIP3    H221754   1.466   1.103   2.474 -0.4253 -0.5882  1.2930
 7264TIP3   OH221755   6.899   5.811   1.989 -0.8037 -0.3963 -0.3120
 7264TIP3    H121756   6.942   5.744   2.042 -0.5201  0.1450  0.1554
 7264TIP3    H221757   6.857   5.868   2.053 -0.6642  0.1298 -0.6815
 7265TIP3   OH221758   6.552   6.421   2.939  0.5053 -0.5164 -0.3865
 7265TIP3    H121759   6.608   6.472   2.880 -0.8165  1.7959  0.2711
 7265TIP3    H221760   6.495   6.370   2.880  1.0803 -0.3998 -1.0588
 7266TIP3   OH221761   6.876   4.710   4.543 -0.0633  0.2417  0.0262
 7266TIP3    H121762   6.954   4.706   4.599 -0.9430  0.5385  1.3246
 7266TIP3    H221763   6.910   4.706   4.454  1.4084 -0.0123  0.5724
 7267TIP3   OH221764   2.589   4.115   2.132  0.0665 -0.2496 -0.2188
 7267TIP3    H121765   2.517   4.103   2.070  0.2950 -0.1813 -0.5014
 7267TIP3    H221766   2.573   4.200   2.172  0.0171 -0.2128 -0.3167
 7268TIP3   OH221767   0.539   3.463   3.585 -0.7599 -0.0747 -0.5169
 7268TIP3    H121768   0.498   3.404   3.523  0.1927 -0.1903 -1.0546
 7268TIP3    H221769   0.521   3.424   3.671  1.1521 -2.0343 -0.9270
 7269TIP3   OH221770   2.737   4.720   0.249 -0.3784 -0.1558 -0.4813
 7269TIP3    H121771   2.648   4.683   0.250 -0.0793 -0.8896 -0.3818
 7269TIP3    H221772   2.744   4.766   0.333 -1.0108  0.7589 -0.9194
 7270TIP3   OH221773   3.213   4.910   0.888  0.2118 -0.7059  0.1150
 7270TIP3    H121774   3.152   4.905   0.815 -0.9791  1.0933  0.8967
 7270TIP3    H221775   3.181   4.984   0.941  1.6043 -1.3065  1.9161
 7271TIP3   OH221776   1.908   1.332   0.614  0.1616 -0.1151 -0.5486
 7271TIP3    H121777   1.841   1.263   0.608  0.3511 -0.1883 -2.3624
 7271TIP3    H221778   1.859   1.414   0.605  0.1427 -0.0928 -0.2499
 7272TIP3   OH221779   3.761   3.900   3.599  0.2967  0.5903  0.2238
 7272TIP3    H121780   3.669   3.892   3.622  0.2398  0.7048  0.0387
 7272TIP3    H221781   3.765   3.978   3.542  0.4671  0.4366  0.0239
 7273TIP3   OH221782   4.141   4.488   0.380 -0.8467  0.0260 -0.4046
 7273TIP3    H121783   4.216   4.520   0.330  0.7750 -1.5281  0.8641
 7273TIP3    H221784   4.074   4.470   0.314  0.4943 -0.0886 -1.7955
 7274TIP3   OH221785   0.641   6.595   4.888 -0.1624  0.0021  0.4355
 7274TIP3    H121786   0.554   6.570   4.920 -1.1840 -0.6603 -2.5499
 7274TIP3    H221787   0.681   6.512   4.861  0.0145  0.6107 -1.2975
 7275TIP3   OH221788   7.071   2.942   0.252 -0.3811 -0.2365 -0.6082
 7275TIP3    H121789   7.022   3.011   0.297 -1.2762 -0.0747 -1.7845
 7275TIP3    H221790   7.031   2.937   0.165  2.1615  0.4666 -1.9415
 7276TIP3   OH221791   1.261   5.919   5.129  0.4476  0.0097  0.1873
 7276TIP3    H121792   1.200   5.855   5.165  0.2959 -0.5572 -1.0416
 7276TIP3    H221793   1.234   5.930   5.038  1.2267  0.9145  0.0437
 7277TIP3   OH221794   2.987   2.851   0.761  0.4822 -0.1874  0.3760
 7277TIP3    H121795   3.015   2.904   0.836 -0.7047  0.0263  0.6858
 7277TIP3    H221796   3.048   2.777   0.759  1.6174  0.7217  0.4711
 7278TIP3   OH221797   1.410   3.204   5.681  0.5828 -0.0715  0.0509
 7278TIP3    H121798   1.466   3.212   5.759 -0.1265 -0.7733  0.6598
 7278TIP3    H221799   1.465   3.159   5.617  0.5784 -1.2256  0.8165
 7279TIP3   OH221800   1.623   0.841   2.541  0.5100  0.2681  0.2382
 7279TIP3    H121801   1.683   0.907   2.576 -0.5634  0.1583  2.4425
 7279TIP3    H221802   1.554   0.833   2.607 -1.9303  0.3328 -2.1209
 7280TIP3   OH221803   3.363   5.775   3.373  0.2257  0.2716 -0.1695
 7280TIP3    H121804   3.458   5.780   3.377  0.2664  1.7904 -1.8506
 7280TIP3    H221805   3.342   5.788   3.281 -1.5679 -1.6714 -0.1163
 7281TIP3   OH221806   4.962   0.940   4.285 -0.1858  0.1693  0.4850
 7281TIP3    H121807   4.942   1.016   4.231 -2.2047 -1.2013 -0.8328
 7281TIP3    H221808   4.951   0.970   4.375  1.3336  1.9843  0.1157
 7282TIP3   OH221809   6.752   6.170   5.511 -0.3800  0.7503 -0.6026
 7282TIP3    H121810   6.830   6.211   5.547 -0.3084  1.3166 -1.3731
 7282TIP3    H221811   6.782   6.128   5.431 -1.0500  1.9108 -1.4965
 7283TIP3   OH221812   0.235   1.289   1.285  0.2748  0.2402 -0.1062
 7283TIP3    H121813   0.228   1.194   1.287  0.2048  0.2544  0.3939
 7283TIP3    H221814   0.252   1.314   1.375  0.2094  0.7092 -0.2213
 7284TIP3   OH221815   0.667   4.830   4.853 -0.1944 -0.1611 -0.4521
 7284TIP3    H121816   0.593   4.808   4.910 -0.4907 -0.0405 -0.7895
 7284TIP3    H221817   0.735   4.766   4.877 -0.6022 -0.6290 -0.5273
 7285TIP3   OH221818   6.263   3.160   1.473 -0.3753  0.5001  0.1610
 7285TIP3    H121819   6.290   3.117   1.554 -0.6423 -2.0533 -1.0115
 7285TIP3    H221820   6.265   3.091   1.407 -2.6324  1.8780 -1.5072
 7286TIP3   OH221821   2.240   4.404   5.590  0.1402  0.8771  0.2887
 7286TIP3    H121822   2.149   4.405   5.560 -0.0067  0.5633  0.7138
 7286TIP3    H221823   2.269   4.314   5.574  0.2623  0.8814  0.4910
 7287TIP3   OH221824   1.573   0.239   5.779 -0.4467  0.4354  0.3241
 7287TIP3    H121825   1.481   0.230   5.752 -0.4464 -0.1254  0.4946
 7287TIP3    H221826   1.622   0.235   5.697 -0.0993 -5.4318  0.3809
 7288TIP3   OH221827   1.168   6.668   1.418  0.4300  0.7099 -0.1424
 7288TIP3    H121828   1.119   6.715   1.486 -0.0926 -0.6506  0.4669
 7288TIP3    H221829   1.169   6.728   1.343  0.9422  2.2072  1.0175
 7289TIP3   OH221830   3.133   3.058   4.766  0.0677 -0.5392 -0.3712
 7289TIP3    H121831   3.210   3.086   4.717 -0.8468 -0.6110 -1.9027
 7289TIP3    H221832   3.168   3.019   4.846  1.5052  1.9095  0.2813
 7290TIP3   OH221833   4.738   3.663   3.218  0.1540 -0.1850 -0.2774
 7290TIP3    H121834   4.792   3.584   3.221  0.3197 -0.0528  0.2155
 7290TIP3    H221835   4.742   3.698   3.306  1.5615  1.3897 -0.9300
 7291TIP3   OH221836   2.795   4.631   2.241 -0.3368  0.1266 -0.4059
 7291TIP3    H121837   2.708   4.600   2.215 -0.0932 -0.9327 -0.0069
 7291TIP3    H221838   2.815   4.583   2.322  0.3431  0.8485 -0.1308
 7292TIP3   OH221839   0.840   3.176   0.858 -0.5470 -0.0911  0.5154
 7292TIP3    H121840   0.867   3.086   0.841  2.7667  1.0020 -0.8901
 7292TIP3    H221841   0.773   3.194   0.792 -0.8019 -1.3045  0.4088
 7293TIP3   OH221842   4.935   2.614   3.295 -0.1090  0.2049 -0.5430
 7293TIP3    H121843   4.848   2.645   3.319  0.0209  0.0684  0.1055
 7293TIP3    H221844   4.925   2.520   3.286  0.2492  0.0160  0.8043
 7294TIP3   OH221845   0.580   1.817   4.492  0.1592 -0.2729  0.7305
 7294TIP3    H121846   0.553   1.852   4.577 -1.7993 -1.2050  0.5384
 7294TIP3    H221847   0.611   1.893   4.443  0.4553  0.4142  1.9455
 7295TIP3   OH221848   5.055   5.054   2.804 -0.0377  0.2599 -0.0128
 7295TIP3    H121849   4.994   5.106   2.751 -2.7675 -0.2585  2.3566
 7295TIP3    H221850   5.060   5.102   2.887  0.8673 -1.0114  0.6911
 7296TIP3   OH221851   2.063   5.194   0.030 -0.6959 -0.1885  0.8309
 7296TIP3    H121852   2.049   5.099   0.030 -1.0088 -0.1817 -1.0658
 7296TIP3    H221853   1.991   5.229  -0.022  0.8218  0.8250 -0.6821
 7297TIP3   OH221854   7.180   1.719   0.532 -0.4066  0.5671  0.6390
 7297TIP3    H121855   7.161   1.788   0.595  0.0061  0.5687  0.7645
 7297TIP3    H221856   7.134   1.746   0.452 -0.6628  0.7277  0.8395
 7298TIP3   OH221857   4.527   6.466   0.376  0.3074  1.0481 -0.1108
 7298TIP3    H121858   4.539   6.379   0.338 -1.2915  0.0802  1.4274
 7298TIP3    H221859   4.492   6.519   0.305 -0.4751 -0.0850 -0.6045
 7299TIP3   OH221860   5.785   1.357   4.125 -0.1456  0.3257  0.0727
 7299TIP3    H121861   5.702   1.375   4.170 -0.9247 -1.0744 -0.7468
 7299TIP3    H221862   5.850   1.408   4.174 -0.7430 -1.9015  3.5123
 7300TIP3   OH221863   0.251   6.673   1.256  0.6453 -0.3577  0.3494
 7300TIP3    H121864   0.179   6.737   1.245  0.5523 -0.4289  0.5403
 7300TIP3    H221865   0.235   6.634   1.342 -0.5422 -2.1914 -0.6447
 7301TIP3   OH221866   1.588   3.258   4.864  0.0628  0.2746 -0.4238
 7301TIP3    H121867   1.542   3.301   4.792 -0.4424  1.3179  0.4935
 7301TIP3    H221868   1.656   3.321   4.889 -0.5649  0.4873  0.8089
 7302TIP3   OH221869   6.137   1.675   0.919  0.6766 -0.5475  0.0181
 7302TIP3    H121870   6.232   1.682   0.924  0.6578 -1.0693  2.8781
 7302TIP3    H221871   6.105   1.718   0.999 -1.6687  1.4409 -1.7977
 7303TIP3   OH221872   5.809   1.837   4.569  0.4045  0.5981  0.1373
 7303TIP3    H121873   5.895   1.841   4.610 -0.9108  0.0258  3.1572
 7303TIP3    H221874   5.779   1.748   4.584 -1.0488  1.0169 -0.1213
 7304TIP3   OH221875   2.699   5.965   3.023 -0.1742 -0.1984 -0.2176
 7304TIP3    H121876   2.725   6.056   3.011  0.1246 -0.2486  0.0244
 7304TIP3    H221877   2.666   5.961   3.113  1.8058 -0.7635  0.5439
 7305TIP3   OH221878   4.042   4.029   5.200  0.2608 -0.8646  0.1430
 7305TIP3    H121879   3.968   3.979   5.235 -0.3372 -0.9109 -1.1206
 7305TIP3    H221880   4.004   4.114   5.176  0.8459 -0.5141  0.4212
 7306TIP3   OH221881   2.722   6.794   4.455  0.3047 -0.2305 -0.7939
 7306TIP3    H121882   2.748   6.721   4.399 -0.9791 -0.2831 -1.3557
 7306TIP3    H221883   2.631   6.775   4.479 -0.0624  1.1812 -0.9586
 7307TIP3   OH221884   5.986   4.712   3.538 -0.3070  0.3688 -0.1217
 7307TIP3    H121885   6.040   4.638   3.566 -1.4515 -0.4421 -0.0096
 7307TIP3    H221886   5.983   4.769   3.615  0.8620  0.7236 -0.3155
 7308TIP3   OH221887   1.057   5.548   1.953  0.1480 -0.3037 -0.0403
 7308TIP3    H121888   1.116   5.620   1.930 -1.0884  0.7650  0.0413
 7308TIP3    H221889   0.986   5.553   1.888 -0.4289 -0.8543  0.5328
 7309TIP3   OH221890   6.992   4.693   1.310 -0.1291 -0.3416 -0.2383
 7309TIP3    H121891   6.920   4.715   1.250 -0.0634  2.2744  0.5283
 7309TIP3    H221892   6.951   4.686   1.396  0.0702 -2.1462 -0.2635
 7310TIP3   OH221893   2.969   1.614   5.600  0.0697  0.1848 -0.3947
 7310TIP3    H121894   2.967   1.569   5.515 -2.8600  0.6360 -0.6871
 7310TIP3    H221895   2.989   1.705   5.577 -1.5027  0.4719 -0.7747
 7311TIP3   OH221896   6.926   1.574   0.727  0.3086 -0.1681 -0.4445
 7311TIP3    H121897   6.937   1.594   0.634 -0.9661  0.0574 -0.5732
 7311TIP3    H221898   6.838   1.605   0.748  1.4674  2.1571  1.4835
 7312TIP3   OH221899   2.274   3.605   2.842  0.0573 -0.0579  0.2378
 7312TIP3    H121900   2.185   3.587   2.810 -0.5370 -0.2047  1.8589
 7312TIP3    H221901   2.326   3.531   2.809 -0.3622  0.1079 -0.8590
 7313TIP3   OH221902   1.574   3.145   0.756 -0.2430  0.1531 -0.4341
 7313TIP3    H121903   1.570   3.196   0.675 -1.4162  3.7465  1.6701
 7313TIP3    H221904   1.486   3.152   0.793  0.4013 -0.9326  1.4462
 7314TIP3   OH221905   6.813   0.494   3.476  0.2289  0.0532  0.1842
 7314TIP3    H121906   6.805   0.583   3.443  0.1801  0.3096  0.8874
 7314TIP3    H221907   6.905   0.485   3.501  0.3721 -0.2940 -0.4461
 7315TIP3   OH221908   6.740   5.743   2.617  0.4400  0.1308  0.1867
 7315TIP3    H121909   6.679   5.706   2.553 -0.4879  0.9004  0.5887
 7315TIP3    H221910   6.817   5.686   2.613  0.3049  0.0155 -1.4183
 7316TIP3   OH221911   0.675   1.827   3.250 -0.1435  0.5212  0.5171
 7316TIP3    H121912   0.591   1.807   3.209 -0.1741 -1.4242  1.4088
 7316TIP3    H221913   0.673   1.922   3.264 -1.5898  0.7166 -0.7162
 7317TIP3   OH221914   0.394   4.857   2.127 -0.3207 -0.3268 -0.7321
 7317TIP3    H121915   0.308   4.899   2.126  0.4055  1.2795  0.0642
 7317TIP3    H221916   0.382   4.777   2.178 -1.9681 -1.6988 -3.1084
 7318TIP3   OH221917   4.398   2.295   4.848 -0.0212  0.2542  0.1257
 7318TIP3    H121918   4.406   2.313   4.754  0.6579  0.4254  0.2112
 7318TIP3    H221919   4.483   2.260   4.873  0.2079  1.3018  0.9076
 7319TIP3   OH221920   1.992   1.487   1.710 -0.3679 -0.0202 -0.2173
 7319TIP3    H121921   1.940   1.463   1.787  1.3124 -0.5319  0.8258
 7319TIP3    H221922   2.051   1.413   1.698  1.0238  1.1057 -0.5074
 7320TIP3   OH221923   2.491   4.319   5.320 -0.2840  0.0571 -0.4927
 7320TIP3    H121924   2.484   4.398   5.266 -1.1766 -0.0424 -0.5393
 7320TIP3    H221925   2.528   4.349   5.403 -0.6471  0.5296 -0.5011
 7321TIP3   OH221926   6.894   4.764   2.460 -0.3914  0.3181 -0.2925
 7321TIP3    H121927   6.915   4.673   2.481  1.0558  0.8253  0.6228
 7321TIP3    H221928   6.855   4.799   2.540 -0.8512  0.5364 -0.6066
 7322TIP3   OH221929   0.298   1.310   3.322  0.1437 -0.2318  0.3336
 7322TIP3    H121930   0.264   1.228   3.287  0.4360 -0.9942  1.7930
 7322TIP3    H221931   0.309   1.295   3.416 -0.5592  1.7329  0.7834
 7323TIP3   OH221932   6.609   4.583   4.516 -0.1241  0.7432  0.1712
 7323TIP3    H121933   6.677   4.632   4.562  0.3959  1.0417 -0.8791
 7323TIP3    H221934   6.610   4.619   4.428 -0.2081 -0.6784 -0.4393
 7324TIP3   OH221935   0.502   1.783   0.578 -0.2075  1.0261  0.1021
 7324TIP3    H121936   0.493   1.879   0.580 -0.2011  1.0598 -1.0455
 7324TIP3    H221937   0.416   1.751   0.607  0.0250  1.3679  1.2139
 7325TIP3   OH221938   0.691   3.493   1.428 -0.2971  0.2122 -0.0950
 7325TIP3    H121939   0.766   3.545   1.456 -0.2625  0.2635 -0.2808
 7325TIP3    H221940   0.690   3.502   1.333 -1.4940  1.5350  0.0162
 7326TIP3   OH221941   4.974   0.914   4.577 -0.2266  0.7234  0.4571
 7326TIP3    H121942   4.950   0.839   4.523  0.0942  1.0029 -0.0820
 7326TIP3    H221943   4.987   0.877   4.665 -0.1129  0.1573  0.2088
 7327TIP3   OH221944   3.605   4.020   1.964 -0.3960  0.0028 -0.2492
 7327TIP3    H121945   3.688   3.993   1.923  0.1001 -0.7605  1.1759
 7327TIP3    H221946   3.546   4.035   1.891  0.5736 -0.9195 -1.2623
 7328TIP3   OH221947   4.039   3.051   3.401  0.3266 -0.1267  0.6386
 7328TIP3    H121948   4.029   2.970   3.352  0.2991  0.6546 -0.6968
 7328TIP3    H221949   3.958   3.100   3.384  1.1543  1.0097 -0.2195
 7329TIP3   OH221950   3.899   0.193   2.480  0.4784  0.3778 -0.1674
 7329TIP3    H121951   3.849   0.119   2.515  0.2325  0.3536 -0.5700
 7329TIP3    H221952   3.990   0.174   2.504  0.4511 -0.1887 -0.5031
 7330TIP3   OH221953   2.491   6.441   4.689  0.3669  0.4379 -0.0189
 7330TIP3    H121954   2.582   6.466   4.674  0.4168  0.9603  1.0409
 7330TIP3    H221955   2.443   6.524   4.694 -0.1726  0.1670 -0.5605
 7331TIP3   OH221956   6.096   5.057   1.597  0.1629 -0.5542 -0.2917
 7331TIP3    H121957   6.182   5.021   1.577 -0.1154  0.0415 -2.9862
 7331TIP3    H221958   6.034   4.989   1.568 -0.3437 -0.9870  1.6272
 7332TIP3   OH221959   6.326   5.221   5.226  0.6375  0.0477  0.6853
 7332TIP3    H121960   6.293   5.309   5.211 -1.7231 -0.9493 -0.5714
 7332TIP3    H221961   6.393   5.209   5.159  0.6672  0.7162  0.5868
 7333TIP3   OH221962   3.190   6.638   4.483 -0.2237 -0.0163  0.6259
 7333TIP3    H121963   3.198   6.579   4.558 -0.2377  0.4829  1.0294
 7333TIP3    H221964   3.280   6.666   4.465 -0.1401 -0.6542  0.0258
 7334TIP3   OH221965   3.769   1.910   3.683 -0.1960 -0.4383  0.5186
 7334TIP3    H121966   3.745   1.818   3.674 -0.8338 -0.1691 -0.7772
 7334TIP3    H221967   3.685   1.956   3.690  0.0903  0.1160  0.3392
 7335TIP3   OH221968   4.534   5.330   0.823 -0.0867  0.8154  0.6399
 7335TIP3    H121969   4.567   5.275   0.894 -1.0065 -0.0835  0.3953
 7335TIP3    H221970   4.444   5.300   0.808  0.3093  0.4747 -1.3926
 7336TIP3   OH221971   4.597   5.584   3.151  0.2929 -0.5474 -0.0063
 7336TIP3    H121972   4.523   5.618   3.202 -0.3110 -1.0343 -0.5547
 7336TIP3    H221973   4.601   5.640   3.074  0.3371 -0.6871 -0.1058
 7337TIP3   OH221974   5.418   5.516   1.841 -0.4098 -0.0736 -0.1772
 7337TIP3    H121975   5.375   5.585   1.890  1.7294  1.4624 -0.3101
 7337TIP3    H221976   5.367   5.437   1.860 -1.2589  0.9821  2.2934
 7338TIP3   OH221977   1.411   6.288   1.625  0.4176 -0.1926 -0.0009
 7338TIP3    H121978   1.316   6.282   1.626  0.3468  0.7878  1.1978
 7338TIP3    H221979   1.434   6.300   1.533 -0.6275 -0.2843 -0.2778
 7339TIP3   OH221980   6.027   2.115   5.104  0.6349  0.3405  0.2803
 7339TIP3    H121981   5.962   2.139   5.170  1.4559  0.6302  1.0054
 7339TIP3    H221982   6.105   2.094   5.155  1.3579  0.8116 -0.6156
 7340TIP3   OH221983   1.357   3.076   3.231  0.2854 -0.0313  0.3775
 7340TIP3    H121984   1.310   2.993   3.234 -0.9025  0.6214  1.2013
 7340TIP3    H221985   1.395   3.079   3.143 -2.9394  0.2356 -1.1844
 7341TIP3   OH221986   1.965   1.893   4.187  0.5641 -0.0739 -0.6088
 7341TIP3    H121987   1.992   1.984   4.188  1.5509 -0.3422  0.8641
 7341TIP3    H221988   2.008   1.854   4.264 -0.7473 -1.5043 -0.5434
 7342TIP3   OH221989   0.635   2.212   1.148  0.0357 -0.4178 -0.5018
 7342TIP3    H121990   0.587   2.148   1.200 -0.0477 -0.1086 -0.1989
 7342TIP3    H221991   0.567   2.258   1.098  0.1305 -0.8511 -1.0471
 7343TIP3   OH221992   0.021   4.852   2.996  0.1414  0.2739 -0.0259
 7343TIP3    H121993   0.111   4.837   3.027 -0.0018 -0.7296 -0.0434
 7343TIP3    H221994  -0.022   4.767   3.008 -1.3148  1.1889  1.6061
 7344TIP3   OH221995   5.607   6.020   0.695 -0.0303  0.1235 -0.0178
 7344TIP3    H121996   5.680   6.070   0.659  1.0118 -2.3744 -1.7005
 7344TIP3    H221997   5.530   6.073   0.678  1.1144  1.6265 -0.6913
 7345TIP3   OH221998   1.286   6.366   0.291  0.3040  0.1948 -0.5596
 7345TIP3    H121999   1.192   6.373   0.278  0.3926  1.1299 -0.7699
 7345TIP3    H222000   1.303   6.272   0.294 -0.5538  0.0104 -1.1228
 7346TIP3   OH222001   6.793   6.024   2.144 -0.1690  0.1875 -0.2160
 7346TIP3    H122002   6.761   5.971   2.217  0.8408 -0.9265 -0.5566
 7346TIP3    H222003   6.824   6.105   2.184 -1.4842  0.4441  0.3446
 7347TIP3   OH222004   0.227   6.297   2.440 -0.2603 -0.3721  0.7874
 7347TIP3    H122005   0.307   6.283   2.490 -0.4546 -0.0181  1.2060
 7347TIP3    H222006   0.257   6.320   2.352  0.1373  1.2578  1.3210
 7348TIP3   OH222007   5.834   5.553   2.513  0.0460  0.4535  0.4132
 7348TIP3    H122008   5.821   5.589   2.425  0.3169  1.0597  0.6153
 7348TIP3    H222009   5.750   5.567   2.557 -0.1006  0.1198  0.2415
 7349TIP3   OH222010   5.003   2.100   4.153  0.3885  0.1078  0.0860
 7349TIP3    H122011   5.030   2.188   4.178  0.2721  0.0812  0.3159
 7349TIP3    H222012   5.020   2.094   4.059  0.0450  0.5026 -0.0030
 7350TIP3   OH222013   1.895   5.993   1.326 -0.1597  0.4996 -0.0341
 7350TIP3    H122014   1.879   6.085   1.345  0.2876  0.3845  1.0002
 7350TIP3    H222015   1.863   5.947   1.404  2.0301  0.0152  0.6622
 7351TIP3   OH222016   5.562   3.654   1.026  0.2844 -0.3398 -0.0663
 7351TIP3    H122017   5.481   3.609   1.047 -0.0593  0.1825 -0.2522
 7351TIP3    H222018   5.602   3.673   1.110 -0.5217  0.7295  0.0944
 7352TIP3   OH222019   5.329   3.082   5.409 -0.0640  0.2014 -0.5231
 7352TIP3    H122020   5.304   3.172   5.429 -0.2631  0.7101 -2.8397
 7352TIP3    H222021   5.338   3.040   5.495 -0.4575  2.2745  0.5851
 7353TIP3   OH222022   2.431   5.575   5.626 -0.4143 -0.0597  0.3304
 7353TIP3    H122023   2.402   5.529   5.547 -1.9528  0.5551  0.5115
 7353TIP3    H222024   2.527   5.572   5.622 -0.4612  0.1818 -1.6876
 7354TIP3   OH222025   1.722   6.794   4.879  0.4552  0.5986 -0.3162
 7354TIP3    H122026   1.699   6.789   4.787 -1.3496 -1.4563  0.1541
 7354TIP3    H222027   1.781   6.720   4.894  0.6180  0.8235  0.2039
 7355TIP3   OH222028   1.921   4.621   5.027 -0.1717 -0.0360 -0.1056
 7355TIP3    H122029   2.013   4.616   5.054  0.1831  0.3405 -1.1975
 7355TIP3    H222030   1.872   4.592   5.104  0.8705 -0.4999  0.4048
 7356TIP3   OH222031   0.118   6.652   2.090 -0.1912 -0.0023 -0.0617
 7356TIP3    H122032   0.043   6.677   2.144  0.3333  1.4926  0.0490
 7356TIP3    H222033   0.169   6.594   2.146 -0.8040 -0.3000  0.1963
 7357TIP3   OH222034   3.293   1.312   2.594 -0.0529 -0.1419 -0.1854
 7357TIP3    H122035   3.267   1.219   2.596 -1.3476  0.1890  2.1655
 7357TIP3    H222036   3.250   1.347   2.516 -1.3454 -1.0968  0.0574
 7358TIP3   OH222037   2.232   4.740   2.391  0.0655  0.1569 -0.4123
 7358TIP3    H122038   2.146   4.702   2.373  0.0695 -0.0931  0.0705
 7358TIP3    H222039   2.265   4.689   2.466 -0.7986  2.3904  1.6286
 7359TIP3   OH222040   1.904   6.627   5.115  0.6486 -0.8313 -0.8181
 7359TIP3    H122041   1.943   6.540   5.108  1.1022 -0.7568  0.5188
 7359TIP3    H222042   1.970   6.686   5.077  1.9547 -0.7012  1.4630
 7360TIP3   OH222043   6.209   0.974   2.522  0.3857  0.6240  0.4125
 7360TIP3    H122044   6.211   1.070   2.520  0.9638  0.6060 -0.2114
 7360TIP3    H222045   6.268   0.947   2.451 -2.7811 -0.1850 -2.1799
 7361TIP3   OH222046   0.269   3.151   5.401 -0.0709  0.1548 -0.0233
 7361TIP3    H122047   0.244   3.242   5.417 -3.0786 -0.5898  0.1493
 7361TIP3    H222048   0.190   3.110   5.365  1.4913 -2.1671 -1.1213
 7362TIP3   OH222049   6.066   4.427   5.797  0.3172 -0.6619 -0.0784
 7362TIP3    H122050   6.010   4.392   5.866 -0.3402 -1.2499 -0.8900
 7362TIP3    H222051   6.043   4.377   5.720  0.1125  0.8513 -1.0477
 7363TIP3   OH222052   1.885   0.976   0.081  0.3762 -0.0787 -0.2902
 7363TIP3    H122053   1.898   0.900   0.138  1.9536  2.8157  3.6554
 7363TIP3    H222054   1.966   0.981   0.030  1.1933  0.0097  0.9550
 7364TIP3   OH222055   1.030   5.567   3.442  0.3039 -0.2239 -0.2370
 7364TIP3    H122056   0.958   5.509   3.465 -0.7789  1.3109  0.3765
 7364TIP3    H222057   1.073   5.587   3.525 -0.1068  0.8357 -0.2727
 7365TIP3   OH222058   6.381   6.722   0.556  0.2342  0.2535  0.4572
 7365TIP3    H122059   6.380   6.662   0.631 -2.1805 -0.6044 -0.1789
 7365TIP3    H222060   6.453   6.691   0.502 -0.9856 -2.2256  0.1078
 7366TIP3   OH222061   1.493   0.806   4.941 -0.1948  0.1644 -0.2331
 7366TIP3    H122062   1.582   0.780   4.964 -0.1628  0.5321  0.0716
 7366TIP3    H222063   1.491   0.900   4.957 -1.9022 -0.4095  4.1740
 7367TIP3   OH222064   6.848   5.704   0.132 -0.7284  0.0861  0.1612
 7367TIP3    H122065   6.788   5.629   0.131 -2.8727  1.7098 -2.0834
 7367TIP3    H222066   6.901   5.693   0.054 -0.5590  0.5270  0.2132
 7368TIP3   OH222067   1.052   6.441   3.632  0.2284  0.0099  0.4015
 7368TIP3    H122068   1.002   6.520   3.613  1.1066  0.4980  0.0248
 7368TIP3    H222069   1.094   6.419   3.548 -1.3100 -1.8313  0.0505
 7369TIP3   OH222070   2.428   5.932   2.416 -0.4106 -0.1067  0.2595
 7369TIP3    H122071   2.406   5.886   2.335 -0.6680 -1.1887  0.9171
 7369TIP3    H222072   2.362   5.902   2.479 -1.5289  2.3226  0.3610
 7370TIP3   OH222073   1.436   5.239   2.676 -0.1249  0.0272  0.6748
 7370TIP3    H122074   1.462   5.187   2.601 -0.6221 -0.5325  0.8811
 7370TIP3    H222075   1.467   5.328   2.656 -0.7542  0.0117 -0.4501
 7371TIP3   OH222076   2.524   4.524   2.307  0.3238  0.1409  0.0145
 7371TIP3    H122077   2.512   4.538   2.401 -1.1089 -1.0069  0.0353
 7371TIP3    H222078   2.460   4.583   2.267  0.0741 -0.2723 -0.1932
 7372TIP3   OH222079   2.530   0.106   4.987 -0.0150 -0.4273 -0.3360
 7372TIP3    H122080   2.596   0.037   4.982 -0.0648 -0.4367 -0.9419
 7372TIP3    H222081   2.578   0.182   5.020 -0.1056 -0.9143  0.9849
 7373TIP3   OH222082   5.329   2.975   3.341  0.6504  0.8722 -0.1200
 7373TIP3    H122083   5.323   3.064   3.377  2.7147  0.6011  1.0372
 7373TIP3    H222084   5.243   2.937   3.358 -0.2069  2.5639 -0.4696
 7374TIP3   OH222085   4.721   6.703   1.113  0.1923 -0.2158  0.1995
 7374TIP3    H122086   4.763   6.635   1.165 -0.2826 -0.1643  0.6605
 7374TIP3    H222087   4.698   6.661   1.030  0.8975 -0.3167  0.0524
 7375TIP3   OH222088   5.907   3.603   0.727  0.2118 -0.0845 -0.5882
 7375TIP3    H122089   5.865   3.667   0.669 -0.3233 -0.4373 -0.5945
 7375TIP3    H222090   5.930   3.530   0.669 -0.1212 -0.3418 -0.3970
 7376TIP3   OH222091   5.004   3.224   1.411 -0.1493  0.3061 -0.0147
 7376TIP3    H122092   5.070   3.201   1.346 -1.1746 -1.9986 -0.3141
 7376TIP3    H222093   4.924   3.241   1.360 -0.8368 -1.0350  0.5747
 7377TIP3   OH222094   5.578   3.019   1.591 -0.1779 -0.4101 -0.4204
 7377TIP3    H122095   5.553   2.929   1.572  0.8266 -1.0930  1.2559
 7377TIP3    H222096   5.533   3.040   1.673  0.9970 -0.0254  0.1481
 7378TIP3   OH222097   1.529   1.020   3.548  0.5013 -0.0279  0.2137
 7378TIP3    H122098   1.447   1.055   3.513 -0.5096 -0.5664  1.9216
 7378TIP3    H222099   1.539   0.935   3.504  0.4299  0.2673 -0.3829
 7379TIP3   OH222100   0.101   1.685   5.523 -0.1870 -0.3322  0.3391
 7379TIP3    H122101   0.159   1.745   5.475  0.0088 -2.7456 -2.8083
 7379TIP3    H222102   0.161   1.631   5.575 -0.1422  0.5743  1.2478
 7380TIP3   OH222103   3.304   5.675   2.334  0.2988 -0.1441 -0.4324
 7380TIP3    H122104   3.211   5.683   2.354  0.5708  0.3660  0.6960
 7380TIP3    H222105   3.312   5.589   2.291 -0.8811  0.3992 -1.8219
 7381TIP3   OH222106   4.700   6.581   3.242 -0.1305 -0.2084  0.6993
 7381TIP3    H122107   4.716   6.577   3.147 -0.1257  2.2267  0.5250
 7381TIP3    H222108   4.643   6.506   3.260 -2.1447  0.5971 -1.7126
 7382TIP3   OH222109   1.873   0.086   5.602  0.5721 -0.6816  0.2261
 7382TIP3    H122110   1.960   0.100   5.641 -0.2097  0.8444  1.5754
 7382TIP3    H222111   1.870  -0.007   5.582  2.8769 -0.6055 -0.8101
 7383TIP3   OH222112   7.126   0.217   4.874  0.2110 -0.6654  0.0358
 7383TIP3    H122113   7.122   0.261   4.789  0.4317  1.0847  0.8872
 7383TIP3    H222114   7.151   0.286   4.935 -1.1063 -1.6199  1.7227
 7384TIP3   OH222115   5.710   4.851   3.537 -0.2499 -0.1264  0.2244
 7384TIP3    H122116   5.674   4.822   3.453  1.1758 -1.1389 -0.0698
 7384TIP3    H222117   5.805   4.845   3.526  0.0152  1.3599  1.3521
 7385TIP3   OH222118   2.694   4.683   1.856  0.2756  0.1129  0.3405
 7385TIP3    H122119   2.774   4.637   1.879  0.0959  0.3345  1.4602
 7385TIP3    H222120   2.696   4.688   1.760  1.3016 -0.3934  0.3213
 7386TIP3   OH222121   7.180   0.986   4.443  0.1521 -0.1399  0.6495
 7386TIP3    H122122   7.250   0.955   4.500  1.3206 -0.1456 -0.7505
 7386TIP3    H222123   7.114   0.916   4.446  0.6487 -0.5952  1.1855
 7387TIP3   OH222124   4.875   3.719   1.105  0.6600 -0.0486 -0.3573
 7387TIP3    H122125   4.870   3.798   1.160 -0.0345 -0.7601  0.6385
 7387TIP3    H222126   4.793   3.719   1.055  1.4417  0.7791 -1.6848
 7388TIP3   OH222127   3.659   4.486   5.183  0.0331 -0.7091 -0.1062
 7388TIP3    H122128   3.591   4.418   5.177 -0.6900  0.0971 -1.8236
 7388TIP3    H222129   3.643   4.529   5.266 -0.3647 -1.7397  0.3718
 7389TIP3   OH222130   0.886   0.574   4.321 -0.1312 -0.1511 -0.1784
 7389TIP3    H122131   0.878   0.522   4.241 -1.4323 -1.0980  0.5233
 7389TIP3    H222132   0.796   0.599   4.342  0.2599  0.6012  0.6651
 7390TIP3   OH222133   5.880   3.242   0.845  0.2481  0.2449  0.1738
 7390TIP3    H122134   5.847   3.329   0.869  1.9042  0.8995  0.1983
 7390TIP3    H222135   5.812   3.182   0.874 -1.5000  1.5882 -0.9057
 7391TIP3   OH222136   7.085   0.793   2.421  0.2858  0.1252 -0.6957
 7391TIP3    H122137   7.089   0.799   2.517 -0.6145 -1.9586 -0.4710
 7391TIP3    H222138   7.052   0.879   2.393 -1.3759  0.1249  1.0439
 7392TIP3   OH222139   2.757   1.365   1.042 -0.0287 -0.0974  0.5564
 7392TIP3    H122140   2.726   1.438   0.987  0.4183  0.1345  0.6039
 7392TIP3    H222141   2.844   1.345   1.008  0.1740 -0.0818  1.0558
 7393TIP3   OH222142   0.035   0.316   2.082 -0.4159  0.6279 -0.3274
 7393TIP3    H122143   0.000   0.405   2.069 -0.3023  0.7935  0.4740
 7393TIP3    H222144   0.092   0.323   2.158 -1.7052 -0.4927  0.7845
 7394TIP3   OH222145   4.855   1.730   3.680 -0.3724 -0.3279  0.3351
 7394TIP3    H122146   4.908   1.797   3.637  1.3734  0.1062  2.9359
 7394TIP3    H222147   4.906   1.650   3.671 -1.2816 -0.8267 -0.6238
 7395TIP3   OH222148   2.339   4.605   3.250 -0.1954 -0.2405  0.0239
 7395TIP3    H122149   2.413   4.564   3.205  0.9514  0.2307  1.4002
 7395TIP3    H222150   2.368   4.612   3.341 -1.2576  1.5415  0.2624
 7396TIP3   OH222151   2.978   1.005   4.653 -0.0592 -0.2626 -0.0938
 7396TIP3    H122152   2.994   0.964   4.568  0.2686 -2.2454  0.8730
 7396TIP3    H222153   2.901   0.959   4.688  0.6495 -0.4493  1.2736
 7397TIP3   OH222154   5.246   3.071   0.846 -0.2210 -0.6105 -0.3295
 7397TIP3    H122155   5.165   3.091   0.893 -0.1339  0.0848 -0.4701
 7397TIP3    H222156   5.251   3.139   0.778  0.0682 -1.1235 -0.8274
 7398TIP3   OH222157   6.381   3.314  -0.007  0.9375 -0.4519  0.3906
 7398TIP3    H122158   6.400   3.273   0.077  1.4795 -2.3274 -0.5907
 7398TIP3    H222159   6.462   3.305  -0.057  0.3925 -0.0531 -0.5992
 7399TIP3   OH222160   6.853   6.778   0.491  0.0360  0.1401  0.4560
 7399TIP3    H122161   6.845   6.684   0.476 -2.0294  0.1999  0.9000
 7399TIP3    H222162   6.934   6.787   0.541 -0.1004 -1.4837  1.0432
 7400TIP3   OH222163   3.917   5.303   5.462  0.0531  0.0429 -0.0295
 7400TIP3    H122164   3.966   5.344   5.533  1.6060  0.7466 -1.4441
 7400TIP3    H222165   3.837   5.355   5.455  0.8751  1.3365 -0.1835
 7401TIP3   OH222166   0.870   1.397   2.473  0.3017 -0.4560 -0.3366
 7401TIP3    H122167   0.950   1.402   2.525 -0.5085 -1.9494  1.1242
 7401TIP3    H222168   0.835   1.486   2.474  0.4651 -0.3884  1.4300
 7402TIP3   OH222169   2.915   1.702   0.317 -0.4964  0.5668 -0.1998
 7402TIP3    H122170   2.972   1.661   0.251  0.6211 -0.9714  1.6101
 7402TIP3    H222171   2.827   1.696   0.280  0.0276 -0.7656 -1.3129
 7403TIP3   OH222172   6.520   5.954   4.137  0.0177 -0.8664 -0.6038
 7403TIP3    H122173   6.429   5.930   4.116 -1.2503  0.1262  2.9746
 7403TIP3    H222174   6.512   6.035   4.187  2.5739 -2.2552  2.3333
 7404TIP3   OH222175   2.786   5.092   0.625 -0.6376 -0.0839  0.1234
 7404TIP3    H122176   2.766   5.135   0.708 -0.0194  0.7937 -0.1658
 7404TIP3    H222177   2.880   5.075   0.628 -0.3986  0.8997 -0.7957
 7405TIP3   OH222178   2.455   2.217   5.051  0.2792  0.6128  0.2813
 7405TIP3    H122179   2.488   2.301   5.018  2.5868 -0.1456  0.4702
 7405TIP3    H222180   2.438   2.233   5.144  0.0227  1.0511  0.1619
 7406TIP3   OH222181   4.752   0.435   2.521 -0.7603 -0.6815  0.0241
 7406TIP3    H122182   4.836   0.444   2.566 -1.2724  0.4138  0.8353
 7406TIP3    H222183   4.773   0.444   2.428  0.0521 -0.7090  0.1983
 7407TIP3   OH222184   2.944   0.088   3.928 -0.1211  0.4949  0.1751
 7407TIP3    H122185   2.937   0.075   3.834  1.4501  1.2054 -0.0660
 7407TIP3    H222186   2.857   0.064   3.962  0.0126 -2.2879 -1.1276
 7408TIP3   OH222187   7.114   0.108   4.532 -0.2592  0.1396  0.0679
 7408TIP3    H122188   7.067   0.136   4.454 -2.0387 -1.3447  0.5567
 7408TIP3    H222189   7.108   0.182   4.593  0.4288  0.9836 -0.8652
 7409TIP3   OH222190   2.609   2.104   4.406 -0.1563 -0.2660 -0.4789
 7409TIP3    H122191   2.557   2.041   4.456  1.3692 -1.2384 -0.0469
 7409TIP3    H222192   2.546   2.170   4.377 -1.4019 -0.7053  1.1004
 7410TIP3   OH222193   5.411   1.090   1.020  0.2939 -0.1434 -0.8661
 7410TIP3    H122194   5.396   1.008   0.972 -0.5747  0.2343 -1.2672
 7410TIP3    H222195   5.354   1.153   0.976 -0.2112  0.3157  0.4073
 7411TIP3   OH222196   3.833   2.537   2.300  0.0169 -0.5793 -0.2563
 7411TIP3    H122197   3.883   2.616   2.279  2.1010 -1.6494  0.4332
 7411TIP3    H222198   3.864   2.471   2.238 -0.5213 -1.2872  0.2130
 7412TIP3   OH222199   2.441   4.368   4.638  0.0710 -0.0980 -0.5381
 7412TIP3    H122200   2.426   4.274   4.626 -0.5865 -0.0371 -0.2784
 7412TIP3    H222201   2.378   4.393   4.705 -0.0731  0.6206 -0.9345
 7413TIP3   OH222202   4.085   5.146   2.916  0.2314 -0.4618 -0.1858
 7413TIP3    H122203   4.131   5.169   2.836 -0.4325 -1.1003 -0.7681
 7413TIP3    H222204   4.036   5.067   2.894 -0.4437 -0.3058  0.6722
 7414TIP3   OH222205   5.157   6.192   4.180 -0.2844  0.4475 -0.1696
 7414TIP3    H122206   5.194   6.209   4.266  0.2721  0.2345 -0.3588
 7414TIP3    H222207   5.078   6.245   4.176 -0.4003  0.3297  0.5326
 7415TIP3   OH222208   5.439   6.002   0.403 -0.1214 -0.5206  0.3003
 7415TIP3    H122209   5.504   5.972   0.339 -0.4860  1.8809 -1.3571
 7415TIP3    H222210   5.478   6.081   0.441 -0.6758 -0.9355  1.7691
 7416TIP3   OH222211   4.193   0.757   1.804 -0.0421  0.1864  0.5086
 7416TIP3    H122212   4.255   0.685   1.814  0.3041  0.6040  1.4488
 7416TIP3    H222213   4.190   0.799   1.890 -1.1811  0.5402  0.3173
 7417TIP3   OH222214   5.931   3.234   0.150  0.3957  0.1082 -0.1695
 7417TIP3    H122215   5.879   3.236   0.070 -0.1905 -0.1294  0.2036
 7417TIP3    H222216   5.995   3.304   0.138 -0.0560  0.4560 -0.5984
 7418TIP3   OH222217   6.326   0.691   1.530 -0.3996  0.3770  0.1382
 7418TIP3    H122218   6.281   0.766   1.491 -3.0090 -1.0966  0.1146
 7418TIP3    H222219   6.266   0.617   1.517  1.2489 -1.3627  1.7767
 7419TIP3   OH222220   0.447   0.998   3.873 -0.5922  0.6093 -0.1478
 7419TIP3    H122221   0.503   1.002   3.951 -1.8386  1.3880  0.7445
 7419TIP3    H222222   0.478   1.070   3.817 -0.1171  0.4616 -0.0782
 7420TIP3   OH222223   6.837   0.364   1.624 -0.3909  0.3532 -0.0425
 7420TIP3    H122224   6.788   0.440   1.654  0.1820  0.4283  0.7215
 7420TIP3    H222225   6.796   0.290   1.670  0.8457  0.5294  1.4254
 7421TIP3   OH222226   0.199   5.584   2.763 -0.0082 -0.2249  0.3886
 7421TIP3    H122227   0.242   5.619   2.840 -0.9924  0.8328  0.4818
 7421TIP3    H222228   0.107   5.575   2.788 -0.1885 -0.6840 -0.3839
 7422TIP3   OH222229   1.409   1.905   5.657  0.4614  0.4305  0.1367
 7422TIP3    H122230   1.330   1.893   5.605  0.9317 -0.2283 -0.4386
 7422TIP3    H222231   1.399   1.992   5.696 -0.8925  0.0569  0.6864
 7423TIP3   OH222232   3.716   1.047   4.837  0.2084 -0.2732  0.8187
 7423TIP3    H122233   3.807   1.062   4.861  0.4857  0.4447 -0.5647
 7423TIP3    H222234   3.719   1.031   4.743 -1.1236 -0.0080  0.7167
 7424TIP3   OH222235   0.184   6.281   4.613 -0.2929  0.5821 -0.1923
 7424TIP3    H122236   0.198   6.373   4.638 -1.1237  0.0044  2.8068
 7424TIP3    H222237   0.166   6.237   4.696  1.0810 -2.5122 -1.4021
 7425TIP3   OH222238   1.298   3.779   5.232 -0.7179  0.3981  0.2353
 7425TIP3    H122239   1.320   3.854   5.177 -3.7501  0.3082 -1.2695
 7425TIP3    H222240   1.226   3.808   5.287  0.4274 -0.3928  2.3104
 7426TIP3   OH222241   1.111   1.225   3.621  0.4761 -0.0388  0.2281
 7426TIP3    H122242   1.145   1.313   3.632 -0.6627  0.7435 -1.9361
 7426TIP3    H222243   1.044   1.215   3.689 -0.8641  1.5841 -0.7992
 7427TIP3   OH222244   1.460   2.869   4.003 -0.7039  0.0413  0.1957
 7427TIP3    H122245   1.408   2.827   3.935  1.3278  0.0056 -1.4740
 7427TIP3    H222246   1.512   2.798   4.041 -0.2985  0.3834  0.2922
 7428TIP3   OH222247   2.302   6.328   0.202  0.1961 -0.7701 -0.3706
 7428TIP3    H122248   2.227   6.279   0.166  0.5814 -0.6604 -1.3515
 7428TIP3    H222249   2.379   6.281   0.170  0.5633 -0.0486 -0.5638
 7429TIP3   OH222250   4.247   1.021   3.910 -0.3590  0.6150 -0.0324
 7429TIP3    H122251   4.202   0.979   3.836  0.0903  0.0666  0.0001
 7429TIP3    H222252   4.177   1.044   3.971 -0.9538  2.6957 -1.3853
 7430TIP3   OH222253   6.284   1.472   2.257  0.3591 -0.2123  0.0371
 7430TIP3    H122254   6.218   1.486   2.325  0.4278 -1.9420  0.4883
 7430TIP3    H222255   6.241   1.415   2.194  1.3805 -1.3109  0.3109
 7431TIP3   OH222256   3.489   0.083   0.685 -0.6603  0.1832  0.1609
 7431TIP3    H122257   3.555   0.063   0.618  0.2514 -1.1432  1.3812
 7431TIP3    H222258   3.486   0.178   0.689  1.7859  0.3126  0.5746
 7432TIP3   OH222259   4.207   6.157   3.636  0.0963 -0.1766 -0.0174
 7432TIP3    H122260   4.172   6.200   3.715 -0.8890  2.6366 -1.8356
 7432TIP3    H222261   4.130   6.144   3.581  0.8191 -1.7739 -0.7003
 7433TIP3   OH222262   1.406   0.101   4.144  0.1353 -0.4770  0.3190
 7433TIP3    H122263   1.322   0.067   4.174 -0.4556  0.5921 -0.0611
 7433TIP3    H222264   1.452   0.126   4.223 -1.5385  2.6287  0.4469
 7434TIP3   OH222265   4.563   2.613   5.902  0.3567 -0.1090  0.0772
 7434TIP3    H122266   4.612   2.540   5.942  2.0266  1.2005  0.5219
 7434TIP3    H222267   4.584   2.608   5.809 -0.1829 -0.6634 -0.0208
 7435TIP3   OH222268   5.373   0.309   3.951  0.0497  0.3144  0.3334
 7435TIP3    H122269   5.373   0.350   4.038  1.4781  0.9427  0.0727
 7435TIP3    H222270   5.295   0.343   3.908  0.3473  1.5302  0.7138
 7436TIP3   OH222271   7.133   4.155   4.267 -0.3405  0.2417  0.2350
 7436TIP3    H122272   7.222   4.132   4.241  0.4499  1.1938  1.9538
 7436TIP3    H222273   7.142   4.238   4.313 -1.8194 -0.5546  2.1001
 7437TIP3   OH222274   5.849   5.597   0.428 -0.1476  0.3024  0.0754
 7437TIP3    H122275   5.787   5.662   0.462  0.3858  0.3789  0.9540
 7437TIP3    H222276   5.868   5.625   0.339 -0.2184  1.1378  0.3169
 7438TIP3   OH222277   6.964   4.480   2.825 -0.4993 -0.2344  0.7672
 7438TIP3    H122278   7.005   4.551   2.876 -0.6017  0.2743  0.1562
 7438TIP3    H222279   6.880   4.465   2.869 -0.3774 -0.1340  1.0383
 7439TIP3   OH222280   5.295   2.774   2.071  0.1557 -0.1549 -0.1280
 7439TIP3    H122281   5.278   2.684   2.100  2.0958 -0.7679 -0.7216
 7439TIP3    H222282   5.361   2.807   2.132 -0.0531  0.6311 -0.3174
 7440TIP3   OH222283   3.228   4.185   3.708 -0.9180  0.0015 -0.5997
 7440TIP3    H122284   3.158   4.175   3.644 -1.9927  0.6390  0.4399
 7440TIP3    H222285   3.258   4.275   3.697  0.2930 -0.4945 -1.5612
 7441TIP3   OH222286   6.628   4.574   5.254 -0.7129  0.2548  0.1225
 7441TIP3    H122287   6.609   4.480   5.246  0.4093  0.0389 -0.1911
 7441TIP3    H222288   6.571   4.615   5.189 -1.2742 -0.1877  0.3174
 7442TIP3   OH222289   1.877   4.296   4.081  0.3772 -0.2286 -0.2909
 7442TIP3    H122290   1.970   4.319   4.079 -0.0076  1.7615  1.1399
 7442TIP3    H222291   1.841   4.349   4.152 -1.2739 -3.3593  1.4311
 7443TIP3   OH222292   4.916   3.297   1.685 -0.1409  0.2300 -0.4507
 7443TIP3    H122293   4.898   3.204   1.676  1.8422 -0.5198  2.2314
 7443TIP3    H222294   4.832   3.336   1.707 -0.4740 -1.4579  1.4807
 7444TIP3   OH222295   5.409   3.436   4.250  0.2937  0.7978 -0.3599
 7444TIP3    H122296   5.384   3.352   4.212 -0.1962  0.8130 -0.0777
 7444TIP3    H222297   5.503   3.427   4.268 -0.1349 -0.4769  1.5987
 7445TIP3   OH222298   7.063   6.022   3.915  0.0059 -0.2860  0.5486
 7445TIP3    H122299   7.132   6.049   3.854 -0.2419  0.5646  0.6253
 7445TIP3    H222300   7.104   5.958   3.973  0.6712  0.0637  0.4671
 7446TIP3   OH222301   4.944   6.252   1.320  0.0665 -0.5158 -0.3386
 7446TIP3    H122302   4.904   6.171   1.353 -2.1187  0.6708  0.1402
 7446TIP3    H222303   4.924   6.317   1.387  0.6344  0.7232 -1.3285
 7447TIP3   OH222304   0.169   0.085   5.732 -0.5823 -0.2130 -0.4737
 7447TIP3    H122305   0.191   0.035   5.811  0.0239 -0.1345 -0.5912
 7447TIP3    H222306   0.159   0.019   5.664  0.2729 -0.1835 -0.6412
 7448TIP3   OH222307   3.897   2.934   0.878  0.3638  0.3647  0.1772
 7448TIP3    H122308   3.916   2.976   0.794  3.8213  0.6978  0.9701
 7448TIP3    H222309   3.890   3.007   0.940 -2.2450  0.1268  0.2526
 7449TIP3   OH222310   7.118   2.463   0.212 -0.2322  0.1887 -0.0663
 7449TIP3    H122311   7.027   2.461   0.185  0.2806 -0.0504 -1.9378
 7449TIP3    H222312   7.157   2.535   0.163  0.6763  0.0381  0.3950
 7450TIP3   OH222313   2.140   5.546   2.319  0.1518  0.9321  0.3364
 7450TIP3    H122314   2.051   5.580   2.332 -0.8166 -1.1117 -0.3710
 7450TIP3    H222315   2.177   5.541   2.408 -0.1604  2.4108  0.5791
 7451TIP3   OH222316   0.403   5.728   0.489  0.4995  0.0600  0.4221
 7451TIP3    H122317   0.484   5.758   0.447  0.9074 -1.0462  0.3803
 7451TIP3    H222318   0.348   5.696   0.418  0.0651  0.7142  0.4618
 7452TIP3   OH222319   7.243   1.110   2.705 -0.1236 -0.5875  0.3515
 7452TIP3    H122320   7.217   1.164   2.779 -0.3601 -1.8193  1.2001
 7452TIP3    H222321   7.160   1.078   2.669  0.0297 -0.7708  0.1539
 7453TIP3   OH222322   2.150   3.614   2.375 -0.0377 -0.0777 -0.1842
 7453TIP3    H122323   2.217   3.608   2.306 -0.9920 -0.7771 -1.0739
 7453TIP3    H222324   2.116   3.525   2.382 -0.9734  0.3051  0.1681
 7454TIP3   OH222325   0.744   2.646   1.855  0.0681  0.0591  0.1589
 7454TIP3    H122326   0.737   2.679   1.766  1.6725  1.5208  0.5344
 7454TIP3    H222327   0.674   2.691   1.903 -0.1663  0.0254 -0.1524
 7455TIP3   OH222328   2.340   1.008   2.682  0.0202  0.1920  0.2147
 7455TIP3    H122329   2.350   1.001   2.777 -2.8455  0.7994  0.6432
 7455TIP3    H222330   2.349   0.918   2.651  1.6783  0.0657  0.9057
 7456TIP3   OH222331   6.778   4.195   0.680 -0.3231 -0.2193 -0.3177
 7456TIP3    H122332   6.814   4.168   0.765  0.9914  0.2640 -0.6961
 7456TIP3    H222333   6.745   4.284   0.695 -1.1589 -0.5682 -0.0339
 7457TIP3   OH222334   7.012   0.899   1.929 -0.2390 -0.2150  0.1173
 7457TIP3    H122335   6.951   0.933   1.864 -1.5483 -0.9386  0.9209
 7457TIP3    H222336   7.000   0.804   1.926  1.0861 -0.3951  0.0780
 7458TIP3   OH222337   0.931   4.656   5.220  0.1406 -0.5078 -0.2309
 7458TIP3    H122338   0.890   4.710   5.288 -1.0907 -0.8672 -0.6666
 7458TIP3    H222339   0.888   4.683   5.139  0.1284 -1.5307 -0.5793
 7459TIP3   OH222340   5.101   5.143   2.184 -0.2269  0.0291 -0.4506
 7459TIP3    H122341   5.116   5.236   2.199 -0.3069  0.0147 -0.2776
 7459TIP3    H222342   5.108   5.133   2.089 -0.1669  0.2018 -0.4653
 7460TIP3   OH222343   5.766   2.343   3.839  0.1689  0.4404 -0.0510
 7460TIP3    H122344   5.832   2.323   3.773  0.3298  0.9452 -0.0495
 7460TIP3    H222345   5.815   2.385   3.910 -0.1947  1.1210 -0.1924
 7461TIP3   OH222346   4.107   6.515   4.025  0.1771 -0.0634 -0.0482
 7461TIP3    H122347   4.176   6.527   4.090 -0.4383  1.3805  0.3667
 7461TIP3    H222348   4.095   6.602   3.986 -1.1799 -0.3553 -0.3389
 7462TIP3   OH222349   6.133   5.788   3.734 -0.0783 -0.1236  0.4045
 7462TIP3    H122350   6.220   5.773   3.698 -0.0397  0.6334  0.1531
 7462TIP3    H222351   6.120   5.883   3.726 -0.2793 -0.0038  1.9212
 7463TIP3   OH222352   5.577   0.057   4.776 -0.2029 -0.4641  0.5254
 7463TIP3    H122353   5.535   0.056   4.691  1.9842 -0.2023 -0.6406
 7463TIP3    H222354   5.527  -0.005   4.829 -2.6608  0.6319 -0.3571
 7464TIP3   OH222355   0.319   2.921   4.826  0.0985  0.3432 -0.6442
 7464TIP3    H122356   0.403   2.956   4.797 -0.6625  0.7857 -2.4060
 7464TIP3    H222357   0.312   2.950   4.917  3.1027 -2.0875  0.5497
 7465TIP3   OH222358   2.636   4.078   0.728 -0.7839  0.6338  0.0429
 7465TIP3    H122359   2.723   4.045   0.747 -0.0118  1.6969 -1.4452
 7465TIP3    H222360   2.597   4.013   0.669 -1.0587  0.0939  0.8127
 7466TIP3   OH222361   7.149   3.491   4.451  0.1644  0.4336  0.0811
 7466TIP3    H122362   7.068   3.441   4.465  0.8257 -0.7769 -0.2958
 7466TIP3    H222363   7.189   3.496   4.538  0.7390 -0.8635 -0.0861
 7467TIP3   OH222364   6.501   4.283   3.815 -0.2914  0.2802 -0.0240
 7467TIP3    H122365   6.553   4.214   3.773  1.9787 -0.0168  2.8806
 7467TIP3    H222366   6.522   4.362   3.766 -0.8292 -0.5931 -1.7559
 7468TIP3   OH222367   2.166   1.823   0.766  0.0661 -0.1194  0.0294
 7468TIP3    H122368   2.161   1.826   0.671 -0.4423  0.6769  0.0708
 7468TIP3    H222369   2.116   1.900   0.795 -0.5632 -0.8606  0.9589
 7469TIP3   OH222370   5.372   4.611   1.202  0.2957  0.7188  0.0256
 7469TIP3    H122371   5.333   4.583   1.119  0.1139  0.3618  0.2311
 7469TIP3    H222372   5.428   4.538   1.228 -2.5434 -0.8991  2.1449
 7470TIP3   OH222373   6.886   4.154   0.949  0.4632 -0.0359 -0.3041
 7470TIP3    H122374   6.882   4.218   1.020 -1.8367  2.6706 -2.6124
 7470TIP3    H222375   6.803   4.107   0.954  0.8079 -0.6911 -0.5238
 7471TIP3   OH222376   3.050   2.191   0.128 -0.3351  0.2518  0.5505
 7471TIP3    H122377   2.985   2.227   0.067  0.9513  1.8403  0.0325
 7471TIP3    H222378   2.999   2.137   0.188 -1.9375  0.3031 -0.6774
 7472TIP3   OH222379   0.950   1.448   5.140 -0.6897  0.2497  0.3738
 7472TIP3    H122380   1.005   1.433   5.064 -0.5948  0.4903  0.3919
 7472TIP3    H222381   0.915   1.362   5.162 -1.6267  0.3575 -0.6258
 7473TIP3   OH222382   1.505   3.633   2.229 -0.4417  0.0831 -0.3568
 7473TIP3    H122383   1.595   3.650   2.203 -0.2929 -0.5259 -0.2338
 7473TIP3    H222384   1.484   3.704   2.291  0.3531 -0.4471  0.5504
 7474TIP3   OH222385   6.811   1.454   0.235 -0.7788  0.5492 -0.0693
 7474TIP3    H122386   6.737   1.394   0.226 -0.8626  0.6582 -0.1096
 7474TIP3    H222387   6.786   1.531   0.185  0.1928 -0.1872 -1.7648
 7475TIP3   OH222388   1.179   0.902   5.324 -0.1413 -0.1024  0.7548
 7475TIP3    H122389   1.208   0.846   5.251  0.1692  0.7592  0.2078
 7475TIP3    H222390   1.257   0.911   5.379 -0.3674 -0.7280  1.1896
 7476TIP3   OH222391   0.671   3.827   1.915 -0.6184 -0.2786 -0.1402
 7476TIP3    H122392   0.669   3.876   1.833  2.6528  1.9603  0.8923
 7476TIP3    H222393   0.621   3.882   1.976  0.9293  0.5806  0.4117
 7477TIP3   OH222394   2.384   1.650   3.943  0.4201  0.0859 -0.4924
 7477TIP3    H122395   2.293   1.662   3.916  0.0283  0.2773  0.8647
 7477TIP3    H222396   2.392   1.701   4.023  1.7730  0.1803 -0.6665
 7478TIP3   OH222397   1.650   1.969   0.572  0.0742  0.2308 -0.0309
 7478TIP3    H122398   1.643   1.982   0.477 -0.8534  2.2292  0.2479
 7478TIP3    H222399   1.618   1.880   0.587  1.3350 -0.5349 -1.6907
 7479TIP3   OH222400   3.904   0.839   5.614  0.1146  0.0531 -0.4687
 7479TIP3    H122401   3.936   0.911   5.558 -1.8279  0.8872 -0.5870
 7479TIP3    H222402   3.876   0.771   5.553 -0.2074  0.1718 -0.4583
 7480TIP3   OH222403   3.753   4.091   0.811  0.0814 -0.0850 -0.2593
 7480TIP3    H122404   3.701   4.045   0.745 -0.4096 -0.9130  0.6737
 7480TIP3    H222405   3.826   4.130   0.762 -0.4286 -0.4312 -1.3187
 7481TIP3   OH222406   3.833   2.391   4.544 -0.2677 -0.1288 -0.0396
 7481TIP3    H122407   3.895   2.321   4.564 -0.7578 -0.2858  0.9874
 7481TIP3    H222408   3.888   2.465   4.517  0.4055 -0.1268  1.2656
 7482TIP3   OH222409   1.665   4.184   2.844  0.0414  0.3226  0.1066
 7482TIP3    H122410   1.622   4.209   2.926  0.9587  1.1407  0.3601
 7482TIP3    H222411   1.637   4.252   2.781 -1.6790 -0.9947 -0.6348
 7483TIP3   OH222412   2.813   0.376   4.458 -0.4226  0.2008 -0.6736
 7483TIP3    H122413   2.831   0.286   4.484 -0.0583  0.2652 -0.7003
 7483TIP3    H222414   2.730   0.398   4.501 -0.0912  0.1292  0.0065
 7484TIP3   OH222415   0.885   3.528   2.966 -0.0748 -0.4326 -0.6758
 7484TIP3    H122416   0.812   3.507   3.024  0.3381 -1.7351 -0.5734
 7484TIP3    H222417   0.960   3.538   3.025 -0.2719  1.6215 -0.7111
 7485TIP3   OH222418   6.257   3.712   3.420  0.6472  0.6042 -0.0294
 7485TIP3    H122419   6.306   3.636   3.391  1.5534  0.5923  1.4385
 7485TIP3    H222420   6.222   3.688   3.506 -1.1288  0.9768 -0.5927
 7486TIP3   OH222421   1.271   1.757   2.595  0.2806  0.0831 -0.2221
 7486TIP3    H122422   1.360   1.768   2.562  0.2743 -2.0207 -1.1073
 7486TIP3    H222423   1.228   1.701   2.530 -0.6232 -1.8124  1.8655
 7487TIP3   OH222424   0.705   0.126   0.730  0.2362  0.0114 -0.1921
 7487TIP3    H122425   0.679   0.099   0.641 -0.2639 -1.0032  0.2428
 7487TIP3    H222426   0.760   0.203   0.716  1.0357 -0.7470 -1.4601
 7488TIP3   OH222427   4.165   0.011   2.093 -0.0885  0.1523 -0.0470
 7488TIP3    H122428   4.204  -0.052   2.033  0.2849  2.0014 -1.8399
 7488TIP3    H222429   4.117   0.072   2.037 -3.2761 -0.3651  1.8268
 7489TIP3   OH222430   6.742   6.301   3.743  0.2435  0.1676 -0.6113
 7489TIP3    H122431   6.726   6.209   3.763  1.7195  0.0383  0.0362
 7489TIP3    H222432   6.803   6.299   3.669 -1.1303  0.6583 -1.8202
 7490TIP3   OH222433   1.564   6.502   0.447 -0.0110  0.5673 -0.0784
 7490TIP3    H122434   1.608   6.418   0.452  0.9029  0.9713 -0.9141
 7490TIP3    H222435   1.552   6.517   0.353  0.9079  1.8817 -0.0164
 7491TIP3   OH222436   5.562   1.763   5.294 -0.6569  0.1865 -0.0717
 7491TIP3    H122437   5.555   1.747   5.200 -0.7770 -1.5412  0.2076
 7491TIP3    H222438   5.560   1.676   5.334 -0.0501  0.8598  1.5053
 7492TIP3   OH222439   2.128   1.702   4.887  0.6075  0.1216 -0.3784
 7492TIP3    H122440   2.034   1.719   4.889  0.4882 -0.5337 -0.1832
 7492TIP3    H222441   2.166   1.777   4.934  0.1875  0.3785 -0.4340
 7493TIP3   OH222442   4.404   2.796   1.368  0.0632  0.4804  0.4427
 7493TIP3    H122443   4.421   2.836   1.453  1.6745 -0.0141  0.3839
 7493TIP3    H222444   4.342   2.725   1.386 -0.9449  1.4589  0.9117
 7494TIP3   OH222445   6.777   5.924   4.101 -0.0551 -0.6984 -0.2763
 7494TIP3    H122446   6.681   5.930   4.094 -0.1023  0.2809  0.8477
 7494TIP3    H222447   6.810   5.975   4.027 -0.4135 -0.1299 -0.0493
 7495TIP3   OH222448   1.409   2.652   1.624 -0.2821 -0.5672 -0.7801
 7495TIP3    H122449   1.394   2.599   1.702  0.8269 -0.3929 -0.4338
 7495TIP3    H222450   1.408   2.589   1.552  0.7478 -1.0490 -0.4022
 7496TIP3   OH222451   5.984   5.379   3.771  0.2191  0.0393  0.3516
 7496TIP3    H122452   6.014   5.435   3.699 -0.2876  0.4948  0.4949
 7496TIP3    H222453   5.933   5.437   3.827  2.1772  0.1984  2.1265
 7497TIP3   OH222454   2.780   4.066   1.182  0.3310 -0.1038 -0.4243
 7497TIP3    H122455   2.707   4.126   1.171 -1.8441 -2.7493 -1.7939
 7497TIP3    H222456   2.755   4.010   1.255  1.6586 -0.2075 -0.0178
 7498TIP3   OH222457   6.661   1.059   3.301 -0.2510  0.0763  0.1798
 7498TIP3    H122458   6.748   1.091   3.326 -0.6777  0.9226  0.5808
 7498TIP3    H222459   6.657   1.073   3.206 -0.2485  0.7567  0.2801
 7499TIP3   OH222460   2.123   0.543   1.530 -0.1927 -0.2656  0.2387
 7499TIP3    H122461   2.057   0.565   1.596 -1.5820 -0.5580 -0.9929
 7499TIP3    H222462   2.109   0.606   1.459 -1.7875 -2.6170 -1.7157
 7500TIP3   OH222463   4.754   4.669   4.262  0.0598 -0.0419 -0.1747
 7500TIP3    H122464   4.771   4.754   4.304 -1.0745  0.8373 -1.4021
 7500TIP3    H222465   4.841   4.630   4.250  0.5102  0.3328  1.5857
 7501TIP3   OH222466   2.742   4.013   3.573  0.0377 -0.0878  0.2886
 7501TIP3    H122467   2.738   3.928   3.617 -0.4645  0.5135  1.4559
 7501TIP3    H222468   2.672   4.009   3.508  1.4061 -1.3452 -1.1871
 7502TIP3   OH222469   1.219   1.227   5.628  0.8190  0.3427  1.1046
 7502TIP3    H122470   1.182   1.286   5.694 -1.6638 -0.7605  0.7803
 7502TIP3    H222471   1.144   1.178   5.594  2.0137  0.7882 -2.5317
 7503TIP3   OH222472   3.836   3.920   1.795  0.3202  0.3390  0.0075
 7503TIP3    H122473   3.786   3.839   1.784 -0.7822 -0.0167  5.1460
 7503TIP3    H222474   3.921   3.890   1.829  1.8780  1.2705 -2.7552
 7504TIP3   OH222475   6.216   3.036   0.574 -0.3296 -0.5038  0.3207
 7504TIP3    H122476   6.242   3.085   0.496  2.2083  1.4617  2.2157
 7504TIP3    H222477   6.298   3.005   0.612 -1.6325 -3.4532  1.0640
 7505TIP3   OH222478   4.153   3.595   2.575 -0.5202 -0.5784  0.0271
 7505TIP3    H122479   4.104   3.522   2.613 -0.7776 -0.2981  0.2430
 7505TIP3    H222480   4.159   3.574   2.482  1.0783 -1.8390  0.3610
 7506TIP3   OH222481   0.888   1.389   3.723  0.1709 -0.0733 -0.3043
 7506TIP3    H122482   0.851   1.471   3.757  1.7375  0.5349  0.0169
 7506TIP3    H222483   0.827   1.361   3.655  0.2014  2.0068 -1.2536
 7507TIP3   OH222484   4.289   1.343   0.071  0.2430  0.2678  0.5390
 7507TIP3    H122485   4.384   1.352   0.061  0.0192  1.2981 -1.0175
 7507TIP3    H222486   4.266   1.403   0.142  0.5368  1.6806 -0.4977
 7508TIP3   OH222487   4.067   3.517   0.571 -0.3267 -0.4549 -0.4599
 7508TIP3    H122488   4.124   3.446   0.539  2.1557  0.9047  0.6662
 7508TIP3    H222489   4.031   3.555   0.492  0.1169 -1.5399 -1.2203
 7509TIP3   OH222490   3.542   2.312   1.687 -0.5171 -0.6977 -0.1705
 7509TIP3    H122491   3.587   2.346   1.609  1.3384 -1.1381  0.6505
 7509TIP3    H222492   3.450   2.331   1.672 -0.0550  0.3944 -1.8823
 7510TIP3   OH222493   6.725   6.512   5.135 -0.4197 -0.4921 -0.1077
 7510TIP3    H122494   6.677   6.559   5.067  0.0691  1.2559  0.6860
 7510TIP3    H222495   6.671   6.521   5.213  0.5466  0.3944  0.4886
 7511TIP3   OH222496   5.755   0.615   4.944  0.0844 -0.8535 -0.1689
 7511TIP3    H122497   5.793   0.584   4.862  1.9481  0.6592  0.0655
 7511TIP3    H222498   5.825   0.607   5.008 -0.1842  1.3079  0.4710
 7512TIP3   OH222499   3.203   5.935   4.480  0.3187 -0.0071  0.1312
 7512TIP3    H122500   3.221   5.937   4.574 -2.2228 -0.3851  0.6867
 7512TIP3    H222501   3.212   6.026   4.451 -2.6928  0.8819  1.6099
 7513TIP3   OH222502   5.315   5.415   3.094 -0.0603  0.0995 -0.0917
 7513TIP3    H122503   5.349   5.436   3.181  0.1584 -0.4241 -0.0428
 7513TIP3    H222504   5.389   5.374   3.049 -1.0341 -2.5523  0.5511
 7514TIP3   OH222505   2.793   3.322   1.177  0.0734 -0.2656 -0.9841
 7514TIP3    H122506   2.813   3.362   1.092 -0.9454  0.5401 -0.8668
 7514TIP3    H222507   2.701   3.342   1.192 -0.6450 -3.0666 -1.0973
 7515TIP3   OH222508   0.048   0.719   2.920  0.1805  0.4139  0.0531
 7515TIP3    H122509   0.062   0.699   2.827 -0.8942  0.3073 -0.0904
 7515TIP3    H222510   0.045   0.815   2.923 -2.6193  0.4102 -0.4869
 7516TIP3   OH222511   0.427   0.145   5.270 -0.2635 -0.2097  0.2708
 7516TIP3    H122512   0.430   0.066   5.216 -0.1320 -0.8829  1.2424
 7516TIP3    H222513   0.459   0.117   5.356 -0.5632  0.8182  0.7325
 7517TIP3   OH222514   2.577   4.907   1.969 -0.0972 -0.4065 -0.3244
 7517TIP3    H122515   2.634   4.910   2.046  1.4788  1.4833 -1.4570
 7517TIP3    H222516   2.611   4.835   1.916  1.2060  0.5754 -0.8956
 7518TIP3   OH222517   1.084   0.948   0.190  0.0717  0.3098 -0.8094
 7518TIP3    H122518   1.117   0.938   0.280 -1.8730 -0.6277 -0.1454
 7518TIP3    H222519   1.002   0.997   0.200  0.0217  0.5242 -2.1268
 7519TIP3   OH222520   1.771   5.820   0.093 -0.7176  0.3105 -0.0650
 7519TIP3    H122521   1.804   5.763   0.023  0.2714  2.0275 -1.0997
 7519TIP3    H222522   1.834   5.809   0.164 -0.7828 -0.2185 -0.0864
 7520TIP3   OH222523   1.081   1.835   1.001  0.2594  0.1779 -0.1950
 7520TIP3    H122524   1.142   1.820   1.073 -1.7597 -0.1555  1.5518
 7520TIP3    H222525   1.105   1.920   0.965  1.5181  0.2002  0.6560
 7521TIP3   OH222526   5.226   2.078   1.839  0.1467 -0.6033 -0.0843
 7521TIP3    H122527   5.286   2.118   1.902  1.8010  0.0798 -1.9642
 7521TIP3    H222528   5.247   2.121   1.756 -2.5896 -0.7818 -0.9692
 7522TIP3   OH222529   5.288   0.919   3.055 -0.2242 -0.6714  0.1273
 7522TIP3    H122530   5.315   1.009   3.068 -0.8310 -0.4062 -0.3699
 7522TIP3    H222531   5.352   0.867   3.103  0.7611 -0.0368 -0.4611
 7523TIP3   OH222532   5.831   2.654   2.380  0.7919  0.0059 -0.3462
 7523TIP3    H122533   5.926   2.646   2.379  0.9355  1.3665 -0.0771
 7523TIP3    H222534   5.803   2.625   2.293  1.4905 -0.0060 -0.5696
 7524TIP3   OH222535   0.852   4.690   4.963  0.0120 -0.1068  0.1373
 7524TIP3    H122536   0.933   4.725   4.925 -1.1108  0.8530 -1.5487
 7524TIP3    H222537   0.848   4.600   4.932  0.2269 -0.0214 -0.1419
 7525TIP3   OH222538   3.846   0.638   5.004  0.5843 -0.1579 -0.2954
 7525TIP3    H122539   3.788   0.615   5.076 -0.0232 -0.3357 -0.8336
 7525TIP3    H222540   3.900   0.709   5.039 -0.0775  0.1316  0.1557
 7526TIP3   OH222541   1.828   2.066   2.354 -0.1850 -0.2599 -0.2668
 7526TIP3    H122542   1.903   2.099   2.404  0.6039 -1.0657 -0.8725
 7526TIP3    H222543   1.759   2.053   2.419 -0.0472  1.1735  0.1931
 7527TIP3   OH222544   4.270   2.515   2.194 -0.2472  0.2178 -0.5398
 7527TIP3    H122545   4.186   2.525   2.148 -1.1157  1.5598  1.1979
 7527TIP3    H222546   4.246   2.506   2.286  1.5077 -0.4036 -0.0983
 7528TIP3   OH222547   5.131   5.570   2.047  0.6098 -0.0057  0.0729
 7528TIP3    H122548   5.213   5.610   2.019  0.6920 -0.2311 -0.0155
 7528TIP3    H222549   5.070   5.643   2.056  0.2824 -0.0187 -1.7042
 7529TIP3   OH222550   2.328   3.611   2.176 -0.6254  0.3491 -0.0604
 7529TIP3    H122551   2.414   3.644   2.200 -0.5895  0.3551 -0.1984
 7529TIP3    H222552   2.312   3.646   2.088  1.3865 -3.6407 -2.3161
 7530TIP3   OH222553   6.609   4.877   5.331  0.2560 -0.3641  0.6222
 7530TIP3    H122554   6.647   4.874   5.243 -1.7515  1.2994 -0.3639
 7530TIP3    H222555   6.683   4.899   5.388  2.0334 -3.3773 -0.2662
 7531TIP3   OH222556   1.146   2.801   0.309  0.1325  0.3073  0.7873
 7531TIP3    H122557   1.192   2.803   0.225 -1.1041 -0.9640  0.0180
 7531TIP3    H222558   1.201   2.852   0.368  1.0872  1.1775 -0.7668
 7532TIP3   OH222559   6.008   0.132   5.700 -0.1052 -0.3314  0.7475
 7532TIP3    H122560   5.960   0.050   5.687  0.2132 -0.0333 -3.9507
 7532TIP3    H222561   6.098   0.104   5.717 -0.6277 -0.8525  2.9966
 7533TIP3   OH222562   2.221   5.017   3.279  0.3644 -0.0587  0.8254
 7533TIP3    H122563   2.258   4.966   3.207 -0.3565  0.1690  0.2718
 7533TIP3    H222564   2.126   5.007   3.268  0.0642  3.1571 -0.6856
 7534TIP3   OH222565   5.929   6.552   2.699 -0.4197  0.0842 -0.3774
 7534TIP3    H122566   5.955   6.561   2.607  1.0536 -1.5898 -0.1658
 7534TIP3    H222567   5.857   6.490   2.697 -2.3642  2.1913 -0.6139
 7535TIP3   OH222568   2.115   1.368   3.463 -0.4117 -0.2411 -0.1408
 7535TIP3    H122569   2.080   1.337   3.547 -1.8519 -1.1458 -1.0286
 7535TIP3    H222570   2.041   1.414   3.422 -0.4837 -1.8376 -1.9010
 7536TIP3   OH222571   2.653   1.018   4.142  0.0332 -0.1283 -0.4170
 7536TIP3    H122572   2.632   0.924   4.136 -0.1395 -0.2057  1.0222
 7536TIP3    H222573   2.588   1.052   4.203 -0.6658  1.1979 -1.8339
 7537TIP3   OH222574   4.020   0.056   3.615  0.4220 -0.0823  0.0557
 7537TIP3    H122575   3.995   0.139   3.574  0.0900  0.7019  1.7616
 7537TIP3    H222576   4.110   0.042   3.588  0.9128  1.5177  0.7250
 7538TIP3   OH222577   1.059   4.061   3.320 -0.3015 -0.1429 -0.1340
 7538TIP3    H122578   1.146   4.038   3.354 -0.2243  1.3145  0.7344
 7538TIP3    H222579   1.077   4.117   3.245 -0.4804  0.4315  0.2471
 7539TIP3   OH222580   1.122   4.435   0.470  0.2816  0.4317  0.8011
 7539TIP3    H122581   1.027   4.420   0.467 -0.0359  2.1918 -1.6716
 7539TIP3    H222582   1.134   4.498   0.541 -0.5870  1.0439  0.4296
 7540TIP3   OH222583   6.516   2.356   3.341 -0.1661  0.2185 -0.1122
 7540TIP3    H122584   6.557   2.277   3.376 -0.5057  0.4150  0.7522
 7540TIP3    H222585   6.436   2.366   3.392  0.1023  1.3781  0.1110
 7541TIP3   OH222586   6.684   0.663   2.084 -0.0728 -0.0860  0.6211
 7541TIP3    H122587   6.644   0.685   2.000  1.0265 -1.5374 -0.3367
 7541TIP3    H222588   6.712   0.747   2.121 -0.8936  0.6040 -0.2841
 7542TIP3   OH222589   1.939   5.291   4.460 -0.2149  0.3682 -0.5335
 7542TIP3    H122590   1.844   5.297   4.454 -0.1481  0.9308 -1.0471
 7542TIP3    H222591   1.964   5.366   4.514 -0.1537 -0.4137  0.5501
 7543TIP3   OH222592   0.901   5.141   0.078  0.0190 -1.1057  0.1454
 7543TIP3    H122593   0.851   5.092   0.013  0.4633 -0.0384 -1.0240
 7543TIP3    H222594   0.865   5.230   0.075 -0.4983 -1.2016  1.9549
 7544TIP3   OH222595   5.865   0.603   3.387 -0.1140  0.0047  0.0011
 7544TIP3    H122596   5.825   0.558   3.462  0.7933 -1.4967 -0.3646
 7544TIP3    H222597   5.938   0.652   3.424 -1.7430  2.1812  0.5663
 7545TIP3   OH222598   0.813   3.804   2.158 -0.3836 -0.4950 -0.3432
 7545TIP3    H122599   0.797   3.828   2.066 -0.6660  0.2418 -0.1119
 7545TIP3    H222600   0.733   3.758   2.184 -0.0584 -1.2475 -0.6320
 7546TIP3   OH222601   2.296   5.363   2.665  0.3830  0.2987  0.4051
 7546TIP3    H122602   2.339   5.440   2.628 -1.2391  1.1413  0.2006
 7546TIP3    H222603   2.218   5.398   2.709 -1.4573 -1.3591 -1.3367
 7547TIP3   OH222604   6.532   6.671   1.934  0.0930  0.3300  0.0155
 7547TIP3    H122605   6.539   6.763   1.907  0.8056  0.4158  0.4700
 7547TIP3    H222606   6.622   6.646   1.958 -0.2107 -0.2746  0.5559
 7548TIP3   OH222607   6.231   6.122   5.135  0.2561  0.0613 -0.4414
 7548TIP3    H122608   6.159   6.153   5.080 -1.6542 -4.1132 -0.6609
 7548TIP3    H222609   6.283   6.066   5.078 -0.4735 -2.5723  1.2912
 7549TIP3   OH222610   0.733   2.578   1.118 -0.5302  0.2587 -0.0696
 7549TIP3    H122611   0.695   2.512   1.176 -0.3470 -0.6930 -0.9949
 7549TIP3    H222612   0.812   2.609   1.163 -0.7450  0.0058  0.4740
 7550TIP3   OH222613   4.817   3.485   3.892 -0.2985 -0.3118  0.2098
 7550TIP3    H122614   4.741   3.508   3.945 -0.6884 -1.3137  0.1241
 7550TIP3    H222615   4.891   3.525   3.936 -0.9439  1.2569 -0.0777
 7551TIP3   OH222616   5.950   2.171   0.243  0.1959 -0.1649 -0.1554
 7551TIP3    H122617   6.006   2.196   0.317 -1.5222  1.2767  0.7510
 7551TIP3    H222618   5.867   2.146   0.284 -0.6966  0.3562 -1.5749
 7552TIP3   OH222619   2.578   1.717   2.363  0.0233  0.3270 -0.2712
 7552TIP3    H122620   2.575   1.621   2.368 -1.5137  0.3678 -0.0782
 7552TIP3    H222621   2.541   1.738   2.278  0.2228  0.7672 -0.2536
 7553TIP3   OH222622   2.281   2.787   2.008 -0.0164  0.1601  0.4734
 7553TIP3    H122623   2.231   2.798   2.089  0.5426  2.0821  0.6243
 7553TIP3    H222624   2.240   2.713   1.963 -1.2428 -0.0272  1.8404
 7554TIP3   OH222625   3.104   5.587   4.444  0.4917  0.5625 -0.1977
 7554TIP3    H122626   3.109   5.632   4.360  1.4972  1.5188  0.3540
 7554TIP3    H222627   3.057   5.647   4.501 -0.5391 -0.2481 -0.1461
 7555TIP3   OH222628   4.648   0.073   2.919 -0.3074 -0.5410  0.1512
 7555TIP3    H122629   4.616   0.161   2.938 -0.2968 -0.3635 -0.6284
 7555TIP3    H222630   4.681   0.078   2.829  1.5760 -0.8100  0.7864
 7556TIP3   OH222631   0.937   0.123   1.321 -0.0230 -0.0867  0.4500
 7556TIP3    H122632   0.861   0.127   1.263  0.7801  0.1795 -0.6359
 7556TIP3    H222633   0.903   0.092   1.404 -1.4262  0.6988  0.1938
 7557TIP3   OH222634   2.525   0.023   4.289  0.1115  0.0266  0.9150
 7557TIP3    H122635   2.456   0.003   4.226 -0.5835 -0.9044  1.9446
 7557TIP3    H222636   2.521   0.118   4.300 -0.7196  0.0249  0.6430
 7558TIP3   OH222637   0.336   5.577   5.616  0.1158  0.1181 -0.8207
 7558TIP3    H122638   0.268   5.574   5.683 -1.4767 -0.2387 -2.3548
 7558TIP3    H222639   0.353   5.670   5.602  0.7991  0.1808  0.3870
 7559TIP3   OH222640   3.797   0.187   5.489  0.0083 -0.9089 -0.1949
 7559TIP3    H122641   3.846   0.224   5.416  0.0357 -1.3788 -0.4106
 7559TIP3    H222642   3.796   0.093   5.474 -1.5688 -0.8621 -0.5731
 7560TIP3   OH222643   7.129   3.430   2.841 -0.4787  0.1515 -0.0104
 7560TIP3    H122644   7.157   3.344   2.873  0.3382 -0.2573 -1.6884
 7560TIP3    H222645   7.034   3.429   2.850 -0.5338 -1.1496 -0.4630
 7561TIP3   OH222646   6.435   4.813   0.156  0.3546  0.7801 -0.5481
 7561TIP3    H122647   6.451   4.741   0.095  0.3785  1.0004 -0.8061
 7561TIP3    H222648   6.495   4.796   0.230  0.4687  0.6189 -0.6774
 7562TIP3   OH222649   0.481   0.076   0.161 -0.1300 -0.2170  0.0517
 7562TIP3    H122650   0.464   0.018   0.235 -2.8209 -2.4381 -2.0934
 7562TIP3    H222651   0.519   0.019   0.094  0.6700  1.3619 -0.8955
 7563TIP3   OH222652   2.311   4.031   4.276 -0.1547  0.4755 -0.0707
 7563TIP3    H122653   2.330   4.119   4.308 -0.7479  0.5478  0.1067
 7563TIP3    H222654   2.239   4.043   4.214 -1.9430 -0.1268  1.7784
 7564TIP3   OH222655   2.129   2.666   5.203 -0.3128  0.5869  0.0793
 7564TIP3    H122656   2.087   2.609   5.267 -2.3895  1.2437 -0.5984
 7564TIP3    H222657   2.110   2.626   5.118 -1.1613  1.8280 -0.3573
 7565TIP3   OH222658   3.757   1.299   2.919  0.3587  0.0970  0.7592
 7565TIP3    H122659   3.690   1.365   2.900 -1.1249 -0.9951  1.9386
 7565TIP3    H222660   3.722   1.218   2.882  2.8833  0.1340 -2.1367
 7566TIP3   OH222661   2.814   3.976   3.244  0.5597  0.3069 -0.1934
 7566TIP3    H122662   2.783   4.066   3.254 -0.2812  0.1349 -1.0664
 7566TIP3    H222663   2.757   3.924   3.300 -0.4321  0.0603 -1.3776
 7567TIP3   OH222664   5.501   2.791   4.574 -0.7482  0.0142  0.0956
 7567TIP3    H122665   5.535   2.742   4.499  0.3708 -0.1051  0.6660
 7567TIP3    H222666   5.540   2.749   4.650 -0.0864  1.4937  0.6256
 7568TIP3   OH222667   3.394   5.664   4.591 -0.3889  0.0122 -0.0874
 7568TIP3    H122668   3.324   5.664   4.526 -0.7084 -0.2987  0.2518
 7568TIP3    H222669   3.392   5.576   4.629 -1.6844  0.8177  1.9020
 7569TIP3   OH222670   5.098   4.562   3.176  0.1721  0.5129 -0.3553
 7569TIP3    H122671   5.037   4.619   3.130  0.5600 -0.9156 -2.8644
 7569TIP3    H222672   5.074   4.570   3.268 -1.6962  2.3871 -0.9212
 7570TIP3   OH222673   5.747   0.253   3.375  0.2856 -0.4743 -0.6436
 7570TIP3    H122674   5.672   0.286   3.326 -0.6331 -2.5012 -0.6903
 7570TIP3    H222675   5.821   0.266   3.317 -0.2801  0.0136 -1.2819
 7571TIP3   OH222676   2.840   0.173   1.051  0.3711  0.2174 -0.5298
 7571TIP3    H122677   2.901   0.113   1.008  0.5529  0.4385 -0.5855
 7571TIP3    H222678   2.883   0.258   1.045 -0.0970  0.4330 -0.8592
 7572TIP3   OH222679   2.196   4.583   0.660 -0.1406 -0.0971 -0.0644
 7572TIP3    H122680   2.121   4.642   0.674  0.7368  0.8193  1.0519
 7572TIP3    H222681   2.261   4.611   0.726  1.5291 -0.2667 -1.5618
 7573TIP3   OH222682   5.596   3.970   3.210 -0.1542 -0.8541 -0.3821
 7573TIP3    H122683   5.506   3.948   3.187  0.2900 -0.5691 -2.6656
 7573TIP3    H222684   5.593   4.064   3.230 -0.6371 -1.2025  1.2759
 7574TIP3   OH222685   4.470   5.074   0.730 -0.0386  0.0306  0.0348
 7574TIP3    H122686   4.448   5.053   0.821  0.8765 -1.1908 -0.0026
 7574TIP3    H222687   4.557   5.113   0.735 -0.8314  1.9302 -0.1332
 7575TIP3   OH222688   1.056   0.659   4.902  0.3785  0.5174 -0.4961
 7575TIP3    H122689   1.058   0.611   4.985  0.5833 -0.3987 -1.0143
 7575TIP3    H222690   1.142   0.642   4.863  0.4730  1.3631 -0.6667
 7576TIP3   OH222691   0.704   2.561   5.187  0.6521 -0.4766 -0.1753
 7576TIP3    H122692   0.661   2.623   5.246  0.7454 -0.5838  0.0086
 7576TIP3    H222693   0.796   2.563   5.212  0.7464 -0.2865 -0.5353
 7577TIP3   OH222694   6.831   6.019   3.166  0.0014  0.4880 -0.2051
 7577TIP3    H122695   6.796   5.969   3.240  1.2849  0.7592  0.6350
 7577TIP3    H222696   6.838   5.956   3.095 -1.6396  0.3169 -0.2327
 7578TIP3   OH222697   1.899   4.200   3.838 -0.1683 -0.5631 -0.0588
 7578TIP3    H122698   1.952   4.272   3.804  3.4908 -2.7545  0.4331
 7578TIP3    H222699   1.879   4.226   3.928  2.0986 -0.4959  0.5038
 7579TIP3   OH222700   5.849   4.131   5.054  0.3100  0.5464  0.5674
 7579TIP3    H122701   5.770   4.086   5.022  1.5049  0.0005 -1.8944
 7579TIP3    H222702   5.914   4.061   5.059  1.4265  1.4705 -0.4922
 7580TIP3   OH222703   5.918   4.879   2.843  0.1860 -0.3128 -0.0390
 7580TIP3    H122704   5.893   4.819   2.773  0.1066  0.3518 -0.6035
 7580TIP3    H222705   5.844   4.941   2.849  0.4959  0.0463  0.1543
 7581TIP3   OH222706   0.360   6.037   2.322 -0.7820  0.4868 -0.0918
 7581TIP3    H122707   0.317   5.957   2.352  0.5262 -0.4006 -0.5134
 7581TIP3    H222708   0.292   6.083   2.272 -0.4096 -2.6381 -4.0172
 7582TIP3   OH222709   5.199   5.641   0.097  0.0091  0.5136  0.5562
 7582TIP3    H122710   5.185   5.551   0.128  1.3814 -0.2591 -0.8841
 7582TIP3    H222711   5.179   5.637   0.003  0.1215  1.7057  0.4669
 7583TIP3   OH222712   1.098   1.697   5.204  0.1357  0.4024  0.1850
 7583TIP3    H122713   1.041   1.620   5.202 -0.4118  0.8121 -1.8171
 7583TIP3    H222714   1.055   1.758   5.264 -0.9124  0.2159 -0.3495
 7584TIP3   OH222715   0.852   1.050   0.217 -0.8652 -0.4282 -0.2765
 7584TIP3    H122716   0.787   1.101   0.168  1.9593  2.6481 -1.2010
 7584TIP3    H222717   0.844   1.082   0.307  0.3277  1.2406 -0.6985
 7585TIP3   OH222718   5.041   1.112   3.971 -0.2721  0.5093 -0.0765
 7585TIP3    H122719   5.105   1.051   4.005 -1.6222 -0.1842  1.3293
 7585TIP3    H222720   5.022   1.171   4.044 -3.1581 -0.9476  0.4718
 7586TIP3   OH222721   4.317   2.231   3.201 -0.7561  0.0919  0.6212
 7586TIP3    H122722   4.369   2.230   3.282  1.1552  1.1073 -0.5140
 7586TIP3    H222723   4.336   2.316   3.161 -1.7421 -0.3378 -0.8409
 7587TIP3   OH222724   4.611   5.860   1.863  0.5927 -0.1238 -0.3602
 7587TIP3    H122725   4.610   5.932   1.927  1.2202  0.5360 -1.0795
 7587TIP3    H222726   4.530   5.812   1.880  0.7338  0.0526  0.9194
 7588TIP3   OH222727   4.028   2.826   3.812  0.1755 -0.1460 -0.4821
 7588TIP3    H122728   4.010   2.919   3.825  1.1037  0.1250 -1.0710
 7588TIP3    H222729   4.051   2.819   3.720  3.4831 -0.3507  0.2419
 7589TIP3   OH222730   1.606   4.747   0.683 -0.1974 -0.3869  0.0522
 7589TIP3    H122731   1.664   4.679   0.649 -0.1066  0.7794 -2.3719
 7589TIP3    H222732   1.522   4.732   0.638 -0.6525  0.1599  0.6956
 7590TIP3   OH222733   6.880   5.162   4.685 -0.1370  0.2931 -0.1415
 7590TIP3    H122734   6.824   5.238   4.671  1.0482  1.4556  1.0615
 7590TIP3    H222735   6.879   5.114   4.602 -0.3298  2.0254 -1.1715
 7591TIP3   OH222736   2.720   2.334   5.740 -0.6641 -0.1151 -0.4453
 7591TIP3    H122737   2.638   2.316   5.695  0.6708 -0.1968 -3.0116
 7591TIP3    H222738   2.786   2.339   5.670  1.8442 -1.8125  1.5750
 7592TIP3   OH222739   1.895   5.202   5.658  0.3007  0.2638 -0.4639
 7592TIP3    H122740   1.846   5.160   5.587 -2.0481  0.5429  0.8878
 7592TIP3    H222741   1.967   5.141   5.677 -0.8247 -1.3122 -1.0352
 7593TIP3   OH222742   5.420   3.827   0.143  0.0218 -0.5471  0.9334
 7593TIP3    H122743   5.397   3.915   0.173  0.4713 -0.9391  2.5863
 7593TIP3    H222744   5.393   3.770   0.215 -2.3323 -2.0840 -1.0139
 7594TIP3   OH222745   0.262   1.078   1.502  0.6286  0.8923 -0.4617
 7594TIP3    H122746   0.348   1.077   1.459  0.6610  0.7597 -0.3932
 7594TIP3    H222747   0.257   0.994   1.547  0.3754  0.8105 -0.6412
 7595TIP3   OH222748   6.804   5.052   1.417 -0.2773  0.0783  0.0017
 7595TIP3    H122749   6.839   4.967   1.442  1.9739  0.7432 -0.5767
 7595TIP3    H222750   6.820   5.109   1.492  1.5610  0.7919 -0.8621
 7596TIP3   OH222751   5.337   5.748   1.962  0.0797 -0.1472 -0.3865
 7596TIP3    H122752   5.384   5.801   1.898  0.7888 -0.0583  0.1823
 7596TIP3    H222753   5.344   5.797   2.044 -1.3022  0.0181 -0.3466
 7597TIP3   OH222754   1.327   0.463   2.627  0.0421  0.6313  0.1282
 7597TIP3    H122755   1.239   0.451   2.662 -0.7632 -0.1950 -2.0475
 7597TIP3    H222756   1.385   0.440   2.700 -1.5544 -0.9537  0.9595
 7598TIP3   OH222757   5.437   0.701   2.344  0.3878 -0.2226  0.3517
 7598TIP3    H122758   5.486   0.629   2.305 -0.4428 -0.2316 -0.7070
 7598TIP3    H222759   5.483   0.780   2.316 -0.8708 -0.1513 -1.7448
 7599TIP3   OH222760   2.626   5.093   5.389  0.1861  0.0973  0.1722
 7599TIP3    H122761   2.635   5.150   5.313 -1.3108 -0.3190 -0.3468
 7599TIP3    H222762   2.652   5.006   5.358 -2.6664 -0.5921 -0.6411
 7600TIP3   OH222763   7.050   5.744   4.096  0.1957  0.1556 -0.3330
 7600TIP3    H122764   7.069   5.704   4.011 -0.8957 -0.6564 -0.2235
 7600TIP3    H222765   7.081   5.679   4.159 -0.2320  0.1410 -0.1365
 7601TIP3   OH222766   6.273   2.758   5.820 -0.1638 -0.2928  0.1356
 7601TIP3    H122767   6.253   2.678   5.772  0.3523 -0.8562  0.8310
 7601TIP3    H222768   6.321   2.728   5.897  0.3732  0.7236  0.2140
 7602TIP3   OH222769   5.407   3.600   2.383  0.8294 -0.0577 -0.5382
 7602TIP3    H122770   5.348   3.544   2.433 -0.7599 -1.0153 -3.2944
 7602TIP3    H222771   5.486   3.547   2.370  2.0312  0.8501  2.2775
 7603TIP3   OH222772   0.599   2.801   3.830  0.3142  0.5001 -0.4181
 7603TIP3    H122773   0.520   2.834   3.872  0.0479 -1.5038  0.8044
 7603TIP3    H222774   0.669   2.815   3.895  0.3314 -0.5410 -0.1807
 7604TIP3   OH222775   1.326   1.632   1.790 -0.3108  0.2726 -0.4835
 7604TIP3    H122776   1.346   1.720   1.822 -0.2921 -0.3633  1.3531
 7604TIP3    H222777   1.393   1.576   1.831 -1.1943 -0.7947 -0.4543
 7605TIP3   OH222778   3.500   1.107   4.219 -0.2434  0.0258  0.6987
 7605TIP3    H122779   3.469   1.196   4.201 -0.8398 -0.2151  0.5149
 7605TIP3    H222780   3.447   1.051   4.162  1.0119 -0.3436 -0.1446
 7606TIP3   OH222781   3.211   2.719   0.667 -0.2623  0.3774  0.0597
 7606TIP3    H122782   3.305   2.701   0.661 -0.4877 -0.4110 -1.3755
 7606TIP3    H222783   3.194   2.784   0.599 -0.8869 -0.0553 -0.2065
 7607TIP3   OH222784   6.310   3.188   3.653  0.3831  1.0665  0.2368
 7607TIP3    H122785   6.387   3.240   3.674  0.4654  0.9071  0.3312
 7607TIP3    H222786   6.345   3.107   3.615  0.2409  1.2802 -0.3573
 7608TIP3   OH222787   4.596   0.256   0.891 -0.1698  0.4338 -0.5168
 7608TIP3    H122788   4.579   0.162   0.896  0.5717  0.3278  0.3555
 7608TIP3    H222789   4.681   0.263   0.848  0.2262  0.6481  0.2832
 7609TIP3   OH222790   1.273   1.558   1.537  0.1806  0.9261 -0.5040
 7609TIP3    H122791   1.285   1.568   1.632  1.1764 -0.0599 -0.4984
 7609TIP3    H222792   1.362   1.553   1.502 -0.0380 -2.8347 -0.9682
 7610TIP3   OH222793   5.701   5.769   0.587  0.4446  0.0666  0.4369
 7610TIP3    H122794   5.681   5.858   0.616 -0.0324 -0.0283  0.4097
 7610TIP3    H222795   5.776   5.743   0.640  0.2712  0.3032  0.8019
 7611TIP3   OH222796   0.405   0.792   2.621 -0.4550 -0.3447  0.0646
 7611TIP3    H122797   0.362   0.875   2.604 -1.2569 -0.6222  0.7022
 7611TIP3    H222798   0.453   0.772   2.540  0.5860  1.2208  0.2510
 7612TIP3   OH222799   3.474   6.456   5.239 -0.2788 -0.5484  0.3178
 7612TIP3    H122800   3.467   6.366   5.207 -0.5006  0.0112 -1.3379
 7612TIP3    H222801   3.545   6.494   5.186 -0.0443  0.1908  1.1480
 7613TIP3   OH222802   2.783   6.524   0.269  0.6030  0.2979  0.6110
 7613TIP3    H122803   2.722   6.539   0.197  0.4145 -1.0284  0.4723
 7613TIP3    H222804   2.757   6.588   0.336 -1.1057 -0.3671  0.6463
 7614TIP3   OH222805   6.162   4.384   1.909 -0.6367  0.4997 -0.0097
 7614TIP3    H122806   6.120   4.463   1.875  1.5669  2.6734  1.9467
 7614TIP3    H222807   6.241   4.374   1.856  0.9694  1.8540  1.9602
 7615TIP3   OH222808   4.998   5.756   5.441  0.4814  0.3555  0.2472
 7615TIP3    H122809   4.980   5.703   5.364 -0.5971  0.1742  0.5964
 7615TIP3    H222810   5.082   5.798   5.423  0.9014 -0.7491 -0.4217
 7616TIP3   OH222811   3.196   4.510   1.321  0.3800  0.2547  0.3636
 7616TIP3    H122812   3.259   4.578   1.297  1.1969 -0.7421 -0.3914
 7616TIP3    H222813   3.129   4.514   1.254  0.2281  0.5593  0.5311
 7617TIP3   OH222814   0.148   4.716   1.678  0.0624  0.0420  0.0495
 7617TIP3    H122815   0.176   4.680   1.762 -0.1456  0.6973  0.4096
 7617TIP3    H222816   0.059   4.748   1.695  0.3973  1.1164 -0.1250
 7618TIP3   OH222817   5.637   0.654   1.283 -0.0606  0.0772 -0.2942
 7618TIP3    H122818   5.554   0.671   1.329  1.4541  0.2899  2.5610
 7618TIP3    H222819   5.670   0.573   1.324  1.8633  0.8468 -0.2315
 7619TIP3   OH222820   4.294   4.420   0.907  0.2907  0.4095  0.8444
 7619TIP3    H122821   4.265   4.391   0.820  1.2393  0.3487  0.5406
 7619TIP3    H222822   4.216   4.410   0.962 -0.6281  1.4024 -0.2013
 7620TIP3   OH222823   0.591   6.393   0.316  0.5021  0.4434 -0.4746
 7620TIP3    H122824   0.535   6.471   0.315 -1.5371 -0.8463  2.1272
 7620TIP3    H222825   0.602   6.372   0.409  0.4685 -2.6978 -1.0659
 7621TIP3   OH222826   0.389   4.650   5.905 -0.1952 -0.3421 -0.7535
 7621TIP3    H122827   0.437   4.698   5.838 -0.0995  0.8914  0.1579
 7621TIP3    H222828   0.311   4.617   5.860  0.3893 -0.4449 -1.7081
 7622TIP3   OH222829   5.612   0.083   0.175  0.2643 -0.4596  0.0716
 7622TIP3    H122830   5.547   0.148   0.149 -1.3066 -2.6606 -1.8441
 7622TIP3    H222831   5.587   0.003   0.129  5.1223 -1.1620 -1.9643
 7623TIP3   OH222832   3.307   3.735   4.616 -0.2726 -0.3158  0.3927
 7623TIP3    H122833   3.379   3.759   4.675  0.7724 -1.1664 -0.4978
 7623TIP3    H222834   3.290   3.816   4.567 -0.3404  0.0603  1.0193
 7624TIP3   OH222835   1.747   0.969   2.937  0.2446  0.1115  0.7797
 7624TIP3    H122836   1.742   0.875   2.954  1.5349  0.1313  1.3416
 7624TIP3    H222837   1.799   0.976   2.857 -1.2121  0.2950 -0.1935
 7625TIP3   OH222838   1.922   0.605   1.701  0.1033  0.4699  0.7024
 7625TIP3    H122839   1.843   0.634   1.747  0.3995  1.3079  0.7058
 7625TIP3    H222840   1.988   0.670   1.725  0.4682  0.4697 -0.2762
 7626TIP3   OH222841   4.544   1.833   2.975  0.7487  0.0667  0.6821
 7626TIP3    H122842   4.510   1.790   3.054 -0.8499  0.7195  0.3843
 7626TIP3    H222843   4.529   1.926   2.990  0.7533  0.2247 -0.2572
 7627TIP3   OH222844   0.332   3.617   5.724 -0.8686 -0.4490 -0.0454
 7627TIP3    H122845   0.420   3.641   5.752 -0.8555 -1.8891  1.2836
 7627TIP3    H222846   0.294   3.699   5.691  0.1915  0.6912  1.4230
 7628TIP3   OH222847   3.748   5.574   3.396  0.4780  0.2836  0.6506
 7628TIP3    H122848   3.793   5.501   3.437  0.5475  0.0546  0.1820
 7628TIP3    H222849   3.776   5.571   3.304 -0.8915 -0.2016  0.2184
 7629TIP3   OH222850   4.394   4.308   3.656  0.7971 -0.6206  0.2347
 7629TIP3    H122851   4.341   4.355   3.721  1.6952 -0.7910  1.1088
 7629TIP3    H222852   4.334   4.243   3.619 -0.8802  1.9674 -1.9473
 7630TIP3   OH222853   2.078   1.252   3.752 -0.1607 -0.1849 -0.0801
 7630TIP3    H122854   2.156   1.271   3.700  0.4231 -3.2655 -0.5284
 7630TIP3    H222855   2.111   1.237   3.840 -0.6095  0.9153  0.2910
 7631TIP3   OH222856   1.596   6.491   1.707 -0.0224  0.0272  0.0413
 7631TIP3    H122857   1.675   6.445   1.733 -0.4034 -1.7363 -1.7634
 7631TIP3    H222858   1.539   6.424   1.670 -2.1988  1.3182  0.8427
 7632TIP3   OH222859   3.642   1.422   2.566 -0.5262 -0.3683 -0.5680
 7632TIP3    H122860   3.567   1.410   2.625 -0.1562 -0.9414 -0.2083
 7632TIP3    H222861   3.655   1.517   2.563 -1.4940 -0.2403 -0.9221
 7633TIP3   OH222862   5.019   4.207   0.849  0.3312 -0.6597 -0.1320
 7633TIP3    H122863   5.035   4.301   0.840 -1.8778 -0.2703 -0.7323
 7633TIP3    H222864   4.935   4.202   0.896 -0.3746 -2.2761 -1.4626
 7634TIP3   OH222865   6.388   5.977   4.929 -0.1135  0.0048 -0.1411
 7634TIP3    H122866   6.459   5.933   4.883 -0.8202 -0.9590 -0.3397
 7634TIP3    H222867   6.308   5.939   4.892 -0.7107  0.1144  0.9893
 7635TIP3   OH222868   7.072   6.794   1.917 -0.0536  0.4896  0.0210
 7635TIP3    H122869   7.058   6.843   1.999 -3.2714 -1.2998  0.7402
 7635TIP3    H222870   7.061   6.702   1.942 -0.1366 -0.1723 -2.2572
 7636TIP3   OH222871   6.955   1.860   4.854  0.1381  0.0364  0.4048
 7636TIP3    H122872   7.045   1.839   4.826 -0.2118 -0.8263 -0.1348
 7636TIP3    H222873   6.937   1.798   4.924 -0.9840 -1.7351 -1.3389
 7637TIP3   OH222874   4.447   4.836   0.106 -0.0817  0.3250 -0.4454
 7637TIP3    H122875   4.424   4.749   0.139  0.9650  0.2211  0.0727
 7637TIP3    H222876   4.505   4.819   0.032 -0.5815  0.5832 -0.9031
 7638TIP3   OH222877   4.771   0.604   5.402  0.3677 -0.3291 -0.5105
 7638TIP3    H122878   4.796   0.657   5.478 -1.4167  1.0142 -0.7955
 7638TIP3    H222879   4.758   0.516   5.436  0.3988  0.0781  0.5874
 7639TIP3   OH222880   4.043   1.438   0.476 -0.2677  0.1411  0.3335
 7639TIP3    H122881   3.990   1.364   0.507 -0.1433 -0.6116 -1.1760
 7639TIP3    H222882   3.978   1.503   0.448 -0.3772  0.5874  1.5699
 7640TIP3   OH222883   0.441   6.137   5.670  0.2736  0.2307 -0.2051
 7640TIP3    H122884   0.442   6.041   5.673  1.1788  0.2369  0.2048
 7640TIP3    H222885   0.515   6.159   5.612  0.1605  0.6818 -0.1764
 7641TIP3   OH222886   5.296   4.668   4.863  0.1341 -0.0264 -0.5950
 7641TIP3    H122887   5.214   4.679   4.815  0.4453 -1.5240 -1.5252
 7641TIP3    H222888   5.319   4.756   4.892 -1.7956  0.4305 -0.3143
 7642TIP3   OH222889   2.219   2.670   4.514  0.4223  0.3086  0.2319
 7642TIP3    H122890   2.263   2.751   4.491 -1.1019  0.4848 -2.4761
 7642TIP3    H222891   2.136   2.697   4.553 -0.3726  0.1494 -1.2521
 7643TIP3   OH222892   0.995   4.632   2.125  0.0306  0.7211  0.2624
 7643TIP3    H122893   0.929   4.691   2.161 -0.7537 -0.1096  0.2007
 7643TIP3    H222894   0.945   4.568   2.074  0.8363 -0.2482  0.6680
 7644TIP3   OH222895   2.426   4.958   2.242 -0.4482 -0.3636  0.4823
 7644TIP3    H122896   2.411   4.950   2.148 -2.2336  0.6308  0.6382
 7644TIP3    H222897   2.348   4.918   2.282 -0.9241  1.4197  1.4641
 7645TIP3   OH222898   1.805   2.687   3.244  0.2589  0.1868 -0.7648
 7645TIP3    H122899   1.856   2.695   3.325 -0.7233  1.3526 -0.2349
 7645TIP3    H222900   1.714   2.699   3.271 -0.0499  1.1710 -2.1155
 7646TIP3   OH222901   1.395   5.776   0.396  0.4419  0.0612 -0.0964
 7646TIP3    H122902   1.442   5.836   0.453 -3.6954  1.2504  2.5425
 7646TIP3    H222903   1.367   5.705   0.454 -2.3789  0.3732 -0.8902
 7647TIP3   OH222904   3.307   3.808   2.405 -0.7111 -0.0797 -0.4625
 7647TIP3    H122905   3.346   3.721   2.402 -1.1374 -0.2739 -0.4215
 7647TIP3    H222906   3.298   3.827   2.498 -0.6616 -0.0138 -0.4716
 7648TIP3   OH222907   6.006   6.402   3.201 -0.2166 -0.0327 -0.5400
 7648TIP3    H122908   6.002   6.496   3.182  0.5695  0.0452 -0.3669
 7648TIP3    H222909   6.039   6.398   3.291 -2.4244 -0.4269  0.3319
 7649TIP3   OH222910   2.430   6.470   3.194 -0.2269  0.9088 -0.4660
 7649TIP3    H122911   2.385   6.551   3.170  0.1728  1.6052  1.0399
 7649TIP3    H222912   2.452   6.481   3.286 -0.0794 -0.8864 -0.2521
 7650TIP3   OH222913   6.019   6.157   1.331  0.1769 -0.5989 -0.5899
 7650TIP3    H122914   5.964   6.089   1.369 -1.0946  1.3077  1.2369
 7650TIP3    H222915   6.107   6.139   1.366 -0.1035 -1.3530 -0.2499
 7651TIP3   OH222916   1.169   2.483   0.231 -0.3121  0.1920  0.1464
 7651TIP3    H122917   1.233   2.415   0.252 -0.2141  0.6729  1.4873
 7651TIP3    H222918   1.084   2.446   0.255 -0.4611 -0.0987 -0.7738
 7652TIP3   OH222919   4.857   3.927   2.835  0.0133  0.0997  0.0946
 7652TIP3    H122920   4.804   3.939   2.756  1.4470  1.8130 -0.6851
 7652TIP3    H222921   4.794   3.931   2.907 -1.6015 -3.3375 -0.9170
 7653TIP3   OH222922   4.208   0.038   0.069  0.1059 -0.2532 -0.8372
 7653TIP3    H122923   4.282   0.046   0.129  0.1974  0.9096 -1.0853
 7653TIP3    H222924   4.131   0.031   0.126  0.1702  1.0690 -0.5631
 7654TIP3   OH222925   0.197   2.618   4.086  0.2670 -0.4964 -0.8045
 7654TIP3    H122926   0.248   2.567   4.022  0.0539  0.0771 -1.4391
 7654TIP3    H222927   0.186   2.558   4.160  0.9220 -1.0095 -1.1072
 7655TIP3   OH222928   2.778   0.839   3.651 -0.3839 -0.1572 -0.1856
 7655TIP3    H122929   2.786   0.908   3.585 -0.0292  0.3199  0.3489
 7655TIP3    H222930   2.793   0.758   3.602 -0.5832  0.1536 -0.7797
 7656TIP3   OH222931   1.250   1.223   2.227  0.2339 -0.4599 -0.9388
 7656TIP3    H122932   1.155   1.220   2.239  0.4574 -0.2084  1.4243
 7656TIP3    H222933   1.285   1.169   2.299  1.8981 -0.0030 -1.3521
 7657TIP3   OH222934   2.007   5.496   4.255  0.2039  0.0975 -0.3989
 7657TIP3    H122935   1.979   5.476   4.345  1.4300 -1.4876 -0.3286
 7657TIP3    H222936   2.043   5.585   4.261  0.3650 -0.0179  0.7097
 7658TIP3   OH222937   5.743   2.254   4.948  0.1325  0.3558  0.1990
 7658TIP3    H122938   5.700   2.256   4.862  0.5019  0.1634  0.0066
 7658TIP3    H222939   5.727   2.341   4.984 -1.5920 -0.1356  0.7238
 7659TIP3   OH222940   3.350   0.691   2.312  0.4966  0.2791 -0.6566
 7659TIP3    H122941   3.413   0.752   2.275  0.3548  0.7328 -0.1566
 7659TIP3    H222942   3.371   0.607   2.270  0.4572  0.7338 -1.6086
 7660TIP3   OH222943   4.589   1.040   3.019  0.3273  0.0834 -0.1103
 7660TIP3    H122944   4.650   0.971   2.993  0.4961  0.3696 -0.4724
 7660TIP3    H222945   4.604   1.050   3.113  0.5254 -0.1523 -0.1151
 7661TIP3   OH222946   4.989   6.674   3.081 -0.1425 -0.6370 -0.4824
 7661TIP3    H122947   5.047   6.710   3.014 -0.4340  1.5668  0.3297
 7661TIP3    H222948   4.969   6.750   3.138  0.4326 -2.4341  2.3297
 7662TIP3   OH222949   5.316   6.666   2.524  0.1871 -0.3100 -0.0468
 7662TIP3    H122950   5.405   6.636   2.544 -0.0908 -0.2100  1.4969
 7662TIP3    H222951   5.300   6.735   2.589 -0.1125  1.4488 -1.9009
 7663TIP3   OH222952   2.088   3.483   0.279 -0.9536  0.6523  0.1918
 7663TIP3    H122953   2.107   3.568   0.318  1.1047  0.4998 -0.4033
 7663TIP3    H222954   2.070   3.426   0.354 -1.6745  1.4285  0.6284
 7664TIP3   OH222955   6.659   4.484   1.335  0.4427  0.4356 -0.2496
 7664TIP3    H122956   6.676   4.410   1.277 -0.3466  1.2914 -1.6257
 7664TIP3    H222957   6.686   4.453   1.421 -2.2515 -2.4752 -0.2400
 7665TIP3   OH222958   2.294   5.290   1.404  0.3131  0.1765  0.1571
 7665TIP3    H122959   2.264   5.329   1.486 -0.1093 -0.6904  0.4356
 7665TIP3    H222960   2.379   5.329   1.388 -0.7176  2.3264 -0.3853
 7666TIP3   OH222961   6.135   5.421   2.836 -0.0817 -0.4855  0.1321
 7666TIP3    H122962   6.087   5.358   2.891 -1.2461  1.1967  1.1464
 7666TIP3    H222963   6.191   5.468   2.898  0.4616 -0.2394 -0.5396
 7667TIP3   OH222964   2.774   3.590   3.513  0.1721 -0.4884 -0.2563
 7667TIP3    H122965   2.707   3.522   3.517 -1.4308  0.8481 -2.1510
 7667TIP3    H222966   2.745   3.657   3.576 -1.0308  0.6421 -1.9303
 7668TIP3   OH222967   6.662   3.733   4.587 -0.1380 -0.4014 -0.3271
 7668TIP3    H122968   6.745   3.744   4.633  0.7613 -0.7874 -1.7623
 7668TIP3    H222969   6.622   3.820   4.589  0.4081 -0.1534  0.1940
 7669TIP3   OH222970   6.682   0.840   5.451  0.1765  0.3661 -0.0099
 7669TIP3    H122971   6.664   0.868   5.361 -1.3388  0.4517  0.2953
 7669TIP3    H222972   6.652   0.749   5.455 -0.2115  0.5144  0.5375
 7670TIP3   OH222973   3.545   6.145   3.344  0.6408 -0.3730  0.4559
 7670TIP3    H122974   3.578   6.205   3.411  1.0803 -1.3903  1.1887
 7670TIP3    H222975   3.457   6.123   3.373  1.2575 -1.7583  1.4145
 7671TIP3   OH222976   0.087   6.746   5.834 -0.2177  0.0902 -0.2109
 7671TIP3    H122977   0.155   6.768   5.770 -0.0332 -2.2418 -0.9114
 7671TIP3    H222978   0.014   6.714   5.781 -0.4594 -0.8897  0.6738
 7672TIP3   OH222979   5.453   2.866   1.870  0.1121  0.1608 -0.1159
 7672TIP3    H122980   5.398   2.824   1.936 -1.6917  0.8487 -1.1246
 7672TIP3    H222981   5.430   2.959   1.874 -1.4799 -0.0118 -2.9307
 7673TIP3   OH222982   3.546   4.497   2.876 -0.0105  0.0573  0.4401
 7673TIP3    H122983   3.485   4.570   2.871 -0.2400 -0.1422  0.3451
 7673TIP3    H222984   3.493   4.422   2.903 -0.3702 -0.7346 -2.1308
 7674TIP3   OH222985   3.738   3.124   4.013  0.7817 -0.4447 -0.2707
 7674TIP3    H122986   3.800   3.133   3.940  2.2735 -0.8325  0.9043
 7674TIP3    H222987   3.743   3.032   4.038  0.8204 -0.1672  0.7678
 7675TIP3   OH222988   4.023   1.908   2.404 -0.5701 -0.0316  0.6030
 7675TIP3    H122989   4.036   1.835   2.344 -0.6540  0.2726  0.2123
 7675TIP3    H222990   4.111   1.938   2.425 -0.5061 -0.6703  1.3008
 7676TIP3   OH222991   0.684   2.586   2.234 -0.4260  0.3647  0.5827
 7676TIP3    H122992   0.662   2.639   2.157  0.0327 -1.4778 -0.8945
 7676TIP3    H222993   0.777   2.565   2.223 -0.7429 -1.2553  0.7518
 7677TIP3   OH222994   3.178   2.527   3.743 -0.2451 -0.3819 -0.2495
 7677TIP3    H122995   3.166   2.621   3.729 -3.4504 -0.9000 -1.8258
 7677TIP3    H222996   3.255   2.505   3.690  0.5284  1.3023  0.1161
 7678TIP3   OH222997   4.757   3.261   2.013 -0.1043 -0.0655  0.5996
 7678TIP3    H122998   4.789   3.311   2.088 -0.3189  1.7039 -0.4168
 7678TIP3    H222999   4.797   3.174   2.023  3.0006  1.2388  0.7361
 7679TIP3   OH223000   0.275   1.064   0.706  0.2144  0.0430  0.3683
 7679TIP3    H123001   0.203   1.063   0.769 -0.7783  0.5410 -0.7247
 7679TIP3    H223002   0.319   0.980   0.720 -2.5264 -1.8174 -1.0556
 7680TIP3   OH223003   5.046   5.816   2.163 -0.3721  0.0763  0.0256
 7680TIP3    H123004   5.099   5.896   2.166 -0.5090  0.1684 -0.0392
 7680TIP3    H223005   5.028   5.796   2.255 -0.2937  0.0893  0.0445
 7681TIP3   OH223006   0.732   1.214   0.557 -0.4158  0.5066  0.1675
 7681TIP3    H123007   0.674   1.225   0.632 -2.3307 -0.5114 -1.0720
 7681TIP3    H223008   0.675   1.181   0.487  1.5512  0.0499 -1.3240
 7682TIP3   OH223009   0.932   2.380   0.291 -0.6037 -0.0593  0.5470
 7682TIP3    H123010   0.838   2.394   0.283 -1.0670 -2.1543  1.4967
 7682TIP3    H223011   0.948   2.377   0.385  0.2763 -0.4797  0.3932
 7683TIP3   OH223012   6.385   4.626   3.532 -0.4702  0.3624  0.4410
 7683TIP3    H123013   6.390   4.592   3.622  0.0805 -0.5200  0.0927
 7683TIP3    H223014   6.311   4.686   3.534 -0.0583  0.8694  1.6555
 7684TIP3   OH223015   7.102   2.390   1.725 -0.3807 -0.1622 -0.5030
 7684TIP3    H123016   7.165   2.390   1.797 -1.2353  0.5774  0.2694
 7684TIP3    H223017   7.144   2.338   1.656  0.8845 -0.0373  0.1474
 7685TIP3   OH223018   0.646   4.091   0.892  0.1987  0.5747  0.5653
 7685TIP3    H123019   0.715   4.111   0.956  0.5147 -0.5218  0.5955
 7685TIP3    H223020   0.601   4.015   0.930 -2.1577  2.2680  1.4034
 7686TIP3   OH223021   2.088   4.829   1.816 -0.3836 -0.6072  0.5857
 7686TIP3    H123022   2.106   4.763   1.749  2.5931  0.7340 -0.0812
 7686TIP3    H223023   2.142   4.804   1.890  1.2683  1.3266  0.1010
 7687TIP3   OH223024   3.830   3.078   5.598 -0.5191  0.1584 -0.1859
 7687TIP3    H123025   3.746   3.093   5.555 -1.6804  0.9823  2.1855
 7687TIP3    H223026   3.859   3.164   5.627  1.0046 -0.1612 -0.6578
 7688TIP3   OH223027   3.629   6.766   4.592 -0.4268  0.5452 -0.3553
 7688TIP3    H123028   3.719   6.762   4.623 -0.7194 -1.2098  0.4400
 7688TIP3    H223029   3.583   6.817   4.659  0.0199  1.7357 -0.9372
 7689TIP3   OH223030   0.941   4.047   1.726  0.6200  0.2341  0.3878
 7689TIP3    H123031   0.898   4.111   1.783 -0.1681  1.1595 -1.1876
 7689TIP3    H223032   0.871   3.984   1.706  0.4586  0.7602 -0.7558
 7690TIP3   OH223033   5.411   1.233   1.681 -0.4912  0.7578  0.6200
 7690TIP3    H123034   5.431   1.148   1.642  1.5054  1.1316  0.7107
 7690TIP3    H223035   5.355   1.212   1.756  0.5584 -0.5673  1.0817
 7691TIP3   OH223036   0.699   3.545   1.133  0.3912 -0.0286  0.1163
 7691TIP3    H123037   0.678   3.471   1.076 -1.3241  0.9917 -0.6538
 7691TIP3    H223038   0.758   3.599   1.080 -0.5327  0.4962 -0.4035
 7692TIP3   OH223039   2.211   1.989   3.962  0.2256 -0.9033  0.5216
 7692TIP3    H123040   2.186   1.940   3.884  0.9928  0.4442 -0.6261
 7692TIP3    H223041   2.144   2.057   3.970  0.9702 -0.0963  0.1084
 7693TIP3   OH223042   7.202   5.457   1.680 -0.2559  0.4848 -0.3048
 7693TIP3    H123043   7.129   5.512   1.709 -0.4545  1.0924 -1.8664
 7693TIP3    H223044   7.259   5.450   1.757 -1.2465  1.1796  0.5141
 7694TIP3   OH223045   3.555   5.344   0.416  0.3893  0.2808 -0.2359
 7694TIP3    H123046   3.595   5.428   0.394  2.2349 -0.5935 -0.4004
 7694TIP3    H223047   3.587   5.324   0.504  0.0404 -0.3103 -0.2332
 7695TIP3   OH223048   0.488   1.296   4.937  0.4733  0.2484 -0.1182
 7695TIP3    H123049   0.535   1.358   4.994 -0.0355  0.2526  0.3080
 7695TIP3    H223050   0.556   1.255   4.885  1.3191 -1.6075  2.2539
 7696TIP3   OH223051   4.008   1.641   5.277  0.0369 -0.6665  1.0760
 7696TIP3    H123052   4.024   1.590   5.197  1.2234 -0.0086  0.8593
 7696TIP3    H223053   3.947   1.709   5.249  2.7163  1.4361 -0.1596
 7697TIP3   OH223054   4.658   3.935   4.075 -0.2335  0.2535  0.1066
 7697TIP3    H123055   4.651   3.840   4.083  0.1231  0.1679 -0.5561
 7697TIP3    H223056   4.654   3.966   4.166  1.6910 -0.5455  0.5281
 7698TIP3   OH223057   1.758   5.465   5.652 -0.4477  0.4444 -0.5145
 7698TIP3    H123058   1.703   5.388   5.664  1.6444 -1.3773 -1.8788
 7698TIP3    H223059   1.707   5.537   5.690 -2.0843 -1.7165  1.6996
 7699TIP3   OH223060   3.340   6.024   3.510  0.5590  0.5661 -0.2564
 7699TIP3    H123061   3.360   5.934   3.484  0.8696  0.9034 -1.2528
 7699TIP3    H223062   3.405   6.045   3.577  1.9866  0.8061 -1.6632
 7700TIP3   OH223063   1.145   5.351   3.739 -0.3504 -0.3892  0.0335
 7700TIP3    H123064   1.233   5.339   3.775  0.3073 -0.9526 -1.6387
 7700TIP3    H223065   1.151   5.431   3.686 -1.1198  0.0883  0.6412
 7701TIP3   OH223066   4.865   5.894   0.063  0.4246  0.0148  0.4675
 7701TIP3    H123067   4.864   5.875  -0.031 -0.7907  0.3114  0.4120
 7701TIP3    H223068   4.856   5.809   0.105  1.4530 -0.1754  0.3474
 7702TIP3   OH223069   5.994   4.281   5.582 -0.5048  0.3744 -0.0906
 7702TIP3    H123070   6.060   4.211   5.580  0.7417  1.2290  3.3105
 7702TIP3    H223071   5.916   4.241   5.544  1.0889 -1.7236 -1.4023
 7703TIP3   OH223072   1.662   4.436   1.365 -0.1778  0.2441  0.2080
 7703TIP3    H123073   1.569   4.428   1.387  0.1645  0.3049  1.8282
 7703TIP3    H223074   1.668   4.407   1.274 -2.0366  1.8648 -0.5152
 7704TIP3   OH223075   6.359   3.006   2.203  0.0016 -0.1425 -0.7819
 7704TIP3    H123076   6.267   2.987   2.184 -0.1697 -0.3751  0.1939
 7704TIP3    H223077   6.373   3.094   2.169 -1.0310  0.5343  0.4443
 7705TIP3   OH223078   1.159   3.167   5.540 -0.1136  0.1761  0.1740
 7705TIP3    H123079   1.227   3.198   5.599 -1.0185  2.1922  0.2619
 7705TIP3    H223080   1.079   3.168   5.592 -0.8983  1.8299 -0.9474
 7706TIP3   OH223081   3.338   0.784   3.892 -0.1118 -0.1469  0.1656
 7706TIP3    H123082   3.301   0.831   3.817  0.1991 -0.5603 -0.2478
 7706TIP3    H223083   3.380   0.707   3.854 -0.4340 -0.6489  0.8244
 7707TIP3   OH223084   3.587   1.808   5.544 -0.2631  0.0857  0.0312
 7707TIP3    H123085   3.594   1.780   5.635 -1.4215 -1.3886 -0.2977
 7707TIP3    H223086   3.610   1.730   5.493  2.6651  1.4659 -1.0329
 7708TIP3   OH223087   4.080   1.781   3.871 -0.2035  0.1653  0.3112
 7708TIP3    H123088   4.015   1.720   3.836  0.7546 -0.5013 -0.3573
 7708TIP3    H223089   4.060   1.864   3.829  0.4362 -0.4434 -1.2777
 7709TIP3   OH223090   4.291   0.134   4.626  0.0939 -0.3200  0.2120
 7709TIP3    H123091   4.248   0.219   4.620 -1.1727 -1.0013 -0.9869
 7709TIP3    H223092   4.222   0.074   4.656  0.6852 -1.1165  0.0147
 7710TIP3   OH223093   7.083   5.919   2.888  0.4874  0.1637 -0.2980
 7710TIP3    H123094   6.990   5.934   2.899  0.7318  0.6426  1.3411
 7710TIP3    H223095   7.090   5.828   2.858 -0.4771 -0.0109 -0.0039
 7711TIP3   OH223096   6.709   1.758   1.018  0.0660  0.2143 -0.5248
 7711TIP3    H123097   6.777   1.691   1.017 -2.3243 -2.4046 -1.9464
 7711TIP3    H223098   6.694   1.776   1.111  1.6709 -0.1773 -0.1551
 7712TIP3   OH223099   2.496   1.913   5.852  0.0395  0.2158  0.0804
 7712TIP3    H123100   2.484   1.820   5.870  3.6056 -0.3552  0.2497
 7712TIP3    H223101   2.494   1.954   5.938  0.0355  0.0549  0.1579
 7713TIP3   OH223102   5.115   1.863   2.082  0.2245  0.1364  0.9998
 7713TIP3    H123103   5.140   1.844   1.992 -0.7161 -0.0218  0.7557
 7713TIP3    H223104   5.151   1.791   2.133  0.0074 -0.2442  0.6210
 7714TIP3   OH223105   1.725   2.123   5.704  0.5746  0.2299 -0.5470
 7714TIP3    H123106   1.742   2.040   5.748 -0.8039 -0.1025 -0.5891
 7714TIP3    H223107   1.745   2.190   5.769 -0.8453 -0.2374  0.4247
 7715TIP3   OH223108   6.184   0.580   5.391  0.4494  0.3064  0.0778
 7715TIP3    H123109   6.119   0.513   5.367  0.9426  0.2080 -1.0750
 7715TIP3    H223110   6.262   0.530   5.416  0.1168  0.4246  1.4057
 7716TIP3   OH223111   4.546   1.407   0.171 -0.0241  0.3513  0.4449
 7716TIP3    H123112   4.524   1.485   0.121  1.6918  0.1612 -0.6655
 7716TIP3    H223113   4.512   1.425   0.259 -1.6820  1.3545 -0.3446
 7717TIP3   OH223114   2.316   0.101   3.477 -0.5224 -0.0718 -0.0066
 7717TIP3    H123115   2.314   0.035   3.547 -1.1500 -0.1983 -0.1338
 7717TIP3    H223116   2.261   0.172   3.509  0.3800  0.5313  0.2496
 7718TIP3   OH223117   5.276   4.123   0.364  0.2829  1.0208  0.5064
 7718TIP3    H123118   5.229   4.101   0.445 -0.5906  1.1569  0.0533
 7718TIP3    H223119   5.259   4.217   0.352  1.0929  1.1829  0.5947
 7719TIP3   OH223120   6.550   2.892   5.708  0.1143  0.1115 -0.1990
 7719TIP3    H123121   6.559   2.821   5.771 -1.3264 -0.2829 -0.4005
 7719TIP3    H223122   6.518   2.849   5.628 -1.1986  0.9999 -0.1960
 7720TIP3   OH223123   5.285   3.671   4.222 -0.1314  0.2956  0.5436
 7720TIP3    H123124   5.264   3.719   4.303  1.1050  0.1751  0.9549
 7720TIP3    H223125   5.345   3.602   4.250  1.0429  0.8228 -0.6091
 7721TIP3   OH223126   2.586   2.362   5.471 -0.4418 -0.3559 -0.1251
 7721TIP3    H123127   2.548   2.297   5.412  0.7751 -0.5114 -0.7840
 7721TIP3    H223128   2.609   2.436   5.414 -1.1340  0.3617  0.4991
 7722TIP3   OH223129   3.666   1.966   2.061 -0.5503  0.2367  0.2498
 7722TIP3    H123130   3.594   1.994   2.004 -1.2013 -0.9770  0.4388
 7722TIP3    H223131   3.623   1.937   2.141  0.3218  1.4097  1.1827
 7723TIP3   OH223132   0.295   1.788   0.231 -0.0998  0.9317 -0.5527
 7723TIP3    H123133   0.222   1.850   0.241  1.1751  2.3005  0.9658
 7723TIP3    H223134   0.322   1.769   0.321  1.2081  0.2121 -1.0738
 7724TIP3   OH223135   1.402   2.678   2.571 -0.0564  0.0919  0.1483
 7724TIP3    H123136   1.433   2.725   2.493  1.2702 -0.1736  0.4873
 7724TIP3    H223137   1.461   2.602   2.578  0.4466  0.6074  1.9230
 7725TIP3   OH223138   6.827   1.599   2.261 -0.0705 -0.2139  0.1998
 7725TIP3    H123139   6.851   1.579   2.171 -0.6748  0.1322 -0.0484
 7725TIP3    H223140   6.731   1.592   2.262 -0.3497  2.5500  0.1092
 7726TIP3   OH223141   4.432   1.070   2.109 -0.1345 -0.8304 -0.0130
 7726TIP3    H123142   4.389   1.149   2.140  0.4410 -0.2542 -0.6689
 7726TIP3    H223143   4.419   1.006   2.180 -2.3632 -0.7988 -0.3259
 7727TIP3   OH223144   0.696   0.756   4.135  0.1369  0.1326  0.0211
 7727TIP3    H123145   0.640   0.722   4.064  0.9374  1.5209 -1.3363
 7727TIP3    H223146   0.785   0.739   4.105  0.4958 -0.3489  1.2927
 7728TIP3   OH223147   4.091   0.190   0.930  0.3262  0.3270  0.4983
 7728TIP3    H123148   4.176   0.183   0.975  0.5029 -1.0901  0.0225
 7728TIP3    H223149   4.027   0.196   1.000  0.6843 -0.7327  0.9493
 7729TIP3   OH223150   0.788   0.272   0.464  0.5781 -0.0953  0.3350
 7729TIP3    H123151   0.702   0.246   0.431 -0.0635  2.3275 -0.0366
 7729TIP3    H223152   0.850   0.222   0.411 -0.5431  0.0903 -1.2155
 7730TIP3   OH223153   3.446   5.234   5.743  0.1750  0.4102  0.1654
 7730TIP3    H123154   3.474   5.323   5.766 -2.1334  1.5419 -0.9751
 7730TIP3    H223155   3.465   5.182   5.821  0.7744  2.0956  1.2136
 7731TIP3   OH223156   4.856   5.985   1.395  0.0433  0.0273  0.4609
 7731TIP3    H123157   4.884   5.901   1.361  0.1573 -0.2643  1.2431
 7731TIP3    H223158   4.812   5.964   1.478  2.6506  0.9384  2.1872
 7732TIP3   OH223159   0.270   3.424   4.879  0.5235 -0.3513 -0.1886
 7732TIP3    H123160   0.256   3.356   4.945 -0.0340 -0.5096 -0.4653
 7732TIP3    H223161   0.365   3.439   4.879  0.4656  0.1262  1.1145
 7733TIP3   OH223162   4.716   0.278   0.355 -0.1895  0.0359 -0.1276
 7733TIP3    H123163   4.790   0.240   0.403 -1.3102  0.0247  1.6826
 7733TIP3    H223164   4.708   0.367   0.390  1.1803  1.3948 -2.9280
 7734TIP3   OH223165   4.364   2.908   1.646  0.4208  0.1105 -0.4689
 7734TIP3    H123166   4.423   2.857   1.701  2.0278 -0.6576 -2.7426
 7734TIP3    H223167   4.390   2.999   1.661 -0.3999  0.0787  1.3334
 7735TIP3   OH223168   0.258   5.426   1.487 -0.3277 -0.0030 -0.1068
 7735TIP3    H123169   0.195   5.444   1.557  3.2556 -0.1264  3.4985
 7735TIP3    H223170   0.304   5.508   1.473 -0.2121 -0.2842 -1.5632
 7736TIP3   OH223171   0.962   5.358   4.803  0.3582 -0.4579  0.0605
 7736TIP3    H123172   0.991   5.426   4.864 -0.4752 -1.5593  1.7662
 7736TIP3    H223173   0.960   5.401   4.718  1.9298  1.0418  0.7337
 7737TIP3   OH223174   1.461   0.858   1.326 -0.0390  0.2022  0.3759
 7737TIP3    H123175   1.522   0.928   1.301 -0.6273  1.0009  1.0918
 7737TIP3    H223176   1.376   0.901   1.330 -0.4161 -0.5680  0.7971
 7738TIP3   OH223177   7.096   2.368   2.457 -0.7560  0.3684 -0.5502
 7738TIP3    H123178   7.058   2.449   2.491 -0.0477  1.0176 -1.2728
 7738TIP3    H223179   7.094   2.308   2.532 -3.8918  0.0875 -0.7280
 7739TIP3   OH223180   6.744   3.061   4.021  0.0923  0.1400 -0.5575
 7739TIP3    H123181   6.691   3.023   4.091  0.0433 -0.4411 -0.8970
 7739TIP3    H223182   6.689   3.052   3.943  0.2199  0.6089 -0.7009
 7740TIP3   OH223183   2.061   4.880   2.839 -0.4595  0.2156 -0.1234
 7740TIP3    H123184   2.145   4.834   2.847 -1.4254 -1.5840  0.2911
 7740TIP3    H223185   2.078   4.967   2.873  0.6075 -0.9432  2.5853
 7741TIP3   OH223186   3.046   5.769   2.275  0.6019 -0.1269  0.2026
 7741TIP3    H123187   2.951   5.769   2.292  0.2113 -0.8429 -1.6999
 7741TIP3    H223188   3.054   5.734   2.186  2.7102 -0.6052  0.5373
 7742TIP3   OH223189   5.990   1.277   1.627 -0.0106 -0.1873 -0.1933
 7742TIP3    H123190   5.969   1.193   1.585 -0.4611  0.0477 -0.4394
 7742TIP3    H223191   5.937   1.341   1.581  1.1321  0.4025 -0.7310
 7743TIP3   OH223192   6.684   5.498   0.526  0.1233  0.5713 -0.1139
 7743TIP3    H123193   6.682   5.403   0.527 -0.6941  0.5775 -0.5772
 7743TIP3    H223194   6.777   5.520   0.524  0.3027 -0.2169 -0.6897
 7744TIP3   OH223195   5.575   6.362   2.375 -0.3951  0.1007 -0.5644
 7744TIP3    H123196   5.514   6.316   2.433  0.9296 -1.3713 -0.2850
 7744TIP3    H223197   5.563   6.319   2.290 -0.3116  0.3593 -0.7072
 7745TIP3   OH223198   4.499   1.263   3.498  0.4551 -0.1642 -0.1544
 7745TIP3    H123199   4.419   1.237   3.543 -0.0624 -0.6671 -1.3239
 7745TIP3    H223200   4.567   1.260   3.566 -0.2409 -1.1866  0.5229
 7746TIP3   OH223201   4.981   3.845   4.324  0.2917  0.0969  0.4296
 7746TIP3    H123202   4.900   3.893   4.341  0.7922  1.1371 -0.0133
 7746TIP3    H223203   5.050   3.909   4.339  1.0801 -0.9350  1.3667
 7747TIP3   OH223204   6.088   0.931   3.137 -0.1753 -0.4238  0.6094
 7747TIP3    H123205   6.052   0.941   3.225  0.3254 -2.9130  1.1775
 7747TIP3    H223206   6.114   0.839   3.132  0.9804 -0.0483 -1.7129
 7748TIP3   OH223207   1.953   5.280   2.254  0.3106 -0.0399  0.0717
 7748TIP3    H123208   1.975   5.198   2.297  0.7883 -0.0910 -0.2656
 7748TIP3    H223209   2.026   5.339   2.275 -0.8771  0.8794  1.8323
 7749TIP3   OH223210   3.270   5.830   1.420 -0.2507 -0.0541 -0.3687
 7749TIP3    H123211   3.348   5.808   1.369 -1.0403 -1.3778 -1.0635
 7749TIP3    H223212   3.302   5.834   1.510  0.8712  0.7873 -0.7817
 7750TIP3   OH223213   4.325   3.441   1.408  0.5522 -0.2244 -0.0097
 7750TIP3    H123214   4.264   3.437   1.335  0.1685  2.1635  0.1016
 7750TIP3    H223215   4.311   3.360   1.456 -0.3362 -1.1019 -1.6674
 7751TIP3   OH223216   2.198   2.925   0.134 -0.0731  0.4860  0.3384
 7751TIP3    H123217   2.257   2.951   0.206  0.9690  1.1048 -0.7008
 7751TIP3    H223218   2.149   3.005   0.113  0.6059  0.6934 -0.5216
 7752TIP3   OH223219   5.472   3.292   2.677 -0.1652 -0.3028 -0.1126
 7752TIP3    H123220   5.529   3.221   2.648  0.1967  0.2327 -0.7424
 7752TIP3    H223221   5.440   3.264   2.763 -0.6820 -1.6036 -0.6935
 7753TIP3   OH223222   6.354   2.143   4.209 -0.0287 -0.4385 -0.0904
 7753TIP3    H123223   6.377   2.065   4.160  1.4735 -0.2128  0.2097
 7753TIP3    H223224   6.370   2.215   4.149 -0.0550 -0.2780  0.0931
 7754TIP3   OH223225   4.210   3.505   2.312 -0.1163  0.1025 -0.0370
 7754TIP3    H123226   4.212   3.556   2.231 -0.4074  0.8858  0.4269
 7754TIP3    H223227   4.264   3.429   2.294  0.1532  0.4650 -0.8343
 7755TIP3   OH223228   3.405   6.150   0.394 -0.2930  0.1601 -0.7152
 7755TIP3    H123229   3.476   6.100   0.436 -0.5562 -0.0954 -0.5746
 7755TIP3    H223230   3.326   6.101   0.415 -0.6340  1.0024  0.0085
 7756TIP3   OH223231   3.569   6.339   2.096  0.7230 -0.2895 -0.3203
 7756TIP3    H123232   3.625   6.414   2.115 -1.4142  1.3692 -0.2695
 7756TIP3    H223233   3.560   6.294   2.180 -0.3814  1.1424  0.3641
 7757TIP3   OH223234   4.256   5.569   0.751  0.4195 -0.3627 -0.0160
 7757TIP3    H123235   4.337   5.616   0.769  1.0542 -0.4507 -2.3337
 7757TIP3    H223236   4.280   5.477   0.755  0.2432 -0.4099 -0.0113
 7758TIP3   OH223237   5.144   5.958   3.578  0.2619  0.0462 -0.1621
 7758TIP3    H123238   5.091   5.961   3.498  1.6310  0.6157 -1.0771
 7758TIP3    H223239   5.125   6.041   3.622 -0.2794 -0.1463 -0.0226
 7759TIP3   OH223240   1.085   0.280   5.222 -0.1755  0.0014 -0.3580
 7759TIP3    H123241   1.160   0.335   5.246  1.3830 -2.0252 -0.3439
 7759TIP3    H223242   1.062   0.309   5.134  0.7520  0.5571 -0.4374
 7760TIP3   OH223243   1.000   3.527   4.556 -0.1916  0.4166 -0.6939
 7760TIP3    H123244   0.987   3.620   4.576  0.9117  0.9368 -2.1707
 7760TIP3    H223245   1.035   3.527   4.467  0.1689 -1.4091 -0.5873
 7761TIP3   OH223246   2.437   0.386   4.009 -0.7254  0.1747 -0.7348
 7761TIP3    H123247   2.414   0.336   3.931  0.1152  0.1836 -0.9983
 7761TIP3    H223248   2.523   0.353   4.035 -0.1174  1.5001 -0.9563
 7762TIP3   OH223249   4.646   1.009   4.716 -0.5985 -0.1475 -0.0116
 7762TIP3    H123250   4.660   0.915   4.710  0.2770  0.0716 -3.5173
 7762TIP3    H223251   4.734   1.047   4.711 -0.9501  0.9049  1.1792
 7763TIP3   OH223252   3.550   5.768   3.002  0.0774 -0.4145 -0.1381
 7763TIP3    H123253   3.501   5.848   3.019  0.0250 -0.6512  0.8714
 7763TIP3    H223254   3.521   5.707   3.069  0.4804 -1.1243 -0.5941
 7764TIP3   OH223255   0.213   3.218   5.729 -0.5455  0.1071  0.1412
 7764TIP3    H123256   0.205   3.211   5.824 -0.2551 -0.4690  0.1250
 7764TIP3    H223257   0.221   3.127   5.698 -3.4424  0.0317 -0.6896
 7765TIP3   OH223258   0.946   2.390   0.570 -0.2413 -0.0133  0.2065
 7765TIP3    H123259   0.936   2.482   0.546  1.2512 -0.0167 -0.5769
 7765TIP3    H223260   1.021   2.389   0.630 -0.0932 -0.7490  0.0237
 7766TIP3   OH223261   4.377   5.857   5.297 -0.0420 -0.0492  0.0485
 7766TIP3    H123262   4.418   5.941   5.278  1.4636 -0.1160  2.5234
 7766TIP3    H223263   4.304   5.879   5.356  2.2510 -0.5583  3.3309
 7767TIP3   OH223264   3.828   3.130   1.720  0.0513 -0.0923 -0.4791
 7767TIP3    H123265   3.750   3.171   1.683 -1.2112 -1.7100  0.2784
 7767TIP3    H223266   3.867   3.081   1.648 -0.1543 -0.0271 -0.6340
 7768TIP3   OH223267   6.721   3.806   2.430  0.5865 -0.2108 -0.7145
 7768TIP3    H123268   6.756   3.719   2.414 -0.9215 -0.8703 -0.6432
 7768TIP3    H223269   6.797   3.864   2.433  1.5361 -1.3939 -1.6190
 7769TIP3   OH223270   4.609   6.204   0.372 -1.2527 -0.6779 -0.1011
 7769TIP3    H123271   4.598   6.193   0.466 -0.2539 -1.0395 -0.0134
 7769TIP3    H223272   4.594   6.117   0.335  1.1172 -1.2158  0.0326
 7770TIP3   OH223273   7.050   1.522   4.472  0.3354  0.3742  0.3668
 7770TIP3    H123274   7.072   1.614   4.484  2.6579 -0.1083  0.4100
 7770TIP3    H223275   7.069   1.482   4.557 -0.4054 -0.1927  0.2726
 7771TIP3   OH223276   1.793   4.407   2.438 -0.2233  0.0601 -0.4312
 7771TIP3    H123277   1.755   4.489   2.406 -2.2143 -1.2133 -1.5350
 7771TIP3    H223278   1.803   4.352   2.360  0.0418 -1.1375  0.4088
 7772TIP3   OH223279   5.268   4.241   4.135  0.2245  0.1566  0.8434
 7772TIP3    H123280   5.227   4.293   4.204 -0.7040  0.8489 -0.1931
 7772TIP3    H223281   5.241   4.283   4.053  2.1744 -0.0131  0.0717
 7773TIP3   OH223282   1.059   5.630   1.386  0.6022  0.5950 -0.4641
 7773TIP3    H123283   1.044   5.538   1.408 -0.0590  0.9050  0.4142
 7773TIP3    H223284   1.125   5.659   1.449  0.1428  0.9664 -0.1526
 7774TIP3   OH223285   4.675   4.663   3.109 -0.0732  0.5843  0.2240
 7774TIP3    H123286   4.609   4.733   3.111  1.3801  2.1046 -1.1379
 7774TIP3    H223287   4.634   4.593   3.059 -0.8988  1.2317 -0.0394
 7775TIP3   OH223288   4.660   1.915   3.609 -0.5595  0.4387  0.0593
 7775TIP3    H123289   4.710   1.854   3.662 -0.5616  1.0601  0.7984
 7775TIP3    H223290   4.572   1.915   3.648 -0.5782  0.8514  0.0225
 7776TIP3   OH223291   2.131   1.189   4.026  0.5954  0.1116 -0.4125
 7776TIP3    H123292   2.152   1.127   4.096 -0.6018  0.0018 -0.1334
 7776TIP3    H223293   2.209   1.243   4.018  1.4415 -1.0466 -0.2529
 7777TIP3   OH223294   3.664   0.084   4.460 -0.0619 -0.1318 -0.6278
 7777TIP3    H123295   3.682   0.164   4.508  0.0915 -0.7420  0.3683
 7777TIP3    H223296   3.668   0.109   4.367 -0.8386  1.1726 -0.3295
 7778TIP3   OH223297   1.700   5.126   4.848  0.2194 -0.2353  0.6430
 7778TIP3    H123298   1.620   5.165   4.884  0.0365  0.0665 -0.0873
 7778TIP3    H223299   1.746   5.199   4.807  0.4933 -0.5547  0.3796
 7779TIP3   OH223300   4.077   0.250   3.068 -0.2252  0.5316  0.1665
 7779TIP3    H123301   4.134   0.306   3.121  0.3213 -0.9297  1.1787
 7779TIP3    H223302   4.111   0.257   2.979 -0.0093  1.5889  0.3259
 7780TIP3   OH223303   2.270   1.541   0.728 -0.2369 -0.1365 -0.1197
 7780TIP3    H123304   2.302   1.500   0.809  0.0703  1.5009  0.6262
 7780TIP3    H223305   2.214   1.613   0.758 -0.7088  0.0474 -1.3830
 7781TIP3   OH223306   2.186   0.537   3.668  0.1921 -0.1874  0.1704
 7781TIP3    H123307   2.260   0.575   3.715  1.6572 -0.5708 -1.6781
 7781TIP3    H223308   2.150   0.609   3.616  1.1168 -0.5771 -1.0842
 7782TIP3   OH223309   6.637   4.679   3.133  0.3808  0.3577 -0.6629
 7782TIP3    H123310   6.646   4.758   3.081 -0.9870  0.6490 -0.4928
 7782TIP3    H223311   6.624   4.710   3.223  2.2145 -0.1296 -0.1866
 7783TIP3   OH223312   1.402   1.339   4.625  0.4956  0.4614  0.4791
 7783TIP3    H123313   1.324   1.287   4.611  0.1860  0.9924  0.1736
 7783TIP3    H223314   1.472   1.290   4.583 -0.2529  1.5639 -2.2626
 7784TIP3   OH223315   0.678   2.447   0.217  0.0146  0.1199 -0.0475
 7784TIP3    H123316   0.627   2.526   0.234 -1.1318 -0.4290 -0.7789
 7784TIP3    H223317   0.618   2.375   0.234 -0.0370 -0.5267 -2.5302
 7785TIP3   OH223318   6.601   1.982   3.919  0.6329  0.0019  0.1248
 7785TIP3    H123319   6.673   1.957   3.861  1.6917 -0.9403  1.7816
 7785TIP3    H223320   6.522   1.959   3.871  1.4720 -0.5248 -1.0320
 7786TIP3   OH223321   3.508   3.456   4.819  0.3862  0.3519 -0.2132
 7786TIP3    H123322   3.596   3.427   4.845  0.5799  0.8396 -0.3146
 7786TIP3    H223323   3.522   3.506   4.738 -0.0868 -0.2780 -0.6917
 7787TIP3   OH223324   0.223   3.565   2.051  0.4450  0.2019  0.2000
 7787TIP3    H123325   0.201   3.515   2.130 -1.6796 -0.0919 -0.5193
 7787TIP3    H223326   0.262   3.646   2.084 -1.9791  0.8626  1.6926
 7788TIP3   OH223327   6.669   4.804   4.321 -1.1305 -0.2905 -0.3460
 7788TIP3    H123328   6.627   4.884   4.287  0.0797  0.1463 -0.8690
 7788TIP3    H223329   6.663   4.742   4.249  0.9102  0.4460 -1.2330
 7789TIP3   OH223330   1.345   5.636   3.917 -0.2444  0.2194 -0.4557
 7789TIP3    H123331   1.396   5.717   3.910 -0.7685  0.7208  1.0435
 7789TIP3    H223332   1.283   5.653   3.988 -0.5275 -1.4161 -0.2680
 7790TIP3   OH223333   5.843   3.168   1.971  0.2732 -0.5092  0.0016
 7790TIP3    H123334   5.923   3.172   2.023 -1.1949  0.1318  2.3714
 7790TIP3    H223335   5.797   3.091   2.003 -1.8087  1.2709  1.5331
 7791TIP3   OH223336  -0.025   0.126   4.262  0.5938 -0.5109 -0.3239
 7791TIP3    H123337   0.048   0.079   4.302  1.6672  1.8728  0.7491
 7791TIP3    H223338   0.011   0.212   4.241 -1.5692  0.2784 -1.0327
 7792TIP3   OH223339   6.208   3.932   0.352 -0.1816  0.0075  0.0220
 7792TIP3    H123340   6.187   3.885   0.271 -0.4774 -1.6780  1.0251
 7792TIP3    H223341   6.301   3.955   0.343  0.5757 -2.5973  0.2870
 7793TIP3   OH223342   5.862   1.666   2.844  0.3268 -0.0789 -0.0660
 7793TIP3    H123343   5.842   1.744   2.895  0.3361 -1.1045  1.5631
 7793TIP3    H223344   5.887   1.600   2.908  0.2599 -1.4613 -1.3885
 7794TIP3   OH223345   2.806   6.550   5.030  0.2824  0.5360  0.4180
 7794TIP3    H123346   2.753   6.590   4.961  0.5649 -0.9861 -0.7179
 7794TIP3    H223347   2.783   6.457   5.028  1.2835  0.2407  1.4781
 7795TIP3   OH223348   5.570   5.317   0.536  0.1363 -0.9129  0.5061
 7795TIP3    H123349   5.536   5.344   0.451  0.7289 -0.6016  0.3624
 7795TIP3    H223350   5.492   5.307   0.591 -0.1486  0.4866  0.3850
 7796TIP3   OH223351   6.000   1.741   3.633 -0.3472 -0.0085 -0.1490
 7796TIP3    H123352   5.996   1.817   3.575 -0.9682  2.0003  2.3251
 7796TIP3    H223353   6.092   1.716   3.633 -0.4024 -0.4531 -2.3422
 7797TIP3   OH223354   6.198   0.227   5.373 -0.0458  0.3803 -0.7396
 7797TIP3    H123355   6.192   0.259   5.463 -1.7658  0.3821 -0.8218
 7797TIP3    H223356   6.120   0.262   5.330 -2.1973 -3.7776 -0.8268
 7798TIP3   OH223357   0.188   6.556   3.519 -0.6020  0.5658  0.1237
 7798TIP3    H123358   0.249   6.483   3.515  1.3925  2.1869 -1.3631
 7798TIP3    H223359   0.214   6.604   3.598 -0.4122  0.8630 -0.1160
 7799TIP3   OH223360   1.560   1.773   5.016 -0.0178 -0.1526 -0.1612
 7799TIP3    H123361   1.475   1.733   4.995 -1.4491  2.3494  0.3940
 7799TIP3    H223362   1.557   1.786   5.111  1.2601 -0.5644 -0.0569
 7800TIP3   OH223363   5.535   6.153   4.459 -0.6536 -0.1441 -0.0107
 7800TIP3    H123364   5.565   6.192   4.541  2.0054 -0.7379 -0.6027
 7800TIP3    H223365   5.505   6.227   4.406  0.8718  0.7062  0.2445
 7801TIP3   OH223366   2.003   6.746   0.326 -0.7349 -0.0314 -0.0404
 7801TIP3    H123367   1.995   6.652   0.310 -1.6467  0.1624 -0.7936
 7801TIP3    H223368   2.008   6.753   0.422 -3.7346 -0.6795  0.2629
 7802TIP3   OH223369   0.531   1.964   1.277 -0.4285  0.6721 -0.1925
 7802TIP3    H123370   0.469   1.996   1.342  0.6150  1.4555  0.4560
 7802TIP3    H223371   0.490   1.886   1.240 -2.0767  1.5237 -0.2410
 7803TIP3   OH223372   3.206   6.804   3.087 -0.2449  0.4885  0.1483
 7803TIP3    H123373   3.174   6.714   3.088  0.3979  0.2540  0.8678
 7803TIP3    H223374   3.173   6.840   3.005 -1.3274 -0.0994  0.3013
 7804TIP3   OH223375   7.052   2.226   2.680 -0.5447  0.0205  0.0058
 7804TIP3    H123376   6.977   2.176   2.648 -0.8179  0.1937  0.3578
 7804TIP3    H223377   7.022   2.261   2.764  0.0448 -0.1686  0.2969
 7805TIP3   OH223378   6.810   2.973   3.282  0.7022 -0.4243  0.1618
 7805TIP3    H123379   6.839   3.058   3.248 -1.8411  0.5600  0.2340
 7805TIP3    H223380   6.818   2.981   3.377  2.0781 -0.9488  0.1171
 7806TIP3   OH223381   2.703   5.148   2.625  0.0187 -0.7266  0.1460
 7806TIP3    H123382   2.615   5.133   2.659  0.1134  0.0307  0.7675
 7806TIP3    H223383   2.701   5.238   2.592  1.2361  0.2707  2.5356
 7807TIP3   OH223384   0.445   1.527   3.259  0.1477 -0.1005 -0.0571
 7807TIP3    H123385   0.386   1.453   3.274 -0.4158  0.4153  0.3490
 7807TIP3    H223386   0.458   1.566   3.345 -0.2058  0.7364 -0.3646
 7808TIP3   OH223387   0.992   0.111   0.308 -0.2303  0.0179 -0.2686
 7808TIP3    H123388   0.991   0.172   0.235 -2.7412 -0.9436 -1.1524
 7808TIP3    H223389   0.963   0.028   0.270  3.4238 -1.9594  0.7900
 7809TIP3   OH223390   2.124   3.347   2.413 -0.1233 -0.0836 -0.3711
 7809TIP3    H123391   2.119   3.261   2.455  1.0685 -0.2057 -0.4418
 7809TIP3    H223392   2.172   3.331   2.331 -2.8312  0.0536 -2.1181
 7810TIP3   OH223393   6.101   4.030   4.767 -0.1245 -0.0156 -0.0662
 7810TIP3    H123394   6.045   4.106   4.776 -0.0815  0.2603 -1.8202
 7810TIP3    H223395   6.141   4.019   4.854 -0.9270  1.2990  0.4971
 7811TIP3   OH223396   0.604   5.984   2.912  0.8939 -0.0006 -0.0455
 7811TIP3    H123397   0.648   5.909   2.953  0.3803 -0.2707  0.0173
 7811TIP3    H223398   0.517   5.952   2.890  0.5376  0.6956  0.3299
 7812TIP3   OH223399   3.871   4.744   5.710  0.3695 -0.4783  0.1766
 7812TIP3    H123400   3.851   4.741   5.804 -0.9759  1.0638 -0.0134
 7812TIP3    H223401   3.939   4.811   5.702 -1.6051  1.6118 -0.1874
 7813TIP3   OH223402   4.649   1.336   3.939 -0.1577  0.2825  0.0963
 7813TIP3    H123403   4.621   1.406   3.881 -0.7249 -0.0268 -0.0200
 7813TIP3    H223404   4.573   1.277   3.942 -0.0781  0.2128  1.0135
 7814TIP3   OH223405   6.627   2.213   5.788 -0.0492 -0.0209 -0.0701
 7814TIP3    H123406   6.710   2.174   5.817 -0.3226 -0.7878 -0.2945
 7814TIP3    H223407   6.604   2.165   5.709 -0.5124  0.4587 -0.2367
 7815TIP3   OH223408   6.646   1.381   1.169  0.1389  0.1046  0.7542
 7815TIP3    H123409   6.696   1.453   1.130 -0.4954  0.5613  0.7637
 7815TIP3    H223410   6.574   1.367   1.108  0.3583 -0.6528  0.6601
 7816TIP3   OH223411   0.570   6.150   0.981  0.1202 -0.4364 -0.4158
 7816TIP3    H123412   0.662   6.131   0.963  0.0509  0.1393 -1.4786
 7816TIP3    H223413   0.526   6.139   0.896 -0.9575 -1.5588  0.2503
 7817TIP3   OH223414   1.030   5.533   5.437  0.3017 -0.1151  0.7330
 7817TIP3    H123415   1.026   5.449   5.390  1.4401 -0.3109  0.9479
 7817TIP3    H223416   0.941   5.567   5.434  0.4225  0.2451 -2.2359
 7818TIP3   OH223417   0.669   5.149   2.646  0.2939 -0.2792 -0.7846
 7818TIP3    H123418   0.681   5.138   2.552 -3.1327 -0.7516 -1.2757
 7818TIP3    H223419   0.619   5.072   2.674  0.6327  0.1796  1.3183
 7819TIP3   OH223420   2.855   0.716   0.418 -0.1408  0.6310 -0.7763
 7819TIP3    H123421   2.872   0.808   0.395  0.2525  0.8841  0.4868
 7819TIP3    H223422   2.879   0.709   0.510 -2.2118 -0.2089 -0.2396
 7820TIP3   OH223423   4.730   4.416   4.989  0.5976  0.6679  0.3903
 7820TIP3    H123424   4.646   4.440   5.029 -0.2219 -2.0994  0.5171
 7820TIP3    H223425   4.716   4.425   4.895  0.1273  0.1108  0.4075
 7821TIP3   OH223426   6.151   1.893   2.396 -0.0550 -0.4634  0.3729
 7821TIP3    H123427   6.155   1.803   2.427 -0.2987 -0.3458  0.7471
 7821TIP3    H223428   6.060   1.905   2.368 -0.3757  0.0884  1.6088
 7822TIP3   OH223429   3.567   6.635   0.405  0.6420  0.1993  0.4029
 7822TIP3    H123430   3.475   6.621   0.430 -1.0100  3.8534 -2.5327
 7822TIP3    H223431   3.599   6.700   0.467  0.9551 -0.3524  0.8284
 7823TIP3   OH223432   4.720   2.970   1.371 -0.1421  0.5120  0.2571
 7823TIP3    H123433   4.651   2.909   1.344  1.4044 -0.7219 -1.1098
 7823TIP3    H223434   4.714   3.042   1.309 -0.6868  0.7953  0.6307
 7824TIP3   OH223435   1.461   5.210   0.051  0.4603 -0.9000  0.5221
 7824TIP3    H123436   1.384   5.153   0.046  1.0993 -1.6513 -1.9743
 7824TIP3    H223437   1.524   5.161   0.104 -0.5275 -0.4829  2.1823
 7825TIP3   OH223438   5.265   6.444   3.649 -0.1413  0.3464 -0.1652
 7825TIP3    H123439   5.230   6.488   3.572 -1.2917 -0.5096 -0.1543
 7825TIP3    H223440   5.260   6.351   3.628 -0.4859  0.1004  0.9283
 7826TIP3   OH223441   4.076   5.018   2.386 -0.6109 -0.4798 -0.5058
 7826TIP3    H123442   4.155   5.022   2.440 -0.5992 -1.7221 -0.4065
 7826TIP3    H223443   4.043   4.929   2.399 -0.5820 -0.8374 -2.5551
 7827TIP3   OH223444   3.114   0.209   0.686  0.2611  0.4853  0.0548
 7827TIP3    H123445   3.199   0.168   0.699 -0.4014 -1.0102 -0.1224
 7827TIP3    H223446   3.087   0.182   0.598 -0.9296 -0.0653  0.5769
 7828TIP3   OH223447   0.266   2.958   1.632  0.1116  0.2055  0.0278
 7828TIP3    H123448   0.184   2.948   1.583  0.5811 -1.7842 -0.4772
 7828TIP3    H223449   0.297   2.868   1.644  1.5953  0.8421  1.2977
 7829TIP3   OH223450   0.419   3.897   0.541 -0.8479 -0.2016 -0.2426
 7829TIP3    H123451   0.363   3.973   0.558  0.2983  0.4040  1.0476
 7829TIP3    H223452   0.373   3.823   0.581 -1.5674 -0.0533 -0.7795
 7830TIP3   OH223453   4.775   3.732   4.742  0.5211 -0.1089  0.3743
 7830TIP3    H123454   4.704   3.793   4.765  1.2447  1.1067 -0.5097
 7830TIP3    H223455   4.731   3.648   4.728 -0.6759  0.4938  0.3842
 7831TIP3   OH223456   1.785   5.992   3.199 -0.2595  0.3629 -0.3064
 7831TIP3    H123457   1.786   5.951   3.285 -2.4011  0.9506  0.0462
 7831TIP3    H223458   1.693   6.010   3.181  0.1152  0.2028 -2.7722
 7832TIP3   OH223459   5.120   5.920   4.126  0.5645 -0.0363  0.4640
 7832TIP3    H123460   5.060   5.890   4.194  2.3110 -1.6557  1.3741
 7832TIP3    H223461   5.121   6.015   4.135 -2.9094  0.2304 -0.5531
 7833TIP3   OH223462   5.891   5.428   5.554 -0.1454  0.2354 -0.1001
 7833TIP3    H123463   5.797   5.446   5.559 -0.0118  0.9059  0.1577
 7833TIP3    H223464   5.915   5.400   5.642  0.2219  1.8000  0.3271
 7834TIP3   OH223465   1.593   2.475   2.566 -0.2724 -0.5179  0.1853
 7834TIP3    H123466   1.624   2.493   2.478 -0.1396  0.4992  0.4230
 7834TIP3    H223467   1.666   2.430   2.609  0.6775  1.3020  0.5469
 7835TIP3   OH223468   5.037   6.074   0.160 -0.0829 -0.4480  0.2054
 7835TIP3    H123469   5.079   6.031   0.234  1.7053 -0.9051 -1.0058
 7835TIP3    H223470   4.971   6.012   0.129 -0.6528 -0.3649  1.2147
 7836TIP3   OH223471   5.791   5.674   4.741  0.5578 -0.1269  0.3802
 7836TIP3    H123472   5.708   5.631   4.765  0.2205 -0.2421 -0.9337
 7836TIP3    H223473   5.845   5.603   4.707 -0.1251  0.4628 -2.1401
 7837TIP3   OH223474   6.988   4.372   5.449 -0.3328 -0.1464  0.2821
 7837TIP3    H123475   7.081   4.358   5.460 -0.5350 -1.3382  0.5703
 7837TIP3    H223476   6.978   4.467   5.449  0.7617 -0.0161  1.1665
 7838TIP3   OH223477   2.909   6.265   1.970  0.1809 -0.3588  0.9147
 7838TIP3    H123478   2.954   6.309   2.041  0.5715 -0.3753  0.6785
 7838TIP3    H223479   2.946   6.177   1.968 -0.1696 -0.5116  0.9980
 7839TIP3   OH223480   1.584   1.698   5.635 -0.2665 -0.2020  0.4793
 7839TIP3    H123481   1.528   1.624   5.611 -1.6963  0.6285  1.0923
 7839TIP3    H223482   1.527   1.775   5.624  1.0517  0.7757  0.2433
 7840TIP3   OH223483   5.402   4.945   3.534 -0.2291  0.1515 -0.1500
 7840TIP3    H123484   5.494   4.930   3.510 -0.0320  0.9046  0.0883
 7840TIP3    H223485   5.407   5.010   3.604 -0.8433 -1.3571  1.3531
 7841TIP3   OH223486   2.432   0.890   4.512 -0.2659  0.1300 -0.3049
 7841TIP3    H123487   2.523   0.910   4.491 -0.5251  0.1819 -1.4410
 7841TIP3    H223488   2.432   0.796   4.531 -0.1380 -0.1103 -1.3796
 7842TIP3   OH223489   5.898   6.106   4.324  0.0205 -0.1352 -0.1305
 7842TIP3    H123490   5.946   6.058   4.256 -2.7780 -2.0881 -0.9100
 7842TIP3    H223491   5.882   6.192   4.286 -0.3994 -0.7703 -1.4481
 7843TIP3   OH223492   3.092   5.940   0.233  0.1149 -0.3130 -0.2572
 7843TIP3    H123493   3.094   5.851   0.266 -0.9769 -0.1728  0.2182
 7843TIP3    H223494   3.096   5.995   0.311  0.4847  0.0509 -0.5279
 7844TIP3   OH223495   2.150   0.896   0.356 -0.3381  0.8199  0.1009
 7844TIP3    H123496   2.070   0.846   0.337  0.7295 -0.8511 -0.2082
 7844TIP3    H223497   2.208   0.876   0.283  0.0626  2.7886 -0.1805
 7845TIP3   OH223498   3.073   4.219   1.621  0.1555 -0.6345 -0.5232
 7845TIP3    H123499   2.997   4.264   1.586 -0.3781 -0.5194  0.7382
 7845TIP3    H223500   3.042   4.130   1.639  0.4706 -0.7495 -0.5472
 7846TIP3   OH223501   4.608   0.217   3.905 -0.5137  0.0005  0.1759
 7846TIP3    H123502   4.565   0.277   3.843 -2.3177  0.0328  1.3900
 7846TIP3    H223503   4.695   0.203   3.867 -1.0697  1.0652 -1.6609
 7847TIP3   OH223504   2.106   1.269   5.709 -0.2238 -0.4753 -0.6342
 7847TIP3    H123505   2.032   1.219   5.742 -0.9669 -0.0388 -1.5931
 7847TIP3    H223506   2.076   1.303   5.624  1.5799 -1.5162 -1.7674
 7848TIP3   OH223507   2.792   3.696   4.178  0.0317 -0.1899  0.8839
 7848TIP3    H123508   2.703   3.662   4.165 -0.0071 -0.5672  1.9708
 7848TIP3    H223509   2.848   3.618   4.177  0.6651  0.1893 -1.7932
 7849TIP3   OH223510  -0.023   1.067   3.555 -0.0342 -0.0475 -0.4934
 7849TIP3    H123511   0.050   1.037   3.611 -0.1069 -0.9733 -0.8692
 7849TIP3    H223512  -0.017   1.162   3.556  0.1273 -0.0480  0.8870
 7850TIP3   OH223513   5.142   5.517   0.875  0.4629  0.7105 -0.0012
 7850TIP3    H123514   5.227   5.548   0.908  0.8945 -1.1645  0.7900
 7850TIP3    H223515   5.079   5.546   0.941  0.4341  2.2142 -0.6498
 7851TIP3   OH223516   3.710   4.265   5.518 -0.0548  0.7260 -0.4061
 7851TIP3    H123517   3.768   4.189   5.506 -0.2364  0.5796 -0.3738
 7851TIP3    H223518   3.768   4.336   5.543 -0.0373  0.2672  0.9126
 7852TIP3   OH223519   2.984   0.333   1.754 -0.0432 -0.3743 -0.0324
 7852TIP3    H123520   2.939   0.250   1.738 -0.8230 -0.1911  1.1200
 7852TIP3    H223521   2.951   0.391   1.686 -2.0732 -0.0729  1.1374
 7853TIP3   OH223522   3.728   4.178   1.259  0.4782  0.0795 -0.4296
 7853TIP3    H123523   3.762   4.261   1.225  0.2694 -0.6461 -2.5510
 7853TIP3    H223524   3.641   4.200   1.293  0.6177  0.8083 -0.5220
 7854TIP3   OH223525   0.397   4.245   3.697  0.6059  0.5391  0.8447
 7854TIP3    H123526   0.435   4.184   3.634 -0.5345  1.2016 -0.5446
 7854TIP3    H223527   0.415   4.206   3.783  0.7966 -1.2095  0.0407
 7855TIP3   OH223528   1.561   5.390   4.851  0.2876  0.4286 -0.2175
 7855TIP3    H123529   1.648   5.392   4.810  0.9534  1.3269  1.1426
 7855TIP3    H223530   1.544   5.482   4.875  0.3937 -0.1458  2.3451
 7856TIP3   OH223531   5.045   1.962   3.625  0.5522  0.2160 -0.8372
 7856TIP3    H123532   5.055   1.966   3.720  0.2521  1.6860 -0.8424
 7856TIP3    H223533   5.131   1.984   3.590  0.3830  0.8528 -0.8821
 7857TIP3   OH223534   4.696   3.103   1.600  0.1939  0.0163 -0.7728
 7857TIP3    H123535   4.697   3.070   1.510  0.5862  0.1316 -0.8147
 7857TIP3    H223536   4.724   3.029   1.653 -1.9860 -0.6958 -0.4990
 7858TIP3   OH223537   1.314   4.660   2.702  0.3053  0.0615 -0.0399
 7858TIP3    H123538   1.284   4.574   2.731  0.7780 -0.6174 -1.4841
 7858TIP3    H223539   1.265   4.676   2.621  2.4848 -0.2904 -1.5076
 7859TIP3   OH223540   2.213   3.840   3.338  0.6604  0.5868 -0.5266
 7859TIP3    H123541   2.251   3.803   3.258  0.7351  0.7445 -0.5635
 7859TIP3    H223542   2.125   3.803   3.341  2.0785 -3.2097  1.7522
 7860TIP3   OH223543   5.457   0.858   3.488 -0.3428 -0.5265 -0.0211
 7860TIP3    H123544   5.544   0.855   3.529 -0.5047  0.7794  0.4669
 7860TIP3    H223545   5.407   0.918   3.543 -0.8470  0.5642 -1.5977
 7861TIP3   OH223546   3.427   3.490   1.483  0.0191  0.0665 -0.0768
 7861TIP3    H123547   3.360   3.443   1.533  1.8794 -1.2339  1.3373
 7861TIP3    H223548   3.451   3.565   1.539  0.1330  0.2176 -0.3249
 7862TIP3   OH223549   0.889   2.484   3.889  0.4420 -0.1112  0.3227
 7862TIP3    H123550   0.919   2.575   3.891  2.6989 -0.7928  0.3091
 7862TIP3    H223551   0.796   2.489   3.911  0.6487  2.1377  0.9502
 7863TIP3   OH223552   2.310   5.411   4.210  0.6625 -0.0571  0.0766
 7863TIP3    H123553   2.393   5.422   4.255  0.6829 -0.7403  0.2179
 7863TIP3    H223554   2.244   5.414   4.280  0.4805  1.4450 -0.1367
 7864TIP3   OH223555   6.257   1.651   3.598 -0.0388 -0.3947  0.2833
 7864TIP3    H123556   6.306   1.724   3.638 -0.0786  1.1192 -2.2372
 7864TIP3    H223557   6.324   1.586   3.577 -0.0411 -1.3575  2.8608
 7865TIP3   OH223558   4.537   5.007   4.868  0.4080 -0.0127 -0.0614
 7865TIP3    H123559   4.506   4.917   4.880  0.5126  0.1394  1.7599
 7865TIP3    H223560   4.458   5.061   4.879  0.7190  0.2083  1.3901
 7866TIP3   OH223561   5.948   2.964   4.901 -0.0275  0.2832 -0.6214
 7866TIP3    H123562   6.005   2.894   4.932 -1.4182 -0.1695  1.0310
 7866TIP3    H223563   5.912   2.931   4.819 -0.4539 -0.8420  0.0012
 7867TIP3   OH223564   5.559   3.002   5.173 -0.2768 -0.1626  0.0536
 7867TIP3    H123565   5.509   3.046   5.104 -0.4475 -1.6575 -0.8149
 7867TIP3    H223566   5.506   3.014   5.252  0.3256  2.2929  0.1779
 7868TIP3   OH223567   4.049   2.708   1.158 -0.2382  0.9652  0.1650
 7868TIP3    H123568   3.957   2.687   1.149 -0.1262 -0.3860  1.6530
 7868TIP3    H223569   4.085   2.697   1.070 -1.3048  0.5600 -0.2351
 7869TIP3   OH223570   1.085   0.756   3.771  0.0308 -0.1602  0.1204
 7869TIP3    H123571   1.128   0.840   3.784 -0.0398  0.1729 -1.6084
 7869TIP3    H223572   1.141   0.708   3.711 -1.1569 -0.3606 -0.8707
 7870TIP3   OH223573   0.724   4.669   5.836  0.0299 -0.1554  0.0585
 7870TIP3    H123574   0.732   4.625   5.752 -0.5279 -0.7437  0.3014
 7870TIP3    H223575   0.661   4.739   5.821  0.4276  0.1629 -0.1666
 7871TIP3   OH223576   2.625   2.013   5.136 -0.6237  0.1861 -0.3255
 7871TIP3    H123577   2.633   1.924   5.103  0.7931  0.3224 -0.4371
 7871TIP3    H223578   2.579   2.061   5.068  0.2222 -0.0588 -1.0870
 7872TIP3   OH223579   4.870   0.896   3.312  0.6166  0.5068  0.0101
 7872TIP3    H123580   4.956   0.863   3.336  0.5872 -0.1697 -0.7352
 7872TIP3    H223581   4.832   0.928   3.394 -0.0570 -2.9978  1.2460
 7873TIP3   OH223582   5.066   0.011   5.173  0.2251 -1.1119 -0.0583
 7873TIP3    H123583   5.148   0.048   5.204  0.3865 -2.1021  0.7540
 7873TIP3    H223584   5.046   0.060   5.094  0.4530  0.6309  0.9212
 7874TIP3   OH223585   1.380   1.086   0.698  0.4954 -0.0625 -0.1105
 7874TIP3    H123586   1.438   1.132   0.636  0.0497  0.7124  0.0352
 7874TIP3    H223587   1.413   0.997   0.699  2.8506  0.7246  1.3163
 7875TIP3   OH223588   6.968   1.301   5.646  0.0510 -0.3765 -0.0359
 7875TIP3    H123589   6.960   1.210   5.673  3.8493 -0.6224  0.7847
 7875TIP3    H223590   7.005   1.345   5.722  1.8018  1.0276 -1.6174
 7876TIP3   OH223591   5.955   3.750   3.648 -0.4543  0.2060  0.3669
 7876TIP3    H123592   5.950   3.664   3.691 -0.9004  0.9757  1.9452
 7876TIP3    H223593   5.999   3.806   3.712 -0.5482  1.2633 -0.4700
 7877TIP3   OH223594   6.876   3.063   3.518 -0.6425 -0.3032  0.0342
 7877TIP3    H123595   6.957   3.110   3.498  0.2473 -2.3186 -1.5397
 7877TIP3    H223596   6.880   3.048   3.612 -0.1130  1.2071  0.2798
 7878TIP3   OH223597   4.337   6.447   5.210 -0.6847 -0.3001  0.1746
 7878TIP3    H123598   4.276   6.399   5.266 -1.8772  0.4843 -0.4128
 7878TIP3    H223599   4.300   6.536   5.205  0.0303 -0.0455 -0.9094
 7879TIP3   OH223600   4.050   1.211   4.201  0.5314 -0.1562 -0.2126
 7879TIP3    H123601   4.088   1.133   4.242  1.8465 -0.4156 -1.7946
 7879TIP3    H223602   4.004   1.177   4.124 -0.7846  0.4326  0.2961
 7880TIP3   OH223603   2.898   4.249   5.268 -0.0569 -0.2278 -0.6893
 7880TIP3    H123604   2.853   4.317   5.217 -0.7027  1.3011  1.7637
 7880TIP3    H223605   2.842   4.235   5.345  2.4536  0.0393  1.3212
 7881TIP3   OH223606   7.137   1.778   4.527 -0.2582  0.2288 -0.3239
 7881TIP3    H123607   7.186   1.823   4.458  0.2194  2.1223  1.1740
 7881TIP3    H223608   7.096   1.848   4.577 -1.6016 -1.1622  0.6172
 7882TIP3   OH223609   1.722   2.624   5.059  0.1731 -0.9580  0.1429
 7882TIP3    H123610   1.720   2.537   5.019  1.0821 -0.7710 -0.3182
 7882TIP3    H223611   1.702   2.684   4.988 -0.8060 -0.7997  0.5363
 7883TIP3   OH223612   1.447   1.511   4.127  0.4821 -0.4467  0.5039
 7883TIP3    H123613   1.409   1.439   4.178  1.2922 -0.9183  0.4597
 7883TIP3    H223614   1.412   1.499   4.039 -2.7330  1.6632  1.3191
 7884TIP3   OH223615   3.445   2.404   3.855 -0.3478 -0.1887 -0.1880
 7884TIP3    H123616   3.464   2.444   3.770  0.4764 -2.3820 -1.0936
 7884TIP3    H223617   3.374   2.342   3.837 -0.5713 -0.2591  0.8658
 7885TIP3   OH223618   3.715   6.167   2.835  0.0219 -0.0564  0.2972
 7885TIP3    H123619   3.721   6.117   2.754  0.2602  1.1218 -0.4435
 7885TIP3    H223620   3.649   6.234   2.817 -1.0967 -0.7511  1.6377
 7886TIP3   OH223621   1.986   1.290   0.190 -0.0630  0.0704  0.1354
 7886TIP3    H123622   2.059   1.229   0.183 -0.2528 -0.1861  0.3613
 7886TIP3    H223623   2.011   1.351   0.259 -0.0241  0.0370  0.1504
 7887TIP3   OH223624   4.511   5.874   1.393 -0.5396 -0.8307 -0.4328
 7887TIP3    H123625   4.529   5.967   1.379 -0.7856 -0.6058  0.6271
 7887TIP3    H223626   4.485   5.868   1.485  1.3977 -2.2275  0.1095
 7888TIP3   OH223627   1.293   3.685   4.269  0.3786 -0.1520 -0.0347
 7888TIP3    H123628   1.321   3.718   4.354  0.0440  2.7691 -0.9545
 7888TIP3    H223629   1.244   3.757   4.230  0.8528 -1.2176 -2.8676
 7889TIP3   OH223630   0.806   1.604   4.189  0.1502  0.0833  0.7045
 7889TIP3    H123631   0.806   1.612   4.285  1.2065 -0.3609  0.7597
 7889TIP3    H223632   0.735   1.661   4.160 -0.2879  0.0990  1.7612
 7890TIP3   OH223633   5.278   0.483   5.156  0.0487 -0.3734 -0.0370
 7890TIP3    H123634   5.324   0.531   5.087  1.3680 -0.8782  0.4740
 7890TIP3    H223635   5.307   0.393   5.147 -0.7011 -0.6716  0.4240
 7891TIP3   OH223636   4.266   4.942   1.753 -0.0305  0.4749 -0.5533
 7891TIP3    H123637   4.349   4.901   1.780 -0.7952  0.3092  1.7502
 7891TIP3    H223638   4.264   4.931   1.658  3.2154  1.6819 -0.8840
 7892TIP3   OH223639   0.579   4.612   1.054 -0.1528 -0.1344  0.7772
 7892TIP3    H123640   0.518   4.682   1.032 -3.0779 -2.4300  1.0165
 7892TIP3    H223641   0.609   4.633   1.142 -0.0994  1.3300  0.4441
 7893TIP3   OH223642   4.246   5.222   2.700  0.1490  0.1189  0.2310
 7893TIP3    H123643   4.300   5.301   2.709 -0.2910  0.1727  3.1709
 7893TIP3    H223644   4.309   5.150   2.697  0.4682  0.4058 -0.3957
 7894TIP3   OH223645   4.281   1.862   3.091 -0.0644  0.1316 -0.5730
 7894TIP3    H123646   4.294   1.939   3.147  0.3341 -0.5546  0.2970
 7894TIP3    H223647   4.323   1.790   3.138 -1.9141 -0.9907 -0.5423
 7895TIP3   OH223648   5.791   6.603   3.366  0.3001  0.3528  0.1166
 7895TIP3    H123649   5.810   6.517   3.404 -0.0034  0.9651  1.7200
 7895TIP3    H223650   5.698   6.600   3.345  0.7385 -0.4833 -2.0224
 7896TIP3   OH223651   1.218   0.686   2.916  0.0979  0.1064  0.1446
 7896TIP3    H123652   1.154   0.727   2.858  0.7371  0.0230 -0.6232
 7896TIP3    H223653   1.229   0.598   2.881 -0.2027 -0.2690  0.9491
 7897TIP3   OH223654   1.241   4.205   3.992  0.1790 -0.0620  0.6886
 7897TIP3    H123655   1.260   4.296   3.967 -0.6138  0.4564  1.8741
 7897TIP3    H223656   1.155   4.210   4.035  0.8924 -1.1158  2.2993
 7898TIP3   OH223657   4.727   6.015   3.079  0.1462 -0.5166  0.5057
 7898TIP3    H123658   4.776   6.051   3.153 -0.0084  0.3900  0.1704
 7898TIP3    H223659   4.741   6.076   3.008  1.3734 -2.0493 -0.6493
 7899TIP3   OH223660   1.944   2.563   2.623 -0.1808  0.2452  0.0273
 7899TIP3    H123661   1.981   2.621   2.689  0.0668  1.0219 -0.7718
 7899TIP3    H223662   1.869   2.521   2.666  1.0018 -0.5719  1.3298
 7900TIP3   OH223663   5.731   4.528   0.043 -0.6649 -0.2546 -0.5076
 7900TIP3    H123664   5.814   4.527   0.089  0.2099  0.0059 -2.0215
 7900TIP3    H223665   5.748   4.481  -0.039 -2.5686 -2.0677  0.0384
 7901TIP3   OH223666   0.357   5.225   2.952  0.4770 -0.0256  0.2967
 7901TIP3    H123667   0.389   5.229   2.862 -2.2008  0.7915 -0.7193
 7901TIP3    H223668   0.356   5.316   2.981 -0.5658 -0.0554  0.3911
 7902TIP3   OH223669   5.299   1.939   5.200 -0.0968 -0.1592  0.2469
 7902TIP3    H123670   5.287   1.856   5.247  0.4603 -0.3957 -0.0142
 7902TIP3    H223671   5.220   1.990   5.220 -0.8939 -1.1183 -0.3512
 7903TIP3   OH223672   4.821   4.139   2.064 -0.0404  0.4750 -0.7884
 7903TIP3    H123673   4.726   4.141   2.054 -0.1538  0.9680  0.2112
 7903TIP3    H223674   4.845   4.047   2.058 -0.8549  0.1024  1.0568
 7904TIP3   OH223675   4.689   3.661   4.122  0.1656  0.4771  0.0912
 7904TIP3    H123676   4.782   3.674   4.102  0.2037  1.6717  0.9783
 7904TIP3    H223677   4.688   3.590   4.186  0.3246 -0.6761 -1.1421
 7905TIP3   OH223678   4.483   3.568   3.198 -0.5365  0.0127  0.5787
 7905TIP3    H123679   4.452   3.577   3.108 -1.5351  1.7884  1.0419
 7905TIP3    H223680   4.577   3.586   3.192 -0.8633  1.8617  0.0583
 7906TIP3   OH223681   6.962   5.552   0.569 -0.2223 -0.0387  0.6299
 7906TIP3    H123682   7.026   5.489   0.536  0.1292  0.1971  0.8526
 7906TIP3    H223683   6.966   5.625   0.506  0.4124  0.3893  1.1502
 7907TIP3   OH223684   1.399   6.720   5.474 -0.2651  0.0925  0.6391
 7907TIP3    H123685   1.402   6.688   5.564  1.2197  0.7414  0.8496
 7907TIP3    H223686   1.426   6.645   5.421 -1.0343 -0.2571  0.7183
 7908TIP3   OH223687   3.626   2.778   3.067 -0.1819  0.0816  0.3139
 7908TIP3    H123688   3.562   2.802   3.000 -0.2690  0.0484  0.3850
 7908TIP3    H223689   3.638   2.684   3.056  0.3715  0.2004 -0.1498
 7909TIP3   OH223690   2.068   6.379   2.398 -0.4533 -0.1213  0.0267
 7909TIP3    H123691   2.070   6.474   2.387 -1.3691  0.0457  1.0931
 7909TIP3    H223692   2.158   6.355   2.420 -0.3437  0.5954  0.3848
 7910TIP3   OH223693  -0.008   2.390   4.780 -0.1572 -0.2157 -0.0153
 7910TIP3    H123694   0.040   2.406   4.698 -0.5251  4.1953  0.3557
 7910TIP3    H223695   0.060   2.387   4.847 -0.0421 -0.1692 -0.1286
 7911TIP3   OH223696   5.236   0.184   3.162  0.0345  0.1375 -0.6039
 7911TIP3    H123697   5.184   0.113   3.123  2.9602 -2.5999  0.0996
 7911TIP3    H223698   5.249   0.157   3.253  4.4783 -0.6404 -1.2474
 7912TIP3   OH223699   6.272   4.050   3.580  0.5026  0.2327  0.4354
 7912TIP3    H123700   6.302   3.967   3.619  0.9051  0.3646  0.4128
 7912TIP3    H223701   6.288   4.039   3.486  0.2508  0.2123  0.3943
 7913TIP3   OH223702   6.404   1.076   4.672 -0.0727  0.1555 -0.0718
 7913TIP3    H123703   6.364   1.047   4.590 -1.3768 -2.8706  1.4871
 7913TIP3    H223704   6.331   1.110   4.723 -0.2610 -2.5416  1.6210
 7914TIP3   OH223705   2.167   2.969   0.933 -0.1626 -0.3512  0.3851
 7914TIP3    H123706   2.114   2.950   0.855  0.9056  0.2921 -0.5220
 7914TIP3    H223707   2.166   2.887   0.983 -0.1478 -1.0445 -0.7304
 7915TIP3   OH223708   0.869   5.528   4.106 -0.1793  0.4340 -0.0750
 7915TIP3    H123709   0.801   5.584   4.069 -0.6562 -0.0496  0.0504
 7915TIP3    H223710   0.914   5.492   4.030  0.0121  0.8422 -0.1579
 7916TIP3   OH223711   6.470   1.093   2.683 -0.2541  0.8176 -0.3326
 7916TIP3    H123712   6.444   1.016   2.734 -1.9098  0.9303 -0.9531
 7916TIP3    H223713   6.388   1.135   2.659  0.5371  1.5849 -1.8611
 7917TIP3   OH223714   1.630   1.972   0.292  0.0125 -0.1693 -0.0425
 7917TIP3    H123715   1.681   1.907   0.245 -1.0397 -0.9962 -0.0911
 7917TIP3    H223716   1.628   2.048   0.234 -1.0420 -1.0829 -1.2514
 7918TIP3   OH223717   2.806   2.583   4.696 -0.9590 -0.0068 -0.6053
 7918TIP3    H123718   2.823   2.576   4.790 -0.3469  0.6909 -0.6601
 7918TIP3    H223719   2.797   2.492   4.667  0.4992 -0.3130 -0.1641
 7919TIP3   OH223720   4.607   2.759   3.742 -0.8229 -0.3313 -0.2873
 7919TIP3    H123721   4.626   2.797   3.828 -0.7525 -0.4011 -0.2718
 7919TIP3    H223722   4.585   2.668   3.760  4.0794 -1.8724 -0.7400
 7920TIP3   OH223723   4.843   3.370   0.248  0.0063 -0.8167  0.5361
 7920TIP3    H123724   4.887   3.290   0.276  0.2884 -0.5681  0.8109
 7920TIP3    H223725   4.833   3.360   0.153 -1.3449 -1.8608  0.7451
 7921TIP3   OH223726   4.403   1.534   4.770  0.3439 -0.2396  0.2947
 7921TIP3    H123727   4.436   1.588   4.842  1.5680 -0.0344 -0.3859
 7921TIP3    H223728   4.362   1.596   4.710  0.2918 -0.2724  0.2966
 7922TIP3   OH223729   5.322   2.040   2.512  0.3967  0.5357  0.2627
 7922TIP3    H123730   5.234   2.079   2.507 -0.5445 -1.3883  0.9079
 7922TIP3    H223731   5.307   1.953   2.549  2.5264 -0.0828 -0.2417
 7923TIP3   OH223732   5.474   3.152   1.850 -0.2086  0.7321 -0.3414
 7923TIP3    H123733   5.389   3.180   1.883 -0.7909 -2.7394  1.5584
 7923TIP3    H223734   5.537   3.192   1.911 -0.9720 -1.4578  2.0636
 7924TIP3   OH223735   3.277   0.512   0.111  0.2007 -0.4205 -0.4340
 7924TIP3    H123736   3.358   0.463   0.127 -0.3245 -1.3185 -0.4541
 7924TIP3    H223737   3.221   0.490   0.185 -0.1713 -0.1217 -0.6268
 7925TIP3   OH223738   3.697   1.543   2.273  0.1897  0.2630 -0.0529
 7925TIP3    H123739   3.630   1.477   2.259  0.0628  0.5530 -0.8853
 7925TIP3    H223740   3.670   1.589   2.352  0.0238 -0.3584  0.2557
 7926TIP3   OH223741   2.416   3.143   0.260  0.1397  0.2786 -0.2688
 7926TIP3    H123742   2.412   3.068   0.320 -2.4042  0.5983  0.0708
 7926TIP3    H223743   2.444   3.216   0.315  1.5980 -0.1556 -0.3769
 7927TIP3   OH223744   4.175   2.557   1.371  0.2904  0.4113  0.4291
 7927TIP3    H123745   4.217   2.502   1.304  0.1663 -0.0217  0.7039
 7927TIP3    H223746   4.126   2.622   1.321  0.2378  0.1191  0.0959
 7928TIP3   OH223747   1.173   4.432   1.459 -0.3666  0.0452  0.1983
 7928TIP3    H123748   1.160   4.484   1.380  2.2395 -0.4570 -0.6649
 7928TIP3    H223749   1.136   4.485   1.529 -1.2131  1.2826 -1.1450
 7929TIP3   OH223750   6.593   0.940   1.351  0.5406  0.2681  0.3529
 7929TIP3    H123751   6.636   0.998   1.288 -0.1334 -0.9083 -1.2691
 7929TIP3    H223752   6.521   0.901   1.302 -0.6464  0.0545  2.1805
 7930TIP3   OH223753   5.839   4.535   3.832 -0.0623  0.1474 -0.0356
 7930TIP3    H123754   5.805   4.603   3.890  0.9562  1.6503 -1.1220
 7930TIP3    H223755   5.818   4.453   3.877 -0.9938  1.1707  1.5082
 7931TIP3   OH223756   5.491   0.922   2.589 -0.0022 -0.4550  0.2601
 7931TIP3    H123757   5.562   0.915   2.526 -0.7912  2.7629 -1.1898
 7931TIP3    H223758   5.418   0.874   2.549  0.4616 -1.2516  0.3517
 7932TIP3   OH223759   5.551   3.022   2.663  0.6394  0.3971  0.2786
 7932TIP3    H123760   5.492   3.042   2.735  0.7234  0.2914  0.3761
 7932TIP3    H223761   5.585   2.934   2.683 -0.6988 -0.4104 -0.7717
 7933TIP3   OH223762   0.178   2.080   3.502 -0.1511 -0.6138 -0.7639
 7933TIP3    H123763   0.165   2.033   3.420 -0.0336 -0.3618 -0.9296
 7933TIP3    H223764   0.272   2.096   3.505 -0.1877 -0.4121 -0.6965
 7934TIP3   OH223765   1.167   4.958   0.830 -0.3179  0.1365 -0.1089
 7934TIP3    H123766   1.086   4.957   0.882 -1.8047  3.0395 -2.1379
 7934TIP3    H223767   1.219   5.029   0.868 -0.5036  0.8922 -1.2278
 7935TIP3   OH223768   1.339   6.749   2.343 -0.5466  0.6075 -0.7191
 7935TIP3    H123769   1.379   6.817   2.288 -1.1739  0.1884 -1.7264
 7935TIP3    H223770   1.361   6.667   2.300  2.1203 -0.0828  1.6937
 7936TIP3   OH223771   1.989   1.353   5.487  0.0424  0.7579  0.2325
 7936TIP3    H123772   2.048   1.402   5.430  0.7749  0.4504  0.7042
 7936TIP3    H223773   1.931   1.419   5.524  0.0522  1.0607 -0.2829
 7937TIP3   OH223774   4.626   0.134   5.810 -0.4162  0.1853  0.0426
 7937TIP3    H123775   4.553   0.102   5.757 -0.1179 -0.1983 -0.1407
 7937TIP3    H223776   4.585   0.161   5.893 -0.7244 -0.3404  0.0689
 7938TIP3   OH223777   6.396   5.028   1.017  0.2941  0.8569  0.1217
 7938TIP3    H123778   6.324   4.989   0.968  0.2294  0.4550  0.5339
 7938TIP3    H223779   6.434   5.092   0.956  0.1276  0.4660 -0.4007
 7939TIP3   OH223780   4.367   4.538   3.444 -0.1194 -0.3781 -0.2392
 7939TIP3    H123781   4.386   4.468   3.506 -0.0827  0.2818  0.5133
 7939TIP3    H223782   4.319   4.603   3.496  1.0946  0.8010 -0.5503
 7940TIP3   OH223783   6.324   5.605   2.037 -0.0206 -0.2416  0.0304
 7940TIP3    H123784   6.234   5.577   2.021 -0.1181  0.0030  0.1472
 7940TIP3    H223785   6.330   5.691   1.996  0.5019 -0.7476 -1.0100
 7941TIP3   OH223786   3.684   6.309   1.498  0.3083  1.0456  0.4712
 7941TIP3    H123787   3.657   6.227   1.538  3.3081 -0.3414 -0.0823
 7941TIP3    H223788   3.610   6.335   1.443 -0.6600 -1.3325  0.5555
 7942TIP3   OH223789   3.042   5.725   1.987 -0.3782 -0.5761 -0.1476
 7942TIP3    H123790   3.131   5.739   1.952 -1.1568  2.8333 -1.1193
 7942TIP3    H223791   2.992   5.694   1.911 -0.5184 -0.1211 -0.2454
 7943TIP3   OH223792   0.965   5.172   2.224  0.3955 -0.0425 -0.1424
 7943TIP3    H123793   1.010   5.157   2.307 -0.2398  0.4019  0.2993
 7943TIP3    H223794   0.945   5.266   2.224  1.1644  0.1394 -1.2148
 7944TIP3   OH223795   5.162   0.077   1.756 -0.0196 -0.3218  0.0877
 7944TIP3    H123796   5.153   0.086   1.661 -0.5342  1.1012  0.2536
 7944TIP3    H223797   5.257   0.077   1.771  0.0661 -0.6187 -0.4187
 7945TIP3   OH223798   4.238   6.218   5.353 -0.5400 -1.0196 -0.2777
 7945TIP3    H123799   4.315   6.172   5.387  0.0749 -0.3315 -0.7174
 7945TIP3    H223800   4.183   6.231   5.431  0.3015 -0.5250  0.2536
 7946TIP3   OH223801   3.473   3.774   3.387  0.3705 -0.6704 -0.0203
 7946TIP3    H123802   3.482   3.838   3.458  0.4289  0.0209 -0.6361
 7946TIP3    H223803   3.379   3.760   3.379  0.3480 -0.5353  0.0038
 7947TIP3   OH223804   3.196   4.156   1.086 -0.1633 -0.1211  0.7459
 7947TIP3    H123805   3.181   4.148   1.180 -0.3003 -0.7451  0.6770
 7947TIP3    H223806   3.108   4.157   1.047 -0.0941 -1.3334  0.5233
 7948TIP3   OH223807   3.229   2.446   0.631 -0.5393  0.2655  0.9536
 7948TIP3    H123808   3.164   2.434   0.562  1.8071  0.3486 -1.4323
 7948TIP3    H223809   3.219   2.537   0.659 -1.4167  0.2835  0.5953
 7949TIP3   OH223810   2.945   2.023   0.307  0.0299  0.2408  0.0940
 7949TIP3    H123811   2.957   1.928   0.308  1.1435  0.3268 -1.4768
 7949TIP3    H223812   2.957   2.050   0.398  3.0872 -0.7760  0.1109
 7950TIP3   OH223813   4.154   2.520   2.459 -0.4484  0.2542 -0.0979
 7950TIP3    H123814   4.211   2.463   2.510  0.1931  1.3207  0.4195
 7950TIP3    H223815   4.125   2.586   2.522 -1.4899  0.2726 -0.5880
 7951TIP3   OH223816   5.042   4.024   3.323 -0.4159  0.4847  0.5059
 7951TIP3    H123817   5.005   4.035   3.236 -0.8451 -1.5583  0.3799
 7951TIP3    H223818   5.057   4.113   3.354 -1.6152  1.2868 -1.0659
 7952TIP3   OH223819   1.997   4.960   4.787  0.1853  0.5816  0.1839
 7952TIP3    H123820   1.973   5.001   4.869  0.3779  1.1652 -0.0440
 7952TIP3    H223821   1.948   5.008   4.720  1.7058  1.6076 -0.2608
 7953TIP3   OH223822   1.112   0.220   3.090 -0.0671 -0.2225 -0.2011
 7953TIP3    H123823   1.065   0.302   3.107  1.3379  0.5214  0.3120
 7953TIP3    H223824   1.143   0.192   3.176  0.5135 -0.6200 -0.5370
 7954TIP3   OH223825   0.057   0.632   0.575 -0.3257  0.2478  0.2624
 7954TIP3    H123826   0.105   0.649   0.655  0.9192  0.3279 -0.4777
 7954TIP3    H223827   0.039   0.718   0.538 -0.1606  0.1883  0.0400
 7955TIP3   OH223828   3.031   5.830   1.566 -0.2891 -0.2398  0.3122
 7955TIP3    H123829   2.981   5.910   1.584 -2.5333 -1.6960  0.9782
 7955TIP3    H223830   3.094   5.855   1.499 -3.4196  1.2217 -2.3113
 7956TIP3   OH223831   5.740   3.921   1.709  0.0884  0.4295  0.0056
 7956TIP3    H123832   5.684   3.998   1.718  0.5179  0.8124 -0.5286
 7956TIP3    H223833   5.686   3.857   1.664 -0.3587  0.3222  0.6816
 7957TIP3   OH223834   0.891   3.285   3.316  0.1521 -0.3923  0.3629
 7957TIP3    H123835   0.819   3.265   3.257  2.4386 -2.6374 -1.9387
 7957TIP3    H223836   0.874   3.374   3.346 -3.3216 -0.6815 -0.3135
 7958TIP3   OH223837   4.315   2.996   5.529  0.2552 -0.1612 -0.4155
 7958TIP3    H123838   4.230   2.953   5.533 -0.7771  1.8191  0.6920
 7958TIP3    H223839   4.340   2.993   5.437 -1.2460 -0.3551 -0.8330
 7959TIP3   OH223840   2.220   4.055   4.832 -0.4225  0.3791  0.1195
 7959TIP3    H123841   2.129   4.067   4.802 -0.3390 -1.3526 -1.0062
 7959TIP3    H223842   2.214   3.986   4.898  0.0891  0.1371 -0.0827
 7960TIP3   OH223843   4.106   2.120   0.702 -0.2168  0.6595 -0.5942
 7960TIP3    H123844   4.202   2.123   0.702 -0.2190  0.7589 -1.0974
 7960TIP3    H223845   4.080   2.200   0.749 -0.0352 -0.9930  2.6173
 7961TIP3   OH223846   0.220   5.781   2.269 -0.1296  0.2327 -0.4445
 7961TIP3    H123847   0.241   5.727   2.346  1.2473  0.4938 -0.6231
 7961TIP3    H223848   0.129   5.807   2.283 -0.1145 -0.2809  0.7638
 7962TIP3   OH223849   2.765   5.909   4.386  0.0767 -0.0368 -0.1386
 7962TIP3    H123850   2.819   5.895   4.464 -0.8528 -1.8186  0.2347
 7962TIP3    H223851   2.698   5.972   4.414 -1.3315 -1.9878  1.1047
 7963TIP3   OH223852   6.136   4.982   0.372  0.1966  0.4530  0.4353
 7963TIP3    H123853   6.107   4.922   0.304  0.8796 -0.1296  0.6498
 7963TIP3    H223854   6.054   5.017   0.410 -0.1861  0.4201 -0.3490
 7964TIP3   OH223855   2.186   5.567   5.767 -0.2215 -0.0106  0.5484
 7964TIP3    H123856   2.213   5.529   5.851  0.3018 -0.1092  0.3400
 7964TIP3    H223857   2.265   5.564   5.714 -1.0970 -2.1197 -0.7673
 7965TIP3   OH223858   2.427   5.424   5.345  0.2869 -0.0891 -0.2662
 7965TIP3    H123859   2.357   5.417   5.280  0.5907  0.6628 -0.6862
 7965TIP3    H223860   2.508   5.418   5.294  0.5298  0.3619  0.0644
 7966TIP3   OH223861   4.727   2.602   0.031 -0.0021 -0.0750  0.2129
 7966TIP3    H123862   4.663   2.673   0.034 -0.1695 -0.1645 -0.7299
 7966TIP3    H223863   4.805   2.642  -0.009  0.2081 -0.2051  0.4863
 7967TIP3   OH223864   1.524   1.728   0.612  0.0498 -0.0834 -0.1797
 7967TIP3    H123865   1.439   1.685   0.602  0.9535 -2.1245  0.4427
 7967TIP3    H223866   1.588   1.658   0.600  1.6027  0.9932  1.3649
 7968TIP3   OH223867   5.761   1.687   0.118  0.0240  0.6044  0.0379
 7968TIP3    H123868   5.801   1.734   0.044  0.4913 -0.1901 -0.2280
 7968TIP3    H223869   5.806   1.602   0.119 -3.0957 -1.2288 -1.6053
 7969TIP3   OH223870   6.202   3.849   5.836  0.3666  0.3068 -0.8290
 7969TIP3    H123871   6.134   3.838   5.903  0.9563  0.4636 -0.2020
 7969TIP3    H223872   6.281   3.812   5.875  0.7878  0.6611 -1.3315
 7970TIP3   OH223873   2.833   1.140   5.295  0.1804 -1.4774  0.2892
 7970TIP3    H123874   2.901   1.154   5.229  0.4252 -0.3984  0.7415
 7970TIP3    H223875   2.876   1.088   5.363  0.2834 -1.5692  0.1549
 7971TIP3   OH223876   3.667   6.429   2.407 -0.3727  1.0588  0.2090
 7971TIP3    H123877   3.606   6.387   2.467  0.1648  0.7252  0.5308
 7971TIP3    H223878   3.750   6.431   2.454 -0.4403  2.7634  0.3310
 7972TIP3   OH223879   4.924   1.639   2.959  0.8748  0.1081 -0.1612
 7972TIP3    H123880   4.885   1.714   3.005  1.6185  0.2901  0.1907
 7972TIP3    H223881   4.974   1.593   3.027 -0.0347 -1.0361 -0.2475
 7973TIP3   OH223882   1.522   6.215   3.382  0.0238 -0.2568  0.4911
 7973TIP3    H123883   1.466   6.264   3.323 -0.8389 -1.0981  0.5808
 7973TIP3    H223884   1.534   6.273   3.457  1.7903  1.1549 -0.7922
 7974TIP3   OH223885   5.575   5.576   5.173 -0.7159  0.1611 -0.2570
 7974TIP3    H123886   5.536   5.660   5.150 -1.2158  0.2178  0.7415
 7974TIP3    H223887   5.549   5.562   5.264  0.1625 -0.6242 -0.1162
 7975TIP3   OH223888   7.195   6.417   4.978  0.0011  0.1485  0.3589
 7975TIP3    H123889   7.229   6.336   5.015 -0.0692 -0.4996 -0.9472
 7975TIP3    H223890   7.102   6.416   5.002 -0.0027 -0.1566  0.3385
 7976TIP3   OH223891   5.275   4.881   4.662  0.0145  0.4428  0.0878
 7976TIP3    H123892   5.339   4.810   4.655  0.0087  0.4135  0.3469
 7976TIP3    H223893   5.281   4.927   4.577  2.2633  2.0500  1.0025
 7977TIP3   OH223894   0.709   5.145   3.122 -0.0398 -0.3116  0.0638
 7977TIP3    H123895   0.760   5.078   3.167  0.2604 -0.5512 -0.6192
 7977TIP3    H223896   0.641   5.097   3.075  0.1009 -0.1322 -0.3308
 7978TIP3   OH223897   0.029   4.903   3.551 -0.1634 -0.2859 -0.1820
 7978TIP3    H123898   0.049   4.891   3.458  1.2054 -0.9261  0.1754
 7978TIP3    H223899   0.076   4.833   3.595 -0.5670  0.1795  1.0255
 7979TIP3   OH223900   0.658   0.271   5.248  0.3772 -0.0806 -0.5154
 7979TIP3    H123901   0.568   0.253   5.273  0.6086  0.3982  0.7098
 7979TIP3    H223902   0.691   0.188   5.215 -0.6691 -0.1244 -1.5316
 7980TIP3   OH223903   6.247   5.206   5.887  0.3420 -0.0443  0.2013
 7980TIP3    H123904   6.252   5.124   5.935 -0.5354 -0.4402 -0.3517
 7980TIP3    H223905   6.232   5.180   5.796 -1.5341  0.7238  0.2351
 7981TIP3   OH223906   4.869   0.383   0.742  0.1707 -0.1818 -0.3403
 7981TIP3    H123907   4.859   0.455   0.680  2.0314  0.1066 -0.3713
 7981TIP3    H223908   4.903   0.424   0.822  2.1178 -1.0511 -0.6452
 7982TIP3   OH223909   1.001   0.435   0.797  0.3831  0.6230 -0.2602
 7982TIP3    H123910   0.948   0.404   0.724  0.5507  0.4694 -0.3176
 7982TIP3    H223911   1.013   0.358   0.853  2.9792 -0.1318 -1.6946
 7983TIP3   OH223912   5.801   3.129   5.829  0.1486 -0.5256  0.2836
 7983TIP3    H123913   5.826   3.081   5.750 -0.8856 -1.9384  0.7898
 7983TIP3    H223914   5.819   3.221   5.808 -1.0132 -0.7588 -1.9603
 7984TIP3   OH223915   2.428   5.791   3.903  0.1940  0.5141  0.2896
 7984TIP3    H123916   2.397   5.705   3.875  0.0942  0.3102  0.9843
 7984TIP3    H223917   2.349   5.837   3.932  0.4296  0.2757  1.3457
 7985TIP3   OH223918   4.245   6.124   4.710  0.7014  0.3157  0.4359
 7985TIP3    H123919   4.302   6.201   4.700  0.2334  0.5690 -0.4769
 7985TIP3    H223920   4.157   6.161   4.713  0.4865 -0.1717  0.1731
 7986TIP3   OH223921   5.320   1.666   1.908 -0.2386 -0.4022  0.3782
 7986TIP3    H123922   5.332   1.684   1.815 -2.9969  0.6646  0.1398
 7986TIP3    H223923   5.234   1.625   1.914 -0.7245  0.7750  2.5452
 7987TIP3   OH223924   5.079   5.567   4.992 -0.0632 -0.7411  0.1182
 7987TIP3    H123925   5.018   5.494   5.002  0.6552 -1.2859  0.6548
 7987TIP3    H223926   5.053   5.630   5.059 -0.2793 -0.7975  0.0867
 7988TIP3   OH223927   1.966   0.130   3.024 -0.0189  0.1425  0.6148
 7988TIP3    H123928   1.890   0.185   3.005 -1.1027 -1.5506 -0.1201
 7988TIP3    H223929   1.966   0.063   2.956  3.3167  1.1799 -0.6255
 7989TIP3   OH223930   0.528   3.329   1.050  0.4918  0.0799  0.0062
 7989TIP3    H123931   0.554   3.244   1.013  1.1403 -0.2189  1.1085
 7989TIP3    H223932   0.470   3.307   1.122  0.7666  0.5720  0.3823
 7990TIP3   OH223933   6.936   0.091   3.023 -0.2527 -0.3352  0.0991
 7990TIP3    H123934   7.023   0.127   3.005  0.3445 -1.1659  1.2841
 7990TIP3    H223935   6.889   0.163   3.065  0.9477 -0.8712  2.4842
 7991TIP3   OH223936   5.057   5.454   3.962 -0.3977 -0.7790  0.1821
 7991TIP3    H123937   5.074   5.471   4.055 -0.1470  1.3960 -0.2165
 7991TIP3    H223938   4.966   5.479   3.949 -0.2514 -0.4817 -0.2812
 7992TIP3   OH223939   4.661   6.227   3.641 -0.2301 -0.4103  0.5581
 7992TIP3    H123940   4.697   6.143   3.615  0.7183  0.5775 -1.5278
 7992TIP3    H223941   4.596   6.248   3.574  0.9675  1.3784 -0.1331
 7993TIP3   OH223942   5.902   0.804   1.412  0.0612 -0.2699 -0.7948
 7993TIP3    H123943   5.840   0.845   1.352 -0.8959 -0.3614  0.0893
 7993TIP3    H223944   5.880   0.711   1.410  0.0506 -0.2818 -0.3569
 7994TIP3   OH223945   5.499   0.300   3.217  0.6675 -0.4329  0.2557
 7994TIP3    H123946   5.487   0.395   3.222  0.8765 -0.4473  3.3794
 7994TIP3    H223947   5.411   0.265   3.205  0.5320  0.1250 -0.4249
 7995TIP3   OH223948   6.269   2.537   3.264 -0.3930  0.1982 -0.0627
 7995TIP3    H123949   6.269   2.491   3.348 -2.3486 -0.1819 -0.2302
 7995TIP3    H223950   6.179   2.568   3.254 -0.3686 -0.3552 -2.3403
 7996TIP3   OH223951   3.669   3.424   1.839 -0.0659  0.0496  0.1427
 7996TIP3    H123952   3.659   3.408   1.745  0.1872 -0.5863  0.2135
 7996TIP3    H223953   3.763   3.414   1.855 -0.2825 -1.3876  0.7080
 7997TIP3   OH223954   6.661   3.811   3.721 -0.3960 -0.1959  0.0974
 7997TIP3    H123955   6.719   3.741   3.691  0.3770  0.5668 -0.2480
 7997TIP3    H223956   6.699   3.839   3.805 -1.3431 -0.9206  0.7862
 7998TIP3   OH223957   4.001   1.754   1.824 -0.0115  0.0779  0.4078
 7998TIP3    H123958   4.035   1.707   1.748  0.2668  1.2573 -0.2409
 7998TIP3    H223959   4.078   1.799   1.860 -0.0210 -0.9244  1.7661
 7999TIP3   OH223960   0.372   4.610   2.283  0.4231  0.1425 -0.3393
 7999TIP3    H123961   0.291   4.655   2.306  0.3022 -0.4006  0.3137
 7999TIP3    H223962   0.352   4.517   2.295  1.2355  0.0196  0.1304
 8000TIP3   OH223963   5.396   6.329   0.429  0.2023  0.2877 -0.3641
 8000TIP3    H123964   5.385   6.344   0.335 -2.8609  0.8588 -0.0513
 8000TIP3    H223965   5.306   6.317   0.462  1.1900 -0.3365  2.4318
 8001TIP3   OH223966   5.586   4.109   2.630  0.3408 -1.0103  0.0040
 8001TIP3    H123967   5.532   4.034   2.652 -2.5096  0.1770 -2.2243
 8001TIP3    H223968   5.579   4.167   2.706  1.3774 -2.3114  1.1331
 8002TIP3   OH223969   3.321   3.829   5.257 -0.0741  0.1108  0.4665
 8002TIP3    H123970   3.255   3.819   5.188 -0.6130  0.1064  0.9713
 8002TIP3    H223971   3.272   3.817   5.339  0.0910  2.2914  0.9705
 8003TIP3   OH223972   6.287   2.345   0.707 -0.3409 -0.6647 -0.3980
 8003TIP3    H123973   6.374   2.350   0.670  0.0294  0.1582  0.5266
 8003TIP3    H223974   6.301   2.342   0.802 -1.2881 -1.4663 -0.2608
 8004TIP3   OH223975   2.007   0.199   2.659 -0.2915  0.5750 -0.1585
 8004TIP3    H123976   1.937   0.242   2.707 -0.1699  0.3175  0.2489
 8004TIP3    H223977   2.053   0.270   2.615 -0.8927  0.7342 -0.5464
 8005TIP3   OH223978   1.944   1.558   3.330 -0.0088  0.0026 -0.5262
 8005TIP3    H123979   1.980   1.633   3.377 -1.9650  0.3467  0.5855
 8005TIP3    H223980   1.854   1.584   3.310 -0.2327 -1.4426 -1.5585
 8006TIP3   OH223981   6.203   2.325   3.060  0.1497  0.2701  0.0965
 8006TIP3    H123982   6.297   2.313   3.070  0.2971  1.7386  0.6179
 8006TIP3    H223983   6.179   2.393   3.123 -1.3062 -0.2253  0.1327
 8007TIP3   OH223984   0.363   6.139   4.475  0.0993 -0.0533  0.3191
 8007TIP3    H123985   0.297   6.193   4.518 -0.7623 -0.4599 -0.4557
 8007TIP3    H223986   0.340   6.050   4.499 -0.6130 -0.3128 -1.2381
 8008TIP3   OH223987   6.518   6.200   2.218 -0.3071 -0.0523  0.2211
 8008TIP3    H123988   6.557   6.176   2.302 -0.0535 -0.0277  0.1110
 8008TIP3    H223989   6.454   6.130   2.200  0.3939 -0.6363 -0.0739
 8009TIP3   OH223990   2.188   0.772   2.290  0.1967  0.6238  0.5615
 8009TIP3    H123991   2.130   0.847   2.280  0.7694  1.1579  1.1077
 8009TIP3    H223992   2.162   0.711   2.221 -1.2555  0.6787  1.0458
 8010TIP3   OH223993   3.657   5.456   1.594  0.0975  0.3575  0.1452
 8010TIP3    H123994   3.564   5.432   1.589 -0.6243  3.0900 -1.9008
 8010TIP3    H223995   3.686   5.458   1.502  2.2640 -0.4933  0.7396
 8011TIP3   OH223996   6.371   4.009   0.865 -0.5435  0.6028 -0.0095
 8011TIP3    H123997   6.295   4.065   0.884 -1.2882 -0.4660  0.2397
 8011TIP3    H223998   6.377   4.007   0.770  0.3857  2.2499 -0.0352
 8012TIP3   OH223999   6.806   2.322   1.342 -0.3115 -0.5351  0.2707
 8012TIP3    H124000   6.784   2.360   1.256 -0.1069  0.2882  0.5699
 8012TIP3    H224001   6.722   2.294   1.378 -0.3516 -1.2840 -0.3734
 8013TIP3   OH224002   2.765   0.463   0.431 -0.1116 -0.0884  0.1736
 8013TIP3    H124003   2.788   0.553   0.411 -0.6273  0.2403  1.0175
 8013TIP3    H224004   2.683   0.469   0.480 -0.8154 -1.0829 -0.8232
 8014TIP3   OH224005   3.773   3.178   4.682 -0.0010 -0.2513  0.3591
 8014TIP3    H124006   3.797   3.220   4.764  1.1577  0.7738 -0.4573
 8014TIP3    H224007   3.741   3.250   4.627  1.5969 -0.4579 -0.9160
 8015TIP3   OH224008   3.875   6.380   5.779 -0.2829  0.4670 -0.9137
 8015TIP3    H124009   3.905   6.442   5.713  1.6996 -1.3714 -1.8554
 8015TIP3    H224010   3.911   6.413   5.861 -1.4957  1.9474 -0.9367
 8016TIP3   OH224011   4.323   5.823   2.173 -0.3965  0.0711  0.2670
 8016TIP3    H124012   4.249   5.783   2.127 -0.4099 -0.9818  1.1756
 8016TIP3    H224013   4.400   5.776   2.142 -0.2082  0.4716  0.1078
 8017TIP3   OH224014   4.374   4.529   4.712 -0.2254 -0.4103 -0.0110
 8017TIP3    H124015   4.451   4.478   4.683 -0.8340 -0.7036 -1.1699
 8017TIP3    H224016   4.319   4.464   4.757  0.4196 -0.0876  1.3176
 8018TIP3   OH224017   0.650   5.474   4.734 -0.2921 -0.0590  0.8594
 8018TIP3    H124018   0.573   5.479   4.678  0.8649  0.5538 -0.7624
 8018TIP3    H224019   0.723   5.464   4.673  1.2493  2.7136  2.0864
 8019TIP3   OH224020   0.900   6.353   5.043  0.2669 -0.2514  0.0452
 8019TIP3    H124021   0.953   6.430   5.019  2.6206 -1.7516  0.0654
 8019TIP3    H224022   0.835   6.346   4.974  0.2887  1.4839 -0.2033
 8020TIP3   OH224023   1.207   5.612   1.061  0.2554 -0.0499 -0.2453
 8020TIP3    H124024   1.273   5.621   1.129  0.9713  2.0625 -1.1390
 8020TIP3    H224025   1.149   5.687   1.072 -1.6850 -1.5293  0.1303
 8021TIP3   OH224026   6.669   5.010   3.968 -0.1087  0.7420 -0.1444
 8021TIP3    H124027   6.745   4.976   4.016  1.0207  1.5949 -1.2473
 8021TIP3    H224028   6.690   5.102   3.953 -1.2684  0.9290 -0.6636
 8022TIP3   OH224029   2.367   4.244   3.326  0.2146 -0.2125 -0.3752
 8022TIP3    H124030   2.312   4.239   3.404  0.9915  3.4055  0.6257
 8022TIP3    H224031   2.305   4.254   3.254 -0.4977 -3.0059 -0.2491
 8023TIP3   OH224032   1.235   2.504   5.369  0.0281  0.6118  0.3922
 8023TIP3    H124033   1.308   2.536   5.317  0.1822  0.4203  0.4912
 8023TIP3    H224034   1.249   2.409   5.376 -0.9231  0.3761 -0.6726
 8024TIP3   OH224035   2.388   0.921   4.086  0.1507  0.2938 -0.0370
 8024TIP3    H124036   2.327   0.871   4.140  1.2595 -0.7240  0.3262
 8024TIP3    H224037   2.416   0.993   4.143  0.7827 -0.3808  0.5343
 8025TIP3   OH224038   0.844   3.318   0.340 -0.2721  0.4223 -0.3043
 8025TIP3    H124039   0.903   3.254   0.378 -0.6791  1.7626  2.8705
 8025TIP3    H224040   0.898   3.396   0.326 -0.5118  0.5021 -0.8229
 8026TIP3   OH224041   2.112   3.647   5.012  0.3653  0.3625 -0.3646
 8026TIP3    H124042   2.140   3.575   5.068  1.0190  0.7090 -0.2334
 8026TIP3    H224043   2.074   3.605   4.935 -0.5482 -0.1181  0.3313
 8027TIP3   OH224044   7.206   0.689   4.850 -0.2512 -0.3023  0.5689
 8027TIP3    H124045   7.249   0.771   4.827 -1.0154  0.0077  0.2072
 8027TIP3    H224046   7.158   0.663   4.771 -0.9702 -0.4738  1.0512
 8028TIP3   OH224047   2.191  -0.003   0.948 -0.0838 -0.0335  0.1788
 8028TIP3    H124048   2.122  -0.034   0.890  0.1143 -2.4603  1.1073
 8028TIP3    H224049   2.166   0.087   0.970 -1.5326  0.0308 -1.5280
 8029TIP3   OH224050   7.068   5.722   5.909 -1.0815  0.2691  0.2507
 8029TIP3    H124051   7.076   5.817   5.900 -0.7482  0.1821 -0.3869
 8029TIP3    H224052   7.122   5.686   5.839 -1.2259 -0.3930  0.4717
 8030TIP3   OH224053   0.851   5.443   0.068  0.5446  0.0329 -0.4355
 8030TIP3    H124054   0.877   5.440  -0.024  0.0637  0.1514 -0.5760
 8030TIP3    H224055   0.867   5.533   0.095 -0.1044  0.2096 -0.6353
 8031TIP3   OH224056   0.522   1.461   5.292  0.2370 -0.0273  0.4512
 8031TIP3    H124057   0.546   1.538   5.240 -0.6475 -0.6331 -0.9105
 8031TIP3    H224058   0.431   1.476   5.318  0.1563 -0.4759  0.4417
 8032TIP3   OH224059   1.653   3.180   1.670 -0.2020  0.2876  0.4270
 8032TIP3    H124060   1.649   3.170   1.765 -0.8899  0.5853  0.4338
 8032TIP3    H224061   1.585   3.244   1.649 -0.6032 -0.3697 -0.3479
 8033TIP3   OH224062   2.446   4.818   5.550  0.0320 -0.0213 -0.0995
 8033TIP3    H124063   2.414   4.892   5.602 -0.4409 -1.7852  2.2844
 8033TIP3    H224064   2.407   4.741   5.591  1.6141 -1.7351 -1.6252
 8034TIP3   OH224065   2.925   5.847   4.967  0.8681 -0.1556  0.1980
 8034TIP3    H124066   2.886   5.874   4.884  1.2150 -1.2227 -0.3349
 8034TIP3    H224067   3.019   5.850   4.951  0.9378 -2.0744 -0.0746
 8035TIP3   OH224068   5.718   2.439   3.190  0.7888 -0.2609 -0.1053
 8035TIP3    H124069   5.753   2.361   3.147  2.1845  1.2366 -1.8578
 8035TIP3    H224070   5.721   2.419   3.283  0.8865 -2.3698 -0.5241
 8036TIP3   OH224071   4.712   0.077   3.371  0.1045  0.0904 -0.0583
 8036TIP3    H124072   4.697  -0.013   3.400 -1.1610 -0.8248 -3.1849
 8036TIP3    H224073   4.807   0.083   3.357  0.0562 -1.1952 -1.0429
 8037TIP3   OH224074   3.730   1.045   4.579 -0.0047 -0.0998 -0.3122
 8037TIP3    H124075   3.774   1.087   4.504 -1.6895  0.7637 -0.8729
 8037TIP3    H224076   3.637   1.049   4.557 -0.6069  0.7420  2.0926
 8038TIP3   OH224077   5.715   6.202   4.990 -0.7423  0.1001 -0.3922
 8038TIP3    H124078   5.767   6.152   5.054 -1.2275 -2.0007 -1.5489
 8038TIP3    H224079   5.651   6.249   5.044 -0.8550 -1.2546  0.7202
 8039TIP3   OH224080   5.233   6.318   3.400  0.0905 -0.0627  0.2381
 8039TIP3    H124081   5.277   6.334   3.317 -1.0393  0.3159 -0.3053
 8039TIP3    H224082   5.147   6.286   3.376  0.1637 -1.0997  1.2895
 8040TIP3   OH224083   5.708   3.235   3.277  0.5741 -0.0532  0.4737
 8040TIP3    H124084   5.686   3.328   3.279  0.2527 -0.1378  1.8093
 8040TIP3    H224085   5.758   3.220   3.357  0.9713 -0.9503  0.0744
 8041TIP3   OH224086   3.457   6.666   3.845  0.5469 -0.7506 -0.2168
 8041TIP3    H124087   3.377   6.616   3.861  1.2972 -1.8477  0.2046
 8041TIP3    H224088   3.484   6.696   3.931  0.6303 -0.4304 -0.3529
 8042TIP3   OH224089   2.553   4.894   2.744  0.6017 -0.3520  1.1496
 8042TIP3    H124090   2.562   4.868   2.836 -0.8257  0.5801  1.5830
 8042TIP3    H224091   2.516   4.982   2.747  0.9313 -0.1292 -0.3308
 8043TIP3   OH224092   0.698   6.685   3.983 -0.1320  0.0593 -0.4287
 8043TIP3    H124093   0.660   6.773   3.982 -1.0540 -0.1376  3.0735
 8043TIP3    H224094   0.715   6.665   3.891 -0.3795  3.6479 -1.4045
 8044TIP3   OH224095   0.337   0.882   3.550 -0.0951 -0.2624 -0.4194
 8044TIP3    H124096   0.391   0.815   3.592  3.0461  0.3241 -3.0865
 8044TIP3    H224097   0.247   0.853   3.563  0.8092 -2.0626  3.1467
 8045TIP3   OH224098   0.659   5.362   5.699  0.0522  0.2153 -0.5895
 8045TIP3    H124099   0.599   5.394   5.766  1.4713 -0.8877  1.3080
 8045TIP3    H224100   0.702   5.440   5.664  0.2710  0.7234  0.7846
 8046TIP3   OH224101   0.200   3.484   0.241  0.2339 -0.2468  0.0224
 8046TIP3    H124102   0.195   3.548   0.170  1.3454 -0.9058 -0.6684
 8046TIP3    H224103   0.249   3.529   0.310 -1.1513  0.5219  0.5536
 8047TIP3   OH224104   6.457   1.685   0.940  0.2726  0.4494 -0.4044
 8047TIP3    H124105   6.471   1.745   0.866  2.0981  0.5986  0.0324
 8047TIP3    H224106   6.531   1.700   0.998  1.4169 -2.9752 -0.7640
 8048TIP3   OH224107   4.758   5.385   5.573 -0.3062  0.1000  0.2790
 8048TIP3    H124108   4.764   5.480   5.581  0.6047 -0.0239  1.2847
 8048TIP3    H224109   4.849   5.356   5.564 -0.4931 -0.7573  1.0486
 8049TIP3   OH224110   6.979   3.151   0.383 -0.3102 -0.3664  0.2200
 8049TIP3    H124111   7.053   3.210   0.369  0.0428 -0.6258  0.9203
 8049TIP3    H224112   6.902   3.200   0.353  0.3164 -0.7473 -2.1873
 8050TIP3   OH224113   0.583   2.674   5.883 -0.0237  0.0944  0.3467
 8050TIP3    H124114   0.634   2.633   5.813 -0.4259 -0.2079  0.2247
 8050TIP3    H224115   0.625   2.645   5.964  0.4547  0.4613  0.2354
 8051TIP3   OH224116   5.061   6.215   3.716  0.2337  0.1103 -0.1721
 8051TIP3    H124117   5.069   6.301   3.674  0.8652 -0.2094 -0.7410
 8051TIP3    H224118   4.967   6.201   3.726  0.1203  0.7440 -0.3344
 8052TIP3   OH224119   6.352   3.398   1.643 -0.2638  0.6985  0.6219
 8052TIP3    H124120   6.365   3.312   1.605 -2.0645  0.3443  0.7220
 8052TIP3    H224121   6.440   3.429   1.664  0.7397  0.3585 -2.5286
 8053TIP3   OH224122   0.703   0.389   3.749 -0.2606  0.2747  0.3352
 8053TIP3    H124123   0.694   0.458   3.683  0.7807  0.3863  0.2901
 8053TIP3    H224124   0.685   0.308   3.700 -1.4301  0.4840  0.3767
 8054TIP3   OH224125   2.348   3.152   0.008  0.0641 -0.2848  0.2730
 8054TIP3    H124126   2.323   3.165   0.099 -0.7894  0.0101  0.0077
 8054TIP3    H224127   2.413   3.081   0.010  1.0953  0.6611  1.2414
 8055TIP3   OH224128   0.196   1.014   1.976 -0.3519 -0.2599  0.0522
 8055TIP3    H124129   0.179   0.938   1.921 -0.2788 -1.0746  1.1210
 8055TIP3    H224130   0.283   0.998   2.013  0.3482  1.1032 -0.9045
 8056TIP3   OH224131   1.591   4.761   2.557 -0.1331  0.6153  0.1436
 8056TIP3    H124132   1.510   4.722   2.591 -0.0536  0.3007 -0.0204
 8056TIP3    H224133   1.651   4.760   2.632  0.0723 -0.1646 -0.0260
 8057TIP3   OH224134   0.786   0.620   4.834  0.0874  0.2262  0.0741
 8057TIP3    H124135   0.743   0.647   4.915 -0.7254 -2.3920  0.6233
 8057TIP3    H224136   0.879   0.630   4.852 -0.0670 -0.6724  1.5091
 8058TIP3   OH224137   6.759   5.718   4.275 -0.2459  0.1303  0.0729
 8058TIP3    H124138   6.810   5.647   4.236 -0.9086  0.0465 -0.6624
 8058TIP3    H224139   6.776   5.794   4.219  1.9788  1.1173  1.9259
 8059TIP3   OH224140   0.341   6.106   3.637 -0.7535  0.1598  0.4554
 8059TIP3    H124141   0.427   6.069   3.619 -1.3289 -0.1506 -1.9452
 8059TIP3    H224142   0.357   6.172   3.705  1.2843 -0.1736  0.3595
 8060TIP3   OH224143   0.888   0.548   0.200  0.4979  0.0294  0.3566
 8060TIP3    H124144   0.946   0.472   0.192 -0.6073 -0.8875  0.9191
 8060TIP3    H224145   0.915   0.605   0.127  3.0286  0.2988  1.3979
 8061TIP3   OH224146   6.592   5.745   0.427 -0.3149 -0.3556 -0.0326
 8061TIP3    H124147   6.638   5.818   0.470  0.7843 -0.5667 -0.7921
 8061TIP3    H224148   6.628   5.667   0.469 -0.4595 -0.5002 -0.1778
 8062TIP3   OH224149   2.053   2.159   3.614 -0.6694  0.2434 -0.0168
 8062TIP3    H124150   2.091   2.129   3.532  0.5170 -0.2316  0.6834
 8062TIP3    H224151   2.128   2.184   3.668 -1.2445 -1.5570  1.7414
 8063TIP3   OH224152   6.535   6.238   2.666  0.0393  0.0924 -0.4045
 8063TIP3    H124153   6.604   6.303   2.663  0.0153  0.1013 -2.0997
 8063TIP3    H224154   6.566   6.168   2.608 -1.0407 -0.2178 -0.6368
 8064TIP3   OH224155   0.679   4.565   3.621 -0.1314 -0.2373 -0.3148
 8064TIP3    H124156   0.739   4.634   3.594 -1.1369  0.0575 -1.9025
 8064TIP3    H224157   0.732   4.485   3.620  0.5189  0.1882 -0.5174
 8065TIP3   OH224158   3.723   4.483   2.550  0.7560 -0.1460 -0.3943
 8065TIP3    H124159   3.679   4.398   2.562 -3.0500  1.6291 -0.2098
 8065TIP3    H224160   3.757   4.504   2.637  1.0301 -1.1233 -0.2536
 8066TIP3   OH224161   2.758   4.612   4.708 -0.0625  0.5370 -0.2121
 8066TIP3    H124162   2.669   4.587   4.686 -0.0677  0.2179  0.1599
 8066TIP3    H224163   2.781   4.678   4.643 -1.2996  2.1850  0.9633
 8067TIP3   OH224164   6.737   6.692   4.550  0.5651 -0.2694  0.9668
 8067TIP3    H124165   6.731   6.641   4.631  0.8754  0.3887  1.4105
 8067TIP3    H224166   6.802   6.760   4.569 -0.5581  0.9053  0.7283
 8068TIP3   OH224167   4.371   1.389   0.877 -0.0628 -0.0473 -0.2350
 8068TIP3    H124168   4.461   1.421   0.868  0.1316  0.3987  2.5513
 8068TIP3    H224169   4.344   1.371   0.787  2.1177  1.6654 -1.3541
 8069TIP3   OH224170   2.256   1.557   1.246  0.4572  0.2633 -0.3639
 8069TIP3    H124171   2.301   1.527   1.324 -0.0344 -1.2642 -0.6232
 8069TIP3    H224172   2.168   1.520   1.254  0.2217  0.5836 -1.3477
 8070TIP3   OH224173   1.597   6.611   5.119 -0.8605  0.1215 -0.2773
 8070TIP3    H124174   1.688   6.641   5.120 -0.1785 -1.7164  2.4678
 8070TIP3    H224175   1.595   6.542   5.053 -0.2675  0.1848 -0.3651
 8071TIP3   OH224176   4.012   0.758   1.206  0.9044  0.4891  0.2108
 8071TIP3    H124177   4.007   0.849   1.177  0.8334  0.1929 -0.7160
 8071TIP3    H224178   4.059   0.712   1.136  0.6552 -0.2500  0.5171
 8072TIP3   OH224179   3.157   2.676   0.332  0.2293 -0.2773 -0.4695
 8072TIP3    H124180   3.179   2.594   0.287  0.2747 -0.3566 -0.3036
 8072TIP3    H224181   3.076   2.656   0.379  0.6495 -0.4623  0.1939
 8073TIP3   OH224182   0.734   5.749   5.892 -0.0670  0.4026  0.4940
 8073TIP3    H124183   0.819   5.710   5.875 -0.5783 -0.7822  0.5384
 8073TIP3    H224184   0.749   5.843   5.889  1.0733  0.2098 -0.3348
 8074TIP3   OH224185   7.028   1.376   0.410  0.0171 -0.6403 -0.4284
 8074TIP3    H124186   6.960   1.428   0.367 -0.2660  0.3402  1.1263
 8074TIP3    H224187   6.980   1.307   0.457  0.0172  0.2446  0.9377
 8075TIP3   OH224188   0.402   5.152   2.482 -0.6748 -0.0523 -0.3541
 8075TIP3    H124189   0.455   5.231   2.471 -0.4357 -0.0426  0.6977
 8075TIP3    H224190   0.345   5.172   2.556  1.4710 -1.8777  2.0069
 8076TIP3   OH224191   4.386   5.097   0.076  0.3380  0.2078  0.1957
 8076TIP3    H124192   4.392   5.135   0.164  0.7001  2.9249 -0.9164
 8076TIP3    H224193   4.429   5.012   0.084 -1.0143 -0.3316  2.9757
 8077TIP3   OH224194   4.165   3.848   4.783  0.3802  1.2165 -0.1651
 8077TIP3    H124195   4.102   3.793   4.831 -1.0271  2.6847 -0.2449
 8077TIP3    H224196   4.155   3.935   4.823 -0.8301  2.5110 -3.0069
 8078TIP3   OH224197   0.317   5.938   5.841 -0.5714  0.5669 -0.3598
 8078TIP3    H124198   0.260   5.877   5.888  0.1178 -0.7063 -1.1147
 8078TIP3    H224199   0.345   5.890   5.763  2.9949  0.3815  0.8299
 8079TIP3   OH224200   3.983   2.069   3.794  0.0279  0.6295 -0.0666
 8079TIP3    H124201   3.982   2.057   3.889 -1.3847  2.5903  0.2178
 8079TIP3    H224202   4.070   2.104   3.775 -0.1518  1.5086  0.6864
 8080TIP3   OH224203   0.623   1.182   3.662  0.3911 -0.3139  0.5370
 8080TIP3    H124204   0.682   1.189   3.587 -0.7196 -1.6355 -0.4982
 8080TIP3    H224205   0.677   1.144   3.731  1.3833  0.7735  0.4075
 8081TIP3   OH224206   1.379   0.709   3.112 -0.4076 -0.0884 -0.0977
 8081TIP3    H124207   1.472   0.733   3.105 -0.6503  0.7250 -0.5768
 8081TIP3    H224208   1.343   0.727   3.025 -0.9091 -0.9105 -0.0773
 8082TIP3   OH224209   0.387   4.025   2.312  0.7107  0.1021 -0.2552
 8082TIP3    H124210   0.299   4.004   2.344  0.8237  0.1492  0.0925
 8082TIP3    H224211   0.443   4.016   2.389  0.9175  0.6836 -0.3308
 8083TIP3   OH224212   3.978   3.033   0.641  0.1921  0.3128  0.5209
 8083TIP3    H124213   3.974   3.098   0.570 -0.9319 -0.9491 -0.6603
 8083TIP3    H224214   4.070   3.027   0.664  0.5286  1.0704 -0.5578
 8084TIP3   OH224215   2.717   1.452   2.507  0.0161 -0.4651  0.1613
 8084TIP3    H124216   2.640   1.439   2.452  0.9631 -1.3434 -1.0098
 8084TIP3    H224217   2.682   1.480   2.592 -1.4844  1.0946 -0.9051
 8085TIP3   OH224218   6.494   3.282   5.209 -0.5945  0.1504  0.2044
 8085TIP3    H124219   6.478   3.310   5.119 -0.0833  1.1204  0.3966
 8085TIP3    H224220   6.435   3.208   5.222  0.6765 -1.2875 -1.5606
 8086TIP3   OH224221   1.074   4.962   2.067 -0.1005 -0.2064 -0.1264
 8086TIP3    H124222   1.042   5.042   2.108 -0.6633 -0.4329 -0.1234
 8086TIP3    H224223   1.125   4.918   2.136  1.1376  0.6734 -0.4491
 8087TIP3   OH224224   0.902   2.189   4.532  0.2030  0.1993  0.3117
 8087TIP3    H124225   0.945   2.256   4.584 -1.1640 -0.5213  2.5019
 8087TIP3    H224226   0.839   2.148   4.592 -0.9505 -1.1934 -1.7127
 8088TIP3   OH224227   4.444   2.568   4.046  0.0597  0.0015  0.5897
 8088TIP3    H124228   4.373   2.620   4.008  1.0692  0.9437 -0.0715
 8088TIP3    H224229   4.401   2.514   4.112 -1.3180  0.3183 -0.0011
 8089TIP3   OH224230   0.245   5.395   3.599  0.4948 -0.3813 -0.2751
 8089TIP3    H124231   0.332   5.380   3.635  1.0705  0.5834 -1.2224
 8089TIP3    H224232   0.186   5.357   3.664  1.5701 -0.1224  0.8921
 8090TIP3   OH224233   2.759   1.429   2.906 -0.0750 -0.0511 -0.1622
 8090TIP3    H124234   2.817   1.439   2.830  0.0954 -2.6333 -0.4885
 8090TIP3    H224235   2.816   1.393   2.974 -1.2267 -3.1767 -0.6610
 8091TIP3   OH224236   5.064   3.675   5.042  0.3887 -0.2388  0.6449
 8091TIP3    H124237   5.055   3.637   4.954 -0.4662 -1.2344  1.1360
 8091TIP3    H224238   4.977   3.712   5.061  0.8002  0.6879  0.7605
 8092TIP3   OH224239   4.854   6.533   2.410  0.5010  0.5618 -0.1058
 8092TIP3    H124240   4.812   6.618   2.422  0.2249  0.4971 -0.5484
 8092TIP3    H224241   4.801   6.473   2.462 -0.1649  0.4274 -0.9064
 8093TIP3   OH224242   5.715   4.078   4.123  0.5502 -0.4008 -0.2244
 8093TIP3    H124243   5.763   4.022   4.062  0.3701  0.3812 -1.1156
 8093TIP3    H224244   5.625   4.043   4.122  0.9564 -1.5471  1.0515
 8094TIP3   OH224245   5.063   5.717   1.708  0.1263  0.5370  0.3823
 8094TIP3    H124246   5.004   5.713   1.783  0.7073 -1.1908  0.7945
 8094TIP3    H224247   5.113   5.635   1.711  2.0981  1.6213 -0.3154
 8095TIP3   OH224248   6.576   3.261   3.724  0.6289 -0.2241 -0.1600
 8095TIP3    H124249   6.560   3.167   3.716 -2.0491  0.1817 -0.3996
 8095TIP3    H224250   6.621   3.284   3.643 -1.6055 -0.8030 -1.6392
 8096TIP3   OH224251   4.044   0.534   2.839 -0.2541  0.1650 -0.1251
 8096TIP3    H124252   3.949   0.529   2.828 -0.3681 -0.1631  0.9357
 8096TIP3    H224253   4.074   0.443   2.832 -0.1533  0.1348  0.6076
 8097TIP3   OH224254   6.665   1.902   5.761 -0.3657  0.4955 -0.2423
 8097TIP3    H124255   6.589   1.888   5.817 -0.3664 -1.0949 -0.5944
 8097TIP3    H224256   6.636   1.965   5.695 -0.3551  2.4287  1.4925
 8098TIP3   OH224257   6.644   0.251   1.392  0.3265  1.0715 -0.0042
 8098TIP3    H124258   6.639   0.334   1.440 -0.7658  0.9618  0.0971
 8098TIP3    H224259   6.575   0.258   1.326 -1.1186 -0.5317  1.2514
 8099TIP3   OH224260   0.218   0.795   4.523 -0.3976  0.1543 -0.2321
 8099TIP3    H124261   0.289   0.823   4.582 -1.9185  0.8722  1.3605
 8099TIP3    H224262   0.263   0.760   4.447  1.6770  0.3885  0.7990
 8100TIP3   OH224263   6.704   0.490   4.506  0.2641  0.8206 -0.6350
 8100TIP3    H124264   6.723   0.426   4.438 -1.2780 -0.7320  0.3312
 8100TIP3    H224265   6.654   0.558   4.462  0.8304  0.7514 -1.4058
 8101TIP3   OH224266   5.578   1.851   1.116 -0.1615 -0.4481  0.0386
 8101TIP3    H124267   5.513   1.885   1.178  2.3991  0.5387  2.4526
 8101TIP3    H224268   5.588   1.921   1.051 -0.2755  0.1755  0.6729
 8102TIP3   OH224269   6.315   6.501   1.443 -0.0084  0.6007  0.2430
 8102TIP3    H124270   6.382   6.452   1.396 -0.8125 -0.8135  0.5460
 8102TIP3    H224271   6.284   6.566   1.379  0.2738 -0.0191 -0.5383
 8103TIP3   OH224272   2.707   4.491   1.621  0.4601  0.1354 -0.4458
 8103TIP3    H124273   2.750   4.523   1.542  0.6825  1.6335  0.2440
 8103TIP3    H224274   2.778   4.484   1.685  0.4449 -1.9707 -0.6117
 8104TIP3   OH224275   5.447   3.578   2.666  0.0742 -0.0021 -0.3001
 8104TIP3    H124276   5.427   3.490   2.631 -1.1234 -0.0352  0.4052
 8104TIP3    H224277   5.361   3.614   2.690  0.4472  1.7262 -1.3857
 8105TIP3   OH224278   0.236   6.798   5.608  0.0023 -0.6479  0.2772
 8105TIP3    H124279   0.187   6.804   5.525 -0.5524 -3.0279  0.3611
 8105TIP3    H224280   0.321   6.761   5.583  0.3380 -0.1090  0.6123
 8106TIP3   OH224281   1.525   1.624   1.452 -0.7495  0.3788 -0.7856
 8106TIP3    H124282   1.559   1.642   1.365  0.1299 -0.1741 -0.5619
 8106TIP3    H224283   1.601   1.596   1.503 -1.5072 -0.7567 -0.2455
 8107TIP3   OH224284   5.150   1.927   2.846  0.1485 -0.6552  0.0074
 8107TIP3    H124285   5.190   1.866   2.909  1.9801 -0.6664 -1.1068
 8107TIP3    H224286   5.077   1.878   2.809  1.2092 -1.9922 -0.4191
 8108TIP3   OH224287   5.329   5.268   5.367 -0.1780  0.4844 -0.3923
 8108TIP3    H124288   5.392   5.271   5.295  0.5690  2.0645  0.2624
 8108TIP3    H224289   5.322   5.359   5.397 -0.4585 -0.1056  1.5164
 8109TIP3   OH224290   4.337   2.870   0.353  0.3559 -0.0004 -0.2096
 8109TIP3    H124291   4.322   2.876   0.259 -1.0696  0.8774  0.0564
 8109TIP3    H224292   4.364   2.779   0.367 -3.5967 -1.4843 -0.9569
 8110TIP3   OH224293   4.287   4.308   2.957 -0.0060 -0.2902 -0.2357
 8110TIP3    H124294   4.217   4.269   2.905 -1.6307  2.0862  0.0439
 8110TIP3    H224295   4.339   4.358   2.893 -0.9221  1.1340  0.0977
 8111TIP3   OH224296   0.254   4.952   0.523 -0.2864  0.8601 -0.2638
 8111TIP3    H124297   0.267   4.958   0.429 -0.7085  0.0398 -0.3813
 8111TIP3    H224298   0.331   4.906   0.556  0.2265  1.8149 -0.1010
 8112TIP3   OH224299   0.791   4.244   1.107 -0.3242 -0.1031 -0.2102
 8112TIP3    H124300   0.789   4.153   1.136  0.9189 -0.7343 -1.9265
 8112TIP3    H224301   0.699   4.267   1.092 -0.5807 -1.5459 -1.0524
 8113TIP3   OH224302   6.699   1.588   4.037 -0.0527  0.2070 -0.2960
 8113TIP3    H124303   6.792   1.583   4.016  0.7287  0.4699  2.6331
 8113TIP3    H224304   6.677   1.500   4.066  0.1948  0.8310  2.0140
 8114TIP3   OH224305   2.264   5.707   4.871 -0.5395 -0.1910 -0.5825
 8114TIP3    H124306   2.346   5.705   4.920 -0.4866 -0.9313 -0.6928
 8114TIP3    H224307   2.265   5.627   4.819 -1.2852 -0.1541 -0.6595
 8115TIP3   OH224308   2.492   2.921   0.014  0.0634  0.4410 -0.0031
 8115TIP3    H124309   2.419   2.859   0.013  0.2670  0.1939 -0.7982
 8115TIP3    H224310   2.555   2.883   0.075 -1.0093  1.3214  1.7187
 8116TIP3   OH224311   0.662   0.202   5.685  0.2244 -0.0835  0.5060
 8116TIP3    H124312   0.572   0.187   5.655  0.1075 -1.9339  1.5940
 8116TIP3    H224313   0.704   0.250   5.614 -1.3165 -0.1489 -0.4956
 8117TIP3   OH224314   6.873   3.170   2.336 -0.9751 -0.1520 -0.0851
 8117TIP3    H124315   6.793   3.219   2.317  0.3471  1.5995 -1.6203
 8117TIP3    H224316   6.912   3.153   2.250  0.9358  0.2137  0.6486
 8118TIP3   OH224317   5.605   1.935   2.616  0.5454 -0.2275 -0.6233
 8118TIP3    H124318   5.640   1.996   2.551 -0.6340  0.4366 -0.6735
 8118TIP3    H224319   5.521   1.973   2.641  1.0061 -0.3937  1.3785
 8119TIP3   OH224320   1.054   1.215   0.870  0.3912  0.0517 -0.0951
 8119TIP3    H124321   1.148   1.196   0.870  0.2308 -0.7809  0.2903
 8119TIP3    H224322   1.020   1.169   0.947 -0.1057  1.5402  0.6157
 8120TIP3   OH224323   5.966   1.655   2.150 -0.2335 -0.3574 -0.5722
 8120TIP3    H124324   5.930   1.651   2.239 -1.0089  1.0953 -0.7964
 8120TIP3    H224325   5.968   1.564   2.121  0.5628 -0.9172  1.1263
 8121TIP3   OH224326   4.659   2.943   2.701 -0.2254  0.3669  0.3267
 8121TIP3    H124327   4.716   2.995   2.645 -1.9535  1.3660 -0.6052
 8121TIP3    H224328   4.597   2.902   2.641  0.5365 -2.1372  1.1195
 8122TIP3   OH224329   0.042   3.634   1.829  0.3166 -0.6542  0.0523
 8122TIP3    H124330  -0.038   3.660   1.874 -0.5215 -0.5938 -1.3995
 8122TIP3    H224331   0.057   3.702   1.763  1.1101 -1.0769 -0.2269
 8123TIP3   OH224332   5.387   4.544   0.033 -0.5501 -0.3854 -0.1005
 8123TIP3    H124333   5.437   4.470   0.067  0.6712 -1.1217 -3.1549
 8123TIP3    H224334   5.407   4.545  -0.061 -2.6436  2.2065 -0.6320
 8124TIP3   OH224335   5.323   1.439   1.520  0.4767 -0.2836  0.2999
 8124TIP3    H124336   5.356   1.392   1.443  2.7321  0.6157  0.6502
 8124TIP3    H224337   5.357   1.390   1.595 -1.1698 -0.7871  0.7530
 8125TIP3   OH224338   2.853   3.367   4.856 -0.0970 -0.0696  0.7062
 8125TIP3    H124339   2.890   3.299   4.911  4.1210 -0.0388 -1.6978
 8125TIP3    H224340   2.832   3.324   4.774  0.7111  1.1227 -0.1618
 8126TIP3   OH224341   5.898   1.350   0.720 -0.2554 -0.2418 -0.1161
 8126TIP3    H124342   5.876   1.358   0.627 -1.0099 -0.7791  0.0041
 8126TIP3    H224343   5.862   1.429   0.760 -0.7068 -0.4288 -0.1487
 8127TIP3   OH224344   3.328   5.887   3.120 -0.2677  0.1734  1.4394
 8127TIP3    H124345   3.241   5.878   3.080 -0.0128  0.2985  0.8481
 8127TIP3    H224346   3.369   5.960   3.074  1.5256 -2.0860 -0.8658
 8128TIP3   OH224347   4.413   1.602   3.553 -0.0591  0.5690  0.0681
 8128TIP3    H124348   4.488   1.604   3.494  0.8088  0.1043  1.1367
 8128TIP3    H224349   4.392   1.694   3.569 -0.3166  0.7066 -0.9478
 8129TIP3   OH224350   1.420   0.775   2.716  0.2204 -0.3220  0.7821
 8129TIP3    H124351   1.395   0.818   2.798 -0.2244 -2.4369  1.8279
 8129TIP3    H224352   1.370   0.694   2.715  2.2005 -1.6160 -0.2803
 8130TIP3   OH224353   6.956   0.137   2.191 -0.6554 -0.6244  0.8936
 8130TIP3    H124354   7.040   0.170   2.158  0.0955 -3.9730 -1.0486
 8130TIP3    H224355   6.936   0.193   2.266  3.2106  0.4420  1.3702
 8131TIP3   OH224356   4.947   2.432   4.032 -0.0815  0.2245  0.2932
 8131TIP3    H124357   4.871   2.451   4.086  0.4966 -1.6096  1.8385
 8131TIP3    H224358   4.920   2.358   3.977  0.2652  0.2121  0.1370
 8132TIP3   OH224359   6.763   5.885   2.857  0.1097  0.2319  0.0387
 8132TIP3    H124360   6.778   5.825   2.784  0.9412  0.9049 -0.3609
 8132TIP3    H224361   6.670   5.876   2.876 -0.5083  1.1851 -2.1540
 8133TIP3   OH224362   4.860   3.014   2.009  0.2595 -0.3940 -0.0264
 8133TIP3    H124363   4.949   3.008   1.975  0.7503  1.2090  0.8616
 8133TIP3    H224364   4.828   2.924   2.011  1.1555 -0.8224 -2.1459
 8134TIP3   OH224365   1.019   2.229   5.891 -0.0992 -0.4547 -0.3839
 8134TIP3    H124366   0.997   2.228   5.798 -1.6032 -1.7687 -0.0566
 8134TIP3    H224367   1.008   2.320   5.917 -2.2900 -0.5081 -0.9494
 8135TIP3   OH224368   3.937   0.488   5.436 -0.2258 -0.2213  0.2088
 8135TIP3    H124369   3.976   0.421   5.380 -0.5362 -1.4806  1.4501
 8135TIP3    H224370   3.866   0.524   5.384  0.1414 -0.6305 -0.5989
 8136TIP3   OH224371   5.253   5.626   4.472 -0.0366 -0.0060 -0.2912
 8136TIP3    H124372   5.324   5.613   4.536 -1.4578  1.4443  1.7045
 8136TIP3    H224373   5.282   5.578   4.395  2.7538 -0.1212  0.7021
 8137TIP3   OH224374   0.322   4.783   4.550 -0.1424  0.6872 -0.0014
 8137TIP3    H124375   0.237   4.777   4.593 -0.7581 -1.4361 -1.3239
 8137TIP3    H224376   0.301   4.813   4.461  0.4221 -0.2278 -0.4523
 8138TIP3   OH224377   3.090   2.002   3.831 -0.1534  0.0477  0.1786
 8138TIP3    H124378   3.062   1.931   3.889  0.7906  0.0408  0.6482
 8138TIP3    H224379   3.009   2.036   3.795 -0.9429  0.9676  2.5813
 8139TIP3   OH224380   0.105   5.612   4.739  0.0701 -0.0960 -0.0694
 8139TIP3    H124381   0.055   5.565   4.673  0.8225 -1.1371  0.0670
 8139TIP3    H224382   0.106   5.703   4.709  1.1444 -0.6896 -1.9912
 8140TIP3   OH224383   7.031   3.112   1.854 -0.3250  0.2288 -0.1969
 8140TIP3    H124384   7.044   3.022   1.884  0.1100  0.5229  0.5216
 8140TIP3    H224385   6.942   3.113   1.818 -0.5757 -0.3269  0.3921
 8141TIP3   OH224386   1.156   5.102   4.487 -0.4625  0.3282 -0.1462
 8141TIP3    H124387   1.170   5.190   4.522  0.8810 -0.3554  1.1784
 8141TIP3    H224388   1.079   5.070   4.533 -0.4937  0.5447 -0.0452
 8142TIP3   OH224389   1.864   5.081   3.573  0.1470  0.2844  0.0371
 8142TIP3    H124390   1.817   5.158   3.540 -1.9969 -1.6316 -1.7311
 8142TIP3    H224391   1.841   5.077   3.665 -0.5235  1.2186 -0.0705
 8143TIP3   OH224392   4.008   1.370   2.818 -0.3783 -0.3013  0.7568
 8143TIP3    H124393   4.072   1.400   2.883  0.5866  1.3813 -0.8714
 8143TIP3    H224394   3.928   1.356   2.869  0.3821  0.7597  2.3452
 8144TIP3   OH224395   7.046   5.090   1.636  0.3565 -0.3953 -0.1154
 8144TIP3    H124396   7.108   5.149   1.593 -0.0478  0.6047  0.6290
 8144TIP3    H224397   7.030   5.131   1.722 -0.2772 -1.3613  0.2425
 8145TIP3   OH224398   6.413   1.539   0.023  0.3374 -0.3272 -0.1768
 8145TIP3    H124399   6.342   1.475   0.019 -0.7808  0.7271  1.5101
 8145TIP3    H224400   6.368   1.623   0.033  1.8293  0.4258  0.4702
 8146TIP3   OH224401   5.267   1.691   5.687  0.6876 -0.3704 -0.0694
 8146TIP3    H124402   5.253   1.597   5.700  3.0608 -0.5997  1.4348
 8146TIP3    H224403   5.194   1.733   5.733  0.9201 -1.4846  1.3963
 8147TIP3   OH224404   6.940   5.195   1.892 -0.2101 -0.5725  0.2629
 8147TIP3    H124405   6.871   5.239   1.842  1.3596  2.8027  0.7640
 8147TIP3    H224406   6.932   5.231   1.980  0.8245 -1.8498  0.9137
 8148TIP3   OH224407   3.067   1.668   2.423  0.3127  0.2414 -0.4611
 8148TIP3    H124408   3.015   1.697   2.498  1.5245 -0.9045  0.8749
 8148TIP3    H224409   3.017   1.595   2.386  0.0466  0.3553 -0.3302
 8149TIP3   OH224410   3.078   2.407   2.465  0.0145  0.3066 -0.6360
 8149TIP3    H124411   3.007   2.358   2.506 -0.1021  0.2383 -0.9166
 8149TIP3    H224412   3.034   2.475   2.414  0.1175 -0.1939 -1.4057
 8150TIP3   OH224413   0.648   3.960   3.185 -0.1005 -0.4386  0.2474
 8150TIP3    H124414   0.732   3.927   3.154 -0.2591 -0.8018  0.2029
 8150TIP3    H224415   0.592   3.883   3.193 -0.7682 -0.0934 -0.7447
 8151TIP3   OH224416   0.580   1.949   0.266 -0.5863  0.6230  0.1590
 8151TIP3    H124417   0.511   1.884   0.257 -0.1876 -0.0350  1.5259
 8151TIP3    H224418   0.657   1.907   0.227 -0.6787  0.8762 -0.2963
 8152TIP3   OH224419   5.287   5.197   1.447 -0.3805  0.5660  0.0642
 8152TIP3    H124420   5.381   5.190   1.465 -0.4264  0.3737  0.2275
 8152TIP3    H224421   5.272   5.291   1.436 -0.0050  0.5297 -0.8671
 8153TIP3   OH224422   3.032   6.746   1.887 -0.4893 -0.1084 -0.2104
 8153TIP3    H124423   3.019   6.653   1.906  2.2046 -0.2243  1.5299
 8153TIP3    H224424   3.020   6.790   1.971  1.9103  0.6174 -0.1835
 8154TIP3   OH224425   6.451   1.531   1.820 -0.2000  0.7555 -0.2778
 8154TIP3    H124426   6.438   1.446   1.778 -3.9231  0.9308  0.2210
 8154TIP3    H224427   6.505   1.580   1.758  0.9663 -1.5084 -1.1590
 8155TIP3   OH224428   6.653   0.350   3.647  0.0573 -0.0018  0.0467
 8155TIP3    H124429   6.718   0.393   3.592 -1.3326  1.1270 -0.7758
 8155TIP3    H224430   6.680   0.258   3.649  1.6797  0.4466 -0.2289
 8156TIP3   OH224431   5.946   2.511   4.390 -0.1735  0.2912 -0.0980
 8156TIP3    H124432   5.908   2.570   4.456 -1.0610 -0.6566  0.2741
 8156TIP3    H224433   6.040   2.525   4.397 -0.2892  0.6855  0.9425
 8157TIP3   OH224434   1.839   5.195   2.026 -0.0960 -0.8034 -0.1705
 8157TIP3    H124435   1.837   5.264   1.960  0.2471  0.4531  1.0722
 8157TIP3    H224436   1.893   5.231   2.096  1.3961 -2.9596 -0.1232
 8158TIP3   OH224437   4.133   0.548   0.154 -0.2556 -0.2037  0.0621
 8158TIP3    H124438   4.197   0.562   0.085 -0.3847  0.8502  0.1461
 8158TIP3    H224439   4.176   0.489   0.215  0.7253  0.6562  0.2198
 8159TIP3   OH224440   2.715   2.836   4.585 -0.1112 -0.0848 -0.2833
 8159TIP3    H124441   2.758   2.771   4.640  0.0134  0.1026 -0.1602
 8159TIP3    H224442   2.770   2.842   4.507  1.6932  2.1895  1.0260
 8160TIP3   OH224443   4.653   5.321   3.214 -0.2228  0.1625  0.0885
 8160TIP3    H124444   4.643   5.414   3.194 -0.1223  0.4035  1.0980
 8160TIP3    H224445   4.747   5.309   3.225 -0.2087 -0.1279 -0.3057
 8161TIP3   OH224446   3.613   4.122   3.069 -0.0751  0.0598 -0.8446
 8161TIP3    H124447   3.704   4.128   3.098 -0.1262 -0.6848 -0.4840
 8161TIP3    H224448   3.611   4.168   2.986  0.2217  1.7344  0.0203
 8162TIP3   OH224449   3.268   3.108   2.775  1.0678  0.1532 -0.5752
 8162TIP3    H124450   3.311   3.085   2.693  1.9709 -0.8908  0.1585
 8162TIP3    H224451   3.337   3.102   2.841  0.2926  0.6751  0.3179
 8163TIP3   OH224452   1.827   5.315   0.164  0.1521  0.0760 -0.3441
 8163TIP3    H124453   1.762   5.386   0.162  0.7029  0.5871 -0.3117
 8163TIP3    H224454   1.775   5.235   0.159 -0.5562  0.4477  0.7474
 8164TIP3   OH224455   4.275   3.915   2.917 -0.3937  0.3677  0.9186
 8164TIP3    H124456   4.291   3.895   3.009  1.5183 -1.9161  0.1975
 8164TIP3    H224457   4.338   3.983   2.895  1.1736 -1.0837  0.6873
 8165TIP3   OH224458   3.352   4.598   4.042 -0.1326  0.1110 -0.3935
 8165TIP3    H124459   3.276   4.554   4.005 -1.3820  2.0218 -0.2040
 8165TIP3    H224460   3.425   4.573   3.984 -1.0782 -0.9141 -1.1816
 8166TIP3   OH224461   4.985   3.098   1.013 -0.0310  0.5317 -0.2402
 8166TIP3    H124462   4.972   3.011   1.052 -0.1637  0.5580 -0.2274
 8166TIP3    H224463   4.939   3.158   1.071 -0.7554  0.4993 -0.7742
 8167TIP3   OH224464  -0.010   0.480   3.396 -0.0495  0.7864 -0.1322
 8167TIP3    H124465   0.078   0.446   3.380  0.6814  2.9152 -0.8999
 8167TIP3    H224466  -0.011   0.501   3.489 -0.4391 -0.9934  0.3100
 8168TIP3   OH224467   1.794   0.379   0.462 -0.5799 -0.0393  0.1669
 8168TIP3    H124468   1.757   0.297   0.430  1.1903 -0.4704 -0.9190
 8168TIP3    H224469   1.760   0.387   0.552 -1.2736 -1.6346  0.0782
 8169TIP3   OH224470   3.683   3.799   3.001  0.3660 -0.3225  0.4988
 8169TIP3    H124471   3.721   3.810   2.914 -0.6846 -1.8150 -0.1913
 8169TIP3    H224472   3.668   3.889   3.031  1.9777  0.2512 -0.2698
 8170TIP3   OH224473   0.301   1.963   4.690 -0.1322  0.2851 -0.0411
 8170TIP3    H124474   0.284   1.983   4.598 -1.1780  0.5583  0.1990
 8170TIP3    H224475   0.322   1.870   4.692  1.5438  0.6156 -0.7545
 8171TIP3   OH224476   6.690   4.954   2.713  0.1444 -0.1293 -0.0772
 8171TIP3    H124477   6.640   4.872   2.719 -0.6796  0.2431 -1.5166
 8171TIP3    H224478   6.649   5.002   2.641  1.4226  1.0082 -0.0766
 8172TIP3   OH224479   0.893   5.342   3.218 -0.3192 -0.3482 -0.2087
 8172TIP3    H124480   0.974   5.295   3.238 -1.1900 -1.0713  1.8855
 8172TIP3    H224481   0.829   5.274   3.201 -0.7391  0.1904 -0.8186
 8173TIP3   OH224482   4.848   0.075   1.847 -0.4055 -0.5610 -0.3037
 8173TIP3    H124483   4.810   0.134   1.783  0.9623 -0.8003 -1.3651
 8173TIP3    H224484   4.942   0.089   1.841 -0.0045 -2.9454 -0.7475
 8174TIP3   OH224485   3.919   5.627   4.973 -0.4339  0.1074  0.5809
 8174TIP3    H124486   3.900   5.564   5.043  0.0965  0.4537  1.0465
 8174TIP3    H224487   3.838   5.676   4.962 -1.7781 -2.3357 -1.6022
 8175TIP3   OH224488   0.246   4.389   4.265 -0.2107 -0.8101  0.0696
 8175TIP3    H124489   0.186   4.448   4.311 -0.1893 -1.4389  0.9106
 8175TIP3    H224490   0.216   4.301   4.288  0.9167 -1.1330  0.3524
 8176TIP3   OH224491   3.717   2.648   2.540  0.0474 -0.1029  0.4664
 8176TIP3    H124492   3.758   2.702   2.608 -0.6887  1.5951 -0.3901
 8176TIP3    H224493   3.788   2.630   2.478  0.6500 -1.4131  1.4878
 8177TIP3   OH224494   5.567   2.357   2.129  0.0387  0.1825 -0.2668
 8177TIP3    H124495   5.534   2.321   2.211  2.8561  0.3347  1.0589
 8177TIP3    H224496   5.623   2.288   2.094  1.7796  1.4467 -0.1033
 8178TIP3   OH224497   2.850   4.450   2.475  0.1274 -0.2161 -0.2127
 8178TIP3    H124498   2.940   4.423   2.458 -0.2934 -0.6420 -1.9344
 8178TIP3    H224499   2.807   4.371   2.506  0.1382 -0.2319 -0.2371
 8179TIP3   OH224500   7.154   3.993   3.211  0.2146 -0.2728  0.1534
 8179TIP3    H124501   7.242   3.972   3.181  0.1301  0.7103 -0.8895
 8179TIP3    H224502   7.126   3.917   3.261  1.5248 -0.7364  0.2192
 8180TIP3   OH224503   5.659   2.574   1.729  0.2296 -0.0459  0.9899
 8180TIP3    H124504   5.589   2.632   1.759  0.0047 -0.2845  0.9282
 8180TIP3    H224505   5.618   2.488   1.723  0.5527 -0.2021  1.0391
 8181TIP3   OH224506   4.378   4.035   5.807 -0.4891 -0.4934 -0.5875
 8181TIP3    H124507   4.433   3.980   5.862  0.0869 -0.4341 -1.0846
 8181TIP3    H224508   4.300   4.053   5.860  0.3768  0.1862  0.5026
 8182TIP3   OH224509   3.965   6.018   4.481 -0.2343  0.2189  0.0739
 8182TIP3    H124510   3.996   6.083   4.418  1.1983  0.4447  0.9810
 8182TIP3    H224511   4.037   5.955   4.488 -0.5625 -0.0602  1.1174
 8183TIP3   OH224512   2.803   0.073   5.187 -0.4112  0.3674  0.1124
 8183TIP3    H124513   2.898   0.061   5.193 -0.4136  0.2927  0.0044
 8183TIP3    H224514   2.792   0.166   5.165 -0.4242  0.8532  1.9547
 8184TIP3   OH224515   3.473   1.373   2.263  0.4939  0.2361 -0.5889
 8184TIP3    H124516   3.426   1.341   2.340  1.7908 -0.7774 -0.1750
 8184TIP3    H224517   3.406   1.415   2.209 -0.9872 -1.5594 -0.2571
 8185TIP3   OH224518   1.525   0.441   4.168 -0.3732 -1.0857  0.4273
 8185TIP3    H124519   1.615   0.438   4.202  0.0709 -3.3909 -0.6931
 8185TIP3    H224520   1.535   0.425   4.074 -1.9235 -0.4862  0.1302
 8186TIP3   OH224521   4.004   5.757   2.514 -0.2130 -0.2581 -0.2504
 8186TIP3    H124522   4.044   5.706   2.585 -2.4225 -2.3229 -0.3644
 8186TIP3    H224523   3.987   5.843   2.552 -0.7584 -1.1136  1.5319
 8187TIP3   OH224524   7.087   4.625   3.042  0.5560 -0.2893 -0.4233
 8187TIP3    H124525   7.031   4.678   3.099 -0.8447 -0.4405 -1.6225
 8187TIP3    H224526   7.118   4.554   3.098  0.1990  0.2392  0.4653
 8188TIP3   OH224527   2.420   1.113   4.279 -0.2215  0.4493 -0.0212
 8188TIP3    H124528   2.426   1.207   4.262  0.5206  0.6052  0.9886
 8188TIP3    H224529   2.355   1.106   4.349  0.8720  0.3804  1.0154
 8189TIP3   OH224530   5.222   3.186   1.252 -0.3962 -0.3862  0.5932
 8189TIP3    H124531   5.314   3.188   1.278  0.0674  1.1249 -0.9964
 8189TIP3    H224532   5.210   3.099   1.214 -0.0672 -1.1643  2.1816
 8190TIP3   OH224533   7.145   3.775   3.679 -0.1389 -0.2175  0.2298
 8190TIP3    H124534   7.168   3.823   3.759 -0.8716  0.7139 -0.0989
 8190TIP3    H224535   7.207   3.702   3.676 -0.6322 -0.7631  2.0884
 8191TIP3   OH224536   1.275   3.187   4.557 -0.1831 -0.7365 -0.1275
 8191TIP3    H124537   1.319   3.241   4.492  1.4315 -1.5483  0.2310
 8191TIP3    H224538   1.328   3.197   4.636 -1.1983 -1.0136  0.6096
 8192TIP3   OH224539   3.177   1.290   0.033 -0.2538  0.3797  0.3256
 8192TIP3    H124540   3.176   1.197   0.011 -0.6774  0.2323  0.9306
 8192TIP3    H224541   3.096   1.303   0.083  0.5522  0.7377  1.5853
 8193TIP3   OH224542   4.048   0.815   4.833 -0.3509 -0.3119 -0.0615
 8193TIP3    H124543   4.052   0.904   4.866 -0.7948  0.0464 -0.9249
 8193TIP3    H224544   3.965   0.811   4.786 -0.4641 -1.2678  0.2000
 8194TIP3   OH224545   5.740   6.355   3.132 -0.3228  0.4461 -0.1150
 8194TIP3    H124546   5.833   6.342   3.150 -0.1586  0.4435 -0.9397
 8194TIP3    H224547   5.737   6.403   3.050 -1.0406  1.3078  0.3963
 8195TIP3   OH224548   1.475   5.190   5.895 -0.2577  0.6011  0.4846
 8195TIP3    H124549   1.421   5.124   5.852 -0.2781  0.4979  0.6685
 8195TIP3    H224550   1.418   5.266   5.905  0.3276  1.3853 -1.5615
 8196TIP3   OH224551   4.825   5.259   0.488  0.2681 -0.7406 -0.1810
 8196TIP3    H124552   4.769   5.191   0.525 -0.8042  0.6413  0.8872
 8196TIP3    H224553   4.900   5.264   0.547  0.8103 -1.6129 -0.7886
 8197TIP3   OH224554   4.690   1.766   5.639  0.0917  0.4104 -0.4386
 8197TIP3    H124555   4.721   1.679   5.664 -3.0380 -1.6296 -2.9550
 8197TIP3    H224556   4.768   1.809   5.603  1.3862 -1.9745 -0.7071
 8198TIP3   OH224557   0.035   3.502   2.530  0.0075 -0.3138 -0.3324
 8198TIP3    H124558   0.069   3.584   2.565  0.3643 -0.3428 -0.6114
 8198TIP3    H224559   0.021   3.447   2.607 -2.1774  0.7073  0.0737
 8199TIP3   OH224560   6.742   3.340   3.527  0.3650 -0.2339 -0.1197
 8199TIP3    H124561   6.752   3.418   3.472  0.2514  0.1908  0.4454
 8199TIP3    H224562   6.791   3.272   3.482 -0.5384 -0.1652 -1.2535
 8200TIP3   OH224563   2.015   3.458   4.016 -0.0941 -0.1688 -0.6153
 8200TIP3    H124564   2.085   3.393   4.009 -1.0057 -1.1061 -1.4314
 8200TIP3    H224565   1.955   3.437   3.944 -0.4678  1.5414 -0.8483
 8201TIP3   OH224566   2.095   2.206   5.759  0.3539  0.4217 -0.0674
 8201TIP3    H124567   2.034   2.277   5.740 -1.7534 -1.7132 -1.9536
 8201TIP3    H224568   2.049   2.151   5.821  2.2692  0.9744  1.9598
 8202TIP3   OH224569   5.745   4.627   2.910  0.7507 -0.3145 -0.5006
 8202TIP3    H124570   5.839   4.639   2.925  0.4234 -0.0242  1.5191
 8202TIP3    H224571   5.712   4.714   2.888  0.8159 -0.2524 -0.3539
 8203TIP3   OH224572   2.727   4.168   1.837  0.4168 -0.2304  0.3082
 8203TIP3    H124573   2.650   4.159   1.894 -0.1889 -0.4171 -0.5161
 8203TIP3    H224574   2.798   4.126   1.886 -0.5696 -2.3631  0.0428
 8204TIP3   OH224575   5.286   0.560   2.552 -0.1019  0.1062  0.9053
 8204TIP3    H124576   5.325   0.624   2.491 -1.0939 -0.4164 -0.3279
 8204TIP3    H224577   5.280   0.607   2.635  0.8438  1.0160  0.4924
 8205TIP3   OH224578   1.204   6.364   0.558  0.4408  0.0642  0.1820
 8205TIP3    H124579   1.286   6.326   0.588  0.3029  0.0975  0.6123
 8205TIP3    H224580   1.219   6.386   0.466 -0.0407 -2.6317 -0.6183
 8206TIP3   OH224581   0.152   4.310   0.065  0.3265  0.1430  0.6011
 8206TIP3    H124582   0.228   4.368   0.074  0.5353 -0.2201  1.2120
 8206TIP3    H224583   0.191   4.223   0.054  0.0174  0.1071 -0.3103
 8207TIP3   OH224584   0.362   0.782   1.205 -0.1704  0.5341 -0.1371
 8207TIP3    H124585   0.310   0.750   1.279  1.6773  1.1663  1.5380
 8207TIP3    H224586   0.333   0.873   1.194 -0.9347  0.2368 -0.6813
 8208TIP3   OH224587   3.453   4.671   3.617 -0.2647  0.7553  0.1847
 8208TIP3    H124588   3.481   4.692   3.706 -0.7671 -0.3777  0.6252
 8208TIP3    H224589   3.427   4.579   3.620 -2.5039  1.2807 -0.5439
 8209TIP3   OH224590   2.483   4.784   4.007 -0.2060  0.0491  0.2941
 8209TIP3    H124591   2.465   4.868   3.965 -1.4607  0.2403  1.1363
 8209TIP3    H224592   2.424   4.782   4.082  0.8174 -0.9821  1.1095
 8210TIP3   OH224593   6.091   0.210   1.459  0.2960 -0.6026 -0.1027
 8210TIP3    H124594   6.045   0.211   1.543  2.7130 -0.7892  1.3383
 8210TIP3    H224595   6.043   0.147   1.405 -2.4509  0.9421  0.3877
 8211TIP3   OH224596   3.279   6.177   4.383 -0.1405 -0.0807  0.2437
 8211TIP3    H124597   3.200   6.231   4.395 -0.1381  0.0062 -0.1287
 8211TIP3    H224598   3.305   6.192   4.293  2.3333  2.6411  1.2729
 8212TIP3   OH224599   6.591   0.892   1.981 -0.2519 -0.3941  0.1904
 8212TIP3    H124600   6.585   0.972   1.930 -0.1780 -0.1882  0.5052
 8212TIP3    H224601   6.627   0.919   2.065 -2.4749 -0.3595  1.1873
 8213TIP3   OH224602   3.195   3.797   0.257  0.0882  0.0810 -0.2331
 8213TIP3    H124603   3.176   3.891   0.252 -0.3468  0.3796  3.9917
 8213TIP3    H224604   3.109   3.756   0.271  0.4168 -0.8880 -0.9121
 8214TIP3   OH224605   4.637   5.561   1.760 -0.6455  0.1834  0.0203
 8214TIP3    H124606   4.618   5.477   1.802 -1.0806 -0.2881 -1.0797
 8214TIP3    H224607   4.693   5.607   1.822 -0.0257 -1.1054  0.4602
 8215TIP3   OH224608   1.587   5.431   1.180  0.6429  0.4927  0.1060
 8215TIP3    H124609   1.682   5.435   1.166  0.6913  1.0863  0.5777
 8215TIP3    H224610   1.568   5.506   1.236 -0.5129  1.9604 -2.1181
 8216TIP3   OH224611   3.835   5.934   0.317 -0.2301 -0.2239  0.1333
 8216TIP3    H124612   3.795   6.019   0.303 -0.8565 -0.3595  0.9828
 8216TIP3    H224613   3.814   5.883   0.239 -1.1431 -0.0698  0.2749
 8217TIP3   OH224614   5.262   4.483   0.646 -0.3146  0.6290  0.6773
 8217TIP3    H124615   5.348   4.524   0.650  0.0744 -0.0162 -0.5301
 8217TIP3    H224616   5.275   4.406   0.590 -1.8120  0.8838 -0.0671
 8218TIP3   OH224617   6.838   3.683   0.605  0.0562  0.2088  0.0719
 8218TIP3    H124618   6.910   3.716   0.659 -0.3222  0.9413  0.1416
 8218TIP3    H224619   6.821   3.753   0.543  0.3725 -0.5598 -0.9067
 8219TIP3   OH224620   0.233   1.735   0.626  0.2840 -0.4853  0.7985
 8219TIP3    H124621   0.163   1.736   0.560  0.3385 -3.1446  0.5930
 8219TIP3    H224622   0.187   1.726   0.709  0.3156  0.3102  0.9095
 8220TIP3   OH224623   2.849   4.272   4.802 -0.0945 -0.1302  0.2722
 8220TIP3    H124624   2.782   4.307   4.861 -1.0579  0.9848 -1.4075
 8220TIP3    H224625   2.917   4.340   4.800 -0.5857  0.3519 -0.7196
 8221TIP3   OH224626   3.911   5.325   2.344 -0.5065  0.2963  0.2756
 8221TIP3    H124627   3.900   5.234   2.372 -0.6894  0.2805  0.1515
 8221TIP3    H224628   3.869   5.328   2.258 -0.7553  0.5719  0.4079
 8222TIP3   OH224629   2.226   3.053   4.641  0.3863 -0.4945 -0.0581
 8222TIP3    H124630   2.219   2.969   4.685 -1.6889 -0.0472  0.5909
 8222TIP3    H224631   2.204   3.117   4.709 -1.2702  0.3308 -1.2981
 8223TIP3   OH224632   5.340   5.107   3.793  0.1072 -0.4234  0.4919
 8223TIP3    H124633   5.245   5.096   3.790  0.3033 -1.9318 -1.3228
 8223TIP3    H224634   5.366   5.066   3.876 -0.6827 -1.2513  0.3432
 8224TIP3   OH224635   3.127   6.234   3.494  0.0027 -0.0235  0.2055
 8224TIP3    H124636   3.067   6.182   3.440  1.2330  0.6123 -1.9022
 8224TIP3    H224637   3.205   6.181   3.503  0.8274  0.9412 -0.9769
 8225TIP3   OH224638   2.355   3.454   0.536 -0.0624  0.6454 -0.2027
 8225TIP3    H124639   2.371   3.396   0.610  1.0432  0.4961 -0.5446
 8225TIP3    H224640   2.260   3.449   0.521 -0.3908  1.0921  1.5253
 8226TIP3   OH224641   5.929   2.752   2.787  0.0781  0.2700 -0.2746
 8226TIP3    H124642   5.844   2.787   2.814 -0.9184 -1.9061 -0.4281
 8226TIP3    H224643   5.937   2.669   2.833  0.9297 -0.8105 -2.2733
 8227TIP3   OH224644   6.374   4.380   2.097 -0.6548  0.2270  0.0951
 8227TIP3    H124645   6.407   4.294   2.074 -0.7635  0.5552 -1.3460
 8227TIP3    H224646   6.280   4.374   2.082 -0.7705  0.3809  0.7207
 8228TIP3   OH224647   4.708   5.813   0.856  0.0724 -0.1132  0.0623
 8228TIP3    H124648   4.630   5.777   0.897 -0.6952 -0.1785 -1.3897
 8228TIP3    H224649   4.731   5.888   0.910 -1.0316 -0.0686  0.4887
 8229TIP3   OH224650   2.060   2.780   5.468  0.2486 -0.1323  0.0029
 8229TIP3    H124651   2.057   2.689   5.497 -2.9309  0.3024  1.4498
 8229TIP3    H224652   2.052   2.774   5.372  1.0991 -1.3724 -0.0135
 8230TIP3   OH224653   6.783   2.071   2.920 -0.2580 -0.0310  0.6074
 8230TIP3    H124654   6.778   2.063   3.015 -0.1826  0.4792  0.6570
 8230TIP3    H224655   6.692   2.074   2.891 -0.2809  0.0124  0.6835
 8231TIP3   OH224656   2.375   2.222   5.324  0.3033  0.0708  0.1233
 8231TIP3    H124657   2.425   2.150   5.362  1.5858  1.1141  0.5194
 8231TIP3    H224658   2.290   2.220   5.367  1.4685  0.7890  2.6123
 8232TIP3   OH224659   1.210   5.316   4.658 -0.1480 -0.7776  0.0295
 8232TIP3    H124660   1.147   5.287   4.724 -1.5227 -0.9583 -1.3334
 8232TIP3    H224661   1.231   5.406   4.684 -1.2761 -0.5720  0.2849
 8233TIP3   OH224662   2.295   1.446   4.430 -0.1593  0.1488  0.1455
 8233TIP3    H124663   2.292   1.460   4.525 -1.7032 -0.6169  0.2444
 8233TIP3    H224664   2.360   1.508   4.399  0.6701  0.1561  1.7512
 8234TIP3   OH224665   2.289   0.581   1.204  0.0691  0.4574 -0.3738
 8234TIP3    H124666   2.323   0.526   1.275  0.5975  1.5506  0.2448
 8234TIP3    H224667   2.343   0.558   1.129 -0.8530 -1.1134 -0.6009
 8235TIP3   OH224668   2.731   3.713   4.929  0.3076 -0.0159  0.1903
 8235TIP3    H124669   2.665   3.656   4.969  0.4828 -0.1104  0.3464
 8235TIP3    H224670   2.794   3.729   4.999  0.2920  0.3193  0.1290
 8236TIP3   OH224671   7.122   0.720   1.492  0.1817 -0.4381 -0.6294
 8236TIP3    H124672   7.064   0.672   1.551  0.3833 -2.2470 -1.8301
 8236TIP3    H224673   7.109   0.678   1.407  3.5326 -1.2149 -0.8725
 8237TIP3   OH224674   0.607   3.705   5.736 -0.5420 -0.3806  0.2436
 8237TIP3    H124675   0.603   3.650   5.815 -0.6374 -0.6959  0.0185
 8237TIP3    H224676   0.696   3.740   5.736 -0.8330  0.4134  1.0286
 8238TIP3   OH224677   5.606   3.654   4.960  0.4336  0.0133 -0.2346
 8238TIP3    H124678   5.673   3.716   4.933 -0.8209  1.7156  0.3447
 8238TIP3    H224679   5.573   3.689   5.043 -0.8713 -0.9936 -0.2923
 8239TIP3   OH224680   6.547   6.603   1.591  0.6350 -0.6616  0.2503
 8239TIP3    H124681   6.478   6.564   1.537  0.0374  1.1380 -0.3636
 8239TIP3    H224682   6.501   6.666   1.647  1.5929 -0.6011  0.9976
 8240TIP3   OH224683   1.013   2.818   5.807  0.3636  0.1787  0.4984
 8240TIP3    H124684   1.016   2.744   5.868 -0.7411 -0.8832 -0.6522
 8240TIP3    H224685   1.019   2.777   5.721 -1.2602  1.3132 -0.2126
 8241TIP3   OH224686   5.406   5.883   2.193  0.0628  0.1088 -0.8210
 8241TIP3    H124687   5.330   5.939   2.179 -0.3492  0.3411  1.9258
 8241TIP3    H224688   5.394   5.847   2.281  2.6372 -0.6342 -0.6969
 8242TIP3   OH224689   1.537   3.373   2.639 -0.1664 -0.4374 -0.3867
 8242TIP3    H124690   1.532   3.343   2.729 -0.6672  2.2301  0.5681
 8242TIP3    H224691   1.631   3.377   2.620 -0.0694 -1.2395 -0.0919
 8243TIP3   OH224692   3.734   4.634   4.963  0.1314 -0.2064 -0.4642
 8243TIP3    H124693   3.720   4.583   5.042  0.6940  0.0962 -0.1651
 8243TIP3    H224694   3.681   4.590   4.896 -0.7378 -0.1724  0.1892
 8244TIP3   OH224695   0.386   5.150   0.729 -0.5156  0.4816  0.2000
 8244TIP3    H124696   0.412   5.235   0.765  0.6426 -0.2031  1.0648
 8244TIP3    H224697   0.424   5.149   0.641 -1.0086  1.0778 -0.0229
 8245TIP3   OH224698   3.943   6.352   0.104 -0.1293  0.1410  0.1644
 8245TIP3    H124699   3.960   6.380   0.194  3.6132 -0.1068 -0.2989
 8245TIP3    H224700   3.958   6.431   0.052 -0.0252 -0.2440 -0.3956
 8246TIP3   OH224701   4.785   1.761   1.580  0.3990 -0.5489  0.7044
 8246TIP3    H124702   4.852   1.791   1.518 -0.1131 -0.9780 -0.0689
 8246TIP3    H224703   4.745   1.685   1.538 -0.2284 -0.6117  1.3889
 8247TIP3   OH224704   1.180   6.139   2.567  0.1517 -0.1672  0.0447
 8247TIP3    H124705   1.242   6.125   2.638  1.3314  0.7462 -0.7692
 8247TIP3    H224706   1.109   6.077   2.584  0.6398 -0.3010  1.7350
 8248TIP3   OH224707   0.814   4.020   4.004 -0.2724 -0.0159 -0.3220
 8248TIP3    H124708   0.872   4.096   4.014  1.3673 -1.4794  2.2528
 8248TIP3    H224709   0.822   3.997   3.912  2.2690  0.6572 -0.3653
 8249TIP3   OH224710   0.028   1.496   4.915 -0.8502 -0.0027 -0.4207
 8249TIP3    H124711   0.021   1.533   5.002  0.3907  0.6397 -0.5735
 8249TIP3    H224712   0.088   1.422   4.925 -0.6472  0.1170 -0.7406
 8250TIP3   OH224713   3.000   3.649   3.372 -0.6978 -0.2986 -0.0604
 8250TIP3    H124714   3.081   3.601   3.389 -1.8896 -2.3062  0.2720
 8250TIP3    H224715   2.944   3.628   3.447 -1.2703  1.7492  0.1590
 8251TIP3   OH224716   3.235   5.607   2.826  0.2819 -0.3768 -0.4070
 8251TIP3    H124717   3.331   5.614   2.824  0.2204  0.7634 -2.7159
 8251TIP3    H224718   3.216   5.522   2.786  0.3202 -0.9169  0.6925
 8252TIP3   OH224719   0.440   3.015   3.059  0.9671  0.6358  0.1087
 8252TIP3    H124720   0.356   2.971   3.071 -0.7476  3.5975  0.0209
 8252TIP3    H224721   0.479   2.974   2.983  0.4159 -1.9014  1.1017
 8253TIP3   OH224722   2.469   1.759   2.071  0.3457 -0.0580 -0.3988
 8253TIP3    H124723   2.398   1.744   2.008 -0.0760  0.6296 -0.0951
 8253TIP3    H224724   2.536   1.695   2.047  0.2765  0.3238 -1.6810
 8254TIP3   OH224725   0.115   2.411   3.704  0.1251  0.5993 -0.4263
 8254TIP3    H124726   0.207   2.394   3.728  0.0889  0.9247 -0.0427
 8254TIP3    H224727   0.094   2.343   3.640 -0.1508 -1.0751  1.3562
 8255TIP3   OH224728   0.960   6.114   1.759  0.7838  0.0404 -0.0895
 8255TIP3    H124729   1.029   6.117   1.693  0.1425 -0.0680 -0.7664
 8255TIP3    H224730   1.007   6.123   1.842  1.9120 -2.5323 -0.3376
 8256TIP3   OH224731   1.656   4.950   5.193  0.1817 -0.1788 -0.5453
 8256TIP3    H124732   1.687   4.907   5.113 -2.5452 -3.0137 -0.2734
 8256TIP3    H224733   1.583   5.004   5.164 -0.3225 -0.6136 -0.1144
 8257TIP3   OH224734   0.445   6.530   2.798 -0.0095 -0.0368 -0.0882
 8257TIP3    H124735   0.409   6.611   2.834 -0.2985  0.3263 -1.1613
 8257TIP3    H224736   0.540   6.544   2.798  0.1885 -0.8865  2.4793
 8258TIP3   OH224737   3.704   3.690   0.931 -0.3443  0.2598 -0.1694
 8258TIP3    H124738   3.762   3.737   0.991 -0.9692  0.9280 -0.0916
 8258TIP3    H224739   3.628   3.667   0.983 -0.3842 -0.1804 -0.4100
 8259TIP3   OH224740   4.034   3.051   0.047  0.1895  0.5020  0.1815
 8259TIP3    H124741   4.023   3.006   0.131  0.4906  0.3311  0.1328
 8259TIP3    H224742   4.049   3.142   0.071  1.6125  0.2431  0.3985
 8260TIP3   OH224743   2.813   4.113   4.374 -0.2032  0.4210  0.0954
 8260TIP3    H124744   2.810   4.018   4.388 -0.0997  0.4215  0.1238
 8260TIP3    H224745   2.767   4.150   4.449  1.0086  0.4586  0.8403
 8261TIP3   OH224746   4.006   2.515   3.182  0.6193  0.3848  0.3574
 8261TIP3    H124747   3.978   2.441   3.236 -0.2576  0.5014  0.0934
 8261TIP3    H224748   4.097   2.530   3.206  1.4100 -1.9351 -0.8664
 8262TIP3   OH224749   4.343   0.386   2.995 -0.4374  0.1653  0.4811
 8262TIP3    H124750   4.417   0.428   2.949 -1.1952  1.2938  0.2510
 8262TIP3    H224751   4.309   0.455   3.052 -1.2290 -0.3953  0.6873
 8263TIP3   OH224752   2.080   1.177   5.226 -0.1656 -0.2054  0.4693
 8263TIP3    H124753   2.140   1.214   5.291 -0.0489  0.2270  0.1183
 8263TIP3    H224754   2.136   1.159   5.150 -0.5320  0.5217  0.0125
 8264TIP3   OH224755   3.038   3.339   3.341 -0.1220 -0.0437 -0.0415
 8264TIP3    H124756   2.960   3.341   3.396 -1.8420  0.1440 -2.3264
 8264TIP3    H224757   3.054   3.245   3.327 -1.0914 -0.0898 -1.0132
 8265TIP3   OH224758   4.229   0.266   1.585 -0.1616 -0.1175  0.1893
 8265TIP3    H124759   4.165   0.219   1.531 -0.4857  0.3602  0.1479
 8265TIP3    H224760   4.306   0.209   1.585 -0.0705 -0.0379 -0.9765
 8266TIP3   OH224761   1.883   0.155   4.450  0.6863 -0.0211 -0.5380
 8266TIP3    H124762   1.826   0.080   4.462 -0.6768  0.8830 -1.1035
 8266TIP3    H224763   1.890   0.164   4.355  1.4430  0.1354 -0.4740
 8267TIP3   OH224764   5.682   2.159   4.639 -0.1429 -0.2997 -0.2045
 8267TIP3    H124765   5.603   2.211   4.654 -0.0598 -0.4424  0.7981
 8267TIP3    H224766   5.719   2.194   4.558 -1.1550 -0.1413 -0.6131
 8268TIP3   OH224767   1.651   5.956   0.420 -0.3927 -0.2524  0.7483
 8268TIP3    H124768   1.739   5.990   0.439 -0.4912 -0.6879  2.0474
 8268TIP3    H224769   1.624   5.913   0.501 -1.4198 -0.9681  0.0406
 8269TIP3   OH224770   4.752   5.992   2.099  0.0700  0.9082 -0.0580
 8269TIP3    H124771   4.803   6.041   2.163  1.6266  0.4582 -0.9070
 8269TIP3    H224772   4.735   5.908   2.141  1.4040  0.4743 -0.3360
 8270TIP3   OH224773   5.643   6.091   1.458 -0.1065  0.5506  0.5782
 8270TIP3    H124774   5.564   6.115   1.409  0.1524 -0.1089 -0.1786
 8270TIP3    H224775   5.675   6.175   1.493 -1.8271  0.6846  1.9982
 8271TIP3   OH224776   0.263   5.059   4.691  0.2557  0.0842 -0.1282
 8271TIP3    H124777   0.332   4.993   4.678  0.1403  0.0013 -0.3160
 8271TIP3    H224778   0.208   5.022   4.760  0.5561  0.2760  0.2157
 8272TIP3   OH224779   4.884   0.975   3.783  0.2766  0.6258  0.0892
 8272TIP3    H124780   4.909   0.890   3.745  0.0252  1.1541 -1.3302
 8272TIP3    H224781   4.966   1.011   3.817  0.1207 -0.8793  2.2435
 8273TIP3   OH224782   5.670   5.396   0.946  0.6996  0.1194 -0.2482
 8273TIP3    H124783   5.670   5.429   1.036 -0.0623  0.4816 -0.3817
 8273TIP3    H224784   5.609   5.452   0.899  0.6023 -0.4746 -0.8487
 8274TIP3   OH224785   5.704   0.255   1.648 -0.1980 -0.3065 -0.2556
 8274TIP3    H124786   5.617   0.294   1.654  0.6152  1.3788  2.4197
 8274TIP3    H224787   5.687   0.160   1.650 -1.9920 -0.0917 -1.7780
 8275TIP3   OH224788   0.708   0.349   1.847 -0.1554  0.1448 -0.8670
 8275TIP3    H124789   0.659   0.388   1.775 -0.3407 -0.6512 -1.1855
 8275TIP3    H224790   0.717   0.419   1.911 -0.7796  0.5989 -1.2670
 8276TIP3   OH224791   0.442   1.971   3.968  0.0698  0.0763  0.2280
 8276TIP3    H124792   0.412   1.941   3.882 -2.2835  0.1848  0.9531
 8276TIP3    H224793   0.440   2.066   3.962  0.3977  0.0847  0.2475
 8277TIP3   OH224794   2.159   2.017   3.139  0.0460 -0.0896  0.0921
 8277TIP3    H124795   2.163   2.009   3.043 -1.0566  1.6435 -0.1434
 8277TIP3    H224796   2.114   1.938   3.168 -2.6006  0.8231 -1.1920
 8278TIP3   OH224797   5.440   4.611   2.213  0.1828  0.0554 -0.1369
 8278TIP3    H124798   5.477   4.528   2.181  0.8244  0.1107  0.4505
 8278TIP3    H224799   5.378   4.585   2.281  0.1336  0.0422 -0.1864
 8279TIP3   OH224800   2.470   6.128   5.623 -0.7008  0.4694 -0.5985
 8279TIP3    H124801   2.511   6.095   5.543 -0.8728  1.1738 -0.9889
 8279TIP3    H224802   2.379   6.143   5.599 -0.7653  0.6379 -0.2531
 8280TIP3   OH224803   6.203   6.706   3.699  0.1847 -0.0114  0.3908
 8280TIP3    H124804   6.288   6.665   3.687 -0.5392 -1.4613 -0.1047
 8280TIP3    H224805   6.161   6.655   3.769  0.1250  1.3789  1.4123
 8281TIP3   OH224806   6.157   4.950   2.944 -0.5298 -0.2585  0.2408
 8281TIP3    H124807   6.215   4.881   2.912  1.3812  1.0663  0.6626
 8281TIP3    H224808   6.074   4.934   2.900  0.5530 -1.4010 -1.5228
 8282TIP3   OH224809   0.175   4.519   1.912 -0.1394 -0.3806  0.1248
 8282TIP3    H124810   0.105   4.548   1.970  0.0980  0.4899 -0.0116
 8282TIP3    H224811   0.228   4.459   1.964  0.1100  0.4426  0.8369
 8283TIP3   OH224812   2.701   5.137   3.049  0.0380 -0.5430  0.2644
 8283TIP3    H124813   2.673   5.218   3.006  1.5479 -0.2222 -0.1614
 8283TIP3    H224814   2.725   5.165   3.138  0.3710 -0.5644  0.1796
 8284TIP3   OH224815   1.748   1.123   4.354 -0.4465  0.4225  0.2451
 8284TIP3    H124816   1.805   1.153   4.426 -0.5536 -1.1807  1.0294
 8284TIP3    H224817   1.697   1.201   4.331  0.9877  1.5071  0.5305
 8285TIP3   OH224818   5.999   3.694   5.152 -0.4970  0.4244 -0.5787
 8285TIP3    H124819   5.934   3.637   5.193 -0.2296  0.1754 -0.5034
 8285TIP3    H224820   6.082   3.671   5.194 -0.5661  1.6934  0.3140
 8286TIP3   OH224821   1.507   0.096   1.908  0.2098 -0.1005 -0.2918
 8286TIP3    H124822   1.526   0.133   1.995  0.5450  0.3152 -0.5376
 8286TIP3    H224823   1.554   0.153   1.847  1.2616 -1.3188 -0.6434
 8287TIP3   OH224824   4.517   4.355   4.113 -0.2541  0.3189 -0.0097
 8287TIP3    H124825   4.466   4.355   4.032 -0.1241  0.4719 -0.0912
 8287TIP3    H224826   4.481   4.427   4.164  0.0230  0.5632 -0.1572
 8288TIP3   OH224827   6.992   6.189   5.638 -0.5060 -0.2967  0.2960
 8288TIP3    H124828   7.087   6.187   5.624 -0.2752  0.2079  1.6369
 8288TIP3    H224829   6.981   6.178   5.733 -1.8322 -1.1954  0.0698
 8289TIP3   OH224830   0.513   0.687   3.398  0.0580  0.9925 -0.1718
 8289TIP3    H124831   0.477   0.771   3.427  0.1607  1.5030 -1.4475
 8289TIP3    H224832   0.490   0.682   3.305 -2.0671 -1.5451  0.4088
 8290TIP3   OH224833   5.756   1.862   2.076 -0.1974 -0.4254  0.2413
 8290TIP3    H124834   5.807   1.806   2.019 -0.1579  1.7497 -2.0434
 8290TIP3    H224835   5.667   1.827   2.072  0.1945 -1.4896  0.5252
 8291TIP3   OH224836   1.521   1.228   5.155  0.0040 -0.4089 -0.1927
 8291TIP3    H124837   1.494   1.248   5.245 -0.2904  0.0426 -0.3803
 8291TIP3    H224838   1.438   1.219   5.107  0.1686 -0.1814 -0.5187
 8292TIP3   OH224839   7.087   4.653   5.391 -0.3729 -0.0107  0.8111
 8292TIP3    H124840   7.070   4.740   5.427 -0.1170  0.8694 -1.0615
 8292TIP3    H224841   7.177   4.659   5.358 -1.6072  0.4129 -2.9159
 8293TIP3   OH224842   1.368   5.001   3.933 -0.0391 -0.3674 -0.2527
 8293TIP3    H124843   1.418   5.054   3.994  1.2143  0.2242 -1.7217
 8293TIP3    H224844   1.311   5.064   3.888  1.1283 -0.2792 -1.6847
 8294TIP3   OH224845   5.736   5.123   1.072  0.6844 -1.0859 -0.3624
 8294TIP3    H124846   5.830   5.133   1.060  0.3807  0.4400 -1.8300
 8294TIP3    H224847   5.697   5.180   1.006 -1.2731 -0.9473  0.8254
 8295TIP3   OH224848   3.301   6.745   5.562 -0.0824  0.1221 -0.1399
 8295TIP3    H124849   3.248   6.699   5.627 -0.2247  0.3719 -0.0756
 8295TIP3    H224850   3.365   6.681   5.533  0.8703  0.4073  1.2389
 8296TIP3   OH224851   0.123   1.236   5.796 -0.0864  0.0911  0.0511
 8296TIP3    H124852   0.064   1.184   5.742 -1.8816  1.4625  0.6292
 8296TIP3    H224853   0.067   1.299   5.840  1.8358  1.5854  0.4911
 8297TIP3   OH224854   7.037   4.191   2.900  0.0965  0.4057  0.0208
 8297TIP3    H124855   7.131   4.193   2.918 -0.2843 -0.0792  2.4661
 8297TIP3    H224856   7.013   4.283   2.888  0.7172  0.6290  0.4270
 8298TIP3   OH224857   4.879   2.644   2.909  0.6874  0.1693  0.3792
 8298TIP3    H124858   4.872   2.660   2.815 -0.4230  1.2856  0.6234
 8298TIP3    H224859   4.826   2.713   2.949  0.2074 -0.9792  1.7869
 8299TIP3   OH224860   5.874   3.444   4.049 -0.8253 -0.1887  0.3263
 8299TIP3    H124861   5.815   3.379   4.087 -2.7423  1.5049  0.4185
 8299TIP3    H224862   5.852   3.526   4.094  0.1438  0.9261 -1.1193
 8300TIP3   OH224863   0.526   0.518   0.960 -0.0716  0.1558 -0.0815
 8300TIP3    H124864   0.488   0.455   1.022 -0.8258  0.0372 -0.6468
 8300TIP3    H224865   0.486   0.496   0.876  0.6893  0.5291 -0.5507
 8301TIP3   OH224866   4.120   0.699   1.456  0.0893  0.4475 -0.8104
 8301TIP3    H124867   4.077   0.616   1.477 -1.6927  1.5441  0.1301
 8301TIP3    H224868   4.083   0.725   1.372  0.2834  0.5118 -0.8761
 8302TIP3   OH224869   1.550   3.568   1.367 -0.2034 -0.4859  0.0384
 8302TIP3    H124870   1.591   3.483   1.388  1.8166  0.6938  1.1874
 8302TIP3    H224871   1.613   3.633   1.399 -1.6359  1.4647 -0.9495
 8303TIP3   OH224872   3.066   3.504   1.789 -0.0216 -0.3474  0.2415
 8303TIP3    H124873   3.099   3.585   1.827 -0.5741 -0.3697  0.7749
 8303TIP3    H224874   2.971   3.514   1.789 -0.0522 -0.4206 -0.9690
 8304TIP3   OH224875   5.449   2.505   1.412  0.3689  0.2802 -0.6405
 8304TIP3    H124876   5.460   2.435   1.477 -2.5585  0.7282  0.4812
 8304TIP3    H224877   5.520   2.566   1.430  0.3330 -0.2111  1.3386
 8305TIP3   OH224878   0.308   5.318   0.392  0.0499 -0.2453  0.7827
 8305TIP3    H124879   0.307   5.406   0.355  1.7337  0.0064  1.2451
 8305TIP3    H224880   0.230   5.276   0.357 -0.6741  1.3650  0.3968
 8306TIP3   OH224881   0.242   5.019   2.733 -0.3618 -0.5356  0.3118
 8306TIP3    H124882   0.336   4.999   2.741 -0.0144  1.2947  1.7189
 8306TIP3    H224883   0.200   4.934   2.723  1.4386 -1.4110 -0.3652
 8307TIP3   OH224884   0.752   0.287   4.156  0.0853 -0.8950 -0.1677
 8307TIP3    H124885   0.761   0.327   4.069 -0.0727  0.4677  0.4178
 8307TIP3    H224886   0.670   0.238   4.151  0.1316 -0.9215 -0.8298
 8308TIP3   OH224887   2.069   2.860   3.432 -0.3899 -0.1997  0.2699
 8308TIP3    H124888   1.982   2.827   3.454 -0.4743 -0.9360 -1.0682
 8308TIP3    H224889   2.127   2.821   3.498 -1.0173  0.0068  0.9486
 8309TIP3   OH224890   4.116   6.397   5.586 -0.1503 -0.0285  0.0786
 8309TIP3    H124891   4.145   6.349   5.663  0.2927  1.2390  0.7342
 8309TIP3    H224892   4.035   6.354   5.560  0.7581 -1.7670 -0.0079
 8310TIP3   OH224893   1.981   0.121   0.287 -0.0383 -0.6125  0.0229
 8310TIP3    H124894   1.989   0.050   0.350 -2.5313 -1.5986 -0.6742
 8310TIP3    H224895   1.936   0.191   0.334  1.1751  0.0114  0.2987
 8311TIP3   OH224896   4.636   3.276   0.930 -0.1394  0.9006 -0.3186
 8311TIP3    H124897   4.583   3.239   0.859  0.6020  1.9806 -1.4806
 8311TIP3    H224898   4.703   3.327   0.885  0.9264  0.8537  1.1600
 8312TIP3   OH224899   3.960   4.996   0.387  0.1018 -0.2071 -0.2988
 8312TIP3    H124900   4.001   4.930   0.442  1.0266 -0.2202 -0.9860
 8312TIP3    H224901   4.019   5.005   0.312  0.7882  2.4369  0.4511
 8313TIP3   OH224902   6.825   5.599   3.738 -0.4995 -0.4437 -0.3893
 8313TIP3    H124903   6.791   5.525   3.686  0.4154 -0.1761 -1.4111
 8313TIP3    H224904   6.841   5.668   3.673 -0.9453  0.5136  0.4973
 8314TIP3   OH224905   2.988   6.204   0.768 -0.3006  0.6269 -0.2948
 8314TIP3    H124906   2.928   6.275   0.747 -2.2299 -0.9748 -0.5349
 8314TIP3    H224907   2.951   6.128   0.722  2.1983 -0.3528 -0.8408
 8315TIP3   OH224908   4.132   3.545   4.307  0.3139 -0.5280 -0.5936
 8315TIP3    H124909   4.044   3.510   4.289 -0.6613  1.4046  0.1735
 8315TIP3    H224910   4.177   3.540   4.222 -0.9575 -0.4271 -1.3028
 8316TIP3   OH224911   6.774   2.421   5.172  0.0229  0.3500  0.8775
 8316TIP3    H124912   6.766   2.332   5.140  1.3887  0.2790  0.6733
 8316TIP3    H224913   6.858   2.423   5.218 -0.0788  1.4668  1.0553
 8317TIP3   OH224914   6.005   0.683   5.846  0.0557 -0.2846 -0.7890
 8317TIP3    H124915   5.963   0.606   5.884  0.6362 -1.2390 -1.9868
 8317TIP3    H224916   5.946   0.711   5.776 -0.9142  1.3439  0.6031
 8318TIP3   OH224917   6.090   1.814   1.149 -0.6167 -0.4861 -0.1775
 8318TIP3    H124918   6.060   1.899   1.180  0.2956 -1.1197  2.7955
 8318TIP3    H224919   6.035   1.751   1.196 -0.0695 -1.5577 -0.9451
 8319TIP3   OH224920   5.424   6.597   3.975  0.7587 -0.0464  0.1576
 8319TIP3    H124921   5.342   6.561   3.939  0.5937 -0.0437  0.5288
 8319TIP3    H224922   5.419   6.691   3.955  0.8923 -0.1245 -0.2427
 8320TIP3   OH224923   1.198   3.476   3.016 -0.2214  0.3028 -0.5728
 8320TIP3    H124924   1.206   3.388   3.052 -0.7769  1.2641  2.1411
 8320TIP3    H224925   1.214   3.466   2.923  0.6785 -2.5142 -0.1886
 8321TIP3   OH224926   1.280   5.117   0.250  0.2580 -0.0222 -0.4432
 8321TIP3    H124927   1.230   5.040   0.224 -0.0327 -0.5248  1.4819
 8321TIP3    H224928   1.369   5.084   0.263 -0.1886 -0.4686  1.9914
 8322TIP3   OH224929   2.750   0.296   4.149 -0.4814 -0.0485  0.2500
 8322TIP3    H124930   2.704   0.346   4.217  4.4600  2.4513  2.2996
 8322TIP3    H224931   2.770   0.361   4.081  1.9726 -0.2662  0.6670
 8323TIP3   OH224932   3.921   5.917   1.801 -0.2325  0.0501  0.4150
 8323TIP3    H124933   3.987   5.928   1.870 -1.2326  1.7249  1.1718
 8323TIP3    H224934   3.841   5.953   1.838 -1.7658 -2.3906 -0.2959
 8324TIP3   OH224935   2.247   1.723   3.244  0.3144  0.1240  0.0338
 8324TIP3    H124936   2.174   1.774   3.278  0.9297  1.3265 -0.3799
 8324TIP3    H224937   2.214   1.686   3.162 -0.3594 -0.7390  0.6756
 8325TIP3   OH224938   5.493   4.394   2.573 -0.1257 -0.4017 -0.6145
 8325TIP3    H124939   5.525   4.319   2.525  1.2597  1.4160 -2.7179
 8325TIP3    H224940   5.570   4.449   2.586 -1.4331  1.6914 -1.2062
 8326TIP3   OH224941   3.060   5.139   3.150  0.2786 -0.2642  0.0896
 8326TIP3    H124942   3.087   5.120   3.060 -2.1327  0.7782 -0.9496
 8326TIP3    H224943   3.043   5.233   3.150  1.5652  0.0290  2.0702
 8327TIP3   OH224944   1.926   6.748   1.734  0.1932 -0.5792  0.2263
 8327TIP3    H124945   1.832   6.751   1.719  0.2760 -0.8958 -0.4115
 8327TIP3    H224946   1.940   6.802   1.812 -0.3132  1.0094 -0.7168
 8328TIP3   OH224947   1.287   0.437   1.554  0.2316  0.1728 -0.5793
 8328TIP3    H124948   1.298   0.398   1.641  0.6748 -1.0949 -1.1791
 8328TIP3    H224949   1.343   0.514   1.555  0.5664 -0.0684  0.1174
 8329TIP3   OH224950   5.691   1.672   2.660 -0.7179 -0.1415 -0.2578
 8329TIP3    H124951   5.744   1.665   2.739 -0.8121 -0.8925 -0.2556
 8329TIP3    H224952   5.683   1.766   2.644  0.6725 -0.0213 -0.3016
 8330TIP3   OH224953   7.160   1.727   3.501  0.5142 -0.4534 -0.0888
 8330TIP3    H124954   7.217   1.656   3.530  0.5894  0.0867  1.1545
 8330TIP3    H224955   7.158   1.719   3.406 -0.5891 -2.9417  0.0754
 8331TIP3   OH224956   3.450   0.025   1.619 -0.1638  0.2591 -0.3009
 8331TIP3    H124957   3.500   0.053   1.696 -1.2139 -1.0981  0.9353
 8331TIP3    H224958   3.367   0.072   1.626 -0.0175  0.6372 -0.9967
 8332TIP3   OH224959   3.766   0.366   1.965 -0.1886  0.1072 -0.1057
 8332TIP3    H124960   3.722   0.447   1.941 -0.3757 -0.3274 -1.3143
 8332TIP3    H224961   3.844   0.393   2.013 -0.2953  0.9848 -0.4193
 8333TIP3   OH224962   5.593   2.106   5.651  0.7288  0.4315 -0.6106
 8333TIP3    H124963   5.686   2.088   5.666  0.0830 -2.5084  0.6248
 8333TIP3    H224964   5.556   2.021   5.627 -1.7231  1.4612 -0.7658
 8334TIP3   OH224965   5.940   1.928   3.288 -0.0159 -0.4147  0.0875
 8334TIP3    H124966   5.873   1.896   3.227  0.7591  1.3091 -1.7766
 8334TIP3    H224967   6.020   1.883   3.261  0.5475  1.1174 -0.9125
 8335TIP3   OH224968   4.324   4.954   0.417  0.2558  0.4242 -0.3766
 8335TIP3    H124969   4.322   4.998   0.332  1.1131  1.3960  0.0915
 8335TIP3    H224970   4.409   4.910   0.419 -0.3553 -0.8310 -0.6018
 8336TIP3   OH224971   1.108   3.474   4.310 -0.6186  0.1944  0.1784
 8336TIP3    H124972   1.159   3.402   4.274 -1.8030 -1.1289  1.0047
 8336TIP3    H224973   1.162   3.552   4.298  0.6559 -0.8176 -0.8372
 8337TIP3   OH224974   0.761   3.604   4.815 -0.2833  0.5602 -0.4105
 8337TIP3    H124975   0.806   3.663   4.874  0.1167  0.9266 -1.0688
 8337TIP3    H224976   0.794   3.627   4.728  0.3005 -0.9928 -0.6293
 8338TIP3   OH224977   1.530   4.775   5.365  0.6404 -0.0359 -0.0772
 8338TIP3    H124978   1.517   4.715   5.292  0.1579 -0.9800  0.7573
 8338TIP3    H224979   1.598   4.835   5.335  0.1357 -0.1149 -1.4627
 8339TIP3   OH224980   3.397   0.032   5.857 -0.2029  0.2377 -0.3314
 8339TIP3    H124981   3.381   0.025   5.763  1.1306 -0.5794 -0.5266
 8339TIP3    H224982   3.362   0.118   5.881 -1.9898 -0.1838 -1.2384
 8340TIP3   OH224983   7.136   1.397   5.873  0.9920  0.3861  0.4345
 8340TIP3    H124984   7.131   1.476   5.820  2.6911  0.6876  0.6723
 8340TIP3    H224985   7.151   1.428   5.962  0.1571 -0.1788  0.7912
 8341TIP3   OH224986   3.845   1.513   0.895  0.4018 -0.0935 -0.0732
 8341TIP3    H124987   3.759   1.534   0.933  0.1096 -0.1760 -0.6808
 8341TIP3    H224988   3.835   1.425   0.860  0.5347  0.1473 -0.7266
 8342TIP3   OH224989   0.706   1.880   5.571 -0.0430  0.2466  0.1670
 8342TIP3    H124990   0.659   1.939   5.629 -0.5878  0.4811 -0.5097
 8342TIP3    H224991   0.688   1.792   5.606  1.6290  0.4955  1.8111
 8343TIP3   OH224992   4.002   4.229   0.761  0.3200  1.0375  0.4315
 8343TIP3    H124993   4.072   4.178   0.720 -0.1276 -0.1704  1.1202
 8343TIP3    H224994   4.037   4.253   0.847  0.1755  1.1172  0.4677
 8344TIP3   OH224995   2.514   1.678   4.710 -0.2191  0.3457 -0.1613
 8344TIP3    H124996   2.419   1.685   4.709 -0.3038 -0.5937  0.5602
 8344TIP3    H224997   2.533   1.613   4.777  0.9597  0.8932  0.0630
 8345TIP3   OH224998   0.170   5.828   3.755 -0.3469  0.3631  0.4402
 8345TIP3    H124999   0.210   5.912   3.732 -1.4913  0.8117  0.0238
 8345TIP3    H225000   0.143   5.839   3.846 -1.0008  0.6618  0.2176
 8346TIP3   OH225001   4.862   0.180   5.048  0.3420  0.1650  0.5937
 8346TIP3    H125002   4.874   0.197   4.955  0.1377  1.8059  0.8439
 8346TIP3    H225003   4.786   0.122   5.052 -0.8807  1.6373 -0.1847
 8347TIP3   OH225004   3.083   1.035   5.686  0.4331  0.0373  0.4474
 8347TIP3    H125005   3.137   0.956   5.689  0.0155 -0.3670 -1.3929
 8347TIP3    H225006   3.124   1.090   5.619 -0.0574  0.7759  0.7379
 8348TIP3   OH225007   0.790   1.947   5.150  0.0428 -0.1395 -0.5391
 8348TIP3    H125008   0.849   1.903   5.089  0.8304  0.6452 -0.3582
 8348TIP3    H225009   0.703   1.916   5.124  0.4733 -0.8612 -1.1850
 8349TIP3   OH225010   4.592   3.095   4.715 -0.3965 -0.4973  0.1311
 8349TIP3    H125011   4.664   3.046   4.675 -0.1388 -1.3801  1.5762
 8349TIP3    H225012   4.519   3.085   4.654  0.1921 -1.1468 -0.4852
 8350TIP3   OH225013   4.624   1.225   2.817  0.1431  0.2668 -0.6335
 8350TIP3    H125014   4.690   1.254   2.880  1.1690  0.0034 -1.5522
 8350TIP3    H225015   4.639   1.131   2.809  1.4717  0.5935 -2.8125
 8351TIP3   OH225016   6.733   2.049   2.135 -0.3103  0.5550 -0.5371
 8351TIP3    H125017   6.797   1.979   2.115 -0.3217  0.3450  0.1368
 8351TIP3    H225018   6.718   2.041   2.229  0.0877  1.8176 -0.3543
 8352TIP3   OH225019   2.142   3.680   0.450  1.2626  0.0707 -0.5053
 8352TIP3    H125020   2.109   3.656   0.537  1.6638  0.3990 -0.2601
 8352TIP3    H225021   2.136   3.775   0.447  1.5191  0.0813 -0.7279
 8353TIP3   OH225022   6.327   5.872   5.525  0.1839  0.1788 -0.0078
 8353TIP3    H125023   6.316   5.817   5.603  1.4633 -0.7462 -0.4463
 8353TIP3    H225024   6.399   5.832   5.478  0.2093  1.4327 -1.0820
 8354TIP3   OH225025   7.106   4.903   4.316  0.2357  0.2841 -0.8493
 8354TIP3    H125026   7.170   4.924   4.247  0.5350 -1.4489 -1.1368
 8354TIP3    H225027   7.151   4.840   4.372 -0.7350  0.1088 -0.2434
 8355TIP3   OH225028   5.099   3.586   1.208 -0.0797 -0.5304  0.0174
 8355TIP3    H125029   5.018   3.620   1.170 -0.0681 -0.5963 -0.0688
 8355TIP3    H225030   5.084   3.587   1.302 -0.2294 -0.6610 -0.0046
 8356TIP3   OH225031   6.432   4.965   1.299 -0.1027 -0.6911  0.0538
 8356TIP3    H125032   6.510   4.910   1.288 -0.4474 -1.2639  0.4192
 8356TIP3    H225033   6.423   5.011   1.215 -0.0714 -1.5425 -0.4256
 8357TIP3   OH225034   6.501   4.897   2.264 -0.2156  0.1710  0.1843
 8357TIP3    H125035   6.556   4.899   2.185  1.6264 -0.4612  1.4016
 8357TIP3    H225036   6.443   4.822   2.251 -0.6640  0.6993 -1.0113
 8358TIP3   OH225037   4.579   1.548   3.777 -0.1216  0.8361  0.2878
 8358TIP3    H125038   4.567   1.551   3.682 -0.6950 -1.9019  0.1924
 8358TIP3    H225039   4.494   1.575   3.813 -0.4955  0.1000 -0.0269
 8359TIP3   OH225040   0.829   0.888   3.253  0.2042 -0.1768  0.4498
 8359TIP3    H125041   0.844   0.923   3.341  0.2154  0.5216  0.1746
 8359TIP3    H225042   0.749   0.930   3.223  0.0256 -0.6523  0.2376
 8360TIP3   OH225043   6.753   1.793   3.338 -0.0707  0.7199  0.4123
 8360TIP3    H125044   6.782   1.774   3.427 -0.9434 -0.4905  0.4618
 8360TIP3    H225045   6.822   1.758   3.282 -0.0930  0.3876  0.5881
 8361TIP3   OH225046   2.353   5.740   2.213  0.1673  0.4270  0.5334
 8361TIP3    H125047   2.384   5.672   2.273 -1.5694 -1.3666 -0.4778
 8361TIP3    H225048   2.260   5.719   2.199 -0.2227  2.5444 -0.4904
 8362TIP3   OH225049   0.274   0.344   5.165 -0.1079 -0.3706 -0.1087
 8362TIP3    H125050   0.321   0.350   5.082 -2.7454 -1.9603 -1.9086
 8362TIP3    H225051   0.312   0.267   5.209 -0.6669 -1.3964 -1.3411
 8363TIP3   OH225052   1.242   2.284   3.402  0.7113 -0.1355  0.2974
 8363TIP3    H125053   1.217   2.216   3.464 -2.1548  1.2108  0.7752
 8363TIP3    H225054   1.275   2.236   3.326 -1.1926 -2.0765  0.6023
 8364TIP3   OH225055   6.598   5.261   4.346  0.7192  0.1386 -0.0557
 8364TIP3    H125056   6.525   5.313   4.313  0.3352 -0.6390 -0.4626
 8364TIP3    H225057   6.583   5.174   4.310  1.1320 -0.3543  0.9209
 8365TIP3   OH225058   1.520   6.255   0.632  0.5385 -0.3698 -0.0244
 8365TIP3    H125059   1.517   6.290   0.543 -4.8768 -0.2929 -0.1663
 8365TIP3    H225060   1.548   6.329   0.686 -0.3956  0.9813 -1.3073
 8366TIP3   OH225061   0.410   5.898   1.177  0.2335  0.8253 -0.4478
 8366TIP3    H125062   0.499   5.871   1.201  0.2126  1.7791  0.8172
 8366TIP3    H225063   0.408   5.992   1.195 -1.6409  0.4783  1.6741
 8367TIP3   OH225064   5.346   0.709   2.092  0.4387  0.1692  0.4305
 8367TIP3    H125065   5.271   0.721   2.034  1.1038 -0.8430 -0.6961
 8367TIP3    H225066   5.310   0.713   2.181 -1.1010 -1.1227 -0.0929
 8368TIP3   OH225067   6.653   4.850   2.055  0.3039  0.1416  0.4707
 8368TIP3    H125068   6.616   4.767   2.027  0.7839  0.2121 -0.4194
 8368TIP3    H225069   6.682   4.892   1.974 -1.2050  1.8096  0.7463
 8369TIP3   OH225070   2.015   5.435   4.975 -0.0723 -0.0232  0.0759
 8369TIP3    H125071   1.957   5.475   5.040  1.5650 -0.1616  1.6809
 8369TIP3    H225072   2.027   5.345   5.005 -0.5103 -0.5809 -1.3039
 8370TIP3   OH225073   1.536   6.468   0.812 -0.1159  0.0628  0.1207
 8370TIP3    H125074   1.607   6.531   0.802 -0.1278  0.0385 -0.1224
 8370TIP3    H225075   1.456   6.520   0.803 -0.1381  0.1904  0.9954
 8371TIP3   OH225076   2.776   6.224   3.603  0.0115 -0.1151 -0.2330
 8371TIP3    H125077   2.681   6.211   3.605 -0.1695  1.1102  0.5090
 8371TIP3    H225078   2.799   6.220   3.510 -0.7558 -0.5212 -0.4114
 8372TIP3   OH225079   2.652   0.674   4.235 -0.3285  0.8398  0.3652
 8372TIP3    H125080   2.612   0.589   4.255  1.8930 -0.2027  0.7833
 8372TIP3    H225081   2.634   0.688   4.142  0.9066 -1.1199 -0.2333
 8373TIP3   OH225082   5.727   2.312   4.426 -0.4147  0.0767  0.1496
 8373TIP3    H125083   5.652   2.368   4.447 -0.4083  1.6800 -3.3623
 8373TIP3    H225084   5.799   2.374   4.413  0.2561 -0.9571 -1.2543
 8374TIP3   OH225085   4.912   4.613   0.526  0.1513 -0.0764 -0.6709
 8374TIP3    H125086   4.980   4.638   0.463  0.7799 -1.1847 -0.4536
 8374TIP3    H225087   4.851   4.559   0.476 -0.2433  0.4039 -0.7152
 8375TIP3   OH225088   7.238   4.677   1.092 -0.1479  0.5284 -0.1644
 8375TIP3    H125089   7.221   4.753   1.147 -1.0074  0.1415  0.1182
 8375TIP3    H225090   7.152   4.650   1.061  0.1882 -0.0913 -0.5877
 8376TIP3   OH225091   1.258   0.312   4.625  0.3636  0.3603 -0.1621
 8376TIP3    H125092   1.168   0.341   4.609  0.7043  2.9598  1.8982
 8376TIP3    H225093   1.254   0.216   4.620 -2.9386  0.2566  1.7566
 8377TIP3   OH225094   2.467   5.064   3.941  0.6057  0.5818 -0.3615
 8377TIP3    H125095   2.400   5.127   3.916 -0.2419  0.5899  1.7257
 8377TIP3    H225096   2.486   5.084   4.033  2.2698 -0.5003 -0.4246
 8378TIP3   OH225097   1.217   2.936   2.028 -0.1985  0.1451  1.0770
 8378TIP3    H125098   1.238   3.022   2.065  1.1479 -0.0362  0.7900
 8378TIP3    H225099   1.262   2.935   1.943  1.7004 -1.6575  2.0196
 8379TIP3   OH225100   5.187   0.976   2.743  0.3596  0.1418 -0.3408
 8379TIP3    H125101   5.171   1.054   2.795  2.2876  0.6636 -0.4830
 8379TIP3    H225102   5.217   1.009   2.658 -0.1979 -0.7492 -0.9115
 8380TIP3   OH225103   3.702   2.732   0.264  0.4464  0.1124  0.0305
 8380TIP3    H125104   3.608   2.712   0.261  0.1939  1.3190 -1.7461
 8380TIP3    H225105   3.715   2.770   0.351 -0.2709 -1.9015  1.0763
 8381TIP3   OH225106   3.593   6.479   4.200 -0.2572  0.4256 -0.2366
 8381TIP3    H125107   3.651   6.496   4.126 -0.9634 -0.7392 -1.1048
 8381TIP3    H225108   3.597   6.384   4.211 -2.7387  0.1548 -0.9984
 8382TIP3   OH225109   1.108   6.796   2.992  0.0581  0.0075  0.5001
 8382TIP3    H125110   1.176   6.731   2.975  1.3631  1.1693  1.0797
 8382TIP3    H225111   1.150   6.861   3.048 -1.1785  1.4002 -0.1149
 8383TIP3   OH225112   6.827   3.544   2.704 -0.7335 -0.3878  0.2972
 8383TIP3    H125113   6.859   3.561   2.792 -0.3032  0.1500  0.0480
 8383TIP3    H225114   6.746   3.594   2.698 -1.3422 -1.2911  0.7377
 8384TIP3   OH225115   6.651   1.107   3.025  0.2412  0.6608  0.4399
 8384TIP3    H125116   6.574   1.131   2.973 -0.1441 -0.6820  0.3648
 8384TIP3    H225117   6.674   1.019   2.995  0.2138 -0.0140  2.2748
 8385TIP3   OH225118   2.354   0.595   3.399  0.0138 -0.0530 -0.0613
 8385TIP3    H125119   2.345   0.653   3.475  2.5258 -1.7548  1.6908
 8385TIP3    H225120   2.275   0.540   3.403 -0.9152  1.2488  0.0309
 8386TIP3   OH225121   5.271   2.088   3.606  0.2262  0.3114  0.2737
 8386TIP3    H125122   5.257   2.182   3.620  0.6304  0.2655  1.0656
 8386TIP3    H225123   5.336   2.064   3.673 -0.5266 -0.7148  0.6581
 8387TIP3   OH225124   5.997   6.679   3.197 -0.1636 -0.5516 -0.2212
 8387TIP3    H125125   5.945   6.705   3.121 -0.5773 -0.1584  0.1882
 8387TIP3    H225126   5.933   6.649   3.261  0.0109  0.7208  0.6002
 8388TIP3   OH225127   2.284   4.796   1.237 -0.7972 -0.0381  0.1303
 8388TIP3    H125128   2.218   4.727   1.225 -0.2828 -0.3608 -0.9483
 8388TIP3    H225129   2.331   4.799   1.154 -0.5033  1.3075  0.3288
 8389TIP3   OH225130   1.873   6.104   5.101  0.4562  0.0596 -0.8691
 8389TIP3    H125131   1.966   6.108   5.076  0.6678 -0.0239 -0.1375
 8389TIP3    H225132   1.857   6.010   5.114  0.2225  0.0601 -1.1619
 8390TIP3   OH225133   3.718   5.305   2.808 -0.0019  0.4867 -0.3925
 8390TIP3    H125134   3.757   5.350   2.733 -0.5871  0.6887 -0.5804
 8390TIP3    H225135   3.695   5.218   2.775 -0.3922  0.6248 -0.4942
 8391TIP3   OH225136   0.761   0.941   3.783 -0.2619 -0.9962  0.2349
 8391TIP3    H125137   0.780   0.848   3.773  1.7845 -0.5038 -1.0472
 8391TIP3    H225138   0.826   0.972   3.847  0.8361 -0.0142 -1.2733
 8392TIP3   OH225139   6.304   4.068   3.998 -0.7712 -0.1442 -0.2143
 8392TIP3    H125140   6.227   4.125   3.993 -0.8621 -0.3484 -1.5282
 8392TIP3    H225141   6.268   3.979   3.999 -0.5732 -0.2244 -0.1810
 8393TIP3   OH225142   6.082   6.510   0.975 -0.3242 -0.0683 -0.3687
 8393TIP3    H125143   6.091   6.505   0.880  0.6438  0.8221 -0.3445
 8393TIP3    H225144   6.126   6.432   1.007 -1.7331 -1.0323 -0.6751
 8394TIP3   OH225145   5.577   4.790   4.124 -0.2894  0.2749  0.0128
 8394TIP3    H125146   5.532   4.736   4.189  0.7055  1.1403  1.4794
 8394TIP3    H225147   5.657   4.743   4.105  0.2401  0.8590  0.7497
 8395TIP3   OH225148   3.470   1.987   3.734  0.6031 -0.2218  0.5523
 8395TIP3    H125149   3.479   1.946   3.648  0.5852 -0.9322  0.8863
 8395TIP3    H225150   3.433   1.918   3.790  1.3048  0.0090  1.3069
 8396TIP3   OH225151   1.264   1.905   0.564 -0.1826  0.2396  0.6983
 8396TIP3    H125152   1.171   1.910   0.542  0.0100 -2.1059 -1.1558
 8396TIP3    H225153   1.271   1.831   0.625  0.5417 -0.4003 -0.1172
 8397TIP3   OH225154   5.569   3.149   3.705  0.0849 -0.5282  0.4599
 8397TIP3    H125155   5.484   3.107   3.706 -0.0103 -0.3387  0.4156
 8397TIP3    H225156   5.632   3.077   3.702 -0.0771 -0.6647  0.3378
 8398TIP3   OH225157   0.068   1.549   2.970  0.0530  0.4412 -0.2562
 8398TIP3    H125158   0.085   1.487   2.899 -0.0117  0.4576 -0.2859
 8398TIP3    H225159   0.079   1.497   3.050  2.6181  0.9922 -0.1714
 8399TIP3   OH225160   4.531   3.495   0.170 -0.4303  0.3502 -0.3018
 8399TIP3    H125161   4.513   3.516   0.078 -2.1123  0.4294  0.0120
 8399TIP3    H225162   4.568   3.407   0.167  0.6693  0.8106 -1.1313
 8400TIP3   OH225163   2.300   1.491   0.458  0.3613 -0.5277  0.5821
 8400TIP3    H125164   2.253   1.415   0.424 -0.0825 -0.4016  0.9060
 8400TIP3    H225165   2.270   1.500   0.548 -2.3222  2.0983 -0.3834
 8401TIP3   OH225166   2.897   6.733   2.147  0.2176  0.5169  0.3306
 8401TIP3    H125167   2.848   6.656   2.120  1.3760 -0.0610 -0.2086
 8401TIP3    H225168   2.846   6.771   2.218 -1.3867  0.3885 -0.6909
 8402TIP3   OH225169   4.761   4.376   2.220 -0.2658  0.0451  0.2969
 8402TIP3    H125170   4.828   4.309   2.205  0.4727  0.5809  1.1354
 8402TIP3    H225171   4.750   4.418   2.134  2.3374  1.6241  0.6344
 8403TIP3   OH225172   1.853   4.400   0.385 -0.3229 -0.1644 -0.4547
 8403TIP3    H125173   1.778   4.373   0.437 -0.9417  0.4501 -1.0112
 8403TIP3    H225174   1.856   4.338   0.312 -0.9488  0.4405 -1.0129
 8404TIP3   OH225175   5.885   4.872   0.869 -0.0001  0.0060 -0.0027
 8404TIP3    H125176   5.916   4.862   0.779  0.1024 -1.2290  0.1551
 8404TIP3    H225177   5.804   4.923   0.861  0.2921  0.3609 -0.7449
 8405TIP3   OH225178   1.633   0.781   3.924  0.5811 -0.2556 -0.1218
 8405TIP3    H125179   1.706   0.776   3.986 -0.0995 -1.0668  0.6418
 8405TIP3    H225180   1.646   0.705   3.867 -0.3808 -1.1859  0.8536
 8406TIP3   OH225181   4.802   1.412   2.142 -0.3960  0.6631  0.0523
 8406TIP3    H125182   4.757   1.360   2.208 -0.4881  0.2683 -0.3124
 8406TIP3    H225183   4.825   1.348   2.074  3.3998  0.1552  1.5281
 8407TIP3   OH225184   0.400   2.499   3.901  0.4016  0.3885 -0.5718
 8407TIP3    H125185   0.406   2.560   3.828  0.9162  0.7606 -0.2250
 8407TIP3    H225186   0.483   2.509   3.948  1.1694 -1.7048 -1.3668
 8408TIP3   OH225187   3.725   5.800   5.067  0.2815  0.1112  0.3042
 8408TIP3    H125188   3.693   5.883   5.101  0.1226 -0.6246  2.0591
 8408TIP3    H225189   3.647   5.753   5.040  0.4041  0.6775 -1.0783
 8409TIP3   OH225190   5.050   4.369   1.496 -0.0151  0.0059  0.0417
 8409TIP3    H125191   5.102   4.432   1.446 -0.1456  0.4438  0.4503
 8409TIP3    H225192   5.112   4.329   1.557 -0.6203  2.4990  2.4624
 8410TIP3   OH225193   5.224   0.654   5.442 -0.4227  0.6775  0.1033
 8410TIP3    H125194   5.182   0.612   5.517  1.0283  0.3927  0.7829
 8410TIP3    H225195   5.277   0.584   5.403 -2.8831  0.1248 -2.6348
 8411TIP3   OH225196   3.890   1.594   3.800 -0.0543 -0.0587 -0.0312
 8411TIP3    H125197   3.807   1.632   3.828 -1.4814 -0.7300 -3.0577
 8411TIP3    H225198   3.889   1.505   3.834 -0.2465  0.1230  0.4549
 8412TIP3   OH225199   1.949   2.664   4.244  0.0273  0.1769  0.6205
 8412TIP3    H125200   1.901   2.668   4.327  0.8136  1.0857  1.0499
 8412TIP3    H225201   2.039   2.687   4.268  0.4590 -0.4834 -0.3413
 8413TIP3   OH225202   7.011   3.785   0.817 -0.0464 -0.3890  0.0815
 8413TIP3    H125203   6.940   3.849   0.826 -0.7712 -0.5930 -2.9030
 8413TIP3    H225204   6.991   3.717   0.881 -1.2019  0.6968  0.9178
 8414TIP3   OH225205   5.892   0.347   4.833 -0.7679  0.7286  0.0823
 8414TIP3    H125206   5.874   0.259   4.802 -0.9023  1.0040 -0.6418
 8414TIP3    H225207   5.899   0.400   4.753 -1.3917  1.5013  0.5280
 8415TIP3   OH225208   4.996   3.986   1.937  0.0529 -0.3178  0.2559
 8415TIP3    H125209   5.073   3.952   1.892 -0.3010  1.5770 -1.9675
 8415TIP3    H225210   5.030   4.054   1.995  0.1188  0.2576 -0.4444
 8416TIP3   OH225211   2.870   1.630   0.591  0.2060  0.4838 -0.3429
 8416TIP3    H125212   2.818   1.558   0.554 -0.6701  0.5069  0.7739
 8416TIP3    H225213   2.893   1.684   0.516 -2.4467  1.1260 -0.8221
 8417TIP3   OH225214   3.422   3.782   3.967  0.2028 -0.3533  0.7522
 8417TIP3    H125215   3.487   3.830   4.019  1.5554  0.2958 -1.3907
 8417TIP3    H225216   3.364   3.850   3.933  0.5655 -0.4964 -0.1931
 8418TIP3   OH225217   7.030   1.754   1.354 -0.9903  0.3884 -0.2906
 8418TIP3    H125218   6.995   1.665   1.362  1.3021 -0.5971 -0.5263
 8418TIP3    H225219   7.117   1.749   1.391 -1.0820  2.7730  0.4067
 8419TIP3   OH225220   0.521   6.381   4.527  0.0331  0.4976 -0.2444
 8419TIP3    H125221   0.591   6.442   4.502  1.6725 -0.8157  0.9342
 8419TIP3    H225222   0.489   6.347   4.443  0.8727  1.0553 -0.8146
 8420TIP3   OH225223   2.141   2.573   1.842 -0.2432 -0.1059 -0.0402
 8420TIP3    H125224   2.076   2.505   1.824 -0.5514 -0.0201  0.7159
 8420TIP3    H225225   2.179   2.593   1.756  0.3509 -1.7256 -0.1846
 8421TIP3   OH225226   4.072   2.956   4.107  0.0241 -0.0580  0.0856
 8421TIP3    H125227   3.996   2.899   4.118 -0.2727  0.1715 -0.6722
 8421TIP3    H225228   4.057   3.000   4.023  1.0387 -0.0859 -0.1301
 8422TIP3   OH225229   3.130   2.857   2.716 -0.0761  0.1493  0.7007
 8422TIP3    H125230   3.157   2.865   2.625 -1.1532 -1.4729  0.1989
 8422TIP3    H225231   3.177   2.927   2.761  0.8065  0.7153 -1.0128
 8423TIP3   OH225232   2.938   6.673   1.020 -0.1731 -0.2152 -0.5155
 8423TIP3    H125233   2.867   6.733   1.040 -0.2934 -0.0835 -1.3320
 8423TIP3    H225234   3.018   6.724   1.037 -0.2265 -0.7551  1.6360
 8424TIP3   OH225235   5.358   5.810   0.617  0.1571  0.2012  0.5913
 8424TIP3    H125236   5.380   5.734   0.563  0.2298 -0.1228  1.0732
 8424TIP3    H225237   5.377   5.885   0.561 -1.0260 -0.1442 -0.3226
 8425TIP3   OH225238   3.314   3.117   3.697  0.1567 -0.1625  0.4394
 8425TIP3    H125239   3.300   3.063   3.774 -1.5715 -0.2455  0.1101
 8425TIP3    H225240   3.253   3.190   3.708 -1.0114 -0.8015 -1.3911
 8426TIP3   OH225241   2.162   2.761   1.130  0.2188 -0.2732 -0.1364
 8426TIP3    H125242   2.119   2.791   1.210  0.5193 -0.5384  0.1317
 8426TIP3    H225243   2.110   2.686   1.102  0.1343 -0.2032 -0.1653
 8427TIP3   OH225244   1.790   4.036   3.090 -0.5700  0.2185 -0.2649
 8427TIP3    H125245   1.865   4.057   3.146 -1.4023  0.1723  0.8820
 8427TIP3    H225246   1.830   3.996   3.012  0.6508  0.9965 -0.0728
 8428TIP3   OH225247   7.020   5.577   2.086 -0.4489  0.3988  0.2029
 8428TIP3    H125248   7.072   5.552   2.162 -0.7631 -0.7380  0.0544
 8428TIP3    H225249   7.084   5.590   2.016 -0.2348  0.5698  0.4282
 8429TIP3   OH225250   2.992   6.481   2.400  0.3916 -0.4391  0.4260
 8429TIP3    H125251   3.001   6.448   2.311  1.6790  0.3102  0.2514
 8429TIP3    H225252   2.982   6.403   2.454  0.0176 -0.9171 -0.3200
 8430TIP3   OH225253   2.441   6.004   1.629 -0.3151  0.3056  0.6667
 8430TIP3    H125254   2.395   6.072   1.581 -0.9321 -1.0457 -0.7337
 8430TIP3    H225255   2.528   6.041   1.646  1.0371 -0.0722 -4.0287
 8431TIP3   OH225256   1.845   1.547   5.601 -0.3146  0.0434  0.0378
 8431TIP3    H125257   1.758   1.582   5.620  0.3767  1.7802  0.1751
 8431TIP3    H225258   1.890   1.617   5.555  1.0654 -0.7761  0.0772
 8432TIP3   OH225259   0.099   4.114   1.164 -0.1939 -0.4161 -0.0510
 8432TIP3    H125260   0.086   4.153   1.078 -0.8018 -0.1698  0.1507
 8432TIP3    H225261   0.141   4.183   1.216 -0.4087 -0.3505  0.0344
 8433TIP3   OH225262   6.839   0.794   0.789 -0.3134 -0.2403  0.4786
 8433TIP3    H125263   6.891   0.725   0.828 -0.5437 -0.1246  0.9994
 8433TIP3    H225264   6.854   0.785   0.694  1.0532  0.1172  0.6398
 8434TIP3   OH225265   4.458   2.542   1.989 -0.4283 -0.5719  0.0612
 8434TIP3    H125266   4.405   2.540   2.069  1.2517 -2.3916  1.2296
 8434TIP3    H225267   4.542   2.503   2.015 -0.0676 -1.9179 -2.7702
 8435TIP3   OH225268   0.446   0.472   4.204 -0.2412 -0.2441  0.2324
 8435TIP3    H125269   0.512   0.485   4.272 -1.8602  0.8410  1.6783
 8435TIP3    H225270   0.491   0.496   4.123  1.2744  0.0084  1.0942
 8436TIP3   OH225271   0.862   1.723   1.866 -0.1733 -0.3952  0.4260
 8436TIP3    H125272   0.827   1.735   1.954 -0.1306 -0.5031  0.4581
 8436TIP3    H225273   0.882   1.812   1.836  0.4221 -0.4052  0.7807
 8437TIP3   OH225274   6.777   2.506   0.763  0.6345  0.0827 -0.1553
 8437TIP3    H125275   6.812   2.587   0.801 -0.4456  0.4111  0.1792
 8437TIP3    H225276   6.748   2.531   0.675  0.6040 -0.0092 -0.1718
 8438TIP3   OH225277   0.322   5.710   4.273 -0.1881 -0.4236 -0.4037
 8438TIP3    H125278   0.355   5.662   4.197 -0.4930  0.3256 -1.0204
 8438TIP3    H225279   0.290   5.642   4.333  0.5166 -1.0408 -0.7207
 8439TIP3   OH225280   4.886   1.848   0.878  0.0297 -0.3816 -0.3430
 8439TIP3    H125281   4.812   1.886   0.927 -0.2486 -2.7443  1.2204
 8439TIP3    H225282   4.850   1.832   0.790 -0.5279  0.7950 -0.3522
 8440TIP3   OH225283   0.555   5.755   5.195  0.5376 -0.1758 -0.5249
 8440TIP3    H125284   0.560   5.715   5.108 -1.2123 -0.7151 -0.4248
 8440TIP3    H225285   0.551   5.680   5.255  1.0083  0.1903 -0.0291
 8441TIP3   OH225286   1.170   3.250   0.703 -0.2153 -0.4420  0.6737
 8441TIP3    H125287   1.139   3.173   0.656  0.4698 -0.6575  0.5728
 8441TIP3    H225288   1.243   3.219   0.756 -0.2376  0.0399  0.9969
 8442TIP3   OH225289   4.833   4.440   5.625  0.1228 -0.4769  0.2960
 8442TIP3    H125290   4.819   4.486   5.708  0.5043  0.2603 -0.0340
 8442TIP3    H225291   4.759   4.381   5.617 -2.2913  2.4600 -0.8699
 8443TIP3   OH225292   6.571   4.642   2.377  0.2060 -0.2012 -0.2244
 8443TIP3    H125293   6.642   4.606   2.323  0.2264 -0.1223 -0.2511
 8443TIP3    H225294   6.566   4.734   2.350  0.2171 -0.1608 -0.0896
 8444TIP3   OH225295   4.635   5.250   1.553 -0.5137  0.0528  0.6882
 8444TIP3    H125296   4.660   5.302   1.630 -0.7862  0.4516  0.5134
 8444TIP3    H225297   4.639   5.159   1.583  0.2243  0.1520  0.9314
 8445TIP3   OH225298   2.364   4.662   2.142 -0.4810 -0.4686 -0.2864
 8445TIP3    H125299   2.343   4.685   2.051 -0.9324 -1.8157 -0.5573
 8445TIP3    H225300   2.289   4.692   2.193  0.4437  1.6679 -0.1018
 8446TIP3   OH225301   2.155   5.728   4.188  0.1362  0.4890 -0.5353
 8446TIP3    H125302   2.148   5.730   4.092  0.6754 -0.8208 -0.6233
 8446TIP3    H225303   2.248   5.741   4.205  0.1155  0.2165 -0.2160
 8447TIP3   OH225304   4.602   1.455   5.387 -0.0394  0.1192  0.0880
 8447TIP3    H125305   4.561   1.433   5.471  0.8077  1.6373  0.9468
 8447TIP3    H225306   4.667   1.386   5.373 -1.4004 -1.1482 -0.2561
 8448TIP3   OH225307   4.055   3.369   3.806 -0.1628 -0.3822  0.2470
 8448TIP3    H125308   4.050   3.433   3.878  2.2092 -0.8908  0.9512
 8448TIP3    H225309   4.146   3.371   3.778 -1.2299  0.8186 -3.8261
 8449TIP3   OH225310   3.861   0.859   0.594 -0.4712 -0.2620  0.1205
 8449TIP3    H125311   3.927   0.920   0.627 -2.2958  2.0904 -0.2390
 8449TIP3    H225312   3.862   0.872   0.499 -2.5332  1.1340  0.2260
 8450TIP3   OH225313   5.858   6.790   4.546 -0.0009  0.0989  0.0478
 8450TIP3    H125314   5.859   6.802   4.641 -0.8622  1.3723 -0.0839
 8450TIP3    H225315   5.768   6.809   4.520 -0.0060 -1.1080 -0.9416
 8451TIP3   OH225316   0.253   5.623   2.490 -0.0764  0.0976  0.3626
 8451TIP3    H125317   0.306   5.545   2.477 -0.0935  0.4054 -1.9387
 8451TIP3    H225318   0.222   5.616   2.581  0.7834 -2.0035  0.5496
 8452TIP3   OH225319   5.679   0.617   2.625  0.5705  0.6250 -0.5721
 8452TIP3    H125320   5.586   0.629   2.643  0.4706 -1.2651  0.4905
 8452TIP3    H225321   5.685   0.530   2.585  1.8921  0.5583 -0.3051
 8453TIP3   OH225322   5.904   5.921   1.422 -0.2832 -0.2574  0.4185
 8453TIP3    H125323   5.831   5.899   1.364 -1.1183 -1.4434  1.8486
 8453TIP3    H225324   5.862   5.955   1.501  0.7456 -0.3490  1.0134
 8454TIP3   OH225325   1.520   4.041   4.290 -0.6246 -0.1877 -0.5729
 8454TIP3    H125326   1.552   4.090   4.214 -0.3460  0.7208  0.1141
 8454TIP3    H225327   1.595   3.988   4.317  0.3346  1.8042  0.9246
 8455TIP3   OH225328   4.060   5.951   0.042 -0.5445 -0.4640  0.0767
 8455TIP3    H125329   4.079   5.973   0.133  1.1785  0.9125 -0.5782
 8455TIP3    H225330   4.131   5.892   0.015 -0.3622  0.0979 -0.7175
 8456TIP3   OH225331   7.037   4.957   0.890 -0.0308 -0.7588  0.4122
 8456TIP3    H125332   6.958   4.930   0.844 -0.4193  1.8690 -0.5878
 8456TIP3    H225333   7.080   5.020   0.832  0.7608  0.8012  2.5479
 8457TIP3   OH225334   4.663   2.534   5.364  0.0825  0.0721  0.2135
 8457TIP3    H125335   4.672   2.491   5.279 -1.7420  1.4417 -0.7556
 8457TIP3    H225336   4.582   2.498   5.401  0.0635  0.5880  0.6919
 8458TIP3   OH225337   5.406   4.409   1.537 -0.3545  0.0399  0.1709
 8458TIP3    H125338   5.403   4.318   1.569  1.4462 -0.1570 -0.0899
 8458TIP3    H225339   5.331   4.451   1.578 -0.2931 -1.1625  1.6475
 8459TIP3   OH225340   1.641   1.555   4.509 -0.0941 -0.0686  0.7181
 8459TIP3    H125341   1.666   1.646   4.491 -2.7647  1.2242  2.6228
 8459TIP3    H225342   1.650   1.510   4.426  0.4371  2.1935 -0.5341
 8460TIP3   OH225343   5.301   1.793   2.641 -0.2628 -0.6543  0.0235
 8460TIP3    H125344   5.217   1.747   2.636 -0.3266 -0.8298  2.1451
 8460TIP3    H225345   5.311   1.817   2.733  1.5462  0.2768 -0.3637
 8461TIP3   OH225346   1.951   4.454   3.793  0.3020 -0.0477 -0.4123
 8461TIP3    H125347   2.003   4.533   3.779  1.8507 -0.7076  1.3119
 8461TIP3    H225348   1.886   4.479   3.859  1.2099 -0.3678  0.6177
 8462TIP3   OH225349   3.487   2.874   4.974 -0.5040 -0.6137 -0.1242
 8462TIP3    H125350   3.581   2.889   4.980 -0.5140 -1.1258  2.4536
 8462TIP3    H225351   3.476   2.817   4.898  1.0209  0.8577 -1.5343
 8463TIP3   OH225352   3.852   0.267   3.511  0.1003  0.1580 -0.0183
 8463TIP3    H125353   3.803   0.297   3.434 -2.1011  0.6347  1.4847
 8463TIP3    H225354   3.875   0.347   3.558 -0.2551 -0.2110  0.7919
 8464TIP3   OH225355   4.266   1.617   4.284  0.4429  0.2518 -0.0806
 8464TIP3    H125356   4.354   1.580   4.296 -0.1536 -1.1169  0.1306
 8464TIP3    H225357   4.281   1.712   4.281  1.9730  0.0259 -0.4133
 8465TIP3   OH225358   6.925   0.433   0.267 -0.2435 -0.8785  0.0582
 8465TIP3    H125359   6.942   0.434   0.173 -1.8002  1.1257 -0.2789
 8465TIP3    H225360   6.957   0.518   0.298 -1.7163 -0.6019  0.9168
 8466TIP3   OH225361   1.982   4.349   5.479  0.0542 -0.4585 -0.0452
 8466TIP3    H125362   1.900   4.339   5.528  0.2803 -0.3051  0.3697
 8466TIP3    H225363   1.995   4.264   5.437 -0.9893 -0.0806 -1.1682
 8467TIP3   OH225364   5.026   2.841   0.645 -0.3053  0.0790 -0.5445
 8467TIP3    H125365   5.020   2.933   0.672  1.4827 -0.2200  1.0773
 8467TIP3    H225366   4.949   2.827   0.590 -1.1923  2.2499  0.0516
 8468TIP3   OH225367   3.485   5.547   3.546 -0.4391  0.2758 -0.2908
 8468TIP3    H125368   3.563   5.561   3.493 -0.9160 -0.5048 -1.2414
 8468TIP3    H225369   3.413   5.549   3.483 -1.2074  1.0730  0.5805
 8469TIP3   OH225370   1.697   2.524   2.328  0.5785 -0.0913 -0.5055
 8469TIP3    H125371   1.736   2.459   2.270  0.3943 -0.1674 -0.5420
 8469TIP3    H225372   1.615   2.549   2.286  0.3510 -0.2882 -0.1861
 8470TIP3   OH225373   0.934   3.431   5.323  0.0356  0.0199  0.1746
 8470TIP3    H125374   0.967   3.373   5.255 -1.5746 -1.3659  0.5115
 8470TIP3    H225375   1.012   3.464   5.367  1.0575 -0.1803 -1.4004
 8471TIP3   OH225376   3.664   3.023   5.222  0.6089 -0.0289 -0.7097
 8471TIP3    H125377   3.611   2.943   5.212  0.2233  0.2728 -1.1359
 8471TIP3    H225378   3.600   3.094   5.220  0.7913  0.2358  1.1370
 8472TIP3   OH225379   3.897   0.296   0.387  0.3991 -0.4030  0.0565
 8472TIP3    H125380   3.913   0.389   0.405  1.2138 -0.5412  0.1080
 8472TIP3    H225381   3.952   0.277   0.311  0.0205 -0.7807 -0.1281
 8473TIP3   OH225382   5.927   1.647   5.104  0.2158 -0.5827 -0.1013
 8473TIP3    H125383   5.950   1.729   5.147 -0.4121 -0.4652  0.0322
 8473TIP3    H225384   5.985   1.582   5.142  1.0788 -0.1084 -0.5912
 8474TIP3   OH225385   6.517   5.699   1.111  0.0492 -0.0537 -0.0042
 8474TIP3    H125386   6.570   5.769   1.072 -0.1750  0.4399  0.5618
 8474TIP3    H225387   6.566   5.672   1.188 -0.3445  0.1486  0.3181
 8475TIP3   OH225388   7.057   3.619   4.760  0.6777 -0.0039  0.1168
 8475TIP3    H125389   7.152   3.617   4.757  0.6741 -2.4577 -0.7408
 8475TIP3    H225390   7.030   3.534   4.724 -1.8612  1.0853 -0.7587
 8476TIP3   OH225391   3.354   6.128   5.122  0.7507 -0.1500 -0.2278
 8476TIP3    H125392   3.341   6.094   5.210  0.6311 -1.4047 -0.7109
 8476TIP3    H225393   3.267   6.154   5.092  0.7785  0.1922 -0.0173
 8477TIP3   OH225394   3.601   1.071   2.790  0.3176 -0.3422  0.1479
 8477TIP3    H125395   3.553   0.995   2.759  1.0361 -0.9633  0.5114
 8477TIP3    H225396   3.660   1.094   2.718 -1.7927  1.6180 -1.0877
 8478TIP3   OH225397   2.897   6.606   2.627 -0.1515  0.2022  0.0410
 8478TIP3    H125398   2.943   6.593   2.545 -0.0799  2.7280 -0.3929
 8478TIP3    H225399   2.848   6.687   2.615  0.2016  0.8976  2.6156
 8479TIP3   OH225400   6.371   5.579   1.592  0.3657 -0.0838 -0.0297
 8479TIP3    H125401   6.361   5.528   1.673 -2.1392 -1.1889 -0.9401
 8479TIP3    H225402   6.385   5.514   1.524  1.3252  0.7602 -0.6630
 8480TIP3   OH225403   4.618   5.991   3.891  0.3812 -0.2852  0.4396
 8480TIP3    H125404   4.530   5.956   3.883  0.5168 -0.7196  0.7838
 8480TIP3    H225405   4.606   6.083   3.915  0.0039  0.3037 -1.7850
 8481TIP3   OH225406   3.658   4.690   1.472 -0.6376 -0.2288 -0.1933
 8481TIP3    H125407   3.663   4.734   1.387 -0.0505  1.4443  0.6784
 8481TIP3    H225408   3.746   4.698   1.509 -0.7558 -1.3564  0.3958
 8482TIP3   OH225409   6.352   2.140   0.413  0.5587  0.5533 -0.2997
 8482TIP3    H125410   6.347   2.162   0.320  2.2544  0.9592 -0.3231
 8482TIP3    H225411   6.308   2.212   0.457  1.6862  1.5001 -0.6796
 8483TIP3   OH225412   6.179   5.832   4.365  0.1087  0.0863  0.1726
 8483TIP3    H125413   6.222   5.817   4.281  0.3209 -0.7526  0.4143
 8483TIP3    H225414   6.223   5.909   4.401 -0.1902  0.6343 -0.6116
 8484TIP3   OH225415   2.162   4.310   2.007 -0.0124 -0.7942  0.0569
 8484TIP3    H125416   2.108   4.263   1.943 -0.6594 -1.0262  0.7606
 8484TIP3    H225417   2.119   4.395   2.017  0.4517 -0.5157 -0.2882
 8485TIP3   OH225418   6.207   4.767   1.710 -0.1129 -0.5318  0.0971
 8485TIP3    H125419   6.200   4.844   1.653  0.0114  0.9055  1.9069
 8485TIP3    H225420   6.287   4.723   1.681  0.9150  1.1275  0.2196
 8486TIP3   OH225421   4.638   4.120   5.695  0.6989 -0.6491 -0.0248
 8486TIP3    H125422   4.640   4.113   5.600  1.2493  0.3227 -0.0936
 8486TIP3    H225423   4.554   4.080   5.720 -1.0115  1.9447 -1.1888
 8487TIP3   OH225424   1.415   0.312   0.727 -0.1774  0.1108  0.7053
 8487TIP3    H125425   1.376   0.365   0.658 -1.0563 -1.1690  0.1873
 8487TIP3    H225426   1.350   0.312   0.797  0.2318  0.4834  1.0946
 8488TIP3   OH225427   2.596   3.643   5.872  0.9709 -0.0688  0.4347
 8488TIP3    H125428   2.591   3.590   5.793  3.0235 -1.2187  0.9814
 8488TIP3    H225429   2.527   3.708   5.863 -0.7867 -2.0027 -0.9081
 8489TIP3   OH225430   0.523   5.380   1.758  0.1182  0.3459 -0.7830
 8489TIP3    H125431   0.481   5.462   1.785 -1.7648 -0.4528 -1.1267
 8489TIP3    H225432   0.463   5.311   1.789  0.1197 -0.7702 -3.0569
 8490TIP3   OH225433   0.049   0.938   4.098  0.3672  0.0994 -0.5936
 8490TIP3    H125434   0.048   0.859   4.044 -1.0050 -0.1282 -0.2863
 8490TIP3    H225435  -0.033   0.934   4.147 -0.2210  2.1975 -1.2879
 8491TIP3   OH225436   1.027   1.706   1.553 -0.3107  0.2076 -0.0997
 8491TIP3    H125437   1.089   1.704   1.625  0.8255 -1.0809 -1.0542
 8491TIP3    H225438   0.986   1.619   1.553 -3.8334  1.6454  1.8347
 8492TIP3   OH225439   1.049   3.873   0.067 -0.0342  0.1729  0.2961
 8492TIP3    H125440   1.045   3.779   0.087 -0.1934  0.2558  0.6534
 8492TIP3    H225441   0.978   3.911   0.119 -0.7336  0.3296 -0.7383
 8493TIP3   OH225442   3.249   5.594   3.796  0.4201 -0.2909  0.8860
 8493TIP3    H125443   3.215   5.632   3.715 -2.0848  0.5459  2.2408
 8493TIP3    H225444   3.310   5.660   3.830  1.4800 -0.6442 -0.2494
 8494TIP3   OH225445   7.132   0.700   5.376  0.0417 -0.2454 -0.7080
 8494TIP3    H125446   7.063   0.747   5.423 -0.5245 -1.4601 -0.2988
 8494TIP3    H225447   7.207   0.701   5.436 -0.7432 -1.9849  0.3834
 8495TIP3   OH225448   0.311   1.894   2.452 -0.5850  0.4262  0.1624
 8495TIP3    H125449   0.322   1.989   2.460  0.2178  0.2088  2.0935
 8495TIP3    H225450   0.218   1.880   2.473 -1.2493  0.9265 -2.1615
 8496TIP3   OH225451   3.040   5.016   0.702  0.4510  0.0997  0.3308
 8496TIP3    H125452   3.045   4.940   0.644 -0.1826 -0.9449  1.5990
 8496TIP3    H225453   3.115   5.071   0.676  1.4746 -1.3931 -0.0122
 8497TIP3   OH225454   2.254   1.861   4.698 -0.3388 -0.3403 -0.3768
 8497TIP3    H125455   2.205   1.810   4.763  1.6120 -0.7405  0.8679
 8497TIP3    H225456   2.217   1.949   4.704 -1.2854 -0.7564  0.1131
 8498TIP3   OH225457   4.156   2.324   5.207 -0.0677 -0.2627 -0.4228
 8498TIP3    H125458   4.176   2.411   5.240  0.5644 -1.1027  1.4870
 8498TIP3    H225459   4.239   2.277   5.210 -0.1976 -0.6929 -2.3301
 8499TIP3   OH225460   2.203   0.298   1.474  0.1701 -0.8558 -0.7221
 8499TIP3    H125461   2.220   0.391   1.485  0.5838 -0.8723 -1.1945
 8499TIP3    H225462   2.238   0.258   1.555 -1.7418 -0.4169  0.3734
 8500TIP3   OH225463   1.206   2.691   3.777 -0.0934  0.0881 -0.3505
 8500TIP3    H125464   1.130   2.729   3.822 -0.2650 -0.3820 -0.2453
 8500TIP3    H225465   1.175   2.675   3.688 -1.0682 -2.7864  0.3822
 8501TIP3   OH225466   5.225   4.900   0.702 -0.3567 -0.6115  0.2873
 8501TIP3    H125467   5.176   4.970   0.660  2.7218  1.1311 -0.6499
 8501TIP3    H225468   5.281   4.865   0.633  0.8191 -1.4886  1.6387
 8502TIP3   OH225469   4.648   2.634   0.602 -0.9801  0.0839  0.4261
 8502TIP3    H125470   4.690   2.568   0.656 -0.8370  0.1368  0.3793
 8502TIP3    H225471   4.703   2.712   0.610  0.8236 -0.7722 -2.2159
 8503TIP3   OH225472   4.165   5.874   3.060 -0.0915 -0.2680 -0.2550
 8503TIP3    H125473   4.081   5.878   3.014 -0.2509 -0.8652 -0.0329
 8503TIP3    H225474   4.179   5.963   3.092 -1.3877 -0.4553  0.9741
 8504TIP3   OH225475   5.540   2.625   0.003  0.0803  0.5389  0.5661
 8504TIP3    H125476   5.588   2.663   0.076  0.0367 -0.1822  0.9789
 8504TIP3    H225477   5.593   2.645  -0.074 -0.6834  2.7789  0.5220
 8505TIP3   OH225478   2.720   5.829   3.307  0.7206 -1.2175  0.3526
 8505TIP3    H125479   2.647   5.770   3.322 -0.1906 -0.5908 -1.4028
 8505TIP3    H225480   2.794   5.786   3.350 -0.6272 -1.8797  2.1474
 8506TIP3   OH225481   4.340   2.717   2.943  0.1342  0.7961 -0.2895
 8506TIP3    H125482   4.297   2.786   2.995  0.5786 -0.4683  1.9074
 8506TIP3    H225483   4.327   2.637   2.995  0.0613 -0.7246 -2.5030
 8507TIP3   OH225484   3.731   5.558   2.948  0.2267  0.6212 -0.1101
 8507TIP3    H125485   3.700   5.469   2.934  0.5110  0.5358 -0.2174
 8507TIP3    H225486   3.654   5.613   2.936 -0.2792  0.2841  1.3822
 8508TIP3   OH225487   2.752   2.839   1.851  0.1197 -0.3223  0.3948
 8508TIP3    H125488   2.717   2.810   1.936 -0.0699  0.9554  0.7650
 8508TIP3    H225489   2.676   2.837   1.793 -0.1693  0.6068  0.7277
 8509TIP3   OH225490   4.612   0.855   0.940  0.3584 -0.3280  0.1400
 8509TIP3    H125491   4.650   0.869   0.853  1.1013 -2.3174  0.0775
 8509TIP3    H225492   4.662   0.913   0.997  2.7113 -1.8637 -0.1771
 8510TIP3   OH225493   4.945   1.173   2.795 -0.5423 -0.2648 -0.5547
 8510TIP3    H125494   4.898   1.230   2.855  1.5776  0.7603  0.2215
 8510TIP3    H225495   4.958   1.092   2.843  0.2794  0.1974  0.0153
 8511TIP3   OH225496   2.994   5.235   1.566 -0.2081 -0.0142  0.4733
 8511TIP3    H125497   2.965   5.149   1.537 -0.5273  0.6224 -1.1923
 8511TIP3    H225498   3.069   5.217   1.623  1.9668 -1.3517 -2.5106
 8512TIP3   OH225499   2.259   6.273   2.024  0.6301  0.1012 -0.7426
 8512TIP3    H125500   2.344   6.229   2.013  1.8402  2.3200 -1.0305
 8512TIP3    H225501   2.235   6.301   1.936 -0.9725 -1.3952 -0.8190
 8513TIP3   OH225502   4.248   1.723   1.308 -0.7866 -0.4656  0.0766
 8513TIP3    H125503   4.188   1.649   1.311 -0.0153 -1.0797  1.9934
 8513TIP3    H225504   4.203   1.789   1.255 -1.8419 -1.9745 -0.9740
 8514TIP3   OH225505   7.093  -0.027   2.751  0.0121 -0.1417  0.3810
 8514TIP3    H125506   7.009   0.018   2.740 -0.9919 -2.0090  0.1358
 8514TIP3    H225507   7.152   0.042   2.781 -0.8942  1.8711 -2.0518
 8515TIP3   OH225508   1.688   5.095   5.515  0.3214  0.2921 -0.2399
 8515TIP3    H125509   1.633   5.164   5.551 -1.8384 -1.4036 -0.0159
 8515TIP3    H225510   1.670   5.097   5.421  0.2272  0.0364 -0.2285
 8516TIP3   OH225511   4.940   4.258   4.944 -0.0789  0.2480 -0.0047
 8516TIP3    H125512   4.991   4.317   4.888  0.1549  1.3896  1.3436
 8516TIP3    H225513   4.864   4.310   4.971 -0.5732 -0.5358  0.1529
 8517TIP3   OH225514   6.036   6.773   4.353 -0.3040 -0.4070  0.3521
 8517TIP3    H125515   5.973   6.814   4.293 -0.8533 -0.7722  0.6656
 8517TIP3    H225516   5.990   6.768   4.436  0.3285 -0.2244  0.7178
 8518TIP3   OH225517   2.458   3.654   3.484 -0.5198  0.1753 -0.2430
 8518TIP3    H125518   2.499   3.737   3.462  2.8498 -1.3907 -0.5219
 8518TIP3    H225519   2.441   3.659   3.578 -1.0314  1.4023 -0.3895
 8519TIP3   OH225520   0.713   0.247   4.434 -0.5000 -0.0275 -0.0584
 8519TIP3    H125521   0.718   0.274   4.343  1.2618 -1.7257 -0.5398
 8519TIP3    H225522   0.667   0.163   4.432 -0.3222 -0.1487  0.6048
 8520TIP3   OH225523   2.625   0.946   0.516  0.1514 -0.2973 -0.4648
 8520TIP3    H125524   2.570   0.868   0.509  0.8678 -1.1350  2.0572
 8520TIP3    H225525   2.581   1.001   0.580  0.1857  0.9472 -1.4730
 8521TIP3   OH225526   6.997   4.933   1.955  0.1463 -0.1058  0.1593
 8521TIP3    H125527   6.961   5.022   1.949 -1.3079 -0.7575 -2.4884
 8521TIP3    H225528   6.920   4.876   1.958  1.0198 -1.3545 -0.3296
 8522TIP3   OH225529   2.943   0.999   2.475 -0.6318 -0.4022 -0.0069
 8522TIP3    H125530   2.911   0.942   2.545 -0.6853  1.2636  1.3917
 8522TIP3    H225531   2.887   0.980   2.400 -1.3708 -1.3672  0.7671
 8523TIP3   OH225532   1.567   4.478   2.980  0.4111 -0.3818  0.3134
 8523TIP3    H125533   1.579   4.420   3.055  0.3689  0.6440  1.1288
 8523TIP3    H225534   1.490   4.443   2.935  0.6419 -1.2117  0.5477
 8524TIP3   OH225535   5.339   4.863   5.296 -0.2609 -0.3427 -0.8604
 8524TIP3    H125536   5.251   4.882   5.328 -0.3581 -1.0441 -0.6931
 8524TIP3    H225537   5.397   4.900   5.362 -0.4576 -1.6606  0.1100
 8525TIP3   OH225538   3.559   2.595   4.347  0.1015  0.3316 -0.2911
 8525TIP3    H125539   3.528   2.669   4.294  0.2313 -1.2697 -2.7370
 8525TIP3    H225540   3.618   2.548   4.290 -1.0547 -2.4859  0.6771
 8526TIP3   OH225541   5.834   3.887   1.999 -0.3061  0.0303 -0.4058
 8526TIP3    H125542   5.773   3.877   1.926 -1.3326 -1.6477  0.5975
 8526TIP3    H225543   5.868   3.798   2.014 -1.5813 -0.0968  2.3160
 8527TIP3   OH225544   4.106   4.332   4.568 -0.3346 -0.3522 -0.2666
 8527TIP3    H125545   4.031   4.284   4.533 -0.7818 -0.5506  0.9122
 8527TIP3    H225546   4.168   4.264   4.592 -0.0771 -0.2250 -0.5724
 8528TIP3   OH225547   5.609   3.428   2.283 -0.5715 -0.0698 -0.2003
 8528TIP3    H125548   5.617   3.338   2.312 -0.9307  0.0940  0.4294
 8528TIP3    H225549   5.698   3.456   2.264 -0.2038  0.0970  1.6240
 8529TIP3   OH225550   4.252   4.764   4.173 -0.2766 -0.3282 -0.2285
 8529TIP3    H125551   4.331   4.711   4.160  0.1099  0.2856 -0.4446
 8529TIP3    H225552   4.222   4.742   4.261  1.2641  0.8529  0.6501
 8530TIP3   OH225553   3.758   1.321   4.609  0.4158 -0.1819 -0.1479
 8530TIP3    H125554   3.726   1.310   4.699 -0.2636  0.4201 -0.3005
 8530TIP3    H225555   3.806   1.240   4.590 -0.9329 -1.0949  0.1514
 8531TIP3   OH225556   5.333   2.898   1.495 -0.0447  0.2135 -0.0900
 8531TIP3    H125557   5.338   2.871   1.403  0.0166 -0.5890  0.1437
 8531TIP3    H225558   5.251   2.948   1.500  0.8491  1.8370 -0.9640
 8532TIP3   OH225559   4.074   1.004   2.448  0.9904  0.0344  0.6493
 8532TIP3    H125560   4.116   1.088   2.465  1.4777  0.0422 -0.5185
 8532TIP3    H225561   4.049   0.971   2.535 -0.3020  1.9318  1.0676
 8533TIP3   OH225562   3.797   2.018   0.671 -0.1187  0.3834 -0.2426
 8533TIP3    H125563   3.827   1.937   0.712 -2.1652 -0.0734  0.4842
 8533TIP3    H225564   3.872   2.077   0.677  0.3558 -0.3617  2.2962
 8534TIP3   OH225565   4.571   6.165   1.980  0.2093  0.0284 -0.1483
 8534TIP3    H125566   4.647   6.121   2.018 -0.6468  0.5896  2.4205
 8534TIP3    H225567   4.555   6.240   2.037 -1.0081  1.1644 -1.8670
 8535TIP3   OH225568   2.671   3.779   3.717 -0.0837 -0.1372 -0.0429
 8535TIP3    H125569   2.751   3.747   3.760 -0.3148  0.4743  0.8840
 8535TIP3    H225570   2.613   3.803   3.790 -0.4308  1.0847 -0.6928
 8536TIP3   OH225571   5.626   6.811   1.572  0.2693 -0.5033  0.5514
 8536TIP3    H125572   5.631   6.792   1.666 -0.7892  0.6884  0.8798
 8536TIP3    H225573   5.628   6.725   1.530 -0.2244 -1.1150  1.7295
 8537TIP3   OH225574   0.151   6.028   2.572 -0.3301  0.3641 -0.1221
 8537TIP3    H125575   0.160   6.021   2.667 -0.1582 -1.9490 -0.2519
 8537TIP3    H225576   0.213   6.096   2.546  3.1398 -2.1102  0.9793
 8538TIP3   OH225577   6.423   2.708   1.409 -0.1275 -0.0487 -0.1035
 8538TIP3    H125578   6.406   2.782   1.351  0.3152  0.5618  0.5397
 8538TIP3    H225579   6.337   2.686   1.445 -0.4662 -0.6620 -1.2478
 8539TIP3   OH225580   0.820   0.333   5.498  0.2886  0.2440 -0.2334
 8539TIP3    H125581   0.765   0.296   5.429 -0.5258  0.0810  0.4787
 8539TIP3    H225582   0.822   0.427   5.480  0.2551  0.1758 -0.5970
 8540TIP3   OH225583   0.670   3.501   5.317  0.0734 -0.6605 -0.3003
 8540TIP3    H125584   0.764   3.489   5.299  0.2456 -0.6459  0.5156
 8540TIP3    H225585   0.660   3.469   5.407 -0.2814  1.3325  0.4106
 8541TIP3   OH225586   2.927   1.381   4.675 -0.2548 -0.2798  0.0099
 8541TIP3    H125587   2.977   1.337   4.744 -2.2412 -1.6091  0.7121
 8541TIP3    H225588   2.859   1.318   4.652 -1.2854  1.2249 -1.2630
 8542TIP3   OH225589   4.636   1.756   3.366 -0.0392 -0.0766  0.1120
 8542TIP3    H125590   4.644   1.810   3.444 -0.5598  1.5695 -0.9205
 8542TIP3    H225591   4.720   1.767   3.320  0.4864 -1.4867  0.6720
 8543TIP3   OH225592   2.545   5.025   0.111  0.5390 -0.3270  0.0018
 8543TIP3    H125593   2.470   5.084   0.115  0.9735  0.2915 -0.8013
 8543TIP3    H225594   2.576   5.020   0.202  0.3039  0.4283  0.1288
 8544TIP3   OH225595   1.424   2.566   2.189 -0.3716 -0.3892  0.5145
 8544TIP3    H125596   1.452   2.651   2.223  0.0200 -0.6350  0.8107
 8544TIP3    H225597   1.329   2.573   2.184 -0.1851  1.5876 -3.4806
 8545TIP3   OH225598   6.520   5.043   3.432 -0.2957 -0.5331  0.6826
 8545TIP3    H125599   6.536   5.080   3.518 -1.1891  1.3381  0.0893
 8545TIP3    H225600   6.575   5.095   3.372  0.2521 -1.7461  0.0858
 8546TIP3   OH225601   5.827   5.241   2.745 -0.2623  0.3737 -0.1274
 8546TIP3    H125602   5.741   5.200   2.737  0.4444 -1.4907  1.0615
 8546TIP3    H225603   5.853   5.260   2.655 -1.0636 -0.9315 -0.6615
 8547TIP3   OH225604   4.059   0.533   3.570  0.1586 -0.5312  0.7278
 8547TIP3    H125605   3.984   0.518   3.627  0.4817  2.1949  2.0114
 8547TIP3    H225606   4.023   0.537   3.482 -0.8929 -1.1398  1.1167
 8548TIP3   OH225607   5.098   6.506   4.255  0.2180  0.1980 -0.3008
 8548TIP3    H125608   5.024   6.462   4.212 -1.7246  0.2374  2.6577
 8548TIP3    H225609   5.073   6.598   4.258 -0.4288  0.0297  1.9493
 8549TIP3   OH225610   2.448   2.616   0.984 -0.2304 -0.2546 -0.0006
 8549TIP3    H125611   2.478   2.616   1.075  0.7390  0.2255 -0.3019
 8549TIP3    H225612   2.455   2.708   0.956 -0.9156 -0.3257 -0.4349
 8550TIP3   OH225613   2.227   6.177   3.455 -0.4198 -0.6442  0.1542
 8550TIP3    H125614   2.145   6.211   3.493 -0.4438  0.9075 -1.1400
 8550TIP3    H225615   2.218   6.194   3.361  0.0969 -3.3331 -0.4415
 8551TIP3   OH225616   5.586   4.716   5.622  0.1740  0.2169  0.3791
 8551TIP3    H125617   5.507   4.669   5.648 -0.4266  0.5958 -0.7168
 8551TIP3    H225618   5.637   4.724   5.703 -1.9646  1.9958  1.6626
 8552TIP3   OH225619   1.634   4.668   4.170 -0.5063 -0.1248 -0.2081
 8552TIP3    H125620   1.658   4.742   4.115  1.6484  0.1659  0.9830
 8552TIP3    H225621   1.556   4.697   4.217  0.5216  1.6025  0.5313
 8553TIP3   OH225622   5.734   3.360   2.884 -0.3522  0.5278 -0.0290
 8553TIP3    H125623   5.792   3.426   2.921  1.5701 -1.4810  0.8060
 8553TIP3    H225624   5.758   3.354   2.792 -0.4129  0.8679 -0.0659
 8554TIP3   OH225625   0.721   2.552   0.835 -0.3025 -0.6139 -1.0066
 8554TIP3    H125626   0.809   2.517   0.824 -0.0333 -0.5088  0.6510
 8554TIP3    H225627   0.709   2.560   0.929 -1.5709  0.6870 -1.2373
 8555TIP3   OH225628   6.043   1.850   5.304 -0.2696 -0.3271 -0.4630
 8555TIP3    H125629   6.073   1.763   5.332  0.0364  0.1794  0.8466
 8555TIP3    H225630   5.960   1.862   5.351 -0.5341 -0.0789 -0.9818
 8556TIP3   OH225631   2.552   5.101   4.605 -0.2653  0.4021 -0.2964
 8556TIP3    H125632   2.614   5.144   4.546  1.7631  0.2847  1.6390
 8556TIP3    H225633   2.484   5.167   4.620  0.6752  1.4561 -0.5253
 8557TIP3   OH225634   1.931   0.597   2.636  0.1049 -0.8395 -0.1717
 8557TIP3    H125635   1.914   0.618   2.728  1.3026 -0.8708  0.0781
 8557TIP3    H225636   1.845   0.598   2.595 -0.2053  2.0166  0.3291
 8558TIP3   OH225637   4.594   6.274   1.723 -0.0010 -0.2233  0.6656
 8558TIP3    H125638   4.613   6.229   1.805  0.6984  0.5586  0.9417
 8558TIP3    H225639   4.674   6.322   1.703 -0.2810 -0.1412 -0.3028
 8559TIP3   OH225640   4.922   1.501   4.122  0.4733 -0.1920 -0.2856
 8559TIP3    H125641   4.878   1.564   4.065  0.6597  1.6911  1.5194
 8559TIP3    H225642   5.013   1.531   4.126  0.0324  1.1021  2.6263
 8560TIP3   OH225643   6.968   0.343   1.023 -0.0674 -0.5670  0.5032
 8560TIP3    H125644   7.044   0.300   0.985  0.7360  2.1849 -1.3351
 8560TIP3    H225645   6.974   0.324   1.117  2.4759 -1.0658  0.3031
 8561TIP3   OH225646   6.674   2.666   5.881  0.0050 -0.0783 -0.2747
 8561TIP3    H125647   6.680   2.653   5.786 -0.1947 -1.1237 -0.1538
 8561TIP3    H225648   6.670   2.578   5.917 -0.6655  0.3188  0.6635
 8562TIP3   OH225649   3.619   3.553   2.257  0.0486 -0.7272  0.5512
 8562TIP3    H125650   3.608   3.469   2.212 -2.1671 -0.1010 -0.2240
 8562TIP3    H225651   3.574   3.542   2.341 -0.1223 -0.3779  0.5094
 8563TIP3   OH225652   0.123   4.268   3.279 -0.1432  0.5947  0.0817
 8563TIP3    H125653   0.207   4.307   3.305  1.0451  0.0574 -2.6354
 8563TIP3    H225654   0.138   4.174   3.285 -0.2433  0.4844 -1.2573
 8564TIP3   OH225655   6.071   5.598   2.657  0.1041  0.4988 -0.3473
 8564TIP3    H125656   6.064   5.543   2.735  1.0070  0.9811  0.0921
 8564TIP3    H225657   5.995   5.574   2.604  0.2138 -0.8221  0.0498
 8565TIP3   OH225658   3.795   3.379   4.907 -0.4018  0.2138 -0.3717
 8565TIP3    H125659   3.869   3.432   4.876 -0.9488  1.5383  0.4901
 8565TIP3    H225660   3.766   3.423   4.987 -1.2509 -1.0863  0.0730
 8566TIP3   OH225661   5.550   2.866   4.135 -0.3213  0.0223  0.1338
 8566TIP3    H125662   5.555   2.930   4.205 -1.8835 -0.1208  0.4124
 8566TIP3    H225663   5.472   2.890   4.085 -0.2149 -0.9026 -0.5178
 8567TIP3   OH225664   5.997   2.354   2.614  0.8017 -0.5221  0.1030
 8567TIP3    H125665   5.986   2.326   2.524 -0.3161 -0.4301  0.1960
 8567TIP3    H225666   6.080   2.402   2.615  1.2439 -1.2565 -0.6801
 8568TIP3   OH225667   4.549   2.770   2.221 -0.1754 -0.2970 -0.1905
 8568TIP3    H125668   4.560   2.710   2.147 -1.7718 -1.4615  0.4656
 8568TIP3    H225669   4.535   2.856   2.180  1.4287 -0.4518 -1.1553
 8569TIP3   OH225670   2.851   0.397   2.806 -0.4396  0.1078 -0.1647
 8569TIP3    H125671   2.802   0.346   2.741  0.4744 -1.3885  0.2740
 8569TIP3    H225672   2.932   0.348   2.818  0.8780  2.1480 -0.3480
 8570TIP3   OH225673   4.793   6.006   5.488  0.0380 -0.0229  0.5785
 8570TIP3    H125674   4.752   6.087   5.517 -1.1107 -0.8097  1.2728
 8570TIP3    H225675   4.786   5.947   5.564  3.2738  0.0256  1.0553
 8571TIP3   OH225676   6.701   2.943   2.854 -0.5045 -0.1180 -0.5343
 8571TIP3    H125677   6.790   2.969   2.878  0.0252 -2.8444  0.9010
 8571TIP3    H225678   6.648   3.020   2.869  1.2547  0.8544  1.0239
 8572TIP3   OH225679   4.525   4.385   1.201 -0.8548 -0.2216  0.2356
 8572TIP3    H125680   4.554   4.402   1.111 -2.4885 -2.1714 -0.7444
 8572TIP3    H225681   4.500   4.292   1.201 -0.6992 -0.3314  2.7836
 8573TIP3   OH225682   6.192   4.777   1.220 -0.1651  0.0258  0.4390
 8573TIP3    H125683   6.183   4.867   1.250  1.4492  0.3563  0.0294
 8573TIP3    H225684   6.106   4.754   1.185 -1.2883  0.5602  2.7184
 8574TIP3   OH225685   5.935   6.148   2.136  0.0533 -0.1641 -0.2736
 8574TIP3    H125686   5.873   6.111   2.073 -0.0713 -0.2324 -0.1112
 8574TIP3    H225687   5.972   6.072   2.180 -0.2576 -0.0949  0.1126
 8575TIP3   OH225688   6.095   4.512   0.514 -0.0167  0.4695 -0.5857
 8575TIP3    H125689   6.126   4.566   0.442  0.5648 -1.6967 -2.0460
 8575TIP3    H225690   6.037   4.448   0.474 -0.6521 -0.0413  1.0604
 8576TIP3   OH225691   4.851   1.597   0.966  0.4119  0.3382 -0.5113
 8576TIP3    H125692   4.829   1.621   1.056 -1.2017  1.1719 -1.0901
 8576TIP3    H225693   4.895   1.674   0.930  0.6436  0.1783 -0.5716
 8577TIP3   OH225694   4.979   2.156   0.816 -0.0867 -0.3746  0.1126
 8577TIP3    H125695   5.037   2.221   0.776 -2.2482  0.5907 -1.7352
 8577TIP3    H225696   5.035   2.082   0.837  1.7588  0.3658 -1.8625
 8578TIP3   OH225697   1.358   3.569   2.557  0.4849  0.7137  0.2446
 8578TIP3    H125698   1.414   3.498   2.587 -0.6968  0.3566  1.7366
 8578TIP3    H225699   1.418   3.634   2.521  1.7675 -0.0244  0.9810
 8579TIP3   OH225700   7.150   4.410   3.907  0.4138  0.1577 -0.3293
 8579TIP3    H125701   7.227   4.355   3.921  0.2312 -0.6194 -2.1000
 8579TIP3    H225702   7.184   4.500   3.906  0.7178  0.1783  2.5565
 8580TIP3   OH225703   1.982   1.238   2.400  0.1081  0.3963 -0.0801
 8580TIP3    H125704   2.018   1.326   2.408  0.7783  0.0928  0.3626
 8580TIP3    H225705   1.912   1.246   2.335 -0.3391  1.4007  0.5025
 8581TIP3   OH225706   0.094   3.509   4.686 -0.3391  0.2195 -0.3285
 8581TIP3    H125707   0.147   3.460   4.748 -1.2002 -0.1982  0.0951
 8581TIP3    H225708   0.155   3.569   4.643  0.7053 -1.1144 -0.7453
 8582TIP3   OH225709   5.648   4.970   4.794 -0.2812  0.1171 -0.3011
 8582TIP3    H125710   5.654   4.992   4.887  1.3062  1.3614 -0.6536
 8582TIP3    H225711   5.689   4.883   4.787  1.2287  0.7773 -0.0519
 8583TIP3   OH225712   1.876   5.604   2.403 -0.8373  0.2506 -0.4477
 8583TIP3    H125713   1.801   5.565   2.358 -2.2018  2.1735  0.0140
 8583TIP3    H225714   1.883   5.691   2.365  1.0974  0.1693 -0.3423
 8584TIP3   OH225715   4.175   1.536   0.239  0.4729 -0.2508 -0.0308
 8584TIP3    H125716   4.132   1.620   0.255 -2.4827 -1.2502 -1.7899
 8584TIP3    H225717   4.175   1.492   0.324 -1.4359  0.1096  0.1962
 8585TIP3   OH225718   3.216   2.788   3.037  0.1701  0.5363  0.2666
 8585TIP3    H125719   3.208   2.882   3.052  1.8889  0.7958 -0.1564
 8585TIP3    H225720   3.295   2.779   2.982 -0.2841 -1.1054 -0.1919
 8586TIP3   OH225721   2.357   5.194   3.049  0.2638  0.0438 -0.1993
 8586TIP3    H125722   2.357   5.134   3.123 -0.3177 -0.9321 -0.9649
 8586TIP3    H225723   2.389   5.277   3.085  1.7104 -0.8710  0.7518
 8587TIP3   OH225724   1.509   1.489   0.331  0.1991 -0.5965  0.4659
 8587TIP3    H125725   1.471   1.568   0.292 -1.1695 -2.1034 -1.4499
 8587TIP3    H225726   1.439   1.453   0.384  0.0167 -1.6744 -0.4735
 8588TIP3   OH225727   3.233   6.087   5.367  0.0339  0.1160  0.5084
 8588TIP3    H125728   3.281   6.038   5.434 -0.7339  0.1877  1.1264
 8588TIP3    H225729   3.158   6.031   5.346 -0.5467  0.7618  0.8183
 8589TIP3   OH225730   2.816   0.632   5.389  0.4541  0.0163 -0.3882
 8589TIP3    H125731   2.752   0.614   5.458  0.7185 -0.8505 -0.3587
 8589TIP3    H225732   2.890   0.672   5.434  0.0409  0.8003 -0.3877
 8590TIP3   OH225733   5.713   5.605   5.682 -0.0331 -0.3041 -0.4328
 8590TIP3    H125734   5.801   5.643   5.683  0.3918 -1.2548 -0.3114
 8590TIP3    H225735   5.656   5.675   5.713  0.7010  0.2918 -0.4127
 8591TIP3   OH225736   4.780   2.524   0.903 -0.0236 -0.1309  0.0141
 8591TIP3    H125737   4.865   2.548   0.867 -0.1391 -1.7644 -1.4577
 8591TIP3    H225738   4.787   2.430   0.920 -0.9779  0.0318  1.5384
 8592TIP3   OH225739   4.316   4.056   5.195 -0.2379 -0.7012  0.1628
 8592TIP3    H125740   4.334   4.134   5.248  1.5005 -0.2014 -1.0949
 8592TIP3    H225741   4.229   4.028   5.224  0.2687  0.0211  2.6863
 8593TIP3   OH225742   4.988   0.759   2.541 -0.0177 -0.0160 -0.0860
 8593TIP3    H125743   5.066   0.815   2.544 -0.2390  0.3921 -1.4451
 8593TIP3    H225744   5.022   0.670   2.549  0.5894  0.1590 -0.6594
 8594TIP3   OH225745   2.517   0.926   4.787  0.4950 -0.3061 -0.0403
 8594TIP3    H125746   2.465   0.988   4.736  0.0456 -0.1213  0.6176
 8594TIP3    H225747   2.478   0.930   4.875  1.5128 -0.3068  0.4192
 8595TIP3   OH225748   6.212   2.396   5.207  0.3666  0.4538  0.3982
 8595TIP3    H125749   6.237   2.487   5.218  0.7229  0.1783  2.3211
 8595TIP3    H225750   6.294   2.347   5.213  0.1988 -0.0095 -0.7688
 8596TIP3   OH225751   2.642   5.396   2.946 -0.6419 -0.0638 -0.5087
 8596TIP3    H125752   2.674   5.417   2.858 -2.7812  2.1062 -0.8731
 8596TIP3    H225753   2.669   5.470   2.999 -1.0199 -0.4447  0.2221
 8597TIP3   OH225754   0.594   4.246   4.190 -0.0747 -0.3403 -0.1824
 8597TIP3    H125755   0.633   4.273   4.107 -0.6429  0.7104 -0.1275
 8597TIP3    H225756   0.661   4.265   4.256 -1.0188  2.5970  0.0631
 8598TIP3   OH225757   2.613   2.763   5.540 -0.0981 -0.5720  0.5821
 8598TIP3    H125758   2.665   2.698   5.588  0.8648 -1.0557 -1.0457
 8598TIP3    H225759   2.575   2.715   5.467 -0.8656  0.3123  0.3744
 8599TIP3   OH225760   4.599   6.288   3.904 -0.3709 -0.5209 -0.2886
 8599TIP3    H125761   4.670   6.273   3.842 -0.9435 -0.6915 -0.9195
 8599TIP3    H225762   4.530   6.330   3.852 -0.3287  0.6327  0.5545
 8600TIP3   OH225763   1.001   0.169   1.737  0.0679  0.6057  0.1208
 8600TIP3    H125764   0.948   0.164   1.657  0.0595  0.6894  0.1210
 8600TIP3    H225765   1.019   0.262   1.748  0.2997  0.5674  0.0679
 8601TIP3   OH225766   5.931   3.899   3.976 -0.1340  0.3669 -0.1102
 8601TIP3    H125767   5.967   3.930   3.893  0.1739  1.3973  0.3848
 8601TIP3    H225768   5.994   3.927   4.042 -0.8499  0.4306  0.5734
 8602TIP3   OH225769   2.629   6.164   2.587 -0.5027 -0.1870  0.0944
 8602TIP3    H125770   2.656   6.073   2.598  0.5174  0.3886  3.3004
 8602TIP3    H225771   2.534   6.163   2.602 -0.6598 -0.8005 -0.8400
 8603TIP3   OH225772   5.189   4.929   1.519  0.1262 -0.0991 -0.6382
 8603TIP3    H125773   5.235   5.013   1.510  1.3216 -0.3744  1.9519
 8603TIP3    H225774   5.111   4.951   1.570 -0.2979 -0.3634 -1.1669
 8604TIP3   OH225775   6.926   6.043   0.306  0.3253  0.1613  0.0856
 8604TIP3    H125776   6.893   6.029   0.217 -0.2503  1.2441  0.1169
 8604TIP3    H225777   6.947   6.136   0.309  0.3357  0.1323  1.0881
 8605TIP3   OH225778   0.224   6.612   1.512 -0.1610  0.4064 -0.0928
 8605TIP3    H125779   0.311   6.572   1.517  0.1344  0.9458 -0.7712
 8605TIP3    H225780   0.164   6.538   1.516  0.3702 -0.1048 -1.1357
 8606TIP3   OH225781   2.320   4.865   3.077  0.3445 -0.5332 -0.3984
 8606TIP3    H125782   2.415   4.869   3.073  0.2733  1.9237 -1.9105
 8606TIP3    H225783   2.297   4.797   3.013  1.0596 -3.3420  2.1298
 8607TIP3   OH225784   0.021   4.928   2.371  0.2640  0.3483 -0.2873
 8607TIP3    H125785  -0.061   4.963   2.405  0.9292  0.8929  0.8322
 8607TIP3    H225786   0.088   4.986   2.407  1.1440 -0.0554 -1.2216
 8608TIP3   OH225787   0.979   5.848   4.144  0.0076 -0.1247 -0.2918
 8608TIP3    H125788   0.917   5.776   4.150  0.6592 -0.6073  1.1485
 8608TIP3    H225789   0.981   5.871   4.051 -1.0410 -1.2042 -0.6052
 8609TIP3   OH225790   0.341   4.400   5.530  0.2590  0.0790 -0.0027
 8609TIP3    H125791   0.349   4.494   5.512  1.9843 -0.2123 -1.0764
 8609TIP3    H225792   0.371   4.390   5.620 -0.3832  0.6100  0.2726
 8610TIP3   OH225793   4.545   1.421   1.263 -0.5442 -0.5046 -0.1953
 8610TIP3    H125794   4.541   1.329   1.290 -1.0079 -0.0682  1.3645
 8610TIP3    H225795   4.464   1.436   1.215 -1.5468 -0.4036  1.4314
 8611TIP3   OH225796   1.805   1.443   2.576  0.2956 -0.2485 -0.2684
 8611TIP3    H125797   1.849   1.524   2.549  1.1180 -0.1542  1.2104
 8611TIP3    H225798   1.712   1.460   2.561  0.5125  0.7393 -0.5609
 8612TIP3   OH225799   5.183   3.358   0.724 -0.2131 -0.2541 -0.1893
 8612TIP3    H125800   5.157   3.421   0.791  1.1274 -0.9868  1.0687
 8612TIP3    H225801   5.100   3.324   0.690 -0.9882 -0.9061  2.1274
 8613TIP3   OH225802   6.526   6.478   0.429 -0.9652 -0.6082  0.1101
 8613TIP3    H125803   6.594   6.412   0.416  1.1378  0.9358  2.3420
 8613TIP3    H225804   6.523   6.525   0.345  0.9401 -0.5822  0.0014
 8614TIP3   OH225805   6.671   5.263   0.971 -0.1092  0.3831  0.1252
 8614TIP3    H125806   6.576   5.275   0.969 -0.1935 -0.0958  0.9119
 8614TIP3    H225807   6.692   5.257   1.064  0.6477  0.1191 -0.0588
 8615TIP3   OH225808   2.765   4.905   0.007  0.2672 -0.0532  0.3059
 8615TIP3    H125809   2.741   4.815   0.029  0.7027 -0.1791  0.2769
 8615TIP3    H225810   2.693   4.958   0.042 -1.6819 -0.6414 -2.4739
 8616TIP3   OH225811   6.290   3.946   4.964 -0.6216 -0.0789  0.3044
 8616TIP3    H125812   6.378   3.915   4.944 -1.5097 -3.4723  1.0090
 8616TIP3    H225813   6.304   4.022   5.020  1.8140  0.5416 -1.0234
 8617TIP3   OH225814   5.751   6.001   1.985  0.2589 -0.3725 -0.4836
 8617TIP3    H125815   5.817   5.951   1.937 -0.3256 -1.3999 -0.2510
 8617TIP3    H225816   5.674   6.000   1.929 -0.2157 -1.0150  0.1542
 8618TIP3   OH225817   6.842   6.307   1.257 -0.1325  0.2200 -0.0177
 8618TIP3    H125818   6.859   6.401   1.262 -0.8074  0.2988  0.9396
 8618TIP3    H225819   6.842   6.288   1.163 -1.5961  1.4740 -0.3055
 8619TIP3   OH225820   4.175   3.456   1.158 -0.3389  0.1046 -0.0471
 8619TIP3    H125821   4.173   3.363   1.137  0.7899  0.1816 -0.5462
 8619TIP3    H225822   4.085   3.486   1.142 -1.0703 -1.1500  1.4107
 8620TIP3   OH225823   4.970   3.695   4.091  0.1270 -0.2269  0.1188
 8620TIP3    H125824   5.052   3.691   4.042 -0.5157  0.7067 -1.0884
 8620TIP3    H225825   4.987   3.759   4.161  0.6132 -0.5108  0.2662
 8621TIP3   OH225826   1.895   5.076   5.025 -0.2552 -0.1126 -0.6702
 8621TIP3    H125827   1.883   5.114   5.111  1.9071 -1.0544  0.1191
 8621TIP3    H225828   1.817   5.102   4.976 -1.1350  1.1525  1.2830
 8622TIP3   OH225829   5.388   4.156   0.794  0.0149 -0.3563 -0.8940
 8622TIP3    H125830   5.465   4.201   0.829 -0.8335  0.4513 -0.0050
 8622TIP3    H225831   5.397   4.066   0.824  0.9064 -0.4271 -1.3158
 8623TIP3   OH225832   6.706   2.662   5.067  0.3778  0.3374  0.3041
 8623TIP3    H125833   6.712   2.646   4.973 -1.0947 -0.9734  0.3691
 8623TIP3    H225834   6.730   2.578   5.107  1.8711  1.1350  1.1609
 8624TIP3   OH225835   2.256   1.979   2.886  0.1228 -0.1942 -0.0078
 8624TIP3    H125836   2.276   2.048   2.822 -1.9845 -1.4573 -2.1684
 8624TIP3    H225837   2.333   1.977   2.944  0.8373  3.0068 -0.6631
 8625TIP3   OH225838   4.054   2.645   5.406 -0.3076 -0.0300 -0.2120
 8625TIP3    H125839   4.110   2.586   5.355 -1.0997 -0.6604 -0.3937
 8625TIP3    H225840   4.102   2.661   5.487 -0.1512 -1.0930 -0.0791
 8626TIP3   OH225841   4.294   4.029   0.125  0.0971 -0.3192 -0.3247
 8626TIP3    H125842   4.349   4.015   0.202 -0.3671 -1.1667 -0.1325
 8626TIP3    H225843   4.326   3.965   0.062 -1.2318 -1.4466  0.1028
 8627TIP3   OH225844   6.008   4.283   3.779  0.3822  0.0082 -0.1012
 8627TIP3    H125845   5.944   4.336   3.730  0.3955  0.2452  0.1354
 8627TIP3    H225846   6.092   4.305   3.740  0.5880  1.3727  1.0182
 8628TIP3   OH225847   3.249   6.339   0.244  0.2327 -0.3168  0.1776
 8628TIP3    H125848   3.217   6.280   0.175  1.3492 -0.7148 -0.0263
 8628TIP3    H225849   3.303   6.283   0.300 -0.0892  0.1608  0.9830
 8629TIP3   OH225850   6.982   3.398   2.541  0.2979 -0.0429  0.8991
 8629TIP3    H125851   7.063   3.441   2.513 -0.9486  1.6593 -0.3062
 8629TIP3    H225852   6.954   3.448   2.617 -1.2391  1.4867 -0.5963
 8630TIP3   OH225853   3.144   3.656   4.151 -0.4175  0.2687 -0.1534
 8630TIP3    H125854   3.234   3.639   4.122  0.1835  0.6490  1.3903
 8630TIP3    H225855   3.093   3.583   4.114  1.0786 -1.7532  1.5177
 8631TIP3   OH225856   3.960   2.506   2.914 -0.3441  0.4042  0.7456
 8631TIP3    H125857   3.970   2.504   3.009  0.5397 -1.0116  0.6362
 8631TIP3    H225858   4.031   2.452   2.881 -1.7810 -0.7325 -0.6265
 8632TIP3   OH225859   1.886   0.531   5.613  0.6211 -0.1194  0.4169
 8632TIP3    H125860   1.811   0.589   5.621  1.0375  0.3098  1.4408
 8632TIP3    H225861   1.857   0.461   5.555  0.0268  0.9598 -0.6210
 8633TIP3   OH225862   6.698   2.276   2.563  0.2489 -0.5344 -0.2483
 8633TIP3    H125863   6.673   2.332   2.637  2.2171 -0.9819  0.8201
 8633TIP3    H225864   6.742   2.201   2.603 -0.3664 -1.7578 -1.7900
 8634TIP3   OH225865   5.517   3.511   2.974  0.0694 -0.1327 -0.0848
 8634TIP3    H125866   5.512   3.557   2.891  1.3462  1.6276  0.7625
 8634TIP3    H225867   5.587   3.448   2.963  0.1019 -0.0411 -0.4058
 8635TIP3   OH225868   5.272   4.545   0.952 -0.5112 -0.1880  0.1419
 8635TIP3    H125869   5.305   4.553   0.863 -0.9875 -0.0553 -0.0266
 8635TIP3    H225870   5.182   4.513   0.942  0.2131 -2.6050  0.6521
 8636TIP3   OH225871   6.727   5.232   2.886  0.0574  0.2902 -0.1759
 8636TIP3    H125872   6.813   5.251   2.849 -0.1162 -1.0988 -1.3979
 8636TIP3    H225873   6.713   5.139   2.867 -1.1972  0.1909  1.0909
 8637TIP3   OH225874   3.932   4.930   4.795 -0.4639 -0.0823 -0.1028
 8637TIP3    H125875   3.946   4.997   4.862  0.1390  0.1711 -0.4779
 8637TIP3    H225876   4.003   4.868   4.807 -1.2874 -0.9214  0.5495
 8638TIP3   OH225877   1.358   1.617   4.760  0.4005 -0.0307 -0.7971
 8638TIP3    H125878   1.419   1.558   4.804  0.5563  0.6961 -0.0281
 8638TIP3    H225879   1.325   1.674   4.829 -0.8764 -0.1712 -1.2635
 8639TIP3   OH225880   5.294   0.246   4.626 -0.2560 -0.3318  0.1284
 8639TIP3    H125881   5.352   0.283   4.560  0.2118 -0.5643  0.4033
 8639TIP3    H225882   5.305   0.152   4.618  1.3655 -0.3588  1.8702
 8640TIP3   OH225883   3.958   1.608   3.535  0.2384 -0.2977 -0.1129
 8640TIP3    H125884   4.024   1.539   3.530 -1.7945 -2.3248 -1.0028
 8640TIP3    H225885   3.931   1.609   3.627 -0.2616 -1.2959 -0.2323
 8641TIP3   OH225886   3.528   2.813   1.761  0.0414 -0.4722  0.3268
 8641TIP3    H125887   3.464   2.826   1.691 -0.2988 -1.2312  0.4786
 8641TIP3    H225888   3.491   2.741   1.813  1.3819 -1.4470 -0.0209
 8642TIP3   OH225889   7.142   4.847   2.727  0.3013 -0.1799  0.5268
 8642TIP3    H125890   7.198   4.785   2.680  0.8560 -0.5284  1.6113
 8642TIP3    H225891   7.178   4.849   2.816  0.1222  1.4696  0.6030
 8643TIP3   OH225892   1.589   6.259   2.959 -0.5600 -0.0890  0.1733
 8643TIP3    H125893   1.545   6.261   2.874  1.1288 -1.7205 -0.8193
 8643TIP3    H225894   1.566   6.173   2.996 -0.1625  0.0351  0.7227
 8644TIP3   OH225895   2.366   0.238   0.802 -0.6244  0.1191 -0.4359
 8644TIP3    H125896   2.301   0.269   0.865 -0.0040  1.5383 -0.4549
 8644TIP3    H225897   2.322   0.243   0.718 -0.3176  1.7233 -0.5326
 8645TIP3   OH225898   0.877   3.594   5.803  0.8265  0.0705 -0.3350
 8645TIP3    H125899   0.838   3.554   5.725 -0.2354 -0.1755  0.2890
 8645TIP3    H225900   0.971   3.587   5.789  0.6591 -0.8205 -1.1692
 8646TIP3   OH225901   1.608   2.832   0.649 -0.2157 -0.2919  0.0673
 8646TIP3    H125902   1.600   2.746   0.690  2.2140 -0.9822 -0.7122
 8646TIP3    H225903   1.633   2.891   0.720 -0.6025 -0.5071  0.3811
 8647TIP3   OH225904   5.692   1.510   1.770 -0.0881  0.0282 -0.1399
 8647TIP3    H125905   5.631   1.446   1.806 -0.5750 -0.4296 -1.6992
 8647TIP3    H225906   5.701   1.486   1.678  1.0745  1.1662 -0.3586
 8648TIP3   OH225907   3.328   5.275   5.007 -0.1682  0.3242  0.1292
 8648TIP3    H125908   3.343   5.290   5.101 -1.6663 -0.5425  0.5204
 8648TIP3    H225909   3.353   5.184   4.993 -0.6192  0.2490 -0.1751
 8649TIP3   OH225910   0.602   5.898   4.594 -0.6468  0.3043  0.3546
 8649TIP3    H125911   0.510   5.903   4.568 -0.7711 -0.7482  0.5515
 8649TIP3    H225912   0.644   5.848   4.523 -0.9263 -2.3140  1.9096
 8650TIP3   OH225913   3.164   1.785   4.367 -0.8024 -0.7497 -0.3241
 8650TIP3    H125914   3.150   1.765   4.459  1.2826 -1.2692 -0.0736
 8650TIP3    H225915   3.198   1.874   4.366  1.8452 -1.6891 -0.2784
 8651TIP3   OH225916   2.943   6.424   5.703 -0.5745  0.0846 -0.6305
 8651TIP3    H125917   2.866   6.434   5.759  0.4272 -1.0740  1.0524
 8651TIP3    H225918   2.915   6.363   5.635 -0.7302 -1.7335  0.9583
 8652TIP3   OH225919   7.071   4.174   3.745  0.0636 -0.3055  0.5419
 8652TIP3    H125920   7.116   4.247   3.788  0.6487 -1.2670  1.6337
 8652TIP3    H225921   6.984   4.172   3.786  0.3381 -0.7131  1.1319
 8653TIP3   OH225922   1.325   6.264   2.263  1.0644 -0.4452  0.4014
 8653TIP3    H125923   1.336   6.247   2.170  0.4191  3.0084 -0.4507
 8653TIP3    H225924   1.238   6.230   2.284  0.7171 -0.1873 -0.5715
 8654TIP3   OH225925   5.018   2.619   0.813  0.1962  0.3513 -0.2214
 8654TIP3    H125926   5.018   2.697   0.757  2.3005 -0.1147 -0.9277
 8654TIP3    H225927   5.054   2.549   0.759 -1.4886 -1.1445  0.4511
 8655TIP3   OH225928   5.456   2.071   5.026 -0.4179 -0.1521 -0.3170
 8655TIP3    H125929   5.546   2.041   5.032  0.5315  2.7373  2.7492
 8655TIP3    H225930   5.406   2.013   5.083 -0.1389 -0.6038 -0.5341
 8656TIP3   OH225931   6.744   0.929   3.655 -0.4716 -0.7102  0.2648
 8656TIP3    H125932   6.691   1.008   3.665 -0.3937 -0.5951 -0.2289
 8656TIP3    H225933   6.789   0.940   3.571  0.4031 -0.7701  0.7105
 8657TIP3   OH225934   2.553   3.221   5.513  0.2211  0.2627  0.2387
 8657TIP3    H125935   2.626   3.233   5.452  1.0682  0.8162  1.3098
 8657TIP3    H225936   2.592   3.179   5.589  0.0898  3.0036  1.9749
 8658TIP3   OH225937   1.665   1.422   4.264 -0.1943 -0.2914 -0.0497
 8658TIP3    H125938   1.620   1.401   4.182 -1.0716 -0.0654  0.3616
 8658TIP3    H225939   1.690   1.514   4.255  0.0291 -0.3659 -0.2043
 8659TIP3   OH225940   2.060   1.872   0.299  0.1109  0.0827 -0.0981
 8659TIP3    H125941   2.151   1.877   0.270  0.0300  1.8729 -0.1993
 8659TIP3    H225942   2.047   1.952   0.350 -1.3974 -0.1505 -0.0666
 8660TIP3   OH225943   0.285   2.282   4.168 -0.2977 -0.5190 -0.0271
 8660TIP3    H125944   0.231   2.339   4.224 -1.1720 -1.5434  0.2174
 8660TIP3    H225945   0.361   2.260   4.222 -0.1727  0.0503  0.0374
 8661TIP3   OH225946   5.356   1.540   0.823 -0.0019 -0.0073  0.0582
 8661TIP3    H125947   5.311   1.492   0.754 -0.3771  0.7507 -0.2331
 8661TIP3    H225948   5.339   1.490   0.902 -0.3135 -0.3991 -0.2538
 8662TIP3   OH225949   0.710   6.600   4.459  0.7165  0.3150 -0.0360
 8662TIP3    H125950   0.673   6.649   4.532 -2.0911 -0.1134 -1.0191
 8662TIP3    H225951   0.730   6.666   4.393 -0.9482  0.3901 -0.5107
 8663TIP3   OH225952   1.767   0.770   0.540  0.3454 -0.1230 -0.5574
 8663TIP3    H125953   1.718   0.689   0.523 -2.5794  1.2372  0.7415
 8663TIP3    H225954   1.787   0.766   0.634  0.2405  0.6619 -0.5036
 8664TIP3   OH225955   5.322   5.266   1.780 -0.2447 -0.3707 -0.1672
 8664TIP3    H125956   5.402   5.230   1.741 -0.0504  0.3716 -0.4677
 8664TIP3    H225957   5.275   5.189   1.812  1.1289 -0.7411  1.0607
 8665TIP3   OH225958   1.733   4.610   2.784  0.2272 -0.1347  0.4279
 8665TIP3    H125959   1.677   4.633   2.858  0.9200  0.5997  0.7503
 8665TIP3    H225960   1.822   4.617   2.819  0.5602  0.0060 -0.4193
 8666TIP3   OH225961   0.232   6.771   0.379 -0.1899  0.1448 -0.0858
 8666TIP3    H125962   0.165   6.766   0.311  0.2817  3.5603 -1.0199
 8666TIP3    H225963   0.200   6.839   0.439  1.7904  0.9454  0.1567
 8667TIP3   OH225964   3.777   3.154   2.672  0.0287  0.2933  0.1544
 8667TIP3    H125965   3.747   3.102   2.598 -0.6664  0.5691  0.2359
 8667TIP3    H225966   3.763   3.245   2.645 -1.4787  0.3810  1.1108
 8668TIP3   OH225967   0.442   1.586   3.561 -0.0948 -0.2949 -0.6112
 8668TIP3    H125968   0.504   1.657   3.546 -0.7406  0.1186 -1.3656
 8668TIP3    H225969   0.475   1.542   3.639 -0.2522  1.4512  0.4809
 8669TIP3   OH225970   1.214   3.155   0.179  0.1650 -0.4106 -0.1830
 8669TIP3    H125971   1.253   3.241   0.197  0.6905 -0.5890 -0.4543
 8669TIP3    H225972   1.128   3.175   0.141  0.1648 -0.0097  0.0260
 8670TIP3   OH225973   6.644   2.539   2.440  0.1662 -0.4135 -0.2111
 8670TIP3    H125974   6.694   2.610   2.400  0.7502 -0.3690  0.5666
 8670TIP3    H225975   6.674   2.537   2.531  0.1451 -1.6354 -0.2104
 8671TIP3   OH225976   5.667   4.180   1.832 -0.9319  0.2170  0.4765
 8671TIP3    H125977   5.620   4.146   1.909 -1.9497 -0.7983 -0.5516
 8671TIP3    H225978   5.756   4.194   1.863 -0.3681 -3.4980  1.0489
 8672TIP3   OH225979   0.883   1.952   2.466  0.3667 -0.2687  0.2437
 8672TIP3    H125980   0.793   1.965   2.496  1.0651  1.1339  1.9402
 8672TIP3    H225981   0.931   2.027   2.502  2.0019 -0.3339 -1.6138
 8673TIP3   OH225982   6.555   4.782   3.378 -0.0872  0.1532  0.2138
 8673TIP3    H125983   6.499   4.728   3.433  0.4074  0.2786  0.8648
 8673TIP3    H225984   6.523   4.871   3.392  0.4832  0.2625  0.8535
 8674TIP3   OH225985   5.080   2.211   1.187  0.4987 -0.1115  0.2010
 8674TIP3    H125986   5.016   2.158   1.139  1.2797 -1.2056  0.3267
 8674TIP3    H225987   5.027   2.266   1.245 -0.3301 -1.0104  0.3287
 8675TIP3   OH225988   5.501   5.627   0.444  0.1140 -0.1081  0.2001
 8675TIP3    H125989   5.558   5.596   0.375  1.2629  0.2954  0.9335
 8675TIP3    H225990   5.559   5.672   0.505 -0.6258 -1.6223  2.1433
 8676TIP3   OH225991   2.680   4.291   2.888  0.0934  0.0469  0.4136
 8676TIP3    H125992   2.761   4.262   2.847  0.4635  0.6771  0.6747
 8676TIP3    H225993   2.637   4.211   2.918  0.1875 -0.3573 -0.5071
 8677TIP3   OH225994   0.218   2.009   2.885 -0.0522 -0.2497  0.0313
 8677TIP3    H125995   0.304   2.041   2.857 -0.6794  0.6430 -0.9589
 8677TIP3    H225996   0.156   2.063   2.836 -1.2082  0.1433  1.8388
 8678TIP3   OH225997   6.153   1.475   1.858  0.0238  0.6586  0.0766
 8678TIP3    H125998   6.084   1.428   1.904  0.9168  0.4808  1.2807
 8678TIP3    H225999   6.234   1.439   1.893  0.7308  1.7573 -0.3792
 8679TIP3   OH226000   2.571   5.346   1.657  0.3184  0.4072 -0.0287
 8679TIP3    H126001   2.570   5.353   1.562  0.3966 -0.6685 -0.1205
 8679TIP3    H226002   2.534   5.429   1.688  1.3234  1.2348 -0.9561
 8680TIP3   OH226003   6.663   2.165   4.789 -0.4831 -0.0239  0.4455
 8680TIP3    H126004   6.679   2.243   4.735 -0.3421  0.4008  1.0884
 8680TIP3    H226005   6.570   2.168   4.809 -0.6688 -0.5395 -0.3120
 8681TIP3   OH226006   6.001   1.411   3.874 -0.0296 -0.3165  0.4619
 8681TIP3    H126007   5.906   1.414   3.862 -0.0628  0.5231  0.8432
 8681TIP3    H226008   6.036   1.392   3.786 -0.4092  2.5153 -0.3911
 8682TIP3   OH226009   5.266   4.198   3.043 -0.3907  0.0118 -0.6270
 8682TIP3    H126010   5.289   4.117   3.088 -1.9310  0.5251  1.2539
 8682TIP3    H226011   5.241   4.258   3.114 -2.1100  1.1608 -2.1138
 8683TIP3   OH226012   2.157   4.353   1.437 -0.3133 -0.0997  0.1125
 8683TIP3    H126013   2.224   4.376   1.373 -0.2201  1.6186  0.7733
 8683TIP3    H226014   2.083   4.324   1.385 -0.4335  1.7588 -0.8520
 8684TIP3   OH226015   6.741   1.342   1.844  0.5758  0.1447  0.0188
 8684TIP3    H126016   6.818   1.294   1.814 -0.9197 -1.0525 -2.1404
 8684TIP3    H226017   6.710   1.388   1.766 -0.4312  1.2827  1.0575
 8685TIP3   OH226018   3.281   5.705   5.312 -0.2426 -0.3189  0.0876
 8685TIP3    H126019   3.201   5.713   5.260  0.2423  0.8361 -0.5211
 8685TIP3    H226020   3.255   5.655   5.389 -1.3803 -0.5767 -0.4423
 8686TIP3   OH226021   3.469   6.685   2.515  0.3612 -0.1127  0.1149
 8686TIP3    H126022   3.433   6.617   2.459  0.5669 -0.5842  0.5414
 8686TIP3    H226023   3.468   6.646   2.603 -0.2452  0.7253  0.4901
 8687TIP3   OH226024   3.822   3.438   4.091 -0.2609 -0.0463  0.4729
 8687TIP3    H126025   3.773   3.368   4.049 -1.5461  1.3324 -0.4126
 8687TIP3    H226026   3.892   3.393   4.139 -1.3585 -1.9517  0.3782
 8688TIP3   OH226027   2.638   6.629   0.871 -0.1867  0.2267  0.4997
 8688TIP3    H126028   2.697   6.671   0.809 -0.4921 -1.9325 -1.3676
 8688TIP3    H226029   2.555   6.622   0.825 -0.4753 -1.2869  1.1877
 8689TIP3   OH226030   3.929   3.172   1.979 -0.4852 -0.0591  0.4357
 8689TIP3    H126031   3.957   3.258   1.948  2.3623 -0.9489  0.2715
 8689TIP3    H226032   3.910   3.123   1.899 -0.5707 -0.0607  0.4571
 8690TIP3   OH226033   3.903   4.389   0.250  0.3743 -0.0704 -0.2769
 8690TIP3    H126034   3.859   4.436   0.180  2.6720  1.9027 -0.5097
 8690TIP3    H226035   3.851   4.409   0.328 -0.2404  0.5916 -0.8400
 8691TIP3   OH226036   2.478   2.988   1.993 -0.1490 -0.1022  0.3792
 8691TIP3    H126037   2.465   2.972   1.900 -1.5616 -1.4833  0.7612
 8691TIP3    H226038   2.428   2.918   2.037  0.1867  0.7084  2.1638
 8692TIP3   OH226039   3.145   3.915   3.331 -0.2960 -0.3250  0.0243
 8692TIP3    H126040   3.063   3.869   3.313 -0.1839 -0.4114 -0.2679
 8692TIP3    H226041   3.121   3.980   3.397 -0.2749 -1.3549  1.0725
 8693TIP3   OH226042   0.823   5.013   2.897 -0.0154 -0.5560 -0.0114
 8693TIP3    H126043   0.911   5.005   2.862 -0.2408 -2.8874 -0.2365
 8693TIP3    H226044   0.770   5.044   2.823  0.5119  0.3794 -0.0061
 8694TIP3   OH226045   6.038   2.923   4.413  0.2377  0.1735  0.7307
 8694TIP3    H126046   6.077   2.897   4.329  1.7818  0.4453  1.3358
 8694TIP3    H226047   6.068   2.857   4.475 -0.8047  0.0367  1.1128
 8695TIP3   OH226048   5.893   3.897   5.638  0.2748 -0.1633 -0.2345
 8695TIP3    H126049   5.824   3.911   5.573  0.8640  0.2772 -0.7677
 8695TIP3    H226050   5.895   3.802   5.650 -2.3265 -0.0931  1.8763
 8696TIP3   OH226051   2.087   4.686   3.909 -0.4500  0.1360 -0.2529
 8696TIP3    H126052   2.036   4.686   3.990  0.7356 -1.2148  0.5450
 8696TIP3    H226053   2.178   4.685   3.938  0.0024 -0.1857 -1.6120
 8697TIP3   OH226054   6.978   5.722   2.380  0.3995 -0.7491 -0.8117
 8697TIP3    H126055   6.998   5.629   2.368 -1.3954 -1.2685 -0.0685
 8697TIP3    H226056   7.030   5.748   2.456  0.0368 -1.4727 -0.3005
 8698TIP3   OH226057   3.128   1.662   2.018 -0.3337 -0.1784 -0.4180
 8698TIP3    H126058   3.144   1.654   1.924 -1.1935  2.8051 -0.9241
 8698TIP3    H226059   3.040   1.700   2.024  0.2141  0.9330  1.5104
 8699TIP3   OH226060   3.348   0.164   0.440  0.0854  0.6072  0.3625
 8699TIP3    H126061   3.368   0.113   0.519  2.3956  0.8299 -0.0284
 8699TIP3    H226062   3.398   0.245   0.450  0.6269  0.5396 -1.4306
 8700TIP3   OH226063   5.518   5.789   4.051  0.5233 -0.1724 -0.5535
 8700TIP3    H126064   5.563   5.739   4.119  1.6342  1.5832  0.0861
 8700TIP3    H226065   5.578   5.861   4.031 -0.6958  0.5187 -1.9156
 8701TIP3   OH226066   0.269   5.448   4.904 -0.6951  0.3843 -0.0016
 8701TIP3    H126067   0.311   5.413   4.825 -1.8284 -1.9104  0.3290
 8701TIP3    H226068   0.209   5.516   4.871 -2.8658 -2.0580 -1.5327
 8702TIP3   OH226069   6.537   3.857   4.906 -0.0615  0.3861 -0.3322
 8702TIP3    H126070   6.583   3.808   4.974 -1.6665  0.7159  1.0438
 8702TIP3    H226071   6.604   3.915   4.869  0.9020  0.0417  0.8133
 8703TIP3   OH226072   6.501   0.771   5.121 -0.1745  0.3258 -0.1615
 8703TIP3    H126073   6.431   0.780   5.057  0.9147 -0.0556 -1.4549
 8703TIP3    H226074   6.552   0.852   5.113  1.5688 -0.8522 -1.8279
 8704TIP3   OH226075   6.956   1.708   3.917 -0.2202 -0.4384 -0.1118
 8704TIP3    H126076   6.958   1.751   4.002 -0.6005  0.2127 -0.4242
 8704TIP3    H226077   6.912   1.770   3.859 -0.3587 -1.0525 -0.6862
 8705TIP3   OH226078   4.183   4.753   2.726 -0.7146  0.5136  0.0779
 8705TIP3    H126079   4.169   4.660   2.710 -0.6308  0.3806  0.7334
 8705TIP3    H226080   4.186   4.761   2.822 -2.0338  1.3827  0.0678
 8706TIP3   OH226081   6.320  -0.026   5.315  0.0273 -0.3926  0.3073
 8706TIP3    H126082   6.395  -0.030   5.375  1.9562 -0.1446 -1.9186
 8706TIP3    H226083   6.286   0.063   5.324  1.1096  0.0554  0.1353
 8707TIP3   OH226084   3.820   0.151   2.151 -0.1201 -0.5056  0.0297
 8707TIP3    H126085   3.798   0.225   2.096  1.0191  2.0863  2.7891
 8707TIP3    H226086   3.896   0.110   2.108 -0.2783  0.3854 -1.1389
 8708TIP3   OH226087   2.554   4.268   1.092 -0.6551  0.2734 -0.5467
 8708TIP3    H126088   2.600   4.350   1.112  0.8819 -0.1762 -1.9521
 8708TIP3    H226089   2.546   4.268   0.996  0.8145 -1.8769 -0.7527
 8709TIP3   OH226090   0.805   4.026   1.445  0.5691  0.6475 -0.2027
 8709TIP3    H126091   0.880   4.084   1.436  1.3340 -0.2931 -0.0782
 8709TIP3    H226092   0.814   3.962   1.375 -0.8175  1.2506 -0.9728
 8710TIP3   OH226093   1.557   2.628   4.065 -0.5772  0.3176 -0.2637
 8710TIP3    H126094   1.588   2.585   4.145  0.8772 -0.2916 -1.1147
 8710TIP3    H226095   1.464   2.606   4.060 -0.5622 -0.0882  0.9596
 8711TIP3   OH226096   0.661   3.361   2.062 -0.0133  0.1341 -0.5748
 8711TIP3    H126097   0.646   3.270   2.035  3.0047 -0.6862  0.1557
 8711TIP3    H226098   0.671   3.409   1.980  0.7083 -0.6835 -0.9847
 8712TIP3   OH226099   2.705   3.244   4.100 -0.4287  0.2430  0.0041
 8712TIP3    H126100   2.753   3.198   4.031  1.2746  1.7280  0.1196
 8712TIP3    H226101   2.760   3.234   4.178 -1.7033 -0.3414  0.8497
 8713TIP3   OH226102   3.360   1.121   1.152  0.3011  0.3244  0.3106
 8713TIP3    H126103   3.399   1.163   1.228  0.7478  0.9784 -0.2644
 8713TIP3    H226104   3.395   1.032   1.153  0.4521  0.3865  0.7586
 8714TIP3   OH226105   0.032   1.873   2.469  0.1805  0.0422  0.0653
 8714TIP3    H126106  -0.057   1.838   2.473  0.1396  0.1601  0.2081
 8714TIP3    H226107   0.035   1.923   2.388  0.0467  0.2259  0.1726
 8715TIP3   OH226108   1.294   2.694   4.844 -0.6135 -0.3357 -0.3980
 8715TIP3    H126109   1.295   2.786   4.820 -0.1685 -0.4960 -0.9923
 8715TIP3    H226110   1.258   2.649   4.768 -0.1628 -0.7312 -0.3821
 8716TIP3   OH226111   3.259   3.881   3.069  0.3202 -0.7597  0.2135
 8716TIP3    H126112   3.293   3.792   3.084 -0.6423 -1.0293  0.8815
 8716TIP3    H226113   3.243   3.915   3.157 -0.3827 -0.3396 -0.0756
 8717TIP3   OH226114   6.275   6.479   5.709 -0.2043  0.0383 -0.2494
 8717TIP3    H126115   6.293   6.477   5.803 -0.7654  2.2501 -0.0287
 8717TIP3    H226116   6.348   6.529   5.672 -1.7345  2.2663 -0.4379
 8718TIP3   OH226117   4.401   6.539   1.938 -0.2316  0.0891  0.1525
 8718TIP3    H126118   4.366   6.451   1.926  0.5196 -0.2745  0.5716
 8718TIP3    H226119   4.484   6.526   1.984  0.7453  0.8898 -1.3206
 8719TIP3   OH226120   5.736   2.180   2.000 -0.1733 -0.4958 -0.4275
 8719TIP3    H126121   5.676   2.137   1.940 -0.1258 -1.3387  0.1166
 8719TIP3    H226122   5.767   2.111   2.058  0.1632  0.2057  0.2598
 8720TIP3   OH226123   4.370   5.490   2.702 -0.0057  0.0809 -0.9060
 8720TIP3    H126124   4.324   5.501   2.619 -0.0218  0.7225 -0.8134
 8720TIP3    H226125   4.364   5.575   2.745 -0.3960 -0.3716 -0.0416
 8721TIP3   OH226126   4.187   6.078   1.812 -0.5562  0.9695 -0.1247
 8721TIP3    H126127   4.160   6.107   1.900 -2.3703 -1.5306  0.2521
 8721TIP3    H226128   4.107   6.084   1.760 -0.1996 -0.3006 -0.8310
 8722TIP3   OH226129   6.750   1.014   0.372 -0.0259  1.0513  0.4185
 8722TIP3    H126130   6.774   1.035   0.282  1.1997 -1.9628 -0.0808
 8722TIP3    H226131   6.718   0.925   0.368  1.1169  0.4222  3.0952
 8723TIP3   OH226132   2.354   1.452   1.940  0.1996 -0.1909 -0.1197
 8723TIP3    H126133   2.270   1.408   1.954  0.4600 -0.1951  1.6742
 8723TIP3    H226134   2.331   1.544   1.925 -0.1453 -0.2538  0.0135
 8724TIP3   OH226135   3.079   1.630   0.129  0.1145  0.0966  0.4349
 8724TIP3    H126136   3.127   1.565   0.077 -1.3281  0.8103 -1.9685
 8724TIP3    H226137   3.114   1.714   0.100 -1.4144  0.5482 -0.1773
 8725TIP3   OH226138   6.860   5.429   1.640  0.2375 -0.1395  0.2660
 8725TIP3    H126139   6.940   5.430   1.588 -0.0418  0.2586 -0.1570
 8725TIP3    H226140   6.878   5.488   1.713 -0.2468  1.2749 -0.7159
 8726TIP3   OH226141   5.548   1.321   2.473 -0.3012 -0.6136  0.1404
 8726TIP3    H126142   5.624   1.373   2.498 -1.7468  1.7835 -0.1222
 8726TIP3    H226143   5.582   1.258   2.409  1.1561  1.6683 -1.4734
 8727TIP3   OH226144   1.844   4.603   1.725 -0.3078  0.1401 -0.3142
 8727TIP3    H126145   1.938   4.606   1.711 -0.3472  0.5483 -0.5073
 8727TIP3    H226146   1.816   4.694   1.718 -0.9868 -0.1641 -2.1773
 8728TIP3   OH226147   4.867   0.757   1.326 -0.0247  0.2793  0.1430
 8728TIP3    H126148   4.903   0.768   1.238  0.7463 -1.3743  0.2055
 8728TIP3    H226149   4.854   0.846   1.358  2.5671  0.9839 -0.4994
 8729TIP3   OH226150   6.667   1.634   0.090  0.2167  0.2167  0.1240
 8729TIP3    H126151   6.581   1.591   0.087  0.3838 -0.4747  2.8090
 8729TIP3    H226152   6.663   1.699   0.020 -2.3616 -0.0145 -0.0652
 8730TIP3   OH226153   0.079   3.371   1.026  0.3457  0.1278 -0.3809
 8730TIP3    H126154   0.039   3.443   0.977  0.0441  0.4126  0.2672
 8730TIP3    H226155   0.135   3.414   1.091  1.4255 -0.2647 -1.0407
 8731TIP3   OH226156   4.430   6.310   4.635 -0.3643  0.3038 -0.3961
 8731TIP3    H126157   4.438   6.288   4.543  0.2679  0.8260 -0.4707
 8731TIP3    H226158   4.474   6.395   4.644 -0.1496  0.1194  0.4318
 8732TIP3   OH226159   5.444   0.574   0.891 -0.2146 -0.4144  0.6715
 8732TIP3    H126160   5.356   0.583   0.854 -0.6559 -1.1080  1.5165
 8732TIP3    H226161   5.437   0.500   0.951  0.7627 -0.0046  1.3097
 8733TIP3   OH226162   2.190   3.211   4.403 -0.5283  0.1462 -0.9498
 8733TIP3    H126163   2.217   3.165   4.482  0.6759  0.9454 -0.8659
 8733TIP3    H226164   2.269   3.214   4.348 -0.9707  0.8071 -1.5756
 8734TIP3   OH226165   5.210   3.908   5.009 -0.2224 -0.3622 -0.0082
 8734TIP3    H126166   5.157   3.838   5.047 -0.8081  0.6536  1.1270
 8734TIP3    H226167   5.249   3.869   4.931 -1.8321 -1.4563 -0.3201
 8735TIP3   OH226168   3.022   5.671   5.172 -0.3663  0.2991  0.1531
 8735TIP3    H126169   3.057   5.582   5.167  2.3232  1.3074 -0.7818
 8735TIP3    H226170   2.976   5.684   5.090  1.5824  0.6133 -0.9415
 8736TIP3   OH226171   7.192   2.716   0.034 -0.3779 -0.0309 -0.7969
 8736TIP3    H126172   7.193   2.651  -0.036 -0.3581  0.8835 -1.6696
 8736TIP3    H226173   7.100   2.741   0.042 -0.0679  1.9794 -2.5583
 8737TIP3   OH226174   4.552   0.123   4.698  0.3562  0.7974 -0.1017
 8737TIP3    H126175   4.573   0.211   4.669  0.3207  0.5289 -0.9543
 8737TIP3    H226176   4.459   0.112   4.679  0.2994  0.6589  0.2339
 8738TIP3   OH226177   4.552   0.994   1.849  0.0997  0.1322  0.0229
 8738TIP3    H126178   4.509   1.057   1.792  0.5776 -0.0209 -0.5097
 8738TIP3    H226179   4.563   1.041   1.932 -0.1667  0.5162 -0.1571
 8739TIP3   OH226180   6.324   4.782   0.847 -0.3471 -0.0515  0.2560
 8739TIP3    H126181   6.270   4.709   0.819 -0.8380  0.3827  0.0539
 8739TIP3    H226182   6.301   4.853   0.787 -0.1071  0.3635  0.6485
 8740TIP3   OH226183   4.937   3.623   3.468 -0.3002 -0.0135 -0.2449
 8740TIP3    H126184   4.881   3.691   3.431 -0.1333  0.8461  0.9851
 8740TIP3    H226185   4.958   3.656   3.556  0.4683 -1.2760  0.0646
 8741TIP3   OH226186   5.468   6.314   5.084 -0.5058  0.2848 -0.4480
 8741TIP3    H126187   5.517   6.361   5.152  0.2721 -0.2468 -0.6198
 8741TIP3    H226188   5.380   6.306   5.118 -0.0559 -0.2143  0.6255
 8742TIP3   OH226189   6.949   0.651   2.837 -0.5110  0.3861 -0.1750
 8742TIP3    H126190   7.030   0.600   2.842  0.1474  1.3809 -0.4569
 8742TIP3    H226191   6.950   0.705   2.916  0.9119  2.9779 -1.8338
 8743TIP3   OH226192   4.098   4.794   0.527  0.6485 -0.0445 -0.2763
 8743TIP3    H126193   4.187   4.828   0.530  0.8035 -0.4252  2.4497
 8743TIP3    H226194   4.109   4.699   0.523  0.2891 -0.0289 -2.4324
 8744TIP3   OH226195   3.955   6.607   3.457 -0.3462  0.1857  0.6116
 8744TIP3    H126196   3.960   6.569   3.369 -2.4139  2.1598 -0.4672
 8744TIP3    H226197   3.865   6.641   3.463  0.8019  3.3175  2.1003
 8745TIP3   OH226198   4.472   6.087   5.438 -0.2475  0.2960  0.1110
 8745TIP3    H126199   4.524   6.058   5.512 -0.1470 -0.1049 -0.1163
 8745TIP3    H226200   4.526   6.069   5.361  0.1147  1.7200  0.0011
 8746TIP3   OH226201   4.334   2.405   2.630  0.1299 -0.0232 -0.1423
 8746TIP3    H126202   4.401   2.413   2.562  0.5478 -0.7307  0.1797
 8746TIP3    H226203   4.340   2.487   2.679 -0.3638  0.6155 -1.1147
 8747TIP3   OH226204   0.103   6.004   1.637  0.2035 -0.5783  0.6193
 8747TIP3    H126205   0.179   6.007   1.578 -0.6101 -0.8452 -0.4812
 8747TIP3    H226206   0.129   5.944   1.706  1.1013 -0.4409  0.4188
 8748TIP3   OH226207   5.320   3.268   3.425  0.4057  0.0973 -0.0438
 8748TIP3    H126208   5.376   3.291   3.350 -0.7790  2.3789 -0.3192
 8748TIP3    H226209   5.368   3.301   3.501  0.2990  0.3591 -0.0895
 8749TIP3   OH226210   6.064   0.611   0.522  0.7408 -0.0667 -0.0252
 8749TIP3    H126211   6.024   0.624   0.436 -0.9196 -1.4895  0.4733
 8749TIP3    H226212   6.148   0.570   0.503 -0.1215 -1.4994 -0.9552
 8750TIP3   OH226213   6.119   4.265   3.283  0.1464 -0.7254 -0.4596
 8750TIP3    H126214   6.054   4.283   3.216 -0.9909 -0.1832  0.7543
 8750TIP3    H226215   6.123   4.169   3.288 -0.5146 -0.7590 -0.5703
 8751TIP3   OH226216   4.489   2.749   5.314  0.0317  0.0784 -0.1539
 8751TIP3    H126217   4.559   2.686   5.329 -0.0150 -0.2276 -1.1642
 8751TIP3    H226218   4.519   2.801   5.240 -1.2243 -0.7244 -1.2864
 8752TIP3   OH226219   6.693   1.274   2.117 -0.4130 -0.4523  0.5819
 8752TIP3    H126220   6.685   1.300   2.025  1.4130 -3.5269 -0.5976
 8752TIP3    H226221   6.768   1.324   2.149 -1.9150  1.6951  0.9001
 8753TIP3   OH226222   3.418   2.392   2.129 -0.1103  0.3230  0.9952
 8753TIP3    H126223   3.402   2.297   2.135 -0.1070  0.3149  0.8756
 8753TIP3    H226224   3.350   2.423   2.069  1.2784  0.0520 -0.8013
 8754TIP3   OH226225   6.567   5.605   4.754 -0.1560  0.8996 -0.5408
 8754TIP3    H126226   6.578   5.522   4.707 -1.4377 -0.1438  0.9105
 8754TIP3    H226227   6.553   5.579   4.845 -0.1100  2.7520  0.0286
 8755TIP3   OH226228   6.810   0.106   0.823 -0.4525  0.0329  0.1226
 8755TIP3    H126229   6.807   0.201   0.808  2.4301  0.4529  1.3711
 8755TIP3    H226230   6.774   0.095   0.911  0.4125  0.2017  0.5157
 8756TIP3   OH226231   6.099   0.846   5.383 -0.0400 -0.2359  0.0130
 8756TIP3    H126232   6.154   0.901   5.439 -0.6109 -1.3777  1.7960
 8756TIP3    H226233   6.137   0.758   5.393  0.6388 -0.3051 -2.4757
 8757TIP3   OH226234   1.298   1.232   0.333 -0.6402  0.1026  0.5096
 8757TIP3    H126235   1.281   1.260   0.423 -0.2529  0.0634  0.5944
 8757TIP3    H226236   1.369   1.168   0.340 -0.0082  0.7415  0.0863
 8758TIP3   OH226237   5.505   6.507   4.789 -0.0782 -0.4945 -0.4868
 8758TIP3    H126238   5.467   6.593   4.808 -0.4918 -1.0569  1.4616
 8758TIP3    H226239   5.594   6.511   4.825  0.4380 -0.4224 -1.7115
 8759TIP3   OH226240   1.691   3.775   4.932 -0.0557  0.1070 -0.0458
 8759TIP3    H126241   1.695   3.790   4.838  0.1115 -1.4623 -0.3159
 8759TIP3    H226242   1.619   3.831   4.963 -1.0895 -0.4693 -1.3393
 8760TIP3   OH226243   7.101   5.939   0.739  0.0514  0.1398 -0.1023
 8760TIP3    H126244   7.073   5.975   0.823  1.0296 -0.1089  0.3469
 8760TIP3    H226245   7.079   5.846   0.745  1.3625 -0.1540  0.4473
 8761TIP3   OH226246   0.864   0.695   0.474  0.2706 -0.6605  0.5888
 8761TIP3    H126247   0.929   0.677   0.542  0.6016 -0.5134  0.3114
 8761TIP3    H226248   0.838   0.786   0.489  0.6282 -0.5083  0.2764
 8762TIP3   OH226249   4.210   2.418   1.140 -0.2403  0.8173 -0.4330
 8762TIP3    H126250   4.125   2.388   1.108 -0.9051  2.1681 -0.0056
 8762TIP3    H226251   4.254   2.339   1.170 -1.4705  0.1337 -0.3746
 8763TIP3   OH226252   0.901   0.548   2.892  0.1921 -0.1872  0.3076
 8763TIP3    H126253   0.831   0.540   2.827 -1.0301  0.9033  1.4193
 8763TIP3    H226254   0.913   0.643   2.903  0.8769 -0.3523  1.1291
 8764TIP3   OH226255   2.208   6.003   5.614 -0.3936 -0.3957 -0.5379
 8764TIP3    H126256   2.151   5.939   5.658  0.8553  0.1897  2.0846
 8764TIP3    H226257   2.280   5.950   5.579  0.5664 -0.5338  1.5060
 8765TIP3   OH226258   6.853   3.317   2.866  1.2039  0.0003  0.3502
 8765TIP3    H126259   6.820   3.309   2.776 -0.7080 -2.0884  1.1333
 8765TIP3    H226260   6.898   3.234   2.883  2.4452  0.7799  1.0135
 8766TIP3   OH226261   3.361   5.006   4.988 -0.0012 -0.4242  0.3262
 8766TIP3    H126262   3.380   4.973   5.076 -1.1847 -0.7836  0.4644
 8766TIP3    H226263   3.287   4.953   4.958 -1.2474  1.3371  0.1154
 8767TIP3   OH226264   3.432   4.478   2.501  0.3580  0.1485 -0.5876
 8767TIP3    H126265   3.492   4.553   2.504 -0.8699  1.1299  0.4831
 8767TIP3    H226266   3.379   4.486   2.580 -0.0600 -1.6667 -0.6357
 8768TIP3   OH226267   6.225   2.531   2.861  0.6038 -0.3085 -0.0047
 8768TIP3    H126268   6.130   2.530   2.872  0.6076  1.1617  0.4989
 8768TIP3    H226269   6.247   2.444   2.828 -0.8583 -0.8254  0.3078
 8769TIP3   OH226270   3.961   6.085   3.012  0.1105  0.2464 -0.2890
 8769TIP3    H126271   3.996   6.142   3.080  0.4957 -1.0981  0.6991
 8769TIP3    H226272   3.901   6.140   2.962 -1.7898  0.8268  2.3971
 8770TIP3   OH226273   2.638   5.667   0.654 -0.0289 -0.1055 -0.5615
 8770TIP3    H126274   2.624   5.737   0.591  1.8118 -0.8810 -1.8985
 8770TIP3    H226275   2.564   5.608   0.641  1.3452 -1.3243 -3.5386
 8771TIP3   OH226276   5.447   2.475   2.478  0.0787  0.1532 -0.2407
 8771TIP3    H126277   5.444   2.386   2.443  0.3187  0.1274 -0.1977
 8771TIP3    H226278   5.537   2.486   2.508 -0.0727  0.2427  0.1924
 8772TIP3   OH226279   4.263   5.094   4.879  0.1742 -0.0118 -0.4400
 8772TIP3    H126280   4.221   5.136   4.803  0.9661  0.3151 -0.7067
 8772TIP3    H226281   4.190   5.055   4.927 -0.3319 -0.4107 -1.4824
 8773TIP3   OH226282   5.544   5.872   3.509 -0.3463  0.8953  0.0727
 8773TIP3    H126283   5.629   5.915   3.523 -0.3302  0.4870  1.3494
 8773TIP3    H226284   5.509   5.860   3.597  0.0013 -2.4278 -0.1243
 8774TIP3   OH226285   6.248   4.905   3.197 -0.3343  0.2846 -0.0126
 8774TIP3    H126286   6.245   4.999   3.215 -2.2478 -0.0596  1.8788
 8774TIP3    H226287   6.190   4.894   3.122 -1.3832  0.4637  0.7485
 8775TIP3   OH226288   4.516   3.131   4.079  0.3766  0.0814  0.6198
 8775TIP3    H126289   4.604   3.125   4.044 -0.3699 -0.6796 -1.2744
 8775TIP3    H226290   4.527   3.124   4.173  2.3321  0.1070  0.4361
 8776TIP3   OH226291   2.070   6.202   4.177  0.3175 -0.0840  0.1397
 8776TIP3    H126292   2.148   6.166   4.133  0.3034  1.2746 -1.0645
 8776TIP3    H226293   2.101   6.229   4.263  1.5603  1.7256 -0.8146
 8777TIP3   OH226294   4.065   3.308   4.145  0.1300 -0.3507  0.3926
 8777TIP3    H126295   4.095   3.232   4.195  1.4662 -0.4179 -0.4656
 8777TIP3    H226296   4.124   3.313   4.070 -1.0132  0.5147 -0.5018
 8778TIP3   OH226297   5.694   4.837   3.813 -0.1437 -0.0611  0.0004
 8778TIP3    H126298   5.698   4.859   3.720 -1.0623  0.1963  0.0116
 8778TIP3    H226299   5.620   4.777   3.821 -0.7756  0.7655  0.7110
 8779TIP3   OH226300   1.518   0.877   2.088 -0.4255  0.3985 -0.0440
 8779TIP3    H126301   1.584   0.854   2.153  0.3184  0.8213 -0.6396
 8779TIP3    H226302   1.438   0.837   2.121  0.3897 -1.2834  0.0085
 8780TIP3   OH226303   1.270   5.426   2.242  0.1191 -0.8047 -0.0933
 8780TIP3    H126304   1.360   5.393   2.249 -0.0030 -1.0615  0.2952
 8780TIP3    H226305   1.225   5.389   2.318  0.5200  2.0005  1.6820
 8781TIP3   OH226306   0.559   1.735   4.114  0.1207  0.4730  0.3243
 8781TIP3    H126307   0.500   1.753   4.187 -1.5205 -0.7703 -0.6366
 8781TIP3    H226308   0.537   1.802   4.048 -1.2783 -0.8279 -0.5912
 8782TIP3   OH226309   4.299   5.756   3.506  0.2473  0.4973  0.3295
 8782TIP3    H126310   4.366   5.713   3.560  0.4007  1.1350  0.6621
 8782TIP3    H226311   4.304   5.712   3.421  0.8121  0.2715  0.4770
 8783TIP3   OH226312   3.998   6.107   1.064 -0.2763 -0.2336  0.1618
 8783TIP3    H126313   3.960   6.186   1.027 -1.2768 -1.0181 -0.5529
 8783TIP3    H226314   3.922   6.053   1.088  0.3660 -1.5937 -0.7491
 8784TIP3   OH226315   3.409   4.572   4.318  0.0966 -0.0002 -0.2166
 8784TIP3    H126316   3.437   4.486   4.287 -1.8608 -0.2725 -1.4015
 8784TIP3    H226317   3.383   4.618   4.239 -2.1046  0.4338  0.6933
 8785TIP3   OH226318   5.908   3.057   2.609  0.4876  0.5813  0.0079
 8785TIP3    H126319   5.995   3.023   2.592 -0.0232 -1.2085  0.7801
 8785TIP3    H226320   5.849   2.996   2.565 -0.4959  0.0130  1.9817
 8786TIP3   OH226321   2.176   3.266   3.745 -0.0610 -0.2476  0.0077
 8786TIP3    H126322   2.121   3.238   3.819 -0.0600 -0.2993 -0.0112
 8786TIP3    H226323   2.265   3.244   3.773 -0.1136 -0.8140 -0.2577
 8787TIP3   OH226324   6.344   4.065   3.116  0.2416  0.1661  0.0258
 8787TIP3    H126325   6.281   4.004   3.078  2.3699 -2.5481  0.5526
 8787TIP3    H226326   6.358   4.034   3.205  0.9673  1.8203  0.5259
 8788TIP3   OH226327   2.893   5.791   2.947  0.0295 -0.6062 -0.4520
 8788TIP3    H126328   2.979   5.832   2.938  0.1101 -0.9229 -1.2026
 8788TIP3    H226329   2.836   5.862   2.977  0.1797  0.0594 -1.6867
 8789TIP3   OH226330   3.483   0.602   3.413 -0.0721 -0.0169 -0.7080
 8789TIP3    H126331   3.543   0.676   3.414  0.4075 -0.4039  0.1678
 8789TIP3    H226332   3.414   0.628   3.351  0.0306  1.1981 -0.3373
 8790TIP3   OH226333   0.270   2.086   5.212  0.5960 -0.0559  0.4836
 8790TIP3    H126334   0.226   2.172   5.214  0.2042 -0.1707 -1.3710
 8790TIP3    H226335   0.230   2.041   5.137  2.5132 -0.9252 -0.0628
 8791TIP3   OH226336   6.330   5.482   4.502  0.4836  0.0869  0.1898
 8791TIP3    H126337   6.375   5.520   4.427  0.2178  1.1077  0.5340
 8791TIP3    H226338   6.379   5.402   4.521  0.7789  0.0059 -0.8319
 8792TIP3   OH226339   5.221   3.986   4.517 -0.2585 -0.5307  0.5469
 8792TIP3    H126340   5.222   3.987   4.421  3.2011  2.2111  0.4228
 8792TIP3    H226341   5.265   3.905   4.541 -1.9988 -1.7183 -0.0593
 8793TIP3   OH226342   4.372   1.084   5.123  0.3565 -0.3135 -0.0095
 8793TIP3    H126343   4.386   1.022   5.052 -0.0817  1.4530 -1.7277
 8793TIP3    H226344   4.296   1.136   5.096  0.0893  0.3523  1.8198
 8794TIP3   OH226345   3.817   5.644   5.638 -0.3501  0.6549  0.1178
 8794TIP3    H126346   3.779   5.659   5.552 -1.9242  1.7467  0.9518
 8794TIP3    H226347   3.870   5.722   5.655 -0.8842  0.9302  0.5512
 8795TIP3   OH226348   5.757   5.660   2.283 -0.1720  0.2384 -0.4139
 8795TIP3    H126349   5.704   5.739   2.287 -0.7810 -0.0723 -1.7151
 8795TIP3    H226350   5.818   5.676   2.210  0.2211 -0.1816 -0.1838
 8796TIP3   OH226351   1.974   2.880   4.501  0.3206  0.2101 -0.2421
 8796TIP3    H126352   1.976   2.851   4.592  0.2704 -1.4613 -0.7407
 8796TIP3    H226353   1.899   2.940   4.496  0.7191  0.8230  0.9440
 8797TIP3   OH226354   2.994   0.469   2.206 -0.2272  0.4417  0.2236
 8797TIP3    H126355   3.040   0.394   2.169 -1.8474 -0.9004  0.7735
 8797TIP3    H226356   3.047   0.495   2.281  0.1251 -0.4653  0.3057
 8798TIP3   OH226357   5.951   0.651   2.450 -0.2765  0.5257  0.5549
 8798TIP3    H126358   6.024   0.605   2.492 -0.0435 -0.8388 -1.2273
 8798TIP3    H226359   5.921   0.714   2.516  1.5568  0.1100  1.8602
 8799TIP3   OH226360   2.339   4.315   1.233 -0.2659  0.1599 -0.0781
 8799TIP3    H126361   2.275   4.286   1.167  1.0848 -2.3274 -0.4145
 8799TIP3    H226362   2.424   4.289   1.197  0.7560  1.1684  1.4696
 8800TIP3   OH226363   4.755   1.925   2.707 -0.1517 -0.0531  0.7344
 8800TIP3    H126364   4.734   1.871   2.631  0.7911 -0.3633  0.6869
 8800TIP3    H226365   4.830   1.977   2.680  0.9625 -1.0125  1.8102
 8801TIP3   OH226366   1.218   0.644   3.575 -0.3131 -0.1334  0.2961
 8801TIP3    H126367   1.249   0.554   3.570 -1.5482 -0.5235 -3.1367
 8801TIP3    H226368   1.282   0.694   3.524 -1.7465  0.1652 -1.2917
 8802TIP3   OH226369   3.460   6.500   1.490  0.7851 -0.0301 -0.4001
 8802TIP3    H126370   3.383   6.462   1.533  0.2418  0.1466 -1.1925
 8802TIP3    H226371   3.517   6.527   1.562  0.4002 -0.7570  0.1929
 8803TIP3   OH226372   1.821   5.944   2.814 -0.1414 -0.1031  0.7819
 8803TIP3    H126373   1.887   5.886   2.852 -1.5798 -0.7040  2.5227
 8803TIP3    H226374   1.850   6.032   2.837  2.2156  0.0273 -2.1230
 8804TIP3   OH226375   0.026   6.442   4.332 -0.5300 -0.0702  0.4141
 8804TIP3    H126376  -0.026   6.506   4.381  1.7362  1.3293  1.1247
 8804TIP3    H226377   0.068   6.389   4.399 -0.3910 -0.6546 -0.1270
 8805TIP3   OH226378   1.109   5.106   3.938  0.1263 -0.0949 -0.0467
 8805TIP3    H126379   1.016   5.087   3.925  0.6256 -0.7253 -3.7338
 8805TIP3    H226380   1.113   5.147   4.024 -3.6028  0.3382  0.0898
 8806TIP3   OH226381   3.680   2.554   3.337  0.0762  0.3947 -0.2471
 8806TIP3    H126382   3.644   2.642   3.350  2.8366  1.5306  0.4020
 8806TIP3    H226383   3.684   2.544   3.242 -1.1150  0.5370 -0.3335
 8807TIP3   OH226384   2.691   0.694   2.484 -0.3116 -0.2322 -0.0493
 8807TIP3    H126385   2.646   0.654   2.558  0.4099  1.0035  1.1111
 8807TIP3    H226386   2.784   0.687   2.506 -0.0784  0.0278 -0.9160
 8808TIP3   OH226387   2.341   3.322   2.835  0.0656 -0.5516 -0.8538
 8808TIP3    H126388   2.369   3.230   2.832  0.1685 -0.5852  0.4421
 8808TIP3    H226389   2.320   3.337   2.927 -1.9004  0.1718 -1.3696
 8809TIP3   OH226390   7.041   3.460   5.254  0.2122  0.1488 -0.1476
 8809TIP3    H126391   6.987   3.449   5.333  0.2132 -0.8212 -0.2740
 8809TIP3    H226392   6.985   3.508   5.193  0.3872  1.3610  0.6150
 8810TIP3   OH226393   3.477   1.182   0.888  0.1996 -0.4734 -0.1196
 8810TIP3    H126394   3.505   1.108   0.835 -2.3059  0.0809 -2.4316
 8810TIP3    H226395   3.443   1.143   0.968  0.8184 -1.6407 -0.3993
 8811TIP3   OH226396   0.301   4.694   5.533  0.0707  0.0848 -0.2997
 8811TIP3    H126397   0.383   4.693   5.484  0.8189  1.0036  0.8636
 8811TIP3    H226398   0.267   4.783   5.520  0.0630  0.1997  0.4468
 8812TIP3   OH226399   6.921   6.682   2.119 -0.1575  0.1347 -0.1380
 8812TIP3    H126400   6.845   6.738   2.131  0.3148  0.7404  0.0314
 8812TIP3    H226401   6.936   6.643   2.205 -0.7177 -0.5672 -0.3432
 8813TIP3   OH226402   1.933   1.241   4.546 -0.4699  0.6028 -0.6323
 8813TIP3    H126403   1.967   1.280   4.466  1.1802 -0.7694 -0.6648
 8813TIP3    H226404   1.908   1.315   4.601  1.6373  1.6796 -1.0491
 8814TIP3   OH226405   3.231   1.420   5.205  0.3340 -0.1045  0.2786
 8814TIP3    H126406   3.314   1.375   5.219 -0.0465 -0.5035  1.3345
 8814TIP3    H226407   3.178   1.397   5.281 -0.0284  1.7894  0.6462
 8815TIP3   OH226408   4.858   4.754   3.693  0.2698 -0.0717  0.2069
 8815TIP3    H126409   4.839   4.753   3.786 -0.2115 -0.2113  0.1102
 8815TIP3    H226410   4.794   4.816   3.656 -1.7083 -2.3966 -0.4848
 8816TIP3   OH226411   0.482   4.492   2.678  0.4438  0.1086  0.6157
 8816TIP3    H126412   0.539   4.430   2.633 -0.9844 -0.4364 -0.5297
 8816TIP3    H226413   0.520   4.578   2.659  1.7975 -0.3017  1.2871
 8817TIP3   OH226414   4.553   0.773   2.274 -0.2760 -0.3225 -0.2837
 8817TIP3    H126415   4.624   0.793   2.335  0.6487 -0.8449 -1.1619
 8817TIP3    H226416   4.476   0.812   2.314  0.7152  1.3775  0.0735
 8818TIP3   OH226417   0.425   1.808   5.859  0.1136 -0.2180 -0.8228
 8818TIP3    H126418   0.395   1.722   5.830  1.3550 -0.7698 -0.5043
 8818TIP3    H226419   0.348   1.864   5.850 -0.6424 -1.2994 -1.2695
 8819TIP3   OH226420   6.635   6.289   5.709 -0.3008  0.8481 -0.1904
 8819TIP3    H126421   6.539   6.286   5.707 -0.2784 -0.8392  0.2137
 8819TIP3    H226422   6.662   6.237   5.633  0.2804  0.1279  0.4870
 8820TIP3   OH226423   4.662   0.863   4.185 -0.7910  0.4300 -0.2283
 8820TIP3    H126424   4.679   0.915   4.263 -0.3834 -1.0718  0.7359
 8820TIP3    H226425   4.679   0.922   4.112 -0.3839  1.6337  0.8136
 8821TIP3   OH226426   6.110   3.234   5.830  0.1569 -0.5277  0.0856
 8821TIP3    H126427   6.095   3.148   5.790 -1.5594  0.0852 -0.6370
 8821TIP3    H226428   6.144   3.288   5.759  1.3149 -0.5930  0.5611
 8822TIP3   OH226429   5.193   3.948   3.567 -0.1022  0.5235  0.0989
 8822TIP3    H126430   5.276   3.914   3.534  0.2686  1.3885  0.1050
 8822TIP3    H226431   5.156   3.996   3.492 -0.5386  0.2527  0.1361
 8823TIP3   OH226432   5.088   2.641   5.135 -0.3065  0.0055 -0.1006
 8823TIP3    H126433   5.148   2.716   5.143  0.6565 -0.9199  2.5939
 8823TIP3    H226434   5.010   2.669   5.182 -1.2219  0.4175 -1.7969
 8824TIP3   OH226435   1.531   4.527   5.188  0.7371 -0.1728  0.2166
 8824TIP3    H126436   1.527   4.519   5.093 -1.2193 -3.3873  0.4065
 8824TIP3    H226437   1.599   4.465   5.215 -0.5966 -1.3760  0.9744
 8825TIP3   OH226438   1.907   1.687   3.597 -0.1444 -0.1588 -0.2114
 8825TIP3    H126439   1.835   1.720   3.650  0.0856 -0.1073  0.0744
 8825TIP3    H226440   1.880   1.600   3.570 -0.0762 -0.3639  0.3643
 8826TIP3   OH226441   0.961   3.925   5.863 -0.0783  0.0855  0.4423
 8826TIP3    H126442   1.022   3.996   5.847 -0.3931  0.1653 -0.4828
 8826TIP3    H226443   0.985   3.858   5.799 -0.4624 -0.1984  0.5877
 8827TIP3   OH226444   4.568   2.578   1.260  0.5011  0.2572  0.3089
 8827TIP3    H126445   4.502   2.593   1.192 -0.5030 -0.5041  1.0821
 8827TIP3    H226446   4.646   2.623   1.228 -0.8787  2.8148  0.2177
 8828TIP3   OH226447   1.083   0.402   2.732 -0.2385  0.4486 -0.5049
 8828TIP3    H126448   1.042   0.320   2.704 -1.0327  1.2291 -1.7410
 8828TIP3    H226449   1.029   0.431   2.806 -0.5175  0.3284 -0.6602
 8829TIP3   OH226450   3.173   2.882   0.971  0.2928  0.4755  0.3554
 8829TIP3    H126451   3.158   2.892   1.065  0.9320  0.0864  0.5108
 8829TIP3    H226452   3.211   2.795   0.962 -1.4346 -0.2385 -0.4811
 8830TIP3   OH226453   2.965   3.294   3.008  0.0549  0.0357 -0.0246
 8830TIP3    H126454   2.901   3.338   3.064  1.0649 -0.8794  1.9574
 8830TIP3    H226455   2.921   3.215   2.979 -0.2843  0.2357 -0.0628
 8831TIP3   OH226456   2.941   4.641   3.910 -0.3515 -0.4628  0.5536
 8831TIP3    H126457   3.027   4.599   3.908  0.5321  1.2511 -0.5149
 8831TIP3    H226458   2.896   4.608   3.832 -0.0478 -0.1793  0.2573
 8832TIP3   OH226459   0.549   4.646   1.744  0.3305  0.1153  0.0032
 8832TIP3    H126460   0.521   4.560   1.777 -0.2414  1.0306  2.0427
 8832TIP3    H226461   0.483   4.669   1.678 -1.0946  0.1792  1.4099
 8833TIP3   OH226462   5.199   4.402   1.734 -0.3924 -0.5346  0.2195
 8833TIP3    H126463   5.123   4.358   1.773 -0.8454 -0.2635 -0.3464
 8833TIP3    H226464   5.269   4.389   1.798 -1.0653 -0.2940  1.0228
 8834TIP3   OH226465   5.167   0.533   1.411 -0.2655 -0.4680  0.0831
 8834TIP3    H126466   5.210   0.504   1.330 -2.1482  0.2724 -1.2591
 8834TIP3    H226467   5.102   0.466   1.429  0.3580 -0.8001  1.2309
 8835TIP3   OH226468   7.207   6.569   5.631 -0.5193  0.2478  0.0559
 8835TIP3    H126469   7.257   6.497   5.594 -0.1234  0.7666 -0.4224
 8835TIP3    H226470   7.137   6.585   5.568  0.2846  1.2770 -0.6133
 8836TIP3   OH226471   1.905   2.627   1.101 -0.3499 -0.2932 -0.3628
 8836TIP3    H126472   1.847   2.700   1.077 -1.0424 -0.9342 -0.6712
 8836TIP3    H226473   1.891   2.615   1.195 -1.4469 -1.0485 -0.5987
 8837TIP3   OH226474   6.981   2.354   5.833  0.5369  0.4533 -0.1494
 8837TIP3    H126475   6.924   2.281   5.860  0.6148  1.1541  2.1011
 8837TIP3    H226476   7.006   2.333   5.743 -1.9931 -0.6716 -0.6601
 8838TIP3   OH226477   1.316   3.536   2.046  0.0222  0.1847  0.3053
 8838TIP3    H126478   1.381   3.567   2.109  0.9677 -1.2364  0.0897
 8838TIP3    H226479   1.241   3.508   2.100  1.4923 -2.7078  1.0893
 8839TIP3   OH226480   4.155   2.812   5.843  0.6909 -0.0311 -0.3446
 8839TIP3    H126481   4.214   2.792   5.915  1.7441 -0.1143 -1.1985
 8839TIP3    H226482   4.201   2.782   5.765 -0.4129  0.0654 -1.0646
 8840TIP3   OH226483   5.595   2.254   1.374  0.0820 -0.5994  0.3347
 8840TIP3    H126484   5.646   2.245   1.293 -0.4682  1.0189 -0.2362
 8840TIP3    H226485   5.504   2.256   1.345 -0.0602  1.6884  0.7511
 8841TIP3   OH226486   2.421   4.598   1.646  0.2217  0.3993  0.7603
 8841TIP3    H126487   2.478   4.579   1.572  2.2428  2.6834  1.5918
 8841TIP3    H226488   2.478   4.594   1.723 -0.6997  2.5149  1.6581
 8842TIP3   OH226489   5.092   0.774   3.431 -0.0763 -0.2578 -0.1764
 8842TIP3    H126490   5.111   0.683   3.410  1.7735 -0.1173  0.7740
 8842TIP3    H226491   5.177   0.817   3.431 -0.9938  1.7619 -1.7768
 8843TIP3   OH226492   1.848   2.705   3.506  0.1417 -0.0376  0.0406
 8843TIP3    H126493   1.787   2.743   3.568  1.3893  2.4323 -0.1538
 8843TIP3    H226494   1.855   2.613   3.533 -1.5417  0.2616  1.7136
 8844TIP3   OH226495   4.720   5.563   5.286 -0.3261  0.4950 -0.3166
 8844TIP3    H126496   4.636   5.522   5.309 -0.2184  0.8383  0.7129
 8844TIP3    H226497   4.708   5.591   5.195 -0.8568 -0.6528 -0.6189
 8845TIP3   OH226498   0.780   3.987   3.741  1.0032  0.0449  0.3325
 8845TIP3    H126499   0.808   4.066   3.695 -0.8303  0.7727  0.3861
 8845TIP3    H226500   0.699   3.961   3.697  1.2417 -1.4529  0.7212
 8846TIP3   OH226501   6.496   1.137   5.392  0.1906 -0.0115  0.0457
 8846TIP3    H126502   6.573   1.102   5.437  0.2859 -1.9601 -1.5392
 8846TIP3    H226503   6.532   1.204   5.333  0.2167  1.5304  1.7012
 8847TIP3   OH226504   0.161   0.256   2.759  0.2991  0.0436  0.1317
 8847TIP3    H126505   0.209   0.337   2.743 -0.5009  0.4765 -0.0973
 8847TIP3    H226506   0.070   0.277   2.738 -0.0559 -0.6624  0.9100
 8848TIP3   OH226507   6.442   1.178   1.182  0.4402 -0.0860  0.2300
 8848TIP3    H126508   6.408   1.147   1.098  2.8143 -3.3111  0.2582
 8848TIP3    H226509   6.534   1.153   1.182  0.7212  0.4139  3.5247
 8849TIP3   OH226510   5.466   6.376   0.136 -0.4836 -0.7303 -0.4075
 8849TIP3    H126511   5.397   6.429   0.176  1.3284  1.7886 -0.3546
 8849TIP3    H226512   5.423   6.293   0.114 -3.2489  0.3525  0.4481
 8850TIP3   OH226513   0.495   5.072   4.224  0.5360  0.3797  0.2197
 8850TIP3    H126514   0.462   5.119   4.301 -0.6121 -1.3385  0.8369
 8850TIP3    H226515   0.551   5.003   4.260 -0.4633 -0.8046 -0.3834
 8851TIP3   OH226516   4.287   4.219   2.162  0.0670 -0.0247  0.5620
 8851TIP3    H126517   4.364   4.255   2.206  0.9509 -1.0029 -0.1267
 8851TIP3    H226518   4.228   4.194   2.233  0.3877  0.7252  1.1007
 8852TIP3   OH226519   0.143   3.735   0.080  0.0596 -0.2771  0.0340
 8852TIP3    H126520   0.055   3.710   0.105 -0.9839  2.1494 -0.8921
 8852TIP3    H226521   0.174   3.790   0.152 -0.1436  0.8155 -0.6873
 8853TIP3   OH226522   3.902   1.808   0.776  0.1714 -0.3590 -0.2244
 8853TIP3    H126523   3.954   1.756   0.837 -2.2666 -1.2416  1.2234
 8853TIP3    H226524   3.841   1.746   0.737 -0.2205  0.7353 -1.4315
 8854TIP3   OH226525   2.278   6.536   5.546 -0.4453 -0.2988  0.1935
 8854TIP3    H126526   2.311   6.590   5.617 -1.0465  0.2192  0.0919
 8854TIP3    H226527   2.269   6.449   5.584  0.8564 -0.4214  0.2648
 8855TIP3   OH226528   5.484   4.137   4.554 -0.3269 -0.6678 -0.0107
 8855TIP3    H126529   5.544   4.070   4.587  1.6291  1.2809  0.6792
 8855TIP3    H226530   5.459   4.187   4.632  0.0028  0.6828 -0.7356
 8856TIP3   OH226531   0.025   2.469   5.878  0.2808  0.3581 -0.1475
 8856TIP3    H126532   0.067   2.391   5.842 -0.4815 -1.0870  1.9006
 8856TIP3    H226533  -0.069   2.455   5.862  0.0996  0.6046  0.6444
 8857TIP3   OH226534   5.950   5.932   1.798 -0.0097 -0.5915 -0.8563
 8857TIP3    H126535   6.000   5.879   1.736 -1.1089  1.6618 -3.9458
 8857TIP3    H226536   5.947   6.019   1.758 -2.0355  0.6843  1.7472
 8858TIP3   OH226537   3.988   3.988   2.175 -0.6476  0.1219  0.5982
 8858TIP3    H126538   3.999   3.943   2.092 -1.3381  0.9335  0.0528
 8858TIP3    H226539   3.915   4.047   2.161 -0.8435  0.1934  1.8237
 8859TIP3   OH226540   4.618   0.599   1.569 -0.1593  0.4724 -0.2995
 8859TIP3    H126541   4.665   0.679   1.593  1.0758 -0.2472 -0.2120
 8859TIP3    H226542   4.683   0.529   1.579 -0.7188 -0.3443 -1.9573
 8860TIP3   OH226543   3.735   3.462   3.341  0.3632 -0.4083 -0.0478
 8860TIP3    H126544   3.718   3.493   3.252  1.2463  0.9103  0.2097
 8860TIP3    H226545   3.792   3.529   3.379 -0.9359 -0.3488  1.9075
 8861TIP3   OH226546   1.948   5.560   3.488 -0.4578  0.0915 -0.7539
 8861TIP3    H126547   1.866   5.521   3.518  0.2916 -0.1529  1.1152
 8861TIP3    H226548   2.003   5.486   3.466  0.3384  0.0681  1.0864
 8862TIP3   OH226549   5.165   0.030   2.597  0.0205  0.4258  0.0494
 8862TIP3    H126550   5.180   0.124   2.592  2.2142  0.0624 -2.1874
 8862TIP3    H226551   5.103   0.012   2.527  0.3058  0.1105 -0.1267
 8863TIP3   OH226552   5.174   1.641   2.239  0.6804  0.0401 -0.0112
 8863TIP3    H126553   5.245   1.607   2.293 -0.2048 -1.0162  0.4915
 8863TIP3    H226554   5.096   1.596   2.269  0.0198  0.0835 -1.5645
 8864TIP3   OH226555   1.271   4.962   3.180  0.0837 -0.6478 -0.4392
 8864TIP3    H126556   1.319   4.879   3.180  2.1818  0.3964 -3.0405
 8864TIP3    H226557   1.340   5.029   3.170 -1.4221  1.5621  2.3502
 8865TIP3   OH226558   3.158   4.895   1.520  0.3029  0.0635  0.3178
 8865TIP3    H126559   3.185   4.909   1.429  0.2168 -0.6887  0.1622
 8865TIP3    H226560   3.083   4.953   1.532 -0.1386 -0.3461 -0.3326
 8866TIP3   OH226561   6.064   2.170   4.231 -0.1308 -0.5513  0.2040
 8866TIP3    H126562   6.075   2.210   4.145 -1.6908 -0.7720 -0.1199
 8866TIP3    H226563   6.150   2.135   4.252  0.5190  0.3453 -0.8314
 8867TIP3   OH226564   5.464   1.251   4.970 -0.0681  0.6631 -0.3800
 8867TIP3    H126565   5.504   1.307   5.036 -1.5055  0.2993  0.8617
 8867TIP3    H226566   5.453   1.167   5.013 -0.6224  0.2881 -1.2259
 8868TIP3   OH226567   2.689   1.240   4.607  0.2231  0.5111 -0.7311
 8868TIP3    H126568   2.640   1.168   4.568  0.6151 -1.0426  1.4845
 8868TIP3    H226569   2.636   1.266   4.683  1.4067  0.7407  0.0276
 8869TIP3   OH226570   0.127   3.080   2.475  0.2374 -0.2457  0.3324
 8869TIP3    H126571   0.147   3.134   2.398  1.6123 -0.4523  0.5068
 8869TIP3    H226572   0.035   3.056   2.465  0.3294 -0.0823 -1.1393
 8870TIP3   OH226573   1.089   3.479   1.392 -0.0975  0.0685 -0.2190
 8870TIP3    H126574   1.061   3.412   1.329  1.6027 -2.4198  1.4560
 8870TIP3    H226575   1.174   3.509   1.359 -0.6489  1.1191 -0.7242
 8871TIP3   OH226576   4.688   2.003   1.007 -0.3892  0.4129 -0.4877
 8871TIP3    H126577   4.738   2.032   1.084 -1.8908  1.1295  0.2709
 8871TIP3    H226578   4.596   2.006   1.036 -0.9146 -0.3408 -1.9860
 8872TIP3   OH226579   6.103   5.460   0.443 -0.2840  0.2138 -0.6017
 8872TIP3    H126580   6.019   5.452   0.397 -0.3043 -0.4841 -0.4622
 8872TIP3    H226581   6.164   5.490   0.376 -0.6270  0.6499 -0.7245
 8873TIP3   OH226582   0.565   5.180   0.435 -0.1339 -0.0326 -0.1607
 8873TIP3    H126583   0.481   5.185   0.389  0.9092  1.0615 -2.0965
 8873TIP3    H226584   0.578   5.087   0.452 -0.9072 -0.4178 -1.5020
 8874TIP3   OH226585   3.620   0.217   5.823  0.3323  0.2400 -0.1747
 8874TIP3    H126586   3.609   0.270   5.744 -1.3583  0.9399  0.4716
 8874TIP3    H226587   3.579   0.133   5.802 -0.7961  0.6849  0.1737
 8875TIP3   OH226588   0.074   2.353   1.137 -0.4239  0.7939  0.2302
 8875TIP3    H126589   0.013   2.288   1.102 -1.0211  1.4617 -0.0024
 8875TIP3    H226590   0.102   2.318   1.221  2.3558 -1.6818 -1.5394
 8876TIP3   OH226591   4.535   2.795   2.527  0.2954 -0.4808 -0.2784
 8876TIP3    H126592   4.516   2.770   2.436  0.1880 -2.2773  0.2048
 8876TIP3    H226593   4.482   2.735   2.580  2.4510 -1.3652  1.0027
 8877TIP3   OH226594   3.703   5.176   4.972 -0.4496  0.0633  0.1250
 8877TIP3    H126595   3.695   5.082   4.989 -0.8003 -0.0731 -0.7220
 8877TIP3    H226596   3.789   5.199   5.005 -0.3120 -0.5821  0.2325
 8878TIP3   OH226597   4.771   2.674   2.666 -0.4265  0.7632  0.1185
 8878TIP3    H126598   4.741   2.760   2.637 -1.3948  0.2541 -0.4341
 8878TIP3    H226599   4.692   2.621   2.672  0.1472 -0.0764  0.5288
 8879TIP3   OH226600   2.548   1.511   4.961  0.1756  0.1097  0.4418
 8879TIP3    H126601   2.610   1.440   4.945  1.1409  0.8995  0.5263
 8879TIP3    H226602   2.513   1.494   5.049 -0.1681 -0.6579  0.1586
 8880TIP3   OH226603   5.034   1.405   1.515 -0.5805 -0.7613 -0.0440
 8880TIP3    H126604   5.100   1.451   1.462 -2.7550  2.1768 -0.4447
 8880TIP3    H226605   5.012   1.468   1.584 -3.2558 -1.4103 -0.2041
 8881TIP3   OH226606   5.872   5.070   0.431 -0.1206 -0.0591 -0.0425
 8881TIP3    H126607   5.832   5.079   0.517 -0.1611  1.3230 -0.1779
 8881TIP3    H226608   5.869   5.158   0.394  0.7666 -0.4344 -1.0707
 8882TIP3   OH226609   0.143   4.763   0.777  0.5819  0.0617  0.7092
 8882TIP3    H126610   0.134   4.818   0.699  2.2911 -0.5165  0.0526
 8882TIP3    H226611   0.144   4.825   0.850 -0.2813  0.6724  0.2182
 8883TIP3   OH226612   3.642   1.674   3.868 -0.0439  0.2286  0.5885
 8883TIP3    H126613   3.552   1.676   3.833  0.4285  0.9327 -0.6391
 8883TIP3    H226614   3.653   1.759   3.911 -0.4103 -0.3960  1.9773
 8884TIP3   OH226615   2.938   6.246   4.040 -0.0171  0.2538 -0.5162
 8884TIP3    H126616   2.999   6.282   3.976  1.6823 -1.1417  0.2267
 8884TIP3    H226617   2.937   6.152   4.022 -0.0916 -0.0615  0.9889
 8885TIP3   OH226618   6.740   2.307   2.232  0.1420  0.5836 -0.4810
 8885TIP3    H126619   6.823   2.341   2.199  1.5051 -0.9275  1.1435
 8885TIP3    H226620   6.723   2.228   2.180 -0.6026  1.1898 -1.1833
 8886TIP3   OH226621   4.306   4.818   5.831 -0.5590  0.1885  0.1401
 8886TIP3    H126622   4.332   4.765   5.906  0.5237 -1.6373 -1.4381
 8886TIP3    H226623   4.378   4.879   5.819 -0.2297 -0.2368 -0.0575
 8887TIP3   OH226624   6.730   4.462   0.296 -0.2363 -0.1413 -0.0259
 8887TIP3    H126625   6.648   4.414   0.305  0.1348 -1.1327 -1.5583
 8887TIP3    H226626   6.714   4.546   0.339 -1.8421 -0.5548  0.2397
 8888TIP3   OH226627   0.443   2.072   1.559  0.6105 -0.3336  0.2850
 8888TIP3    H126628   0.456   2.165   1.576 -0.0057 -0.5425  2.1184
 8888TIP3    H226629   0.517   2.030   1.604  0.0314 -0.8184  0.7878
 8889TIP3   OH226630   5.260   6.753   1.735  0.2880 -0.2205 -0.5620
 8889TIP3    H126631   5.333   6.692   1.725  0.4919 -0.3003  1.0543
 8889TIP3    H226632   5.280   6.801   1.815 -0.7915  0.6814 -0.8045
 8890TIP3   OH226633   4.087   3.922   1.598  0.0339 -0.6399  0.1513
 8890TIP3    H126634   4.008   3.919   1.544  0.4502  0.3854 -0.5504
 8890TIP3    H226635   4.096   3.833   1.632 -1.4749 -0.7410  0.3400
 8891TIP3   OH226636   6.556   2.964   3.803 -0.4544 -0.4253  0.7720
 8891TIP3    H126637   6.508   2.966   3.720  0.9880  0.1427 -0.0778
 8891TIP3    H226638   6.644   2.935   3.779  0.7100  2.0730  1.6825
 8892TIP3   OH226639   3.295   3.927   0.980  0.0913 -0.2425  0.0683
 8892TIP3    H126640   3.387   3.954   0.983 -0.3161  1.5642 -1.2831
 8892TIP3    H226641   3.249   3.991   1.034 -0.2202 -2.2557  2.3289
 8893TIP3   OH226642   4.289   3.647   5.185 -0.0511 -1.2006 -0.7470
 8893TIP3    H126643   4.229   3.669   5.257  0.1222  0.7094 -1.1418
 8893TIP3    H226644   4.371   3.690   5.208  0.0636 -0.7180 -1.9896
 8894TIP3   OH226645   2.907   2.239   5.030  0.9120 -0.2232  0.0701
 8894TIP3    H126646   2.850   2.190   4.971 -0.2250 -1.7664  2.2957
 8894TIP3    H226647   2.989   2.250   4.982 -0.5187  0.2516 -2.4445
 8895TIP3   OH226648   2.814   3.072   4.920  0.5865 -0.2492  0.0042
 8895TIP3    H126649   2.863   2.990   4.920 -1.1523 -1.3381  0.7565
 8895TIP3    H226650   2.873   3.135   4.963  1.4399 -1.4287  0.6263
 8896TIP3   OH226651   3.125   4.467   0.049 -0.2263  0.6005  0.2356
 8896TIP3    H126652   3.116   4.534   0.116  0.1811  0.6122  0.2839
 8896TIP3    H226653   3.038   4.429   0.040  0.3732 -1.9266  3.4138
 8897TIP3   OH226654   4.006   4.892   3.259  0.1925  0.1351  0.4039
 8897TIP3    H126655   4.090   4.931   3.234  0.1864  0.4323  0.8403
 8897TIP3    H226656   3.943   4.928   3.197  0.2966  0.3241  0.4076
 8898TIP3   OH226657   3.060   2.351   3.915 -0.5765  0.2514  0.0764
 8898TIP3    H126658   3.126   2.411   3.881  0.1577 -0.1674  0.7257
 8898TIP3    H226659   3.013   2.320   3.838  0.3703  0.1195 -0.4563
 8899TIP3   OH226660   3.340   6.152   1.071  0.2082  0.4380 -1.1581
 8899TIP3    H126661   3.318   6.223   1.012 -0.7456  0.2801 -1.0217
 8899TIP3    H226662   3.355   6.194   1.156 -0.7326  0.4613 -0.9886
 8900TIP3   OH226663   5.360   0.958   1.512 -0.0216 -0.0055 -0.1660
 8900TIP3    H126664   5.277   1.004   1.499  0.3368  0.6707 -0.1101
 8900TIP3    H226665   5.352   0.879   1.459 -1.0526 -0.3995  0.5419
 8901TIP3   OH226666   1.717   0.509   1.950 -0.1322  0.0574  0.0352
 8901TIP3    H126667   1.648   0.502   2.016 -1.3293 -0.1601 -1.2059
 8901TIP3    H226668   1.722   0.603   1.932  2.8174  0.6956  3.0390
 8902TIP3   OH226669   1.152   0.923   1.237 -1.2487 -0.1983  0.8183
 8902TIP3    H126670   1.096   0.847   1.222 -0.3899 -0.4210 -1.6957
 8902TIP3    H226671   1.128   0.985   1.169  0.0226  0.6242  1.0890
 8903TIP3   OH226672   4.274   0.684   5.449 -0.2243  0.6625  0.4292
 8903TIP3    H126673   4.313   0.707   5.364  0.8243 -0.4787  0.5694
 8903TIP3    H226674   4.183   0.666   5.428 -0.2408  1.4502 -0.2611
 8904TIP3   OH226675   6.003   0.320   4.454  0.4235  0.0089  0.0086
 8904TIP3    H126676   5.962   0.387   4.399  0.5744 -0.2432 -0.4112
 8904TIP3    H226677   6.029   0.368   4.533  2.6162  0.9804 -1.2182
 8905TIP3   OH226678   0.093   5.293   2.280 -0.0754  0.7034  0.1163
 8905TIP3    H126679   0.119   5.230   2.347 -1.3653 -0.4143 -0.3985
 8905TIP3    H226680   0.172   5.303   2.226 -0.0171 -1.0176 -0.1879
 8906TIP3   OH226681   0.610   0.851   5.644  0.0736  0.1369  0.4229
 8906TIP3    H126682   0.519   0.877   5.628  0.6032  1.5488 -0.4238
 8906TIP3    H226683   0.627   0.881   5.734  0.1926  1.3588  0.0072
 8907TIP3   OH226684   6.719   1.820   0.273  0.6056  0.1514 -0.3785
 8907TIP3    H126685   6.698   1.757   0.205  0.8955 -1.1938  0.7390
 8907TIP3    H226686   6.634   1.843   0.312  0.6706 -1.2327  0.6377
 8908TIP3   OH226687   7.138   3.834   5.044 -0.2055  0.2727  0.4581
 8908TIP3    H126688   7.059   3.888   5.037 -0.5537 -0.3600 -0.7411
 8908TIP3    H226689   7.105   3.746   5.061  0.0937 -0.3888 -2.1084
 8909TIP3   OH226690   6.209   3.117   4.714  0.1594 -0.3604  0.7754
 8909TIP3    H126691   6.140   3.179   4.689  0.8119  0.2008  0.3163
 8909TIP3    H226692   6.288   3.171   4.723  0.7644 -1.1387  0.2795
 8910TIP3   OH226693   5.243   1.158   1.257 -0.7449 -0.1014  0.3719
 8910TIP3    H126694   5.266   1.217   1.185  0.0149  1.1194  1.5574
 8910TIP3    H226695   5.251   1.070   1.221 -1.7841  0.5007 -1.4235
 8911TIP3   OH226696   2.730   6.169   1.593 -0.1033  0.5433 -0.2088
 8911TIP3    H126697   2.820   6.136   1.590 -1.2424 -2.9841 -1.1913
 8911TIP3    H226698   2.716   6.192   1.685  1.6465  0.6988  0.0547
 8912TIP3   OH226699   0.489   1.678   1.471 -0.6937  0.3295 -0.2432
 8912TIP3    H126700   0.525   1.678   1.559  0.0704 -1.2924 -0.5168
 8912TIP3    H226701   0.565   1.693   1.414 -0.8842 -0.4021 -0.7029
 8913TIP3   OH226702   0.778   2.067   1.349 -0.1986 -0.4012  0.3052
 8913TIP3    H126703   0.692   2.025   1.341 -0.3921 -0.3012  1.6486
 8913TIP3    H226704   0.774   2.142   1.289 -0.3395 -1.4699 -1.0809
 8914TIP3   OH226705   0.970   2.104   1.003 -0.2476 -0.4012 -0.2493
 8914TIP3    H126706   0.915   2.027   1.013 -0.3993 -0.5657 -2.0057
 8914TIP3    H226707   0.922   2.161   0.943  1.4253 -0.5335 -1.8187
 8915TIP3   OH226708   0.740   5.860   3.317 -0.5961  0.1068 -0.0669
 8915TIP3    H126709   0.678   5.823   3.379 -0.3518  1.2262  0.8764
 8915TIP3    H226710   0.693   5.932   3.275 -0.5145 -0.1674 -0.6404
 8916TIP3   OH226711   0.241   6.128   1.391 -0.2662 -0.2480  0.0638
 8916TIP3    H126712   0.311   6.131   1.456  0.2696 -1.8244 -0.3958
 8916TIP3    H226713   0.281   6.164   1.311 -0.6086  0.7058  0.3050
 8917TIP3   OH226714   5.240   4.118   1.047  0.0786 -0.5360 -0.0374
 8917TIP3    H126715   5.260   4.047   0.986 -0.3602 -0.4593 -0.2783
 8917TIP3    H226716   5.167   4.165   1.006 -1.3879 -1.5007  1.3274
 8918TIP3   OH226717   5.999   0.124   1.902 -0.0947  0.8672  0.1599
 8918TIP3    H126718   5.965   0.050   1.953 -2.0754  0.7284 -1.2458
 8918TIP3    H226719   6.003   0.091   1.812 -3.8478  3.1167 -1.1027
 8919TIP3   OH226720   3.148   1.501   5.824 -0.0223 -0.1785 -0.0266
 8919TIP3    H126721   3.216   1.488   5.758  0.7023 -0.9350  0.8247
 8919TIP3    H226722   3.066   1.482   5.780  0.4219 -0.3740 -0.7755
 8920TIP3   OH226723   1.867   0.325   2.276 -0.0861 -0.0773  0.0167
 8920TIP3    H126724   1.811   0.270   2.330 -1.6136  0.4169 -1.0070
 8920TIP3    H226725   1.895   0.396   2.335 -0.1190 -0.5887  0.6641
 8921TIP3   OH226726   6.700   2.306   0.358 -0.2995  0.4890  0.1459
 8921TIP3    H126727   6.635   2.365   0.320 -0.9966  1.3751  2.5571
 8921TIP3    H226728   6.740   2.263   0.282 -2.0727  1.6107 -1.5227
 8922TIP3   OH226729   2.060   5.285   4.047  0.3298 -0.0939  0.8230
 8922TIP3    H126730   2.065   5.351   4.116  1.4113  1.4444 -0.6717
 8922TIP3    H226731   2.000   5.219   4.082  1.2483  0.3592  3.4351
 8923TIP3   OH226732   5.186   6.315   4.422  0.5520  0.0050 -0.8908
 8923TIP3    H126733   5.154   6.389   4.371  1.8058  1.3394  0.1982
 8923TIP3    H226734   5.271   6.343   4.455 -0.3668 -0.5821  2.2962
 8924TIP3   OH226735   2.283   3.775   5.318  0.1593 -0.2149  0.2545
 8924TIP3    H126736   2.211   3.823   5.359 -0.3615 -1.6789  1.1313
 8924TIP3    H226737   2.253   3.684   5.317  2.5433 -1.0806  1.8678
 8925TIP3   OH226738   0.131   4.890   5.185 -0.5783  0.0403  0.1859
 8925TIP3    H126739   0.067   4.961   5.181 -1.0495 -0.3791  0.1187
 8925TIP3    H226740   0.126   4.859   5.276 -1.7826 -1.1631 -0.2603
 8926TIP3   OH226741   3.214   5.221   0.567  0.5036  0.1233  0.7588
 8926TIP3    H126742   3.175   5.195   0.484 -2.1525  1.2702  1.5578
 8926TIP3    H226743   3.172   5.303   0.590  2.1318  0.5324  2.6291
 8927TIP3   OH226744   1.599   6.306   5.516 -0.3021 -0.2294  0.3458
 8927TIP3    H126745   1.648   6.345   5.589  1.2047 -0.2489 -0.6062
 8927TIP3    H226746   1.646   6.335   5.438  0.1829 -2.9459 -0.4787
 8928TIP3   OH226747   4.990   0.284   1.705 -0.3655  0.4022 -0.3231
 8928TIP3    H126748   5.033   0.338   1.771  1.9526  0.5999 -1.8636
 8928TIP3    H226749   5.061   0.237   1.662 -2.0031 -1.4054 -1.2346
 8929TIP3   OH226750   4.250   0.652   4.930 -0.1281  0.1183 -0.5656
 8929TIP3    H126751   4.167   0.700   4.925  0.4954  1.4623  1.1560
 8929TIP3    H226752   4.316   0.714   4.901  0.5487 -0.0651  0.5074
 8930TIP3   OH226753   3.867   4.938   4.499 -0.2781 -0.8457 -0.0561
 8930TIP3    H126754   3.934   4.995   4.461 -2.2248  2.5790  1.1158
 8930TIP3    H226755   3.889   4.933   4.592 -1.2287 -0.1897  0.2284
 8931TIP3   OH226756   3.316   5.274   4.397  0.1587  0.0065 -0.3520
 8931TIP3    H126757   3.302   5.299   4.306  1.1332 -0.5302 -0.6543
 8931TIP3    H226758   3.406   5.298   4.415  0.6076 -1.7211 -0.1460
 8932TIP3   OH226759   3.777   1.458   1.280 -0.0361 -0.1277  0.1047
 8932TIP3    H126760   3.719   1.506   1.221  0.4197  1.6887  1.0698
 8932TIP3    H226761   3.743   1.368   1.278 -2.2728  0.6527 -0.1028
 8933TIP3   OH226762   6.636   1.388   2.491  0.0122 -0.2765 -0.3544
 8933TIP3    H126763   6.728   1.414   2.491 -0.0234 -0.1527 -0.3436
 8933TIP3    H226764   6.591   1.458   2.444 -0.2346  0.2284  0.6153
 8934TIP3   OH226765   1.302   5.567   0.575  0.3471  0.3246 -0.4517
 8934TIP3    H126766   1.322   5.585   0.667  0.6961  0.7357 -0.6014
 8934TIP3    H226767   1.222   5.515   0.577  0.1490  0.6421  0.0700
 8935TIP3   OH226768   0.603   0.057   3.855  0.3889  0.2132  0.0540
 8935TIP3    H126769   0.678   0.052   3.796 -0.1532  0.4587 -0.6640
 8935TIP3    H226770   0.526   0.054   3.797 -0.1976  4.5573  0.3190
 8936TIP3   OH226771   3.438   5.488   0.866  0.3505 -0.5600  0.0925
 8936TIP3    H126772   3.480   5.560   0.818 -0.0479  0.5415  1.3279
 8936TIP3    H226773   3.494   5.475   0.943 -0.3718 -0.5771  0.6200
 8937TIP3   OH226774   6.560   4.600   1.944 -0.0894  0.0702 -0.0001
 8937TIP3    H126775   6.568   4.548   2.024  5.4215  1.0711  0.4437
 8937TIP3    H226776   6.535   4.536   1.877  1.9454 -2.2886  1.3449
 8938TIP3   OH226777   1.014   5.846   1.031  0.2648 -0.2580 -0.4807
 8938TIP3    H126778   0.940   5.799   0.992  0.5968 -0.6557 -0.6276
 8938TIP3    H226779   1.064   5.879   0.956  0.1894  0.0847 -0.3803
 8939TIP3   OH226780   4.895   5.529   1.008  0.1844  0.0295 -0.0656
 8939TIP3    H126781   4.862   5.519   0.919  0.1213  0.6107 -0.1127
 8939TIP3    H226782   4.820   5.564   1.058  0.8961  2.1262 -0.3467
 8940TIP3   OH226783   4.617   0.826   5.583  0.1012 -0.2389 -0.3815
 8940TIP3    H126784   4.694   0.798   5.633  0.2629 -0.5982 -0.8214
 8940TIP3    H226785   4.548   0.765   5.608 -0.5394  1.0773  1.2782
 8941TIP3   OH226786   6.066   6.696   5.672 -0.0254 -0.3271  0.3053
 8941TIP3    H126787   6.036   6.740   5.752  0.7551  0.2644  0.2855
 8941TIP3    H226788   6.156   6.671   5.692  0.4357  0.5256 -0.6731
 8942TIP3   OH226789   6.934   2.917   1.131  0.1878 -0.2012 -0.1599
 8942TIP3    H126790   7.003   2.977   1.103  0.8733 -1.5625 -1.4905
 8942TIP3    H226791   6.912   2.946   1.220  1.6654  0.9677 -0.1351
 8943TIP3   OH226792   7.012   5.918   1.127  0.6288  0.2179 -0.2136
 8943TIP3    H126793   7.026   5.831   1.088 -0.8027  0.0759 -0.4513
 8943TIP3    H226794   7.088   5.931   1.184  3.0284  0.5808 -3.2151
 8944TIP3   OH226795   7.006   0.877   3.797 -0.5825 -0.1088  0.0768
 8944TIP3    H126796   6.937   0.918   3.745 -1.0100 -1.3133 -0.3526
 8944TIP3    H226797   7.061   0.950   3.826 -0.4758  0.6402 -1.8509
 8945TIP3   OH226798   2.289   4.898   3.517  0.4480  0.1269  0.2897
 8945TIP3    H126799   2.235   4.831   3.559 -0.3810  0.4582 -0.2247
 8945TIP3    H226800   2.253   4.907   3.429  0.7781  0.9841  0.2267
 8946TIP3   OH226801   4.378   5.457   5.378  0.0425 -0.3867  0.6922
 8946TIP3    H126802   4.315   5.498   5.320  0.5678  1.1704  1.1626
 8946TIP3    H226803   4.398   5.373   5.337 -0.0958  0.3825 -1.0382
 8947TIP3   OH226804   6.434   2.649   0.334 -0.3207 -0.0210 -0.1936
 8947TIP3    H126805   6.524   2.675   0.314  0.0445 -0.2930  0.9833
 8947TIP3    H226806   6.429   2.556   0.313  0.3374 -0.5369  1.7045
 8948TIP3   OH226807   6.466   2.216   3.117  0.2495 -0.5772 -0.1220
 8948TIP3    H126808   6.444   2.138   3.166  0.6037  0.0551  1.0722
 8948TIP3    H226809   6.483   2.283   3.183  0.3837  0.3981 -1.1038
 8949TIP3   OH226810   3.999   4.338   2.296  0.0582  0.2037 -0.3038
 8949TIP3    H126811   4.067   4.290   2.343  1.6773  1.6189 -1.0886
 8949TIP3    H226812   3.928   4.275   2.285  1.2229 -1.3233  0.5906
 8950TIP3   OH226813   5.865   6.438   5.784  0.3640  0.1833  0.6976
 8950TIP3    H126814   5.812   6.379   5.838  0.7476 -0.0472  0.8269
 8950TIP3    H226815   5.953   6.432   5.822  0.3141  1.1776  0.9922
 8951TIP3   OH226816   1.961   0.073   3.681 -0.0518 -0.1045  0.6573
 8951TIP3    H126817   2.053   0.084   3.707  0.7223  4.4236 -2.7225
 8951TIP3    H226818   1.962  -0.003   3.623  0.7446 -2.0755  3.0622
 8952TIP3   OH226819   0.282   1.334   4.773  0.3167  0.3089  0.9451
 8952TIP3    H126820   0.358   1.307   4.825  0.8549  1.8113  0.9985
 8952TIP3    H226821   0.320   1.373   4.695 -0.3553  1.7366  1.2967
 8953TIP3   OH226822   0.358   4.826   1.098  0.0424  0.1129  0.4362
 8953TIP3    H126823   0.320   4.869   1.022  0.2304  0.3748  0.4915
 8953TIP3    H226824   0.377   4.897   1.159  2.1127  0.1893 -0.2095
 8954TIP3   OH226825   0.666   6.151   5.503  0.0609 -0.4501 -0.5008
 8954TIP3    H126826   0.658   6.217   5.435  2.0539 -0.9231 -1.2497
 8954TIP3    H226827   0.628   6.072   5.464 -3.1695  0.3184  0.7138
 8955TIP3   OH226828   6.502   4.158   2.584  0.6258 -0.4239 -0.1197
 8955TIP3    H126829   6.442   4.142   2.511  0.6891  0.8675 -0.4872
 8955TIP3    H226830   6.444   4.168   2.660  0.4439 -0.2955 -0.2708
 8956TIP3   OH226831   5.611   1.081   3.614  0.2043  0.0439  0.3559
 8956TIP3    H126832   5.660   1.079   3.697  0.8422  2.2511  0.1165
 8956TIP3    H226833   5.678   1.093   3.547 -0.5087  1.2401 -0.1747
 8957TIP3   OH226834   6.354   2.360   4.918  0.4350 -0.0154  0.6627
 8957TIP3    H126835   6.376   2.271   4.948 -0.2151 -0.6208 -0.5991
 8957TIP3    H226836   6.410   2.374   4.842 -0.0125  0.3584  0.4011
 8958TIP3   OH226837   5.103   1.444   5.709  0.3926 -0.5821 -0.0669
 8958TIP3    H126838   5.087   1.370   5.767  0.6841  0.6484  1.6853
 8958TIP3    H226839   5.018   1.463   5.670  0.0373 -1.0506  0.4658
 8959TIP3   OH226840   2.805   3.317   1.479 -0.8944 -0.3937 -0.3025
 8959TIP3    H126841   2.887   3.286   1.517 -0.1052  1.4649 -0.4001
 8959TIP3    H226842   2.819   3.314   1.385 -1.7774 -2.1457 -0.4288
 8960TIP3   OH226843   6.394   5.192   0.776  0.3007  0.0708  0.3967
 8960TIP3    H126844   6.435   5.269   0.738 -1.4507  2.1179  2.3024
 8960TIP3    H226845   6.300   5.209   0.769 -0.2309 -2.6833 -0.5103
 8961TIP3   OH226846   7.151   3.154   0.631  0.0354  0.5698 -0.3678
 8961TIP3    H126847   7.213   3.088   0.663  0.2846  0.7873 -0.3970
 8961TIP3    H226848   7.117   3.118   0.550  0.4385  0.6353 -0.5687
 8962TIP3   OH226849   1.915   0.695   5.193 -0.3017 -0.4040  0.0564
 8962TIP3    H126850   1.986   0.631   5.205 -0.7201 -0.7231  0.9738
 8962TIP3    H226851   1.958   0.773   5.160  0.0937 -1.4727 -2.1761
 8963TIP3   OH226852   1.418   2.828   5.090 -0.5474 -0.0374 -0.1416
 8963TIP3    H126853   1.433   2.907   5.038 -1.1846 -0.1248 -0.4636
 8963TIP3    H226854   1.332   2.796   5.063 -0.0207 -1.2236 -0.5134
 8964TIP3   OH226855   5.929   4.151   4.272  1.0912 -0.0972  0.2685
 8964TIP3    H126856   5.930   4.139   4.367  0.0690 -0.6328  0.2302
 8964TIP3    H226857   5.841   4.124   4.246  1.9493 -1.8387 -1.0592
 8965TIP3   OH226858   5.602   0.693   4.197 -1.3935 -0.6208  0.2125
 8965TIP3    H126859   5.603   0.768   4.136 -0.3531  1.2981  2.4195
 8965TIP3    H226860   5.514   0.695   4.234 -1.2328 -0.1928  0.5826
 8966TIP3   OH226861   2.841   4.714   0.567  0.7385 -0.0226  0.4196
 8966TIP3    H126862   2.935   4.704   0.579  0.3925 -1.7421  2.3135
 8966TIP3    H226863   2.808   4.624   0.559 -0.6867  0.5671 -0.8260
 8967TIP3   OH226864   2.461   1.215   1.422  0.6303  0.1506 -0.2466
 8967TIP3    H126865   2.421   1.298   1.395  0.0881  0.3359  1.0280
 8967TIP3    H226866   2.526   1.241   1.488 -1.0102 -0.5287  1.7717
 8968TIP3   OH226867   5.525   3.535   5.695  0.4154 -0.0538  0.3638
 8968TIP3    H126868   5.612   3.546   5.734  0.3916  0.2827  0.3211
 8968TIP3    H226869   5.521   3.602   5.627  0.5310 -0.7533 -0.3525
 8969TIP3   OH226870   7.042   0.664   0.394  0.2191 -0.5036  0.1435
 8969TIP3    H126871   7.125   0.678   0.348  0.0166  0.8172  0.1188
 8969TIP3    H226872   7.067   0.624   0.477  0.7703 -1.1225 -0.3081
 8970TIP3   OH226873   4.421   4.421   0.599 -0.3492  0.1613 -0.6605
 8970TIP3    H126874   4.437   4.387   0.511 -0.2659 -0.5275 -0.3843
 8970TIP3    H226875   4.507   4.452   0.628 -0.6299  1.7275 -1.3542
 8971TIP3   OH226876   2.147   0.832   5.823  0.5496  0.2932 -0.1292
 8971TIP3    H126877   2.107   0.819   5.737  0.3335  0.4365 -0.0505
 8971TIP3    H226878   2.140   0.926   5.839 -1.2362  0.0310  0.9194
 8972TIP3   OH226879   2.738   1.585   0.889 -0.0923  0.2728 -0.3608
 8972TIP3    H126880   2.726   1.678   0.911 -2.0912  0.0143 -0.1981
 8972TIP3    H226881   2.795   1.587   0.812  1.1842  1.5314  0.5463
 8973TIP3   OH226882   0.257   4.580   1.203  0.1810  0.4219  0.3096
 8973TIP3    H126883   0.310   4.658   1.185 -1.3138  1.7011  1.1180
 8973TIP3    H226884   0.169   4.604   1.172 -0.0553 -1.4412 -0.5599
 8974TIP3   OH226885   0.768   2.735   0.610 -0.0960  0.0706  0.1379
 8974TIP3    H126886   0.747   2.667   0.675 -0.8898  0.2852  0.1102
 8974TIP3    H226887   0.826   2.691   0.548 -0.1483 -0.4201  0.4302
 8975TIP3   OH226888   0.533   2.765   1.996  0.0755  0.6178  0.0063
 8975TIP3    H126889   0.514   2.854   2.026 -2.7518 -0.2320  1.1241
 8975TIP3    H226890   0.461   2.743   1.937  0.8006 -0.8886 -0.3798
 8976TIP3   OH226891   5.924   1.414   0.460  0.8813  0.5301  0.2526
 8976TIP3    H126892   5.851   1.362   0.427  0.7796  0.5292  0.4731
 8976TIP3    H226893   5.997   1.353   0.466  0.7249  0.3787  0.6427
 8977TIP3   OH226894   5.267   0.179   3.452  0.0195 -0.0525  0.3555
 8977TIP3    H126895   5.351   0.213   3.483 -0.8700  0.9362  1.8082
 8977TIP3    H226896   5.235   0.125   3.524  0.3084 -2.1303 -0.9944
 8978TIP3   OH226897   0.106   6.047   3.479 -0.2435  0.2744 -0.3039
 8978TIP3    H126898   0.181   6.077   3.530 -0.3025  0.8686 -0.5583
 8978TIP3    H226899   0.104   6.104   3.402 -0.6261 -0.0942 -0.5750
 8979TIP3   OH226900   6.284   6.388   5.459 -0.4929 -0.1835 -0.2119
 8979TIP3    H126901   6.219   6.406   5.526  1.1099  0.0909  1.3533
 8979TIP3    H226902   6.261   6.302   5.424 -0.6929 -0.8799  1.5515
 8980TIP3   OH226903   5.488   2.232   2.370 -0.3311 -0.1129  0.4894
 8980TIP3    H126904   5.436   2.156   2.396  0.4474 -0.6120  0.6243
 8980TIP3    H226905   5.578   2.206   2.389  0.0887  0.2252 -0.9936
 8981TIP3   OH226906   1.685   0.005   1.020  0.0689 -0.1599 -0.1049
 8981TIP3    H126907   1.602  -0.012   1.065  0.4712  0.5753  0.9570
 8981TIP3    H226908   1.661   0.056   0.943 -0.5596 -0.8080 -0.3500
 8982TIP3   OH226909   1.633   4.382   2.655 -0.0376 -0.1145 -0.8397
 8982TIP3    H126910   1.675   4.379   2.569  0.9679  0.4320 -0.3826
 8982TIP3    H226911   1.660   4.466   2.693  0.3609 -0.7827  0.4118
 8983TIP3   OH226912   6.875   3.875   1.824  0.0342 -0.0860  0.1864
 8983TIP3    H126913   6.828   3.804   1.781 -0.4361 -1.0777  2.2142
 8983TIP3    H226914   6.825   3.893   1.904  0.6999  1.8645  0.2202
 8984TIP3   OH226915   6.149   0.228   4.883 -0.3816  0.1925 -0.4667
 8984TIP3    H126916   6.101   0.206   4.962 -1.3249 -0.7617 -1.2781
 8984TIP3    H226917   6.107   0.308   4.850 -1.6458 -0.7785 -1.3137
 8985TIP3   OH226918   0.903   4.264   0.128 -0.4061  0.1362 -0.2702
 8985TIP3    H126919   0.995   4.263   0.104  0.2800 -0.8843  2.0554
 8985TIP3    H226920   0.887   4.353   0.159 -0.2246  0.3244 -0.7077
 8986TIP3   OH226921   4.834   2.792   0.446 -0.3966 -0.5012  0.0409
 8986TIP3    H126922   4.792   2.863   0.398 -0.5889  0.3376  1.3874
 8986TIP3    H226923   4.830   2.717   0.387 -1.1058  0.3389 -1.0170
 8987TIP3   OH226924   1.472   5.786   3.327  0.3813 -0.1448 -0.5192
 8987TIP3    H126925   1.407   5.853   3.306  2.4896  2.2683  0.1329
 8987TIP3    H226926   1.433   5.735   3.398 -1.4619  0.0520 -1.3423
 8988TIP3   OH226927   0.171   4.338   1.307  0.4104 -0.4431 -0.2842
 8988TIP3    H126928   0.077   4.347   1.325  0.1670 -1.7766 -0.7747
 8988TIP3    H226929   0.195   4.421   1.264 -0.6461 -0.2713 -0.5680
 8989TIP3   OH226930   3.234   0.364   2.642  0.2033 -0.3354 -0.3372
 8989TIP3    H126931   3.177   0.317   2.703  1.2586 -1.1579  0.0497
 8989TIP3    H226932   3.250   0.448   2.684 -0.4483 -0.2260 -0.2967
 8990TIP3   OH226933   1.974   1.022   4.235 -0.3228 -0.5168  0.0344
 8990TIP3    H126934   1.894   1.065   4.265 -1.9311 -2.1606 -1.6241
 8990TIP3    H226935   2.026   1.011   4.315 -2.1001 -0.1140  1.3164
 8991TIP3   OH226936   6.311   3.188   0.269 -0.6836  0.1829  0.1515
 8991TIP3    H126937   6.227   3.220   0.303 -0.1362  0.3997  1.3420
 8991TIP3    H226938   6.372   3.260   0.286  0.3943 -1.0949  2.1138
 8992TIP3   OH226939   6.469   2.872   4.983  0.5901 -0.1800 -0.1358
 8992TIP3    H126940   6.394   2.921   5.016  0.6416 -0.5958  0.6338
 8992TIP3    H226941   6.433   2.820   4.910  0.8573  2.0865 -1.9829
 8993TIP3   OH226942   3.451   3.349   2.664 -0.4616  0.2889  0.0881
 8993TIP3    H126943   3.547   3.349   2.656 -0.2481 -1.4040  1.8102
 8993TIP3    H226944   3.435   3.376   2.755 -1.6384  0.5212 -0.1707
 8994TIP3   OH226945   2.509   3.430   5.698  0.7822  0.1374 -0.3537
 8994TIP3    H126946   2.457   3.441   5.618  0.9757  0.7305 -0.4040
 8994TIP3    H226947   2.594   3.398   5.666 -0.0677 -2.6514 -0.1419
 8995TIP3   OH226948   0.413   0.574   4.761  0.4233 -0.5650  0.3870
 8995TIP3    H126949   0.417   0.667   4.783  1.3464 -0.9582  2.0314
 8995TIP3    H226950   0.475   0.565   4.689 -2.2812  0.6511 -2.3315
 8996TIP3   OH226951   1.307   4.254   3.568 -0.0627  0.0359  0.1405
 8996TIP3    H126952   1.241   4.298   3.514 -1.0734 -1.6467 -0.0614
 8996TIP3    H226953   1.275   4.164   3.577  1.9469 -0.6890  0.5111
 8997TIP3   OH226954   4.064   1.128   1.743 -0.0823 -0.6283  0.4301
 8997TIP3    H126955   4.058   1.084   1.657 -0.7594  0.0748  0.1062
 8997TIP3    H226956   4.028   1.064   1.804  0.4457 -1.1545  0.2018
 8998TIP3   OH226957   6.950   0.941   5.426 -0.5619 -0.9859 -0.3201
 8998TIP3    H126958   6.981   0.950   5.336  0.3334 -1.3697 -0.0586
 8998TIP3    H226959   6.863   0.901   5.418 -0.4678 -1.0543 -1.0120
 8999TIP3   OH226960   6.364   2.473   1.926  0.0736 -0.0949 -0.3420
 8999TIP3    H126961   6.386   2.526   2.003 -0.0037  0.1983 -0.5192
 8999TIP3    H226962   6.397   2.386   1.947  0.0225 -0.0251  0.0386
 9000TIP3   OH226963   0.500   6.188   2.130  0.0878 -0.2807  0.7129
 9000TIP3    H126964   0.584   6.198   2.173 -0.0271  0.6928  0.7327
 9000TIP3    H226965   0.449   6.130   2.187  1.0235 -1.6149  0.2620
 9001TIP3   OH226966   1.260   1.755   1.224 -0.0320  0.0475 -0.0808
 9001TIP3    H126967   1.282   1.825   1.286  0.0437  0.0116 -0.0675
 9001TIP3    H226968   1.208   1.693   1.275  0.7492 -0.4118  0.1738
 9002TIP3   OH226969   3.459   2.084   0.413  0.3573  0.3615  0.0391
 9002TIP3    H126970   3.457   2.048   0.501 -0.1686 -1.1208 -0.5576
 9002TIP3    H226971   3.545   2.058   0.379  0.5811  0.9777  0.1142
 9003TIP3   OH226972   3.780   4.940   0.164  0.2091  0.0973  0.2936
 9003TIP3    H126973   3.707   4.999   0.146  0.2798 -0.3364 -1.7192
 9003TIP3    H226974   3.840   4.992   0.218 -0.3692  1.3830 -0.2455
 9004TIP3   OH226975   6.597   5.525   0.206 -0.1914 -0.4381  0.3154
 9004TIP3    H126976   6.589   5.611   0.247 -0.2249 -0.5919  0.6326
 9004TIP3    H226977   6.537   5.469   0.255 -0.3222 -0.5923 -0.0235
 9005TIP3   OH226978   4.835   5.515   2.000 -0.2154 -0.0665  0.5791
 9005TIP3    H126979   4.912   5.463   2.025 -0.0585 -1.0026 -1.5886
 9005TIP3    H226980   4.871   5.600   1.975  0.2179 -0.6042 -0.7458
 9006TIP3   OH226981   2.284   3.733   1.936  0.4727  0.1939  0.4633
 9006TIP3    H126982   2.323   3.784   1.865 -0.6127  1.2545  0.5862
 9006TIP3    H226983   2.284   3.793   2.011  0.7554 -0.5909  1.0911
 9007TIP3   OH226984   5.404   1.138   5.755  0.1375 -0.4616 -0.3074
 9007TIP3    H126985   5.433   1.047   5.758 -0.4460 -0.6483  1.8205
 9007TIP3    H226986   5.357   1.146   5.672  1.1172 -1.7878 -1.0196
 9008TIP3   OH226987   0.601   1.688   1.732 -0.2248  0.1143 -0.2583
 9008TIP3    H126988   0.672   1.646   1.782 -0.7170 -1.4718 -0.8510
 9008TIP3    H226989   0.616   1.782   1.745  1.7783 -0.1794 -0.0828
 9009TIP3   OH226990   6.501   5.080   1.939  0.1484  0.4263  1.1781
 9009TIP3    H126991   6.578   5.040   1.898  0.2017  1.1181  0.5664
 9009TIP3    H226992   6.449   5.113   1.865 -0.0558  1.1744  1.6385
 9010TIP3   OH226993   3.307   4.163   2.209  0.1750  0.3385 -0.3642
 9010TIP3    H126994   3.400   4.170   2.230  0.2520 -2.2686  0.4973
 9010TIP3    H226995   3.291   4.234   2.147  2.4120  1.6726  0.4753
 9011TIP3   OH226996   0.054   1.226   4.633 -0.1938 -0.2906 -0.0474
 9011TIP3    H126997   0.137   1.238   4.679  0.0497  0.4598 -0.6661
 9011TIP3    H226998   0.078   1.222   4.541 -0.8441 -0.0593 -0.2334
 9012TIP3   OH226999   5.411   5.722   1.304  0.7243  0.2478 -0.1997
 9012TIP3    H127000   5.404   5.722   1.399  1.5841  1.2252 -0.1138
 9012TIP3    H227001   5.322   5.707   1.273 -0.1441  2.7805  0.7810
 9013TIP3   OH227002   4.302   4.310   5.331  0.3886 -0.0069 -0.3223
 9013TIP3    H127003   4.300   4.335   5.423 -0.1366  1.3417 -0.6816
 9013TIP3    H227004   4.221   4.346   5.294  0.5784 -0.5462 -1.3064
 9014TIP3   OH227005   0.217   3.638   5.378  0.0777 -0.3360 -0.4304
 9014TIP3    H127006   0.282   3.577   5.414  0.3378  0.3386  0.2826
 9014TIP3    H227007   0.208   3.613   5.286 -0.2327 -1.7952 -0.0203
 9015TIP3   OH227008   1.104   1.360   3.976 -0.2236 -0.4272 -0.4938
 9015TIP3    H127009   1.116   1.422   3.904 -2.9555  1.4375  0.4640
 9015TIP3    H227010   1.176   1.379   4.036 -1.0178  2.0039 -0.1931
 9016TIP3   OH227011   2.423   5.634   1.359  0.4913 -0.9074 -0.2348
 9016TIP3    H127012   2.389   5.657   1.446 -1.5585  0.8694 -1.4155
 9016TIP3    H227013   2.462   5.715   1.326 -1.0809 -0.7907 -1.9577
 9017TIP3   OH227014   5.575   0.505   5.235 -0.2504  0.3006  0.1219
 9017TIP3    H127015   5.517   0.485   5.309 -0.7261  1.0949 -0.0232
 9017TIP3    H227016   5.519   0.551   5.173  0.9086  2.7320  0.7442
 9018TIP3   OH227017   6.751   2.136   5.086 -0.3131 -0.3235 -0.3405
 9018TIP3    H127018   6.804   2.127   5.007  0.7677 -0.6195  0.3845
 9018TIP3    H227019   6.810   2.111   5.157 -0.2643  2.7335  0.8769
 9019TIP3   OH227020   5.554   1.661   5.039  0.0154 -0.3999  0.3841
 9019TIP3    H127021   5.645   1.633   5.049  1.0227  2.3943 -0.2244
 9019TIP3    H227022   5.533   1.643   4.947  1.0324  1.6548 -0.3087
 9020TIP3   OH227023   0.536   6.707   3.398 -0.1321 -0.6946 -0.7354
 9020TIP3    H127024   0.561   6.702   3.306 -0.8817 -0.5462 -0.9567
 9020TIP3    H227025   0.442   6.689   3.398 -0.2213 -0.2600 -0.0485
 9021TIP3   OH227026   3.377   6.025   2.539  0.6752 -0.0826  0.3551
 9021TIP3    H127027   3.388   6.000   2.448  1.3811  0.4354  0.2866
 9021TIP3    H227028   3.436   5.966   2.587  1.0726  0.3108  0.3629
 9022TIP3   OH227029   4.759   5.878   1.635  0.5785 -0.7260  0.2135
 9022TIP3    H127030   4.700   5.882   1.710  1.4487 -0.0047  0.8894
 9022TIP3    H227031   4.841   5.916   1.667  1.3546 -1.5203 -0.7474
 9023TIP3   OH227032   6.006   2.590   3.289  0.5515  0.6131 -0.6688
 9023TIP3    H127033   5.991   2.594   3.384  1.6003  0.7231 -0.4992
 9023TIP3    H227034   5.964   2.669   3.255 -0.9563 -0.0590 -0.4761
 9024TIP3   OH227035   4.522   0.455   5.808 -0.4202 -0.0303  0.1024
 9024TIP3    H127036   4.450   0.434   5.749 -0.5215  0.0399  0.2013
 9024TIP3    H227037   4.485   0.450   5.896 -0.4254  0.4519  0.1347
 9025TIP3   OH227038   0.253   4.672   2.797  0.3904  0.3090  0.2616
 9025TIP3    H127039   0.290   4.584   2.787 -1.4647 -0.5174  0.3179
 9025TIP3    H227040   0.220   4.694   2.710  2.0163  1.5616 -0.0939
 9026TIP3   OH227041   2.523   3.953   3.446  0.1187  0.0860 -0.1668
 9026TIP3    H127042   2.441   4.003   3.443  0.3960  0.5645  0.0889
 9026TIP3    H227043   2.532   3.916   3.358 -0.4471 -0.0928 -0.1514
 9027TIP3   OH227044   1.466   0.337   4.452 -0.3405 -0.0278 -0.0954
 9027TIP3    H127045   1.427   0.381   4.377 -2.4233 -2.7045 -0.7758
 9027TIP3    H227046   1.398   0.341   4.520  0.2521 -0.3519  0.5345
 9028TIP3   OH227047   4.184   3.253   1.773  0.5011  0.0803  0.5876
 9028TIP3    H127048   4.275   3.224   1.766  0.7596  1.1035 -0.8545
 9028TIP3    H227049   4.134   3.185   1.729  0.8610  0.7091 -0.8389
 9029TIP3   OH227050   6.806   3.813   3.131 -0.4724  0.0572  0.2523
 9029TIP3    H127051   6.813   3.908   3.143  1.0528  0.0884 -0.6944
 9029TIP3    H227052   6.722   3.801   3.087  1.0756  1.4545 -3.4852
 9030TIP3   OH227053   6.973   0.519   3.908  0.4457  0.4446 -0.2516
 9030TIP3    H127054   6.888   0.564   3.907 -0.3353 -0.9092 -2.4378
 9030TIP3    H227055   6.998   0.516   4.000 -2.3693  0.0125  0.5790
 9031TIP3   OH227056   0.826   5.131   3.461 -0.0781 -0.0231 -0.2236
 9031TIP3    H127057   0.892   5.115   3.529  0.0159 -1.7146 -0.6727
 9031TIP3    H227058   0.861   5.087   3.384 -0.9502  0.5161 -0.9386
 9032TIP3   OH227059   5.453   2.564   4.385 -0.0405  0.2118  0.3006
 9032TIP3    H127060   5.363   2.567   4.417 -0.1433 -0.0504  0.0436
 9032TIP3    H227061   5.445   2.539   4.293  0.3136 -0.1861  0.3732
 9033TIP3   OH227062   3.791   2.031   3.421 -0.1871 -0.9656 -0.6211
 9033TIP3    H127063   3.707   1.988   3.405  1.1616 -3.2330 -2.3206
 9033TIP3    H227064   3.778   2.122   3.396 -2.1210 -1.2641 -0.8007
 9034TIP3   OH227065   1.081   4.051   5.530  0.6970 -0.8246 -0.2770
 9034TIP3    H127066   1.166   4.014   5.505  0.6220 -0.7477 -0.6535
 9034TIP3    H227067   1.020   3.978   5.523  0.9734 -1.2604  1.4332
 9035TIP3   OH227068   2.431   5.764   4.250  0.1005 -0.1196 -0.4599
 9035TIP3    H127069   2.441   5.782   4.343 -2.6370  0.3568 -0.1910
 9035TIP3    H227070   2.493   5.823   4.207  0.5021  0.5399  0.9858
 9036TIP3   OH227071   5.352   6.161   3.755  0.1918  0.1711 -0.2859
 9036TIP3    H127072   5.391   6.129   3.836  0.5199  0.9429 -0.1253
 9036TIP3    H227073   5.258   6.147   3.766  0.2644 -0.0159  0.0999
 9037TIP3   OH227074   4.950   6.493   0.922 -0.2586  0.5342  0.2323
 9037TIP3    H127075   4.997   6.564   0.964 -0.3609 -0.2536  1.7253
 9037TIP3    H227076   4.884   6.536   0.869 -0.9491  1.5515  1.8599
 9038TIP3   OH227077   0.440   2.699   1.602  0.4250  0.4128  0.3791
 9038TIP3    H127078   0.533   2.699   1.581  0.3388  2.0738 -0.1491
 9038TIP3    H227079   0.398   2.657   1.527  0.6518  0.8028  0.0289
 9039TIP3   OH227080   5.316   1.706   1.630  0.5834 -0.1144  0.9442
 9039TIP3    H127081   5.336   1.618   1.598  4.1702  0.6369  0.7020
 9039TIP3    H227082   5.317   1.761   1.552 -0.2481  0.3719  1.2584
 9040TIP3   OH227083   0.386   4.703   0.239  0.0353 -0.2002  0.4163
 9040TIP3    H127084   0.310   4.651   0.212  0.0495  0.8216 -1.8327
 9040TIP3    H227085   0.442   4.641   0.287 -1.2835 -1.4649  0.3982
 9041TIP3   OH227086   2.114   1.747   4.378 -0.1080 -0.0038  0.1696
 9041TIP3    H127087   2.128   1.668   4.324  1.3543 -0.0766  0.6160
 9041TIP3    H227088   2.118   1.715   4.468  0.2776  0.5439  0.3475
 9042TIP3   OH227089   1.770   5.042   0.406  0.4354 -0.0854  0.4009
 9042TIP3    H127090   1.781   4.985   0.483 -1.3323 -3.2928 -1.4804
 9042TIP3    H227091   1.694   5.096   0.427  1.0615  0.3863  1.5602
 9043TIP3   OH227092   4.404   0.192   0.674 -0.0424 -0.0786  0.3051
 9043TIP3    H127093   4.367   0.133   0.608 -1.5340  0.8698  0.2452
 9043TIP3    H227094   4.436   0.134   0.743 -0.8102 -0.9811 -0.0796
 9044TIP3   OH227095   3.389   4.091   5.300  0.4431  0.5386  0.1627
 9044TIP3    H127096   3.434   4.110   5.217 -1.4712  0.3444 -0.9889
 9044TIP3    H227097   3.374   3.996   5.298  0.2649  0.5535  0.6654
 9045TIP3   OH227098   0.586   1.233   4.414 -0.1128 -0.2168 -0.2920
 9045TIP3    H127099   0.671   1.261   4.380 -0.8474  1.0564 -1.1999
 9045TIP3    H227100   0.555   1.168   4.351  0.1037 -0.5716 -0.0401
 9046TIP3   OH227101   5.893   5.906   0.161  0.2638  0.0427  0.1345
 9046TIP3    H127102   5.975   5.947   0.188  1.9330 -1.9917 -1.5231
 9046TIP3    H227103   5.875   5.945   0.075  0.1201 -0.3532 -0.0139
 9047TIP3   OH227104   1.231   2.115   0.143  0.2936 -0.2158 -0.5326
 9047TIP3    H127105   1.234   2.106   0.048  0.0509  0.8220 -0.6532
 9047TIP3    H227106   1.282   2.041   0.176  0.9277 -0.2193 -1.4867
 9048TIP3   OH227107   1.511   4.352   5.762  0.1417  0.4882  0.4255
 9048TIP3    H127108   1.506   4.303   5.845  0.7421  0.8642  0.6894
 9048TIP3    H227109   1.441   4.316   5.709  1.7001 -2.0369 -0.1062
 9049TIP3   OH227110   5.429   5.587   4.673  0.5641  0.0190  0.5334
 9049TIP3    H127111   5.497   5.522   4.653  1.5368  0.5137  2.0884
 9049TIP3    H227112   5.428   5.592   4.768 -1.1431  0.5925  0.5152
 9050TIP3   OH227113   2.860   6.140   2.295 -0.0397 -0.6356 -0.6076
 9050TIP3    H127114   2.937   6.111   2.344 -1.3818 -1.5061  1.0973
 9050TIP3    H227115   2.831   6.062   2.247 -0.8877 -0.8475  0.2115
 9051TIP3   OH227116   0.064   4.334   2.952 -0.5172 -0.0754  0.4086
 9051TIP3    H127117   0.097   4.317   3.040  0.0062  0.1991  0.2715
 9051TIP3    H227118   0.133   4.386   2.910 -0.9132  0.0893 -0.0495
 9052TIP3   OH227119   4.480   5.045   5.813  0.2963  0.2211 -0.1301
 9052TIP3    H127120   4.412   5.094   5.858 -0.2589 -1.7271  1.2744
 9052TIP3    H227121   4.552   5.107   5.803 -0.5051  1.4140  1.2134
 9053TIP3   OH227122   1.394   6.667   3.004 -0.2465 -0.8490  0.1822
 9053TIP3    H127123   1.398   6.577   3.034  0.1384 -0.5386  1.0873
 9053TIP3    H227124   1.440   6.717   3.071  0.6678 -0.1368 -0.9245
 9054TIP3   OH227125   5.403   3.074   2.874 -0.3229 -0.1794 -0.0122
 9054TIP3    H127126   5.465   3.071   2.946 -0.5202  0.3787  0.1813
 9054TIP3    H227127   5.394   2.983   2.846  1.3207 -0.1605 -0.6820
 9055TIP3   OH227128   0.657   6.758   0.961  0.5484  0.0702 -0.6008
 9055TIP3    H127129   0.737   6.808   0.942 -0.1386  0.9985 -1.1501
 9055TIP3    H227130   0.675   6.670   0.928  1.6377  0.0429  0.0124
 9056TIP3   OH227131   4.460   0.617   1.809 -0.2548 -0.0344  0.6565
 9056TIP3    H127132   4.508   0.663   1.739  1.4875 -1.7061  0.6867
 9056TIP3    H227133   4.482   0.665   1.888 -1.0834  0.9985  0.2928
 9057TIP3   OH227134   1.837   2.450   5.575 -0.6864  0.1263  0.2257
 9057TIP3    H127135   1.818   2.413   5.661 -1.4851 -0.6843 -0.2902
 9057TIP3    H227136   1.773   2.521   5.564 -2.1682 -1.2788 -0.6501
 9058TIP3   OH227137   0.676   4.395   5.374 -0.4534 -0.0665  0.1872
 9058TIP3    H127138   0.758   4.347   5.387 -0.8650 -1.3241 -1.3960
 9058TIP3    H227139   0.665   4.397   5.279 -2.2494  0.0784  0.3675
 9059TIP3   OH227140   6.457   3.130   1.070 -0.1461 -0.2804  0.0453
 9059TIP3    H127141   6.463   3.043   1.030  0.6741  0.5791 -1.8498
 9059TIP3    H227142   6.547   3.151   1.096 -0.2392  0.1867  0.0060
 9060TIP3   OH227143   3.115   6.044   1.257 -0.3960  0.1589 -0.4140
 9060TIP3    H127144   3.154   6.036   1.170  0.0277  1.4428 -0.3697
 9060TIP3    H227145   3.190   6.046   1.317 -0.6982 -1.0428  0.0207
 9061TIP3   OH227146   1.409   2.881   0.428 -0.0714  0.0854 -0.5418
 9061TIP3    H127147   1.441   2.944   0.364  0.3440 -1.1725 -1.6167
 9061TIP3    H227148   1.480   2.870   0.490  0.1338  0.1358 -0.7681
 9062TIP3   OH227149   5.871   3.479   2.279  0.1315  0.2954 -0.2213
 9062TIP3    H127150   5.915   3.399   2.252  1.1095  1.0395 -0.9096
 9062TIP3    H227151   5.895   3.490   2.371 -1.7356 -1.2917  0.5152
 9063TIP3   OH227152   5.381   4.924   5.010 -0.1166 -0.8960 -0.6914
 9063TIP3    H127153   5.392   5.017   4.992  0.7491 -0.8825 -0.1495
 9063TIP3    H227154   5.380   4.918   5.106 -1.9219 -1.2586 -0.7130
 9064TIP3   OH227155   6.232   3.200   3.937  0.3690  0.2692  0.4810
 9064TIP3    H127156   6.247   3.293   3.954 -0.7662  1.1375 -2.5949
 9064TIP3    H227157   6.249   3.189   3.844  0.6142 -2.6854  0.7640
 9065TIP3   OH227158   1.707   6.046   4.838  0.3538  0.4939 -0.0777
 9065TIP3    H127159   1.611   6.046   4.828  0.4262 -0.8141 -1.1046
 9065TIP3    H227160   1.722   6.023   4.930 -0.3463 -1.5278 -0.4080
 9066TIP3   OH227161   0.640   2.937   5.087  0.0305  0.4811 -0.3882
 9066TIP3    H127162   0.736   2.933   5.094  0.0317 -0.1146 -0.6666
 9066TIP3    H227163   0.619   3.028   5.106  0.7827  0.9794 -1.7834
 9067TIP3   OH227164   2.455   4.614   1.318  0.1334  0.0998  0.2234
 9067TIP3    H127165   2.406   4.695   1.312  0.6963  0.5412  1.2476
 9067TIP3    H227166   2.394   4.546   1.289 -0.4510  0.8392 -0.3084
 9068TIP3   OH227167   5.294   1.118   1.905 -0.1353  0.5382  0.1027
 9068TIP3    H127168   5.222   1.057   1.890  0.2367  0.3983 -1.2503
 9068TIP3    H227169   5.256   1.188   1.959 -1.1557  0.2363 -0.2088
 9069TIP3   OH227170   1.271   4.362   5.556 -0.1976 -0.3187 -0.8794
 9069TIP3    H127171   1.310   4.346   5.470  1.8164  0.4111 -0.1728
 9069TIP3    H227172   1.292   4.453   5.575 -0.0531 -0.6507  0.6479
 9070TIP3   OH227173   2.090   1.830   3.726 -0.1582 -0.4626 -0.1705
 9070TIP3    H127174   2.040   1.777   3.664  0.7086 -0.3756 -0.9723
 9070TIP3    H227175   2.125   1.766   3.789 -1.1087 -0.5420  0.3027
 9071TIP3   OH227176   1.459   0.390   3.128 -1.3053  0.3475  0.1768
 9071TIP3    H127177   1.493   0.419   3.044 -1.1603 -1.9729 -0.6417
 9071TIP3    H227178   1.412   0.465   3.163  0.8374  2.2254 -0.7348
 9072TIP3   OH227179   4.190   1.911   1.919  0.6573 -0.3359 -0.2393
 9072TIP3    H127180   4.283   1.929   1.932  0.2700  1.4743  0.2605
 9072TIP3    H227181   4.149   1.997   1.920 -1.3468 -1.2277  2.0951
 9073TIP3   OH227182   5.703   4.000   0.251 -0.0170  0.0609 -0.0236
 9073TIP3    H127183   5.774   3.938   0.266  1.2193  0.6104 -2.9511
 9073TIP3    H227184   5.644   3.956   0.190 -1.7494  0.0053  1.5882
 9074TIP3   OH227185   2.543   5.390   1.383 -0.3523  0.1246 -0.3532
 9074TIP3    H127186   2.617   5.369   1.327  1.1873  0.8842  1.2857
 9074TIP3    H227187   2.516   5.477   1.355 -1.0310 -0.3829 -1.3312
 9075TIP3   OH227188   4.435   4.962   1.329 -0.2244 -0.6346  0.5772
 9075TIP3    H127189   4.530   4.953   1.337 -0.2402 -0.1405  1.3945
 9075TIP3    H227190   4.407   4.880   1.288  0.4990 -0.9948  0.7896
 9076TIP3   OH227191   2.949   3.523   5.231  0.1965  0.9097  0.3970
 9076TIP3    H127192   2.868   3.573   5.240  0.5734  1.6137 -0.0638
 9076TIP3    H227193   2.984   3.547   5.145 -0.6813 -1.7534 -0.8149
 9077TIP3   OH227194   6.881   3.060   5.796  0.4847  0.4118  0.0135
 9077TIP3    H127195   6.870   3.145   5.838 -0.3424  0.0759  0.4953
 9077TIP3    H227196   6.937   3.077   5.721  0.2626  1.4007  0.0656
 9078TIP3   OH227197   4.132   2.989   2.007 -0.4712 -0.3149  0.0596
 9078TIP3    H127198   4.054   3.045   2.007 -0.2676 -0.0189  0.6307
 9078TIP3    H227199   4.106   2.911   1.959 -0.4104  0.7385 -1.7708
 9079TIP3   OH227200   1.482   5.648   1.843 -0.0302  0.0788 -0.1311
 9079TIP3    H127201   1.419   5.606   1.902  0.9220 -0.7010  0.3483
 9079TIP3    H227202   1.427   5.690   1.776 -1.0726 -0.2172  0.5142
 9080TIP3   OH227203   6.169   4.771   5.565 -0.5375  0.2314  0.0499
 9080TIP3    H127204   6.174   4.694   5.508  0.0483 -0.0934  0.5273
 9080TIP3    H227205   6.232   4.832   5.527 -1.7493  0.9241 -0.9509
 9081TIP3   OH227206   6.420   3.335   4.683  0.1859 -0.1933  0.3394
 9081TIP3    H127207   6.364   3.403   4.646 -0.1788 -0.2865  0.7170
 9081TIP3    H227208   6.509   3.361   4.657  0.0369  0.3554  0.3634
 9082TIP3   OH227209   2.600   1.344   2.035 -0.1373  0.4649  0.6139
 9082TIP3    H127210   2.505   1.357   2.029 -0.0843  0.7871  0.4334
 9082TIP3    H227211   2.611   1.274   2.099 -0.5020  0.3742  0.5789
 9083TIP3   OH227212   0.387   3.979   2.926 -0.3326  0.2637  0.3898
 9083TIP3    H127213   0.446   4.051   2.902 -1.5002  0.8625 -0.7732
 9083TIP3    H227214   0.355   3.945   2.843 -0.5080 -1.0400  0.9565
 9084TIP3   OH227215   2.555   5.910   4.985  0.2358  0.2003  0.0320
 9084TIP3    H127216   2.557   5.876   5.074  0.2064  0.6900  0.2223
 9084TIP3    H227217   2.639   5.883   4.948  0.7087  0.9203  0.5600
 9085TIP3   OH227218   2.189   4.399   2.667 -0.2653  0.1891  0.0009
 9085TIP3    H127219   2.125   4.470   2.660 -0.3301  0.0390 -1.0845
 9085TIP3    H227220   2.274   4.443   2.662 -0.2423  0.4033  1.5752
 9086TIP3   OH227221   1.404   4.140   4.815 -0.0013 -0.0409  0.0710
 9086TIP3    H127222   1.322   4.189   4.819  0.8441  1.6196 -1.4613
 9086TIP3    H227223   1.472   4.207   4.803  1.3424 -1.5060 -0.9259
 9087TIP3   OH227224   2.567   0.056   0.916 -0.3984  0.3539  0.4492
 9087TIP3    H127225   2.548   0.030   1.006 -1.7908 -0.6037 -0.0858
 9087TIP3    H227226   2.526   0.143   0.907 -0.7406  0.2113  0.5940
 9088TIP3   OH227227   0.764   1.979   0.513  0.0995 -0.2891 -0.0554
 9088TIP3    H127228   0.752   2.073   0.524 -0.7482 -0.3596 -0.3323
 9088TIP3    H227229   0.682   1.948   0.473 -0.8241 -1.5656  2.5613
 9089TIP3   OH227230   3.262   5.385   2.292  0.2288  0.4646 -0.4453
 9089TIP3    H127231   3.347   5.341   2.282  0.1907  0.1544  0.4568
 9089TIP3    H227232   3.214   5.363   2.212  1.0831  0.8471 -1.0753
 9090TIP3   OH227233   1.441   6.039   4.869 -0.3022  0.5176 -0.2230
 9090TIP3    H127234   1.370   6.092   4.906  0.6557  2.2367 -0.7907
 9090TIP3    H227235   1.404   5.950   4.866 -2.6658  1.4522 -1.0997
 9091TIP3   OH227236   1.862   3.951   5.267  0.0069 -0.0666 -0.3223
 9091TIP3    H127237   1.769   3.931   5.264 -0.1077  0.5265 -1.0500
 9091TIP3    H227238   1.889   3.957   5.175  1.1094 -1.7311 -0.1452
 9092TIP3   OH227239   1.452   1.052   4.163  0.0469 -0.3869 -0.2694
 9092TIP3    H127240   1.399   0.984   4.120 -0.4584 -0.9836  1.2334
 9092TIP3    H227241   1.524   1.068   4.102  0.1595 -2.2559 -0.6802
 9093TIP3   OH227242   6.701   4.844  -0.033 -0.2445  0.1182  0.2836
 9093TIP3    H127243   6.717   4.754  -0.004  3.6366  0.8072  0.8313
 9093TIP3    H227244   6.684   4.893   0.047  0.1681  0.2886  0.2689
 9094TIP3   OH227245   2.930   0.745   1.429 -0.0744 -0.4241 -0.2680
 9094TIP3    H127246   2.903   0.711   1.515 -2.2702 -1.8013 -1.4012
 9094TIP3    H227247   2.923   0.840   1.438  0.2276 -0.5149  1.2068
 9095TIP3   OH227248   2.950   4.366   4.442  0.2327 -0.2293 -0.1607
 9095TIP3    H127249   2.912   4.280   4.458  0.3469 -0.0385  1.2555
 9095TIP3    H227250   2.897   4.403   4.371 -0.0180 -1.3294 -0.5561
 9096TIP3   OH227251   6.898   6.248   0.583 -0.6017  0.1916 -0.3789
 9096TIP3    H127252   6.993   6.246   0.597 -0.2014  2.1089 -2.2764
 9096TIP3    H227253   6.863   6.292   0.660 -0.3180 -2.6362  1.5037
 9097TIP3   OH227254   2.771   6.263   5.086  0.4704  0.4346 -0.4334
 9097TIP3    H127255   2.686   6.262   5.041  1.1441 -1.0248 -1.7140
 9097TIP3    H227256   2.830   6.215   5.029  1.8860  0.3469  1.0367
 9098TIP3   OH227257   5.745   1.441   5.630 -0.3209 -0.1534 -0.0877
 9098TIP3    H127258   5.829   1.460   5.590 -0.6662  0.8523 -0.3698
 9098TIP3    H227259   5.747   1.347   5.648  1.1074 -0.0299  0.4982
 9099TIP3   OH227260   4.328   2.677   2.677  0.0490 -0.7610  0.1650
 9099TIP3    H127261   4.336   2.699   2.770  0.6046  0.5751 -0.1813
 9099TIP3    H227262   4.237   2.698   2.656  0.3829  0.5895  0.0102
 9100TIP3   OH227263   3.837   2.723   5.802  0.2539 -0.2096  0.2816
 9100TIP3    H127264   3.821   2.693   5.713 -0.8074  1.1375 -0.0170
 9100TIP3    H227265   3.932   2.717   5.814  0.3678 -0.7080 -0.8101
 9101TIP3   OH227266   3.110   6.109   5.845 -0.4925  0.3525  0.2514
 9101TIP3    H127267   3.126   6.180   5.783  0.4128 -1.9131 -2.2991
 9101TIP3    H227268   3.193   6.098   5.891 -0.4270  0.5225  0.1747
 9102TIP3   OH227269   2.137   0.534   4.251  0.3841  0.2201  0.3515
 9102TIP3    H127270   2.161   0.530   4.158 -1.9506  1.0820 -0.3365
 9102TIP3    H227271   2.176   0.615   4.282  0.5189  0.3185 -0.0674
 9103TIP3   OH227272   3.197   1.576   3.648  0.0176  0.3456  0.1791
 9103TIP3    H127273   3.229   1.501   3.699 -2.3603 -1.1979 -0.4669
 9103TIP3    H227274   3.102   1.572   3.655 -0.2371  3.9132  0.8604
 9104TIP3   OH227275   3.638   4.587   5.433  0.4598  0.4629 -0.3254
 9104TIP3    H127276   3.575   4.582   5.505  0.7504  1.9493  0.0644
 9104TIP3    H227277   3.690   4.665   5.452  2.6759 -0.9084 -0.4584
 9105TIP3   OH227278   1.693   0.042   2.269 -0.1774 -0.7937  0.4767
 9105TIP3    H127279   1.698  -0.001   2.355  1.5413 -1.4904  0.0745
 9105TIP3    H227280   1.743  -0.015   2.211 -0.2697  0.3057 -0.7296
 9106TIP3   OH227281   6.284   3.425   4.483 -0.3634 -0.6809  0.2684
 9106TIP3    H127282   6.355   3.419   4.419 -1.3591 -0.5629 -0.9028
 9106TIP3    H227283   6.238   3.341   4.475 -2.5809  0.5844 -1.7874
 9107TIP3   OH227284   1.706   5.951   1.074 -0.2176 -0.2950  0.4990
 9107TIP3    H127285   1.667   5.983   1.155  1.2976  1.5086  0.5681
 9107TIP3    H227286   1.699   6.025   1.013  1.6972 -0.4272  0.0629
 9108TIP3   OH227287   1.371   1.512   3.119  0.6200  0.3667  0.3675
 9108TIP3    H127288   1.435   1.453   3.079 -0.0457 -0.6655  0.7872
 9108TIP3    H227289   1.300   1.454   3.147  0.8026  1.1186  2.5117
 9109TIP3   OH227290   2.462   3.240   3.819  0.3326 -0.0642  0.2241
 9109TIP3    H127291   2.499   3.153   3.833  0.2315 -0.0565  0.5397
 9109TIP3    H227292   2.537   3.293   3.792  0.3212 -0.3393 -0.3627
 9110TIP3   OH227293   0.194   2.962   4.405 -0.1094  0.1999 -0.0367
 9110TIP3    H127294   0.268   2.907   4.429 -0.7347  0.1467  2.0187
 9110TIP3    H227295   0.174   2.939   4.314  1.4342 -0.8645 -0.1317
 9111TIP3   OH227296   6.689   5.720   5.331  0.0703 -0.1941 -0.3267
 9111TIP3    H127297   6.636   5.733   5.410  0.8193 -1.9852  0.5337
 9111TIP3    H227298   6.628   5.737   5.259 -0.5310  1.8324  0.5901
 9112TIP3   OH227299   5.843   5.949   3.092 -0.0386  0.1937  0.0322
 9112TIP3    H127300   5.908   6.019   3.084 -1.7789  1.8172 -0.5651
 9112TIP3    H227301   5.840   5.909   3.005 -2.0222  2.2356 -0.9469
 9113TIP3   OH227302   2.282   0.120   4.843 -0.0746  0.0137 -0.0887
 9113TIP3    H127303   2.372   0.089   4.838 -0.3115 -0.7997  0.4422
 9113TIP3    H227304   2.240   0.086   4.764 -0.0270  0.0434 -0.1271
 9114TIP3   OH227305   3.628   5.152   0.884  0.1024  0.0297 -0.1628
 9114TIP3    H127306   3.673   5.090   0.826 -0.2786 -1.1138  0.7215
 9114TIP3    H227307   3.560   5.192   0.829 -0.3618 -1.1542 -0.4695
 9115TIP3   OH227308   3.467   0.235   2.532 -0.5039  0.2662 -0.4743
 9115TIP3    H127309   3.450   0.141   2.537 -1.9184  0.5553  1.1047
 9115TIP3    H227310   3.381   0.275   2.534  0.1069  1.6616  2.3313
 9116TIP3   OH227311   2.711   6.020   5.775 -0.3889  0.6471  0.1093
 9116TIP3    H127312   2.631   6.063   5.743 -1.4783 -1.4514 -0.1668
 9116TIP3    H227313   2.711   6.039   5.869  0.0359  2.5015 -0.2120
 9117TIP3   OH227314   3.011   0.691   0.914  0.0733  0.3886  0.1808
 9117TIP3    H127315   2.975   0.607   0.943  0.6682  0.3266  0.7852
 9117TIP3    H227316   2.986   0.753   0.983 -0.2916  0.6864 -0.2210
 9118TIP3   OH227317   5.021   3.577   4.338  0.5800  0.1440  0.7318
 9118TIP3    H127318   4.986   3.666   4.344  0.7099  0.2648 -0.1879
 9118TIP3    H227319   5.033   3.562   4.245 -0.5904 -1.2928  0.7766
 9119TIP3   OH227320   2.500   6.059   4.761 -0.2425  0.4536  0.1117
 9119TIP3    H127321   2.490   6.011   4.844  0.4110  1.4215  0.7802
 9119TIP3    H227322   2.590   6.041   4.734 -0.6030 -0.2318 -0.6370
 9120TIP3   OH227323   2.513   4.431   0.195  0.4538 -0.0746  0.3930
 9120TIP3    H127324   2.492   4.493   0.124  0.6129  0.1122  0.5075
 9120TIP3    H227325   2.456   4.457   0.267 -1.0255 -1.3925 -0.2424
 9121TIP3   OH227326   4.227   0.337   4.265  0.5424 -0.2298 -0.4002
 9121TIP3    H127327   4.312   0.329   4.221  1.9818  0.4388  2.0761
 9121TIP3    H227328   4.222   0.429   4.290 -0.9752 -0.2533 -0.5264
 9122TIP3   OH227329   6.403   0.095   2.816 -0.7589 -0.0769 -0.4829
 9122TIP3    H127330   6.359   0.017   2.782 -0.6575 -0.2352 -0.2519
 9122TIP3    H227331   6.354   0.117   2.895 -1.3684  0.6439 -1.0388
 9123TIP3   OH227332   6.873   6.514   0.979 -0.7536  0.3568  0.1392
 9123TIP3    H127333   6.932   6.578   0.938 -0.4202  1.0400  1.6131
 9123TIP3    H227334   6.825   6.475   0.906  0.2810  1.0498 -0.9420
 9124TIP3   OH227335   3.037   6.661   4.919 -0.5088  0.1414  0.1244
 9124TIP3    H127336   2.946   6.653   4.888 -0.5992 -0.1074  0.4456
 9124TIP3    H227337   3.055   6.576   4.960  1.0085 -1.1301 -2.8716
 9125TIP3   OH227338   4.421   1.990   3.834 -0.4399  0.0789 -0.2731
 9125TIP3    H127339   4.488   2.056   3.852 -0.3458 -0.1913  0.3872
 9125TIP3    H227340   4.426   1.930   3.908  0.4346 -1.4755 -1.5247
 9126TIP3   OH227341   2.397   2.755   2.533 -0.0468 -0.3014  0.0487
 9126TIP3    H127342   2.322   2.740   2.590  0.3711  1.1000  1.0189
 9126TIP3    H227343   2.395   2.849   2.514  1.0776 -0.3566 -0.4502
 9127TIP3   OH227344   1.615   0.146   1.437 -0.2129  0.2706 -0.4658
 9127TIP3    H127345   1.580   0.113   1.520  0.9474 -0.2349 -0.1461
 9127TIP3    H227346   1.622   0.241   1.451  1.0704  0.0711  0.4890
 9128TIP3   OH227347   5.404   4.998   4.037 -0.0377  0.0391 -0.0405
 9128TIP3    H127348   5.318   4.964   4.062  0.4034 -1.1274 -0.0651
 9128TIP3    H227349   5.466   4.930   4.065  0.9018  0.9600  0.1718
 9129TIP3   OH227350   1.788   4.940   0.659 -0.1983  0.3217  0.3642
 9129TIP3    H127351   1.718   4.876   0.666 -0.5923  0.7644  0.5578
 9129TIP3    H227352   1.758   5.014   0.713 -0.1552  1.0146 -0.5319
 9130TIP3   OH227353   3.980   0.271   4.154  0.2373  0.3585  0.3616
 9130TIP3    H127354   4.019   0.233   4.075  0.9820  0.9337  0.4343
 9130TIP3    H227355   4.055   0.303   4.205 -0.1811 -0.5918  1.6261
 9131TIP3   OH227356   5.098   0.072   2.266  0.9240  0.3656 -0.2278
 9131TIP3    H127357   5.049   0.125   2.329  1.8058  0.6829  0.2185
 9131TIP3    H227358   5.076   0.109   2.181  3.5824  3.3553  0.1811
 9132TIP3   OH227359   0.305   4.936   1.368 -0.0630 -0.2934  0.4954
 9132TIP3    H127360   0.276   4.978   1.449  0.5658 -0.1696  0.6623
 9132TIP3    H227361   0.224   4.920   1.319 -0.2441  2.7689 -0.4034
 9133TIP3   OH227362   2.643   2.675   3.218  0.3533  0.4696  0.1602
 9133TIP3    H127363   2.618   2.585   3.199  0.6920  0.4380 -0.1459
 9133TIP3    H227364   2.738   2.674   3.218  0.3602  0.8674 -0.0406
 9134TIP3   OH227365   0.768   1.224   4.852 -0.4667  0.8746 -0.3951
 9134TIP3    H127366   0.800   1.180   4.931 -0.4619  2.1479  0.3469
 9134TIP3    H227367   0.848   1.247   4.804 -0.5022 -0.9203 -1.3844
 9135TIP3   OH227368   4.062   1.010   3.372  0.1034  0.1065  0.4320
 9135TIP3    H127369   4.077   1.070   3.299  2.6785 -0.7490  0.1361
 9135TIP3    H227370   3.995   1.053   3.425 -1.2891  1.1048 -2.0071
 9136TIP3   OH227371   7.034   1.918   5.711  0.7367 -0.0641  0.0810
 9136TIP3    H127372   6.999   1.921   5.800 -0.9008  1.4971 -0.5632
 9136TIP3    H227373   6.972   1.864   5.662  0.4837  0.7783 -0.5542
 9137TIP3   OH227374   2.860   0.895   2.721  0.2227 -0.0285  0.4237
 9137TIP3    H127375   2.855   0.802   2.745  2.0144  0.2707  2.2424
 9137TIP3    H227376   2.916   0.934   2.788  0.0178  2.2726 -0.6451
 9138TIP3   OH227377   2.990   2.588   1.740 -0.4692  0.2229  1.1766
 9138TIP3    H127378   2.915   2.547   1.783 -2.2332  0.0103 -1.8335
 9138TIP3    H227379   2.979   2.682   1.757 -0.8144  0.1025  1.6356
 9139TIP3   OH227380   2.050   5.818   5.767 -0.1003  0.0789  0.6174
 9139TIP3    H127381   2.105   5.739   5.764 -1.4613 -0.8932  0.1421
 9139TIP3    H227382   1.972   5.795   5.717 -0.8075  1.5350  0.9845
 9140TIP3   OH227383   6.210   3.680   5.334 -0.2278 -0.2071  0.3055
 9140TIP3    H127384   6.207   3.673   5.429  0.3579 -0.0256  0.3435
 9140TIP3    H227385   6.263   3.758   5.317 -0.5467 -0.0898 -0.1663
 9141TIP3   OH227386   1.403   0.421   1.280  0.3987  0.2158 -0.6307
 9141TIP3    H127387   1.433   0.482   1.213  0.3386 -1.0572 -1.8730
 9141TIP3    H227388   1.310   0.441   1.290  0.6812  1.2768  0.0560
 9142TIP3   OH227389   0.750   1.255   5.274  0.1427 -0.5938 -0.1513
 9142TIP3    H127390   0.808   1.273   5.348 -1.0028  0.0654  0.6188
 9142TIP3    H227391   0.686   1.326   5.275 -0.8142 -1.4020 -0.8252
 9143TIP3   OH227392   4.765   6.205   2.492  0.9083 -0.4517 -0.0249
 9143TIP3    H127393   4.726   6.118   2.489 -1.6477  0.5430  1.0813
 9143TIP3    H227394   4.836   6.198   2.556  0.9431 -1.7863 -0.1907
 9144TIP3   OH227395   7.188   3.485   3.156 -0.2572  0.5594  0.2007
 9144TIP3    H127396   7.281   3.500   3.139 -0.3073 -1.1692 -2.1271
 9144TIP3    H227397   7.143   3.537   3.089 -0.8211 -0.7792 -0.4848
 9145TIP3   OH227398   2.561   4.024   4.902  0.0124  0.2886 -0.2893
 9145TIP3    H127399   2.563   3.929   4.911 -0.5351  0.3751  0.9801
 9145TIP3    H227400   2.615   4.057   4.974  0.0130  0.9453 -0.5788
 9146TIP3   OH227401   3.123   3.068   5.766  0.0286  0.1740 -0.6535
 9146TIP3    H127402   3.059   3.007   5.729  1.1464 -1.1431 -0.4764
 9146TIP3    H227403   3.150   3.027   5.848  1.2210  0.6272 -0.8119
 9147TIP3   OH227404   0.657   5.922   1.729  0.1392  0.2875  0.0130
 9147TIP3    H127405   0.733   5.905   1.674 -0.0245 -2.0614  0.3988
 9147TIP3    H227406   0.691   5.923   1.819 -0.2552 -0.7757  0.1864
 9148TIP3   OH227407   1.488   6.724   1.005 -0.1381  0.3603 -0.1801
 9148TIP3    H127408   1.498   6.735   1.100 -1.4496  1.2056 -0.1120
 9148TIP3    H227409   1.543   6.649   0.984  1.5640  1.2022  0.9636
 9149TIP3   OH227410   6.018   3.442   3.341  0.1188 -0.3826  0.4590
 9149TIP3    H127411   6.022   3.346   3.347  0.8225 -0.5319 -1.5065
 9149TIP3    H227412   6.074   3.473   3.412  0.1843 -1.4317  0.8826
 9150TIP3   OH227413   3.477   2.536   2.386  0.3313 -0.1307 -0.3717
 9150TIP3    H127414   3.556   2.585   2.362  0.7935  0.0230  1.3298
 9150TIP3    H227415   3.469   2.468   2.318 -0.5000  2.3813 -2.9767
 9151TIP3   OH227416   3.194   3.365   5.185  0.7080 -0.7925 -0.0285
 9151TIP3    H127417   3.135   3.418   5.238  0.5418 -0.2889 -0.7050
 9151TIP3    H227418   3.264   3.425   5.160 -0.1083 -0.5202 -1.8335
 9152TIP3   OH227419   5.287   2.748   3.890 -0.0798  0.5043 -0.4478
 9152TIP3    H127420   5.341   2.727   3.814 -2.3180  1.3677 -2.4346
 9152TIP3    H227421   5.238   2.668   3.908  0.1607  0.4218 -0.1442
 9153TIP3   OH227422   3.465   1.380   5.894  0.2633 -0.8216  0.3733
 9153TIP3    H127423   3.473   1.427   5.811  0.4406  1.7388  1.7501
 9153TIP3    H227424   3.389   1.324   5.883 -1.7428  1.8836 -0.4694
 9154TIP3   OH227425   4.215   4.723   3.571  0.2161 -0.0495 -0.3805
 9154TIP3    H127426   4.125   4.755   3.577 -0.5419 -2.1715  0.7928
 9154TIP3    H227427   4.269   4.801   3.581 -1.4876  1.0066  1.4265
 9155TIP3   OH227428   2.827   0.581   3.238 -0.5011 -0.0516 -0.2164
 9155TIP3    H127429   2.791   0.513   3.180  2.0943 -0.6342 -1.2918
 9155TIP3    H227430   2.780   0.661   3.214 -3.3101 -1.2794  0.7614
 9156TIP3   OH227431   2.405   5.376   4.975 -0.6062 -0.6051 -0.5510
 9156TIP3    H127432   2.440   5.452   4.927  1.0469 -0.6539  0.5132
 9156TIP3    H227433   2.313   5.373   4.950 -0.1596  0.2917 -2.5184
 9157TIP3   OH227434   1.208   4.707   0.948  0.2118  0.0171  0.3145
 9157TIP3    H127435   1.218   4.742   1.037 -2.3712 -2.4155  1.7115
 9157TIP3    H227436   1.173   4.780   0.898 -4.4212 -0.0082  2.9529
 9158TIP3   OH227437   4.242   6.731   5.196  0.1054 -0.1251  0.3288
 9158TIP3    H127438   4.208   6.735   5.285  0.1590  1.9312  0.3156
 9158TIP3    H227439   4.321   6.786   5.198 -0.2249  0.4413 -1.1040
 9159TIP3   OH227440   4.879   3.425   3.173  0.0287  0.0269 -0.1013
 9159TIP3    H127441   4.933   3.352   3.202 -1.8711 -1.3464  0.1790
 9159TIP3    H227442   4.913   3.448   3.087  0.6086 -1.2646 -0.2380
 9160TIP3   OH227443   4.148   2.372   0.416  0.2689 -0.0030 -0.3882
 9160TIP3    H127444   4.209   2.306   0.450  0.2267  0.7061  1.1279
 9160TIP3    H227445   4.193   2.408   0.339  0.5007 -1.4432 -0.9645
 9161TIP3   OH227446   4.468   2.786   1.874 -0.1144  0.3685 -0.0955
 9161TIP3    H127447   4.447   2.839   1.951  0.2920 -0.3549  0.5174
 9161TIP3    H227448   4.490   2.700   1.909 -0.5541 -0.1539 -1.0660
 9162TIP3   OH227449   1.904   1.330   4.900  0.3479  0.2711  0.1388
 9162TIP3    H127450   1.830   1.269   4.896 -1.2389  1.8988  2.0677
 9162TIP3    H227451   1.892   1.388   4.825  0.6364 -0.4716 -0.4885
 9163TIP3   OH227452   6.873   0.153   0.103 -0.0659  0.3596  0.3448
 9163TIP3    H127453   6.792   0.188   0.141  0.0446  1.4141 -0.3327
 9163TIP3    H227454   6.847   0.121   0.016 -0.0154 -0.5612  0.6662
 9164TIP3   OH227455   3.131   4.778   3.219 -0.2804  0.0561 -0.0685
 9164TIP3    H127456   3.129   4.872   3.236 -0.6447 -0.0442  0.4588
 9164TIP3    H227457   3.196   4.744   3.281 -1.2496 -0.2409  0.8171
 9165TIP3   OH227458   1.437   5.014   3.454 -0.4531  0.6819  0.1844
 9165TIP3    H127459   1.522   4.979   3.480  0.9840  1.3180 -3.1393
 9165TIP3    H227460   1.430   5.097   3.501 -0.3378 -0.3784  2.1848
 9166TIP3   OH227461   2.235   6.257   3.196 -0.4801  0.0385  0.7348
 9166TIP3    H127462   2.289   6.336   3.194 -0.2649 -0.1023 -1.3412
 9166TIP3    H227463   2.197   6.252   3.108 -2.2071 -1.0197  1.4744
 9167TIP3   OH227464   5.950   5.847   2.802  0.3090  0.0447 -0.0703
 9167TIP3    H127465   5.916   5.910   2.738 -1.1174  1.3260  1.8508
 9167TIP3    H227466   5.967   5.768   2.751 -0.1424  1.2146 -2.1418
 9168TIP3   OH227467   1.048   4.417   2.324  0.1437 -0.2319  0.5239
 9168TIP3    H127468   1.130   4.422   2.372  0.2333  1.7320  0.2887
 9168TIP3    H227469   1.035   4.506   2.290 -2.0840 -0.4747  0.5562
 9169TIP3   OH227470   4.067   2.710   0.869  0.3899 -0.0351 -0.6371
 9169TIP3    H127471   4.121   2.722   0.791  1.2885 -1.3714 -0.2722
 9169TIP3    H227472   4.004   2.782   0.867  0.5862  0.1214 -2.4193
 9170TIP3   OH227473   2.176   1.363   1.491  0.7889 -0.0623 -0.0944
 9170TIP3    H127474   2.202   1.328   1.406 -0.0513 -0.8321 -0.0489
 9170TIP3    H227475   2.081   1.374   1.484  0.6819 -0.3343  0.8052
 9171TIP3   OH227476   4.877   4.928   1.970  0.1429  0.2612 -0.3962
 9171TIP3    H127477   4.944   4.863   1.946  0.3924 -0.2134  1.4124
 9171TIP3    H227478   4.813   4.878   2.021 -0.1276  1.2589  0.2634
 9172TIP3   OH227479   2.176   5.962   1.479 -0.2044  0.5156 -0.3143
 9172TIP3    H127480   2.246   6.026   1.466  0.3364 -0.2279 -1.1617
 9172TIP3    H227481   2.164   5.922   1.394 -0.5026 -0.5521  0.2189
 9173TIP3   OH227482   5.068   2.123   2.481  0.5902 -0.2689 -0.2913
 9173TIP3    H127483   4.991   2.175   2.458  0.6525  0.3636  0.8613
 9173TIP3    H227484   5.049   2.036   2.447 -0.8055 -0.2176  0.2890
 9174TIP3   OH227485   2.130   1.464   2.441  0.7065 -0.0500  0.0529
 9174TIP3    H127486   2.199   1.433   2.499  1.1842  1.1964  0.1748
 9174TIP3    H227487   2.144   1.559   2.434 -1.0685  0.2699  0.1966
 9175TIP3   OH227488   5.709   1.284   0.347 -0.0806 -0.6288 -0.1008
 9175TIP3    H127489   5.631   1.277   0.293 -2.2958 -1.2757  2.9180
 9175TIP3    H227490   5.727   1.193   0.374  1.4879 -0.4320 -0.3802
 9176TIP3   OH227491   3.932   4.114   4.773 -0.6119  0.2955  0.2007
 9176TIP3    H127492   4.003   4.098   4.835 -1.2221  1.2805  1.2041
 9176TIP3    H227493   3.891   4.028   4.762 -0.2585  0.0265  0.8868
 9177TIP3   OH227494   6.470   6.419   3.915 -0.4213 -0.2133 -0.0841
 9177TIP3    H127495   6.546   6.390   3.964 -0.1803  0.3701 -0.1006
 9177TIP3    H227496   6.436   6.493   3.965 -1.8005 -1.3019  0.6596
 9178TIP3   OH227497   5.547   2.006   3.690  0.1406 -0.3485  0.2500
 9178TIP3    H127498   5.595   2.069   3.637  1.9028 -0.5494  1.5106
 9178TIP3    H227499   5.591   1.922   3.675 -1.0296 -0.9355 -0.0127
 9179TIP3   OH227500   2.324   0.591   0.194  0.2177  0.4052  0.2779
 9179TIP3    H127501   2.396   0.532   0.172 -0.5516  0.3764 -2.4242
 9179TIP3    H227502   2.251   0.533   0.214  0.2607  0.4461  0.5599
 9180TIP3   OH227503   6.757   3.160   1.927  0.1284 -0.7670  0.1512
 9180TIP3    H127504   6.768   3.131   1.837 -1.4146  0.2382 -0.3988
 9180TIP3    H227505   6.667   3.192   1.932  0.7658  1.0298  1.5084
 9181TIP3   OH227506   5.164   1.928   0.610  0.1939 -0.7777 -0.3328
 9181TIP3    H127507   5.087   1.920   0.555 -1.0065  1.2194  0.9336
 9181TIP3    H227508   5.130   1.950   0.697  2.1543 -0.2265  0.3648
 9182TIP3   OH227509   6.773   4.679   4.830  0.4124  0.3023 -0.5928
 9182TIP3    H127510   6.839   4.721   4.774  0.1005  0.2486 -1.0111
 9182TIP3    H227511   6.808   4.687   4.919  0.2177  1.7693 -0.6135
 9183TIP3   OH227512   6.985   0.595   1.279  0.1439  0.0465 -0.2252
 9183TIP3    H127513   6.955   0.507   1.302  0.1507  0.5573  1.8717
 9183TIP3    H227514   6.905   0.639   1.248 -0.5017  0.1769  1.5322
 9184TIP3   OH227515   6.904   3.610   0.179 -0.0259  0.2200  0.2355
 9184TIP3    H127516   6.919   3.698   0.213  1.1577 -0.4826  1.7028
 9184TIP3    H227517   6.958   3.554   0.235  0.1396 -1.3180 -1.3721
 9185TIP3   OH227518   4.999   1.053   1.881  0.4770  0.1965  0.2263
 9185TIP3    H127519   4.941   1.129   1.894  0.8536  0.9184 -1.8116
 9185TIP3    H227520   4.977   1.023   1.793  1.2567 -1.2745  0.5182
 9186TIP3   OH227521   2.571   2.227   1.561  0.1507  0.1944  0.1336
 9186TIP3    H127522   2.636   2.157   1.558  0.0802  0.1261  0.1886
 9186TIP3    H227523   2.506   2.201   1.495  0.2448  0.3277 -0.0126
 9187TIP3   OH227524   3.644   4.911   4.723 -1.0586  0.3715 -0.4662
 9187TIP3    H127525   3.734   4.897   4.751 -0.7886  2.5640 -0.0446
 9187TIP3    H227526   3.595   4.919   4.805 -1.2848  1.0094 -0.6543
 9188TIP3   OH227527   3.494   6.345   2.863 -0.0479 -0.4246 -0.9385
 9188TIP3    H127528   3.497   6.426   2.913  1.6529 -1.5079  0.8789
 9188TIP3    H227529   3.402   6.334   2.840 -1.0824 -0.0885  2.4429
 9189TIP3   OH227530   0.466   0.604   1.801  0.4201  0.2467  1.4069
 9189TIP3    H127531   0.472   0.512   1.776  1.1819  0.0116  2.4053
 9189TIP3    H227532   0.494   0.606   1.893  0.6106  1.5014  1.3365
 9190TIP3   OH227533   1.921   2.387   1.552 -0.2621 -0.1258 -0.0552
 9190TIP3    H127534   1.902   2.462   1.496  1.9374  0.4017 -0.1693
 9190TIP3    H227535   1.916   2.312   1.493  1.8333  0.4016 -0.9936
 9191TIP3   OH227536   2.508   1.623   4.364  0.5235  0.2416  0.2946
 9191TIP3    H127537   2.599   1.616   4.390  0.5200 -2.0917 -0.1228
 9191TIP3    H227538   2.508   1.683   4.289  1.3442  2.0982  1.7114
 9192TIP3   OH227539   6.631   0.236   1.780 -0.0439 -0.4170  0.1597
 9192TIP3    H127540   6.698   0.228   1.848 -0.4411  0.1133  0.6250
 9192TIP3    H227541   6.557   0.278   1.824 -0.6879 -0.9902 -0.3467
 9193TIP3   OH227542   2.656   3.591   2.977  0.1283 -0.4369 -0.0936
 9193TIP3    H127543   2.602   3.637   2.913 -0.7829  0.2501  1.1196
 9193TIP3    H227544   2.686   3.660   3.037  0.3935 -1.1423  0.6027
 9194TIP3   OH227545   4.785   2.093   1.660  0.7705 -0.5045  0.1269
 9194TIP3    H127546   4.795   2.132   1.747  0.8906 -0.0216 -0.0983
 9194TIP3    H227547   4.759   2.167   1.604 -0.7597 -1.0869  0.0388
 9195TIP3   OH227548   5.009   0.050   1.394  0.1170  0.0328 -0.4608
 9195TIP3    H127549   4.976   0.118   1.335 -2.4955 -0.1760  0.6461
 9195TIP3    H227550   4.931   0.015   1.437  1.7516 -0.8562  2.0184
 9196TIP3   OH227551   1.062   0.354   4.211 -0.0278 -0.1224 -0.3964
 9196TIP3    H127552   0.988   0.296   4.195 -0.5106 -0.0560  1.4332
 9196TIP3    H227553   1.138   0.307   4.175 -0.5715 -1.3636  0.0498
 9197TIP3   OH227554   1.890   1.022   3.338 -0.3010  0.5284 -0.4936
 9197TIP3    H127555   1.819   1.039   3.277 -1.4352  1.0863  0.9066
 9197TIP3    H227556   1.914   0.930   3.322 -2.1660 -0.0544 -0.2229
 9198TIP3   OH227557   3.174   4.516   5.478  0.1578 -0.7863  0.2885
 9198TIP3    H127558   3.181   4.424   5.506 -0.1954 -0.3645  1.8534
 9198TIP3    H227559   3.254   4.556   5.511  0.6565 -0.6519 -1.0144
 9199TIP3   OH227560   2.345   4.960   0.312  0.5807  0.5494  0.0448
 9199TIP3    H127561   2.383   5.006   0.388  1.1782  0.5698 -0.2582
 9199TIP3    H227562   2.251   4.974   0.320  0.5649 -0.0131  1.1637
 9200TIP3   OH227563   3.156   6.644   2.156  1.0716 -0.6166 -0.7012
 9200TIP3    H127564   3.065   6.669   2.171  1.4240 -0.0617  0.6130
 9200TIP3    H227565   3.157   6.549   2.163  0.9375 -0.4973  1.4587
 9201TIP3   OH227566   6.610   3.165   5.620  0.5264 -0.1093  0.1009
 9201TIP3    H127567   6.549   3.121   5.561  0.0947 -0.5057  0.8332
 9201TIP3    H227568   6.650   3.094   5.671  0.3026  0.2876  0.8415
 9202TIP3   OH227569   5.056   2.629   4.695  0.0802  0.3085  0.7387
 9202TIP3    H127570   4.990   2.685   4.736  0.4999  2.3851 -1.2037
 9202TIP3    H227571   5.134   2.638   4.749 -0.4575 -0.1352  1.6165
 9203TIP3   OH227572   4.701   3.447   4.287  0.2547 -0.0935 -0.0465
 9203TIP3    H127573   4.656   3.364   4.304  1.1521 -1.1185 -2.2978
 9203TIP3    H227574   4.790   3.422   4.263  0.3430  1.4385 -1.5146
 9204TIP3   OH227575   1.037   1.675   4.736  0.4100  0.4181  0.0418
 9204TIP3    H127576   1.105   1.742   4.738  0.5382  0.2735  0.6167
 9204TIP3    H227577   0.957   1.722   4.714  0.4761  0.7811  0.5662
 9205TIP3   OH227578   0.838   5.978   2.247 -0.1204 -0.1576  0.2271
 9205TIP3    H127579   0.847   5.890   2.283 -1.2925 -0.0743  0.7405
 9205TIP3    H227580   0.765   6.017   2.294 -0.4491  0.6472 -0.8968
 9206TIP3   OH227581   0.256   3.909   5.277  0.1717  0.1103 -0.3961
 9206TIP3    H127582   0.289   3.996   5.300  2.9147 -0.4433 -1.7980
 9206TIP3    H227583   0.309   3.849   5.330 -0.0018 -0.7776 -1.2053
 9207TIP3   OH227584   5.544   1.679   1.363 -0.1683  0.4933  0.4928
 9207TIP3    H127585   5.472   1.740   1.375 -0.8741 -0.6709  2.7798
 9207TIP3    H227586   5.611   1.730   1.317 -2.4468  1.5350 -1.8980
 9208TIP3   OH227587   0.837   1.654   5.360  0.5595  0.3911 -0.0278
 9208TIP3    H127588   0.870   1.744   5.353  1.6198  0.0072 -0.0725
 9208TIP3    H227589   0.763   1.651   5.299  1.2322  0.9171 -0.8827
 9209TIP3   OH227590   5.857   0.823   2.988 -0.4986  0.6418 -0.5369
 9209TIP3    H127591   5.911   0.874   2.927  1.7712 -0.0738  0.7703
 9209TIP3    H227592   5.842   0.740   2.942  0.1745  0.5623 -0.6223
 9210TIP3   OH227593   1.887   3.051   0.276  0.1887 -0.0016  0.0436
 9210TIP3    H127594   1.806   3.007   0.301  0.2883 -0.6663 -0.7472
 9210TIP3    H227595   1.955   3.007   0.328  0.5645 -2.2292 -2.1626
 9211TIP3   OH227596   4.682   0.435   1.927  0.4456  0.3631 -0.1360
 9211TIP3    H127597   4.603   0.479   1.896  0.8425  0.0947 -1.5990
 9211TIP3    H227598   4.658   0.403   2.014 -1.5104 -0.7830 -1.0019
 9212TIP3   OH227599   4.037   4.849   3.796 -0.3844  0.0532  0.3312
 9212TIP3    H127600   4.126   4.873   3.772 -0.2732 -0.9745 -0.3621
 9212TIP3    H227601   4.038   4.843   3.892 -0.0948  1.4536  0.4290
 9213TIP3   OH227602   0.559   2.701   0.178  0.1364  0.2592  0.4643
 9213TIP3    H127603   0.582   2.694   0.086  0.7861 -0.5295  0.6777
 9213TIP3    H227604   0.469   2.734   0.178  0.0754  0.1123 -0.4495
 9214TIP3   OH227605   3.844   2.873   1.426 -0.3687 -0.1977  0.0446
 9214TIP3    H127606   3.787   2.821   1.371  0.5365 -0.2259 -0.8944
 9214TIP3    H227607   3.871   2.814   1.497  0.7204 -1.0720 -1.0572
 9215TIP3   OH227608   2.250   0.377   2.336  0.1698 -0.2734  0.0352
 9215TIP3    H127609   2.216   0.394   2.424 -1.0103  0.3241 -0.5177
 9215TIP3    H227610   2.204   0.439   2.280  1.5158 -0.0847 -0.8967
 9216TIP3   OH227611   3.304   1.075   2.226  0.4788  0.1561  0.3139
 9216TIP3    H127612   3.367   1.134   2.185  0.0867  0.2854 -0.1224
 9216TIP3    H227613   3.306   0.996   2.173  1.1851 -0.3280  1.0473
 9217TIP3   OH227614   6.934   0.843   4.203 -0.6748  0.2438  0.3207
 9217TIP3    H127615   6.868   0.842   4.134 -0.8486  1.4255  0.4447
 9217TIP3    H227616   6.948   0.936   4.221  1.0303  0.0311  0.2891
 9218TIP3   OH227617   1.923   5.815   3.039  0.3659 -0.2103  0.0945
 9218TIP3    H127618   2.015   5.815   3.063  0.3723 -0.8147  0.0839
 9218TIP3    H227619   1.884   5.885   3.093  0.9120  0.3773 -0.2574
 9219TIP3   OH227620   1.369   1.929   0.288  0.4607 -0.4490 -0.0007
 9219TIP3    H127621   1.464   1.924   0.294  0.6813  2.2938 -0.0169
 9219TIP3    H227622   1.339   1.940   0.378  0.1595 -1.2947  0.0041
 9220TIP3   OH227623   0.671   0.905   2.193 -0.2745 -0.4547  0.1878
 9220TIP3    H127624   0.762   0.922   2.168 -1.5682  1.7933 -4.1082
 9220TIP3    H227625   0.649   0.977   2.252  0.6057 -0.8539  1.0264
 9221TIP3   OH227626   4.899   0.044   2.488  0.1207  0.0283 -0.1216
 9221TIP3    H127627   4.845   0.100   2.543 -0.2835 -1.4390  1.0498
 9221TIP3    H227628   4.837  -0.018   2.449  0.7667 -0.8446  0.2002
 9222TIP3   OH227629   3.078   2.974   1.946 -0.0887 -0.8263 -0.1113
 9222TIP3    H127630   3.134   3.038   1.901  0.1872 -0.0403  1.2889
 9222TIP3    H227631   3.043   2.919   1.876 -0.3417  0.8630 -1.3620
 9223TIP3   OH227632   3.548   3.109   3.499  0.2540 -0.2974 -0.1778
 9223TIP3    H127633   3.505   3.146   3.422 -0.4886  2.2418  1.3167
 9223TIP3    H227634   3.476   3.089   3.559  0.8463 -1.7479  0.0862
 9224TIP3   OH227635   1.589   5.835   2.805  0.3782 -0.0088 -0.3037
 9224TIP3    H127636   1.658   5.900   2.820  1.6725 -1.1589 -1.0569
 9224TIP3    H227637   1.635   5.751   2.803 -1.3172 -1.0436  1.1926
 9225TIP3   OH227638   2.836   4.032   0.318  0.3417 -0.6054 -0.0613
 9225TIP3    H127639   2.849   4.121   0.352  2.1083 -0.6321 -0.5374
 9225TIP3    H227640   2.860   4.038   0.225  0.0283 -1.4734 -0.2095
 9226TIP3   OH227641   3.849   4.006   1.507 -0.0523  0.0620  0.3303
 9226TIP3    H127642   3.844   3.981   1.599  1.6462  1.9723  1.0049
 9226TIP3    H227643   3.761   4.037   1.486 -0.1273  0.8521  1.7110
 9227TIP3   OH227644   4.962   1.325   4.772 -0.1572  0.0910 -0.3691
 9227TIP3    H127645   5.057   1.320   4.785  0.0103  3.2936  0.2486
 9227TIP3    H227646   4.926   1.291   4.854  0.4180 -0.7821 -0.4533
 9228TIP3   OH227647   6.475   5.822   2.908 -0.1235  0.4110  0.0119
 9228TIP3    H127648   6.495   5.797   2.998 -1.0062  0.1171  0.1440
 9228TIP3    H227649   6.454   5.739   2.865 -0.7542  0.6618 -0.1767
 9229TIP3   OH227650   5.208   3.571   3.979  0.3683  0.3842  0.3066
 9229TIP3    H127651   5.223   3.608   4.065  1.4646 -0.5781  0.5631
 9229TIP3    H227652   5.292   3.580   3.934 -0.7077  2.6907 -1.4257
 9230TIP3   OH227653   5.613   4.709   1.602 -0.2910 -0.1736 -0.0118
 9230TIP3    H127654   5.634   4.617   1.583 -1.4325 -0.6754  0.9922
 9230TIP3    H227655   5.568   4.740   1.523 -0.9921 -0.8632  0.1025
 9231TIP3   OH227656   0.554   5.088   2.151 -0.1021  0.4631  0.0543
 9231TIP3    H127657   0.627   5.072   2.092  0.7068  0.1482  1.0993
 9231TIP3    H227658   0.499   5.010   2.143  1.1164 -0.5826  1.2518
 9232TIP3   OH227659   3.629   0.742   3.780 -1.1380 -0.1679  0.2422
 9232TIP3    H127660   3.636   0.746   3.876 -0.9897 -0.8423  0.2589
 9232TIP3    H227661   3.600   0.653   3.762  0.3245 -0.5286 -0.4351
 9233TIP3   OH227662   3.008   0.180   4.715 -0.0297 -0.5460 -0.0646
 9233TIP3    H127663   2.953   0.221   4.781  0.8407 -0.3967  0.5905
 9233TIP3    H227664   3.053   0.253   4.672 -0.5540 -0.6451 -0.7978
 9234TIP3   OH227665   3.312   2.569   4.576  0.1544 -0.5294  0.1877
 9234TIP3    H127666   3.328   2.482   4.612  0.0321 -0.0411  1.4643
 9234TIP3    H227667   3.375   2.577   4.504  2.2760 -0.5661  1.9129
 9235TIP3   OH227668   1.042   0.930   4.732  0.5354  0.2954 -0.4485
 9235TIP3    H127669   1.048   0.892   4.819  0.9616  1.1098 -0.1144
 9235TIP3    H227670   0.950   0.921   4.708  0.7738 -1.7884 -0.7797
 9236TIP3   OH227671   5.495   3.367   4.741  0.0202 -0.8696  0.4615
 9236TIP3    H127672   5.447   3.406   4.814 -0.5691 -3.1146  1.3538
 9236TIP3    H227673   5.573   3.329   4.781  0.3482 -1.0128 -0.2985
 9237TIP3   OH227674   6.341   4.018   0.583 -0.4760 -0.3924  0.3525
 9237TIP3    H127675   6.306   3.960   0.516  0.5332 -0.7858  0.1468
 9237TIP3    H227676   6.311   4.105   0.557  0.7447 -0.3832 -1.2292
 9238TIP3   OH227677   0.697   2.184   4.053 -0.4849  0.7229 -0.1697
 9238TIP3    H127678   0.613   2.205   4.095 -0.7397 -0.6832  0.0882
 9238TIP3    H227679   0.763   2.215   4.114 -0.8292 -2.5701  2.1547
 9239TIP3   OH227680   4.177   0.132   2.549  0.1537  0.1461 -0.3461
 9239TIP3    H127681   4.256   0.185   2.539  1.9238 -2.2973 -0.3090
 9239TIP3    H227682   4.155   0.106   2.459  1.1721 -1.4752 -0.1819
 9240TIP3   OH227683   3.532   0.881   3.396  0.3685  0.4418 -0.4354
 9240TIP3    H127684   3.452   0.863   3.346  2.2243 -3.2692 -2.5328
 9240TIP3    H227685   3.603   0.863   3.334  2.8599  0.0468  2.2951
 9241TIP3   OH227686   0.051   6.195   5.634  0.1768 -0.3455 -0.3254
 9241TIP3    H127687   0.101   6.271   5.605 -0.3673 -0.1412 -0.7485
 9241TIP3    H227688   0.108   6.120   5.616  0.1342 -0.1556 -1.2706
 9242TIP3   OH227689   7.058   3.089   2.525  0.0912 -0.2217 -0.3297
 9242TIP3    H127690   7.030   3.173   2.561 -0.3098 -0.4323 -0.1523
 9242TIP3    H227691   6.999   3.073   2.451  1.0664  0.3322 -1.2707
 9243TIP3   OH227692   2.303   2.639   1.624  0.1223  0.1863  0.4170
 9243TIP3    H127693   2.249   2.689   1.562  2.0687  1.8670 -0.0427
 9243TIP3    H227694   2.301   2.549   1.590 -0.9477  0.5578 -0.5858
 9244TIP3   OH227695   6.635   1.816   5.400  0.3571  0.3972 -0.5933
 9244TIP3    H127696   6.625   1.810   5.305  0.8199 -1.4906 -0.5593
 9244TIP3    H227697   6.725   1.788   5.417  0.8065  2.1981  0.3175
 9245TIP3   OH227698   2.841   5.837   4.120  0.4844 -0.1060 -0.2439
 9245TIP3    H127699   2.806   5.845   4.208  1.7758  0.2326  0.2614
 9245TIP3    H227700   2.936   5.837   4.131  0.7009  0.8731 -1.7004
 9246TIP3   OH227701   4.188   5.364   1.635 -0.5105  0.2564  0.4721
 9246TIP3    H127702   4.098   5.355   1.603 -0.0815  1.3334 -1.1495
 9246TIP3    H227703   4.243   5.339   1.561  0.6023 -1.8869  1.9090
 9247TIP3   OH227704   0.894   2.248   4.271 -0.6522 -0.0233 -0.2907
 9247TIP3    H127705   0.882   2.246   4.365 -1.6115 -0.9075 -0.4247
 9247TIP3    H227706   0.924   2.160   4.248 -1.9386 -0.3035 -0.9893
 9248TIP3   OH227707   0.096   2.393   0.731 -0.1578 -0.0937  0.1016
 9248TIP3    H127708   0.076   2.304   0.760 -2.4960  0.6724  1.0315
 9248TIP3    H227709   0.039   2.406   0.655 -1.4577  1.2999  1.2670
 9249TIP3   OH227710   6.628   5.882   4.432 -0.4528  0.0365  0.1762
 9249TIP3    H127711   6.674   5.839   4.360 -0.0474  2.0212 -0.7930
 9249TIP3    H227712   6.541   5.901   4.397 -0.6511 -0.0414  0.6214
 9250TIP3   OH227713   0.431   4.563   3.529  0.1113  0.4961 -0.2170
 9250TIP3    H127714   0.522   4.580   3.554 -0.1404  1.1361  0.2882
 9250TIP3    H227715   0.406   4.639   3.476  0.2804 -0.3136 -1.5038
 9251TIP3   OH227716   1.098   5.715   5.126  0.2368  0.6344  0.5580
 9251TIP3    H127717   1.003   5.719   5.132  0.0531 -0.3262 -0.9394
 9251TIP3    H227718   1.116   5.627   5.091  1.6505  0.9439  0.4278
 9252TIP3   OH227719   2.903   0.061   1.724  0.2443  0.2521 -0.5621
 9252TIP3    H127720   2.913   0.025   1.636 -1.7643  0.1497 -0.8015
 9252TIP3    H227721   2.811   0.045   1.746  1.1599 -1.7451  2.4733
 9253TIP3   OH227722   2.708   3.369   3.169  0.4331 -0.0999  0.3901
 9253TIP3    H127723   2.688   3.444   3.114  1.0560 -0.6186 -0.5643
 9253TIP3    H227724   2.664   3.388   3.252 -1.0835  0.3912 -0.4916
 9254TIP3   OH227725   6.293   3.668   3.057 -0.1033 -0.3781 -0.2202
 9254TIP3    H127726   6.331   3.622   3.132 -0.0375 -1.0020 -0.6316
 9254TIP3    H227727   6.208   3.700   3.088 -0.0582 -0.5952  0.1298
 9255TIP3   OH227728   2.755   0.844   4.717 -0.0708 -0.3279  0.2134
 9255TIP3    H127729   2.670   0.861   4.758  0.1015  0.3889  0.2813
 9255TIP3    H227730   2.740   0.860   4.624 -0.1455 -0.7261  0.1576
 9256TIP3   OH227731   1.624   3.079   4.550 -0.0863  0.1246 -0.5650
 9256TIP3    H127732   1.669   3.134   4.486  1.3358 -0.7475 -0.3461
 9256TIP3    H227733   1.660   3.106   4.634  2.0439 -2.3244 -0.5764
 9257TIP3   OH227734   6.800   1.983   0.566 -0.2481 -0.7157  0.1083
 9257TIP3    H127735   6.761   1.974   0.653 -1.5329  0.0537 -0.3641
 9257TIP3    H227736   6.753   1.920   0.512 -1.2467  0.5656 -0.5808
 9258TIP3   OH227737   4.788   4.260   1.008 -0.0419 -0.2970  0.0572
 9258TIP3    H127738   4.709   4.306   0.979 -1.3671 -0.9111  2.3824
 9258TIP3    H227739   4.846   4.330   1.038 -0.4366  0.0877 -0.0576
 9259TIP3   OH227740   4.386   6.170   2.879  0.0235  0.5951  0.4913
 9259TIP3    H127741   4.397   6.141   2.970  1.2600  3.0487  1.2476
 9259TIP3    H227742   4.411   6.095   2.826  0.9991 -0.3806  2.2333
 9260TIP3   OH227743   6.783   6.642   5.563 -0.0533  0.5033  0.0750
 9260TIP3    H127744   6.803   6.600   5.646  1.4999  2.3674  0.7181
 9260TIP3    H227745   6.723   6.582   5.519 -1.9008 -0.0024  3.0202
 9261TIP3   OH227746   3.287   3.222   2.495 -0.5285 -0.5129  0.2988
 9261TIP3    H127747   3.321   3.253   2.411 -1.2628  0.0787  0.2124
 9261TIP3    H227748   3.331   3.277   2.561 -0.8394 -0.1734  0.2260
 9262TIP3   OH227749   5.797   1.871   5.455 -0.2513 -0.2552  0.8843
 9262TIP3    H127750   5.725   1.864   5.393 -1.2958  0.7244  1.9342
 9262TIP3    H227751   5.766   1.827   5.534  0.7574 -0.8270  0.9745
 9263TIP3   OH227752   3.349   2.376   1.223  0.3804 -0.4381  0.4725
 9263TIP3    H127753   3.432   2.389   1.178  0.2946 -2.0871 -0.2230
 9263TIP3    H227754   3.284   2.375   1.153  0.0983 -1.8118  0.7398
 9264TIP3   OH227755   7.095   2.894   0.848  0.1188 -0.0392 -0.3660
 9264TIP3    H127756   7.011   2.937   0.831  1.0717  1.7911 -0.6606
 9264TIP3    H227757   7.144   2.905   0.767 -0.2760 -3.5698 -1.2501
 9265TIP3   OH227758   3.453   5.169   3.189 -0.0651  0.1827  0.2243
 9265TIP3    H127759   3.436   5.224   3.113  0.3238  0.5140  0.3719
 9265TIP3    H227760   3.402   5.210   3.260  0.9919  0.9356  0.5682
 9266TIP3   OH227761   0.433   6.407   5.615  0.0017 -0.2953  0.2188
 9266TIP3    H127762   0.421   6.326   5.664  0.9105  0.0358  1.0195
 9266TIP3    H227763   0.446   6.378   5.525 -0.3669 -0.9961  0.3827
 9267TIP3   OH227764   4.473   1.067   5.725  0.2754 -0.0118  0.7122
 9267TIP3    H127765   4.482   1.050   5.631 -0.3231  1.6959  0.3060
 9267TIP3    H227766   4.560   1.049   5.761  1.1053  1.2633 -0.5352
 9268TIP3   OH227767   1.066   3.793   4.087  0.0747 -0.1107 -0.0238
 9268TIP3    H127768   1.039   3.717   4.035 -0.2198 -0.7412  1.0203
 9268TIP3    H227769   1.119   3.845   4.027  0.6703 -1.3802 -0.6475
 9269TIP3   OH227770   6.981   2.632   1.282  0.3011 -0.3151 -0.1687
 9269TIP3    H127771   6.907   2.579   1.251  1.4599 -2.7805  1.0099
 9269TIP3    H227772   7.043   2.632   1.210 -0.1014  0.3144 -0.5272
 9270TIP3   OH227773   6.523   1.861   1.230  0.2020  0.0208  0.0269
 9270TIP3    H127774   6.439   1.819   1.248  1.8766 -2.6065  2.5891
 9270TIP3    H227775   6.508   1.910   1.149 -2.8885 -3.0745 -1.5800
 9271TIP3   OH227776   5.544   5.362   1.465 -0.3953  0.1067 -0.0447
 9271TIP3    H127777   5.574   5.280   1.427 -0.2594  1.2799 -2.6481
 9271TIP3    H227778   5.624   5.414   1.476 -0.6107  0.3396  0.5050
 9272TIP3   OH227779   6.423   5.505   3.205 -0.9846  0.3889  0.6731
 9272TIP3    H127780   6.462   5.590   3.223 -0.7093  0.9904 -2.2333
 9272TIP3    H227781   6.331   5.514   3.229 -0.6223  0.9647  1.8848
 9273TIP3   OH227782   7.192   1.929   4.302  0.7606 -0.3507  0.7203
 9273TIP3    H127783   7.165   2.021   4.304 -1.4025 -0.9429  2.1793
 9273TIP3    H227784   7.166   1.898   4.216 -0.0368 -0.0178  0.8391
 9274TIP3   OH227785   4.951   3.248   0.594 -0.0367  0.3663  0.0269
 9274TIP3    H127786   4.895   3.318   0.560 -3.4624 -1.2064  1.9216
 9274TIP3    H227787   4.966   3.191   0.519 -1.1289  0.7779 -0.5316
 9275TIP3   OH227788   2.390   2.689   5.303 -0.1496 -0.0566 -0.5736
 9275TIP3    H127789   2.402   2.783   5.285 -1.8790  0.3784  0.2988
 9275TIP3    H227790   2.300   2.672   5.277 -0.2859 -1.1547  0.5441
 9276TIP3   OH227791   5.828   1.195   5.047  0.2828  0.3334 -0.0360
 9276TIP3    H127792   5.759   1.233   5.101 -0.6335 -0.6236 -0.4973
 9276TIP3    H227793   5.909   1.214   5.094 -0.3104  1.2737  0.6304
 9277TIP3   OH227794   1.932   5.374   2.562 -0.0960  0.1137  0.1492
 9277TIP3    H127795   1.926   5.326   2.479 -1.2013  0.1401  0.2113
 9277TIP3    H227796   1.915   5.465   2.538  0.4307  0.2499  0.2788
 9278TIP3   OH227797   6.272   3.279   0.933  0.1056  0.6037  0.0880
 9278TIP3    H127798   6.272   3.357   0.989 -0.5898  0.0190  0.9194
 9278TIP3    H227799   6.316   3.212   0.986  0.1023  0.2420 -0.3620
 9279TIP3   OH227800   0.881   6.301   4.239  0.4670  0.3308 -0.3499
 9279TIP3    H127801   0.823   6.249   4.183 -1.5155 -0.4301  2.2207
 9279TIP3    H227802   0.873   6.390   4.206 -0.7838 -0.0559 -1.1660
 9280TIP3   OH227803   5.697   3.245   4.899  0.4970  0.2317 -0.0756
 9280TIP3    H127804   5.786   3.278   4.910  0.6025 -0.4611  1.4410
 9280TIP3    H227805   5.703   3.152   4.918 -0.5986  0.2361  0.4015
 9281TIP3   OH227806   1.794   1.471   1.077 -0.0489 -0.0915 -0.0301
 9281TIP3    H127807   1.768   1.412   1.006 -1.7471  0.6195 -0.0427
 9281TIP3    H227808   1.843   1.541   1.033 -0.5975  0.0459 -0.4321
 9282TIP3   OH227809   4.330   3.808   4.371 -0.0963 -0.2879  0.0814
 9282TIP3    H127810   4.343   3.891   4.324  0.2826 -0.1442  0.4415
 9282TIP3    H227811   4.357   3.826   4.461 -0.3716 -0.6987  0.2511
 9283TIP3   OH227812   2.030   4.804   1.511 -0.4391 -0.4024 -0.0795
 9283TIP3    H127813   1.957   4.800   1.449 -0.5858  1.1902 -0.0470
 9283TIP3    H227814   2.062   4.714   1.516 -0.4239 -0.5892 -2.4640
 9284TIP3   OH227815   4.052   1.369   3.322  0.4650 -0.2020  0.1994
 9284TIP3    H127816   4.119   1.385   3.388 -0.2325  0.2577  0.8133
 9284TIP3    H227817   4.034   1.455   3.283 -0.8319 -0.0289  1.1043
 9285TIP3   OH227818   0.683   5.178   3.770  0.0600  0.2294  0.0075
 9285TIP3    H127819   0.715   5.092   3.742  2.6584  0.2564  2.4619
 9285TIP3    H227820   0.619   5.159   3.838 -2.0443  0.2723 -1.8548
 9286TIP3   OH227821   0.115   2.041   3.776 -0.1174  0.0703  0.5724
 9286TIP3    H127822   0.167   2.101   3.830  2.2791 -0.9777 -0.4177
 9286TIP3    H227823   0.136   2.066   3.686 -1.5795 -0.2487  0.1153
 9287TIP3   OH227824   3.233   2.790   5.660  0.0321 -0.5377  0.1192
 9287TIP3    H127825   3.173   2.777   5.587 -1.2749  1.6260  0.7067
 9287TIP3    H227826   3.254   2.884   5.658 -0.1056 -0.3820  2.4994
 9288TIP3   OH227827   1.084   5.070   5.514 -0.3477 -0.1618 -0.3563
 9288TIP3    H127828   1.053   5.043   5.600 -0.6691  0.0197 -0.4127
 9288TIP3    H227829   1.153   5.008   5.492 -1.4711 -1.3238 -0.7400
 9289TIP3   OH227830   1.896   3.693   3.336 -0.3611  0.1401 -0.2954
 9289TIP3    H127831   1.893   3.606   3.376 -0.1716  0.3062  0.0860
 9289TIP3    H227832   1.804   3.717   3.324 -0.4637  0.5148  1.0018
 9290TIP3   OH227833   5.604   0.753   1.044  0.2321 -0.4346 -0.4482
 9290TIP3    H127834   5.542   0.695   1.001  0.6178 -1.0756 -0.1525
 9290TIP3    H227835   5.633   0.705   1.121  1.6094 -0.4403 -0.9364
 9291TIP3   OH227836   2.681   4.500   1.114 -0.5519  0.1203 -0.4036
 9291TIP3    H127837   2.762   4.513   1.163 -0.5463 -0.9544 -0.1106
 9291TIP3    H227838   2.709   4.501   1.022 -0.1824 -0.3711 -0.3013
 9292TIP3   OH227839   6.033   4.086   1.935  0.1047 -0.4280 -0.6216
 9292TIP3    H127840   5.976   4.011   1.920 -0.7306  0.1441 -0.4248
 9292TIP3    H227841   6.112   4.067   1.886  0.7454 -2.3534  1.0042
 9293TIP3   OH227842   7.029   5.191   0.206  0.2299 -0.1821 -0.1162
 9293TIP3    H127843   6.967   5.129   0.243  0.8506 -0.5522  0.3265
 9293TIP3    H227844   6.990   5.277   0.221 -1.8968 -0.5054 -3.0133
 9294TIP3   OH227845   0.358   5.508   3.037  0.1101 -0.4368 -0.1333
 9294TIP3    H127846   0.352   5.604   3.032  0.8971 -0.4155 -1.0077
 9294TIP3    H227847   0.412   5.491   3.114  1.2953 -0.1018 -0.8625
 9295TIP3   OH227848   2.892   1.903   0.011 -0.0371  0.2773 -0.2369
 9295TIP3    H127849   2.917   1.861   0.094  3.3922  1.4090 -0.5293
 9295TIP3    H227850   2.952   1.864  -0.054  0.6226  2.7816 -1.2318
 9296TIP3   OH227851   3.671   5.092   1.666  0.4458 -0.1000  0.1466
 9296TIP3    H127852   3.675   5.032   1.741 -1.2821 -0.3238  0.1065
 9296TIP3    H227853   3.620   5.045   1.600 -1.0336  1.4182  0.1362
 9297TIP3   OH227854   0.907   2.691   4.336 -0.0414  0.1845  0.0053
 9297TIP3    H127855   0.967   2.758   4.303 -0.1919 -0.0844 -0.8186
 9297TIP3    H227856   0.833   2.740   4.372  0.7740  0.5381  1.3082
 9298TIP3   OH227857   0.551   2.360   5.118 -0.8915 -0.2805 -0.0494
 9298TIP3    H127858   0.474   2.361   5.174  0.3422 -0.7285  1.7352
 9298TIP3    H227859   0.607   2.430   5.151 -0.2704 -0.3223 -0.9568
 9299TIP3   OH227860   1.125   5.926  -0.016 -0.1707 -0.0941  0.3885
 9299TIP3    H127861   1.047   5.870  -0.028 -0.1563 -0.0143 -0.0841
 9299TIP3    H227862   1.129   5.940   0.079 -0.9478  0.2044  0.3846
 9300TIP3   OH227863   0.944   3.588   0.262 -0.5667 -0.3434 -0.7510
 9300TIP3    H127864   1.030   3.629   0.269 -0.7220 -0.0505 -0.4831
 9300TIP3    H227865   0.906   3.598   0.349 -0.0962 -2.2557 -0.2834
 9301TIP3   OH227866   6.172   0.686   3.218 -0.2975  0.0478  0.2219
 9301TIP3    H127867   6.263   0.715   3.229 -0.4009 -0.2942  2.7367
 9301TIP3    H227868   6.165   0.609   3.275 -1.7720 -0.9230 -1.1868
 9302TIP3   OH227869   0.728   1.110   1.253 -0.3600  0.5895 -0.3727
 9302TIP3    H127870   0.659   1.123   1.188 -0.4404  0.6684 -0.2722
 9302TIP3    H227871   0.703   1.166   1.327 -1.4029 -1.0312  0.5837
 9303TIP3   OH227872   5.043   6.530   0.583  0.3210  0.3544  0.2696
 9303TIP3    H127873   5.042   6.597   0.650  1.2433  0.0690  0.5810
 9303TIP3    H227874   4.966   6.548   0.529 -0.0103  1.0250  0.9629
 9304TIP3   OH227875   5.096   0.387   4.917  0.3862 -0.3544  0.6887
 9304TIP3    H127876   5.017   0.359   4.871  0.9327 -0.8520  0.0362
 9304TIP3    H227877   5.149   0.308   4.925  0.4409 -0.2159  1.9228
 9305TIP3   OH227878   2.168   5.144   2.799  0.2746 -0.0358 -0.4080
 9305TIP3    H127879   2.166   5.226   2.848 -1.1940  1.1184 -2.2349
 9305TIP3    H227880   2.260   5.130   2.778  0.8332 -0.1278  1.8601
 9306TIP3   OH227881   6.487   5.100   4.744 -0.0533 -0.0201  0.3626
 9306TIP3    H127882   6.406   5.057   4.717  0.3659 -1.7928  1.7617
 9306TIP3    H227883   6.556   5.055   4.696  0.1364  1.8007 -1.1932
 9307TIP3   OH227884   3.798   4.846   5.448  0.7364  0.0684  0.2359
 9307TIP3    H127885   3.853   4.921   5.427  0.9086  0.4661  1.9292
 9307TIP3    H227886   3.798   4.843   5.544 -1.7474 -0.2316  0.2954
 9308TIP3   OH227887   0.303   6.776   3.032  0.2039 -0.4437 -0.1838
 9308TIP3    H127888   0.226   6.738   2.989 -0.1583  0.6741 -0.5701
 9308TIP3    H227889   0.303   6.738   3.120 -0.3799 -0.9845 -0.4080
 9309TIP3   OH227890   5.213   6.020   3.180  0.7893 -0.1184 -0.3665
 9309TIP3    H127891   5.183   5.945   3.231  2.4707  0.3347  1.4315
 9309TIP3    H227892   5.306   6.003   3.165  0.8510  0.8955 -1.2444
 9310TIP3   OH227893   4.618   0.773   5.099  0.3822 -0.8296  0.6728
 9310TIP3    H127894   4.635   0.815   5.183  0.9211 -0.2427  0.2880
 9310TIP3    H227895   4.706   0.754   5.064  0.2587  0.9198 -0.7180
 9311TIP3   OH227896   6.578   1.828   2.585  0.2324  0.3528  0.0552
 9311TIP3    H127897   6.517   1.900   2.600 -2.1433 -1.2693 -1.1286
 9311TIP3    H227898   6.578   1.817   2.490  0.8994 -0.9215  0.1846
 9312TIP3   OH227899   2.113   4.564   1.620  0.2070  0.2587 -0.5088
 9312TIP3    H127900   2.207   4.576   1.634  0.2174 -0.5712  0.2324
 9312TIP3    H227901   2.107   4.486   1.564 -0.0480  0.1204 -0.2888
 9313TIP3   OH227902   1.132   2.266   2.300 -0.3383 -0.5179  0.4872
 9313TIP3    H127903   1.082   2.260   2.381 -2.4348 -3.0410 -0.8526
 9313TIP3    H227904   1.185   2.187   2.298  0.3497 -0.0584 -0.2198
 9314TIP3   OH227905   4.221   0.446   3.229  0.9660 -0.0164  0.1537
 9314TIP3    H127906   4.209   0.533   3.267  0.5144  0.3442 -0.7875
 9314TIP3    H227907   4.278   0.400   3.291  2.3476  1.3998 -0.0036
 9315TIP3   OH227908   4.975   5.626   3.282 -0.5620  0.8659 -0.6549
 9315TIP3    H127909   5.014   5.684   3.216  0.8552  1.5094  0.7050
 9315TIP3    H227910   5.048   5.598   3.336 -1.5228 -0.6562 -0.0962
 9316TIP3   OH227911   2.274   5.831   2.608 -0.4926  0.3135 -0.4770
 9316TIP3    H127912   2.308   5.814   2.696 -0.3142  0.3952 -0.5280
 9316TIP3    H227913   2.208   5.898   2.620 -0.1511  0.6526 -0.4583
 9317TIP3   OH227914   3.403   1.159   0.255 -0.0761 -0.2911 -0.4488
 9317TIP3    H127915   3.431   1.097   0.187  0.2903  1.0120 -1.5253
 9317TIP3    H227916   3.484   1.181   0.302 -0.0669  0.0191 -0.6123
 9318TIP3   OH227917   6.401   0.956   2.308 -0.2165 -0.2656 -0.2238
 9318TIP3    H127918   6.460   0.889   2.341  0.1797  0.5820  0.8340
 9318TIP3    H227919   6.454   1.037   2.307 -1.5781  0.7209  1.6804
 9319TIP3   OH227920   4.986   4.974   0.347  0.0063 -0.0838 -0.3155
 9319TIP3    H127921   4.898   4.998   0.377 -0.2666 -1.0582 -0.3128
 9319TIP3    H227922   5.044   5.011   0.414 -0.3918  0.5121 -0.2832
 9320TIP3   OH227923   4.582   5.478   4.230 -0.2428  0.2246 -0.0376
 9320TIP3    H127924   4.549   5.552   4.178  1.4373  0.3154 -1.0489
 9320TIP3    H227925   4.517   5.409   4.217 -1.3471  1.2040  0.1312
 9321TIP3   OH227926   1.063   3.702   2.041  0.3757  0.3262  0.5269
 9321TIP3    H127927   0.999   3.735   2.104  1.1175  1.8681  0.5284
 9321TIP3    H227928   1.148   3.724   2.078  0.8367  0.8711 -0.7666
 9322TIP3   OH227929   0.615   1.042   0.907  0.1590 -0.7172 -0.3057
 9322TIP3    H127930   0.603   1.095   0.828  0.9960  0.2405  0.1955
 9322TIP3    H227931   0.555   1.080   0.971  0.7625 -0.3559  0.0545
 9323TIP3   OH227932   4.711   5.059   0.304  0.3200 -0.0733 -0.4169
 9323TIP3    H127933   4.659   4.989   0.344  1.5411 -1.7670 -1.6304
 9323TIP3    H227934   4.646   5.123   0.276 -1.0149 -1.4218 -0.5745
 9324TIP3   OH227935   2.264   6.804   1.124  0.0975  0.1403 -0.0669
 9324TIP3    H127936   2.311   6.720   1.123 -1.3865 -0.7371  0.2049
 9324TIP3    H227937   2.213   6.803   1.043 -0.3871  0.4972  0.2307
 9325TIP3   OH227938   0.140   4.189   5.805 -0.3135  0.5232  0.3021
 9325TIP3    H127939   0.225   4.147   5.813 -1.2216 -1.3533  0.6859
 9325TIP3    H227940   0.109   4.166   5.718 -1.0347 -0.0860  0.7006
 9326TIP3   OH227941   3.319   1.603   4.834 -0.1365 -0.2163  0.2223
 9326TIP3    H127942   3.401   1.561   4.861  0.8892  1.9084  0.6682
 9326TIP3    H227943   3.289   1.650   4.912 -1.0777  0.0876 -0.3081
 9327TIP3   OH227944   2.162   6.270   5.602 -0.1068  0.2853 -0.3460
 9327TIP3    H127945   2.126   6.258   5.514 -0.3035  0.0808 -0.2386
 9327TIP3    H227946   2.194   6.184   5.628 -2.6993 -0.4028  0.9336
 9328TIP3   OH227947   5.049   4.581   4.290 -0.2608 -0.4838 -0.5570
 9328TIP3    H127948   5.098   4.499   4.295 -0.7431 -0.7878 -0.7459
 9328TIP3    H227949   5.033   4.605   4.382  2.6025  1.0817 -0.3492
 9329TIP3   OH227950   2.217   5.754   0.699  0.2834  0.0887 -0.3156
 9329TIP3    H127951   2.211   5.691   0.772  0.1799  1.1953  0.6658
 9329TIP3    H227952   2.131   5.750   0.657  0.7116 -1.3990 -1.1329
 9330TIP3   OH227953   3.972   5.416   4.337  0.1038  0.0617 -0.2283
 9330TIP3    H127954   3.916   5.415   4.259 -0.1315 -1.3352 -0.0673
 9330TIP3    H227955   4.033   5.343   4.324  0.9749  0.6809  0.2641
 9331TIP3   OH227956   3.857   4.015   5.467 -0.1227  0.0310 -0.5547
 9331TIP3    H127957   3.952   4.022   5.463 -0.1249 -0.3140 -1.5922
 9331TIP3    H227958   3.839   3.980   5.554  0.9127 -2.7031 -1.3274
 9332TIP3   OH227959   5.760   4.807   2.413 -0.1798 -0.2172  0.1596
 9332TIP3    H127960   5.683   4.839   2.366 -1.2362 -0.7538  1.4452
 9332TIP3    H227961   5.807   4.886   2.441 -0.4689  0.1224 -0.3068
 9333TIP3   OH227962   7.247   6.099   0.179 -0.5041  0.6888  0.1371
 9333TIP3    H127963   7.160   6.138   0.179 -1.3107 -0.9738  1.5115
 9333TIP3    H227964   7.230   6.004   0.176  1.2734  0.3499 -0.0957
 9334TIP3   OH227965   6.642   2.852   0.570 -0.3079  0.5337  1.2220
 9334TIP3    H127966   6.648   2.819   0.480 -1.6722  1.0201  0.9132
 9334TIP3    H227967   6.603   2.780   0.620  0.2296  0.3483  1.3799
 9335TIP3   OH227968   3.013   5.513   0.317 -0.0047  0.2479  0.4566
 9335TIP3    H127969   2.974   5.428   0.296  0.4164 -0.1763  1.3311
 9335TIP3    H227970   2.956   5.576   0.274  0.4451 -0.5256 -1.3581
 9336TIP3   OH227971   4.136   6.345   4.465  0.0595  0.6139 -0.6317
 9336TIP3    H127972   4.213   6.297   4.496  1.2820  1.4680 -2.2407
 9336TIP3    H227973   4.124   6.416   4.529  1.0710  0.9238 -0.7811
 9337TIP3   OH227974   0.050   0.763   0.846  0.7595  0.0714 -0.1634
 9337TIP3    H127975   0.034   0.723   0.932  0.4806 -1.0696 -0.7273
 9337TIP3    H227976   0.141   0.795   0.851  0.4235  0.9209  0.8847
 9338TIP3   OH227977   2.274   0.844   1.163  0.4390 -0.6043 -0.5206
 9338TIP3    H127978   2.268   0.748   1.169  2.1834 -1.0289 -3.3575
 9338TIP3    H227979   2.217   0.867   1.090 -0.9656  0.7577  0.9309
 9339TIP3   OH227980   0.932   1.564   2.125 -1.0454  0.3407 -0.5164
 9339TIP3    H127981   1.026   1.546   2.124 -1.1708 -0.3354 -1.3504
 9339TIP3    H227982   0.926   1.656   2.150 -0.1832  0.2935 -0.0970
 9340TIP3   OH227983   0.712   1.723   5.825 -0.4257 -0.1325 -0.0838
 9340TIP3    H127984   0.733   1.816   5.833 -2.1509  0.2204  0.7511
 9340TIP3    H227985   0.616   1.719   5.826 -0.3924 -1.9506  0.2657
 9341TIP3   OH227986   1.448   6.585   4.433 -1.0079  0.1398 -0.4606
 9341TIP3    H127987   1.378   6.617   4.377 -0.9002  3.4876  1.0157
 9341TIP3    H227988   1.528   6.621   4.395 -0.8352  1.6217  1.1486
 9342TIP3   OH227989   0.627   6.061   2.396  0.2890  1.0338 -0.4464
 9342TIP3    H127990   0.532   6.068   2.389  0.2710  0.7499 -0.4958
 9342TIP3    H227991   0.656   6.150   2.417  0.0703  1.2592 -1.0624
 9343TIP3   OH227992   6.156   1.240   4.767 -0.4082  0.1030 -0.4032
 9343TIP3    H127993   6.158   1.335   4.771 -0.6552  0.1771 -1.6915
 9343TIP3    H227994   6.064   1.217   4.784 -0.3023  0.0751  0.1459
 9344TIP3   OH227995   2.696   6.349   1.400  0.5235 -0.3685  0.2685
 9344TIP3    H127996   2.624   6.406   1.426 -0.8445 -1.4616 -0.9215
 9344TIP3    H227997   2.712   6.294   1.476  0.6636  0.4291  0.8224
 9345TIP3   OH227998   7.014   0.458   5.280  0.3457 -0.3168 -0.0702
 9345TIP3    H127999   7.054   0.542   5.301 -0.4249  0.2878 -0.9546
 9345TIP3    H228000   7.008   0.456   5.185 -0.4980 -0.9561 -0.0228
 9346TIP3   OH228001   3.200   1.872   3.176  0.3812  0.7617 -0.5070
 9346TIP3    H128002   3.208   1.957   3.220  2.2094  0.4079 -0.0652
 9346TIP3    H228003   3.106   1.854   3.175  0.1966  0.0695  4.6000
 9347TIP3   OH228004   3.252   1.939   1.855 -0.0437  0.4005  0.0974
 9347TIP3    H128005   3.201   1.924   1.935 -0.2553  1.9527  0.2926
 9347TIP3    H228006   3.235   2.031   1.833  0.5793  0.2009 -1.3397
 9348TIP3   OH228007   6.935   4.147   5.309 -0.3162 -0.2750 -0.3976
 9348TIP3    H128008   6.955   4.224   5.362  0.2757 -0.0282 -0.9588
 9348TIP3    H228009   6.996   4.080   5.339 -0.9931 -0.6036  0.2548
 9349TIP3   OH228010   0.956   3.570   3.969 -0.0515  0.6584 -0.3791
 9349TIP3    H128011   0.909   3.543   4.048  0.7625  2.8585  0.9435
 9349TIP3    H228012   0.889   3.612   3.915 -0.2657  0.7761 -0.0250
 9350TIP3   OH228013   5.462   6.219   1.736 -0.0800 -0.6687  0.1120
 9350TIP3    H128014   5.451   6.265   1.653  0.8497  1.0363  0.8666
 9350TIP3    H228015   5.541   6.257   1.774 -0.1963 -1.7653  1.5418
 9351TIP3   OH228016   1.672   5.095   0.901 -0.5229 -0.4677 -0.0966
 9351TIP3    H128017   1.719   5.175   0.877 -0.3126 -0.4688  0.3043
 9351TIP3    H228018   1.719   5.061   0.977 -1.4181 -0.2499  0.5748
 9352TIP3   OH228019   6.207   4.910   2.545 -0.0445  0.8859  0.5289
 9352TIP3    H128020   6.151   4.983   2.572 -0.6664  0.5251  0.2467
 9352TIP3    H228021   6.296   4.942   2.556 -0.3132  1.7418  0.2545
 9353TIP3   OH228022   1.611   0.323   1.771  0.3978  0.1834  0.0160
 9353TIP3    H128023   1.653   0.306   1.686  0.8015  0.3401  0.1845
 9353TIP3    H228024   1.667   0.388   1.813 -0.3381  0.8453 -0.0083
 9354TIP3   OH228025   4.464   3.076   5.200  0.0172  0.2134 -0.6704
 9354TIP3    H128026   4.404   3.048   5.132 -0.8894  2.3474 -0.8498
 9354TIP3    H228027   4.532   3.126   5.154  0.7838 -0.4264 -0.2566
 9355TIP3   OH228028   0.875   5.376   3.865  0.5614  0.0110  0.5634
 9355TIP3    H128029   0.821   5.315   3.814 -1.5391  2.1511  0.0337
 9355TIP3    H228030   0.947   5.398   3.806 -1.0625  1.3449 -1.0536
 9356TIP3   OH228031   4.226   0.166   5.141  0.1284 -0.0642 -0.2688
 9356TIP3    H128032   4.233   0.124   5.055  1.8815 -0.7511  0.1670
 9356TIP3    H228033   4.269   0.250   5.131 -0.1987  0.1128 -0.2072
 9357TIP3   OH228034   5.611   5.468   4.878  0.3035 -0.5317 -0.4163
 9357TIP3    H128035   5.584   5.477   4.969  0.4564  0.2741 -0.4452
 9357TIP3    H228036   5.672   5.394   4.878  0.6754 -0.2341  0.2314
 9358TIP3   OH228037   4.062   4.956   1.056  0.4033  0.2828 -0.3014
 9358TIP3    H128038   4.069   4.912   0.971 -0.2711 -0.1492 -0.1375
 9358TIP3    H228039   3.968   4.973   1.067  0.7024  2.4935 -0.7241
 9359TIP3   OH228040   0.262   3.281   3.838 -0.0511 -0.0206 -0.0940
 9359TIP3    H128041   0.256   3.259   3.931 -1.1312  1.1232  0.1358
 9359TIP3    H228042   0.345   3.242   3.810  0.4308 -0.1639  1.4084
 9360TIP3   OH228043   7.235   0.752   3.903  0.2404 -0.2048 -0.2823
 9360TIP3    H128044   7.248   0.665   3.865  0.6032 -0.5670  0.6355
 9360TIP3    H228045   7.143   0.773   3.884 -0.3487 -1.5201  0.8880
 9361TIP3   OH228046   5.203   2.370   0.995  0.2739  0.8599 -0.2494
 9361TIP3    H128047   5.141   2.328   1.054  1.5328 -1.9032 -0.7478
 9361TIP3    H228048   5.264   2.417   1.053  1.8389 -2.2760  0.8580
 9362TIP3   OH228049   0.425   4.410   0.114 -0.5436 -0.2561  0.5019
 9362TIP3    H128050   0.513   4.378   0.097  0.2560  2.3233 -0.6813
 9362TIP3    H228051   0.428   4.445   0.203 -0.8304 -1.4610  1.0064
 9363TIP3   OH228052   0.046   0.770   0.258  0.4348  0.1997 -0.3763
 9363TIP3    H128053   0.130   0.725   0.251 -0.0997 -0.5869 -2.0188
 9363TIP3    H228054   0.064   0.844   0.317  1.8749 -0.8328  0.5372
 9364TIP3   OH228055   5.853   3.946   3.494 -0.4660  0.1723 -0.3212
 9364TIP3    H128056   5.880   3.876   3.554 -1.6438 -0.7858 -0.8689
 9364TIP3    H228057   5.778   3.987   3.537  1.5992  2.7329  1.1234
 9365TIP3   OH228058   5.443   1.376   0.233  0.0202 -1.0142  0.5868
 9365TIP3    H128059   5.484   1.361   0.147  1.6462 -2.8355  1.5957
 9365TIP3    H228060   5.483   1.457   0.265  0.0812 -0.8099  0.0098
 9366TIP3   OH228061   2.950   4.784   1.165  0.2352  0.2656  0.8203
 9366TIP3    H128062   2.973   4.692   1.150 -0.6749  0.2938 -1.0032
 9366TIP3    H228063   2.869   4.781   1.216 -1.1163 -0.0526 -1.2245
 9367TIP3   OH228064   6.441   4.586   4.755 -0.5263  0.3329  0.1766
 9367TIP3    H128065   6.503   4.644   4.799 -0.8662 -0.0146  1.1370
 9367TIP3    H228066   6.482   4.567   4.671  1.0841 -0.5980  1.1301
 9368TIP3   OH228067   6.321   5.570   3.501  0.1455 -0.0849 -0.0672
 9368TIP3    H128068   6.247   5.514   3.480  0.1288  0.0639 -0.4158
 9368TIP3    H228069   6.303   5.652   3.455  0.1495  0.2234  0.4656
 9369TIP3   OH228070   4.351   5.691   2.929  0.2312  0.3501 -0.4910
 9369TIP3    H128071   4.445   5.696   2.910  0.3451  1.5351  0.2985
 9369TIP3    H228072   4.334   5.765   2.987 -0.6051 -1.4844  1.7943
 9370TIP3   OH228073   6.452   3.087   2.445 -0.3505  0.0919 -0.4818
 9370TIP3    H128074   6.510   3.157   2.413  1.5684 -1.2780 -0.1441
 9370TIP3    H228075   6.430   3.038   2.366  0.9663 -0.8069 -0.3202
 9371TIP3   OH228076   0.054   6.305   3.139  0.1539  0.3944 -0.0699
 9371TIP3    H128077  -0.012   6.237   3.124  0.5587 -0.5595  2.0636
 9371TIP3    H228078   0.022   6.352   3.216  0.7520  1.5281 -0.4967
 9372TIP3   OH228079   2.537   3.095   4.522  0.0200  0.5663  0.9370
 9372TIP3    H128080   2.592   3.057   4.590 -1.4639 -1.5431  1.0573
 9372TIP3    H228081   2.447   3.071   4.547 -0.5970 -0.1526 -1.6137
 9373TIP3   OH228082   1.741   2.278   2.179 -0.4693  0.0740  0.0712
 9373TIP3    H128083   1.798   2.213   2.219 -0.2444 -0.4911 -1.1051
 9373TIP3    H228084   1.656   2.266   2.221 -0.2654 -0.5510  0.3116
 9374TIP3   OH228085   4.979   0.005   5.734  0.3619  0.5688 -0.1311
 9374TIP3    H128086   4.994  -0.008   5.641  0.0242  0.2085 -0.1379
 9374TIP3    H228087   5.066   0.016   5.771  0.6002 -0.6436 -0.2923
 9375TIP3   OH228088   2.829   4.905   0.945  0.2252 -0.5472 -0.1057
 9375TIP3    H128089   2.854   4.896   1.037  2.5716 -0.5583 -0.6772
 9375TIP3    H228090   2.907   4.940   0.902 -0.8174 -0.5042 -2.0989
 9376TIP3   OH228091   0.136   1.086   3.291 -0.2244  0.1062  0.0324
 9376TIP3    H128092   0.068   1.087   3.224 -1.1267  1.6355  0.8999
 9376TIP3    H228093   0.089   1.071   3.373  0.7036 -0.5228  0.4676
 9377TIP3   OH228094   5.223   4.839   3.215 -0.0968 -0.3212  0.1381
 9377TIP3    H128095   5.152   4.807   3.159  0.5226 -2.1428  0.3204
 9377TIP3    H228096   5.199   4.810   3.303  0.2422  0.2081  0.4109
 9378TIP3   OH228097   5.523   3.050   3.137  0.7759 -0.0284  0.1245
 9378TIP3    H128098   5.586   3.092   3.196  0.0815  0.1299  0.7567
 9378TIP3    H228099   5.463   3.003   3.194  0.1242  0.0799 -0.4554
 9379TIP3   OH228100   1.572   6.505   2.629 -0.5909  0.1392  0.9033
 9379TIP3    H128101   1.557   6.599   2.643 -0.2826  0.1439  1.2157
 9379TIP3    H228102   1.503   6.463   2.681  0.3559  0.1649  2.2235
 9380TIP3   OH228103   3.855   1.370   3.943  0.1530  0.1609  0.2386
 9380TIP3    H128104   3.811   1.290   3.969 -0.9432  0.3175 -1.0188
 9380TIP3    H228105   3.944   1.343   3.922 -0.4532 -0.9172 -1.0485
 9381TIP3   OH228106   3.018   2.502   3.359 -0.4507  0.3287  0.1818
 9381TIP3    H128107   3.079   2.573   3.341  2.2429 -1.8840 -0.2063
 9381TIP3    H228108   2.994   2.468   3.273 -0.3312 -0.2953  0.3873
 9382TIP3   OH228109   3.022   2.279   1.379 -0.0093  0.1632 -0.4355
 9382TIP3    H128110   2.985   2.204   1.332 -0.0729 -0.9385  1.2984
 9382TIP3    H228111   2.947   2.333   1.400  0.0332  0.7363 -1.6743
 9383TIP3   OH228112   5.543   3.461   1.285 -0.2247  0.1464  0.3455
 9383TIP3    H128113   5.513   3.378   1.322 -0.9188  0.7793  1.2609
 9383TIP3    H228114   5.636   3.448   1.269 -0.4601 -1.0265 -0.1722
 9384TIP3   OH228115   3.313   5.155   3.465  0.2590  0.5307 -0.3421
 9384TIP3    H128116   3.305   5.097   3.541  1.0207 -1.0185 -1.3864
 9384TIP3    H228117   3.237   5.135   3.411  0.8170  0.0613 -0.9777
 9385TIP3   OH228118   3.071   6.262   3.009 -0.0651 -0.5841  0.6892
 9385TIP3    H128119   2.989   6.292   2.971 -0.8682 -3.3106  0.0429
 9385TIP3    H228120   3.092   6.326   3.076 -1.4033  1.5021 -0.7804
 9386TIP3   OH228121   2.617   2.925   3.040  0.0492  0.0895 -0.0782
 9386TIP3    H128122   2.566   2.848   3.065  1.5373 -1.2291 -0.8847
 9386TIP3    H228123   2.657   2.901   2.957  0.8809  1.5931 -0.1450
 9387TIP3   OH228124   6.602   1.299   0.193 -0.9502  0.6358 -0.3616
 9387TIP3    H128125   6.576   1.299   0.101 -0.5907  0.7229 -0.4683
 9387TIP3    H228126   6.526   1.266   0.240 -1.2811  0.9880 -0.6487
 9388TIP3   OH228127   6.322   6.057   4.384 -0.4991 -0.6478 -0.1226
 9388TIP3    H128128   6.284   6.124   4.441 -0.9570 -1.0316  0.0327
 9388TIP3    H228129   6.393   6.102   4.338 -0.2265 -0.2932  0.6246
 9389TIP3   OH228130   1.158   0.864   4.290 -0.4421 -0.1832 -0.5382
 9389TIP3    H128131   1.180   0.862   4.383 -1.5085  1.2952 -0.2037
 9389TIP3    H228132   1.201   0.787   4.252  2.4165  0.7279  0.6145
 9390TIP3   OH228133   5.168   2.780   2.995 -0.5897  0.3223  0.6609
 9390TIP3    H128134   5.172   2.758   3.088 -0.4679 -0.2057  0.5324
 9390TIP3    H228135   5.110   2.714   2.957 -0.7044  0.5846  0.3754
 9391TIP3   OH228136   4.366   1.412   1.507  0.0770 -0.2859 -0.3417
 9391TIP3    H128137   4.306   1.356   1.459  0.5439 -1.3014  0.2284
 9391TIP3    H228138   4.343   1.501   1.479 -1.1906 -0.6952 -0.6694
 9392TIP3   OH228139   2.431   5.268   5.737  0.0806  0.0546 -0.5699
 9392TIP3    H128140   2.384   5.317   5.670  0.8746 -0.1295 -1.2904
 9392TIP3    H228141   2.513   5.315   5.748 -0.0138  0.0375  0.2277
 9393TIP3   OH228142   6.986   6.251   3.177 -0.2265  0.4113 -0.4963
 9393TIP3    H128143   6.942   6.167   3.167 -0.4372  0.3285  0.9891
 9393TIP3    H228144   6.934   6.311   3.123 -1.7629  0.1542  0.6288
 9394TIP3   OH228145   6.439   6.130   2.979  0.3078 -0.3563  0.9161
 9394TIP3    H128146   6.369   6.140   2.914  1.3037  0.8967 -0.0252
 9394TIP3    H228147   6.496   6.062   2.944  0.7906  0.2482  0.5122
 9395TIP3   OH228148   3.998   0.603   4.453 -0.0429  0.6994 -0.2718
 9395TIP3    H128149   3.992   0.683   4.400 -1.6098  1.1065  0.4628
 9395TIP3    H228150   3.931   0.545   4.417  1.2833 -0.4427 -0.9931
 9396TIP3   OH228151   1.227   2.148   5.437 -0.6563  0.0516 -0.3336
 9396TIP3    H128152   1.192   2.081   5.496 -0.8256  0.8616  0.5126
 9396TIP3    H228153   1.320   2.127   5.430 -0.5034  0.3019  0.7408
 9397TIP3   OH228154   2.384   4.313   2.206 -0.2483  0.1259  0.3242
 9397TIP3    H128155   2.436   4.380   2.251 -1.1782  0.5169  0.8486
 9397TIP3    H228156   2.311   4.361   2.167 -0.0800 -0.3778 -0.6243
 9398TIP3   OH228157   4.299   3.316   3.691  0.1963 -0.1410  0.2730
 9398TIP3    H128158   4.350   3.240   3.663 -0.5568 -0.6557  0.2468
 9398TIP3    H228159   4.338   3.390   3.646 -1.1611 -0.9576 -2.4531
 9399TIP3   OH228160   4.395   6.447   3.693 -0.3366  0.0307 -0.4586
 9399TIP3    H128161   4.411   6.515   3.627  0.5597 -0.4964 -0.7999
 9399TIP3    H228162   4.317   6.401   3.662  0.3980 -0.5709 -1.4650
 9400TIP3   OH228163   3.080   3.432   2.457  0.0825  0.2613  0.2388
 9400TIP3    H128164   3.143   3.493   2.494 -0.0907  0.1914  0.6595
 9400TIP3    H228165   3.131   3.354   2.436  0.0368 -0.0541  1.2051
 9401TIP3   OH228166   3.851   6.778   1.310  0.3820  0.1043 -0.1427
 9401TIP3    H128167   3.765   6.749   1.341  0.5753 -0.2704  0.0511
 9401TIP3    H228168   3.896   6.808   1.389  0.2507  0.7730 -0.3147
 9402TIP3   OH228169   6.504   6.403   4.971  0.5687 -0.4048  0.4605
 9402TIP3    H128170   6.437   6.427   5.036 -1.0604  0.7989 -1.5212
 9402TIP3    H228171   6.460   6.341   4.913  1.2143  0.2494 -0.7700
 9403TIP3   OH228172   5.601   3.999   5.728 -0.7703  0.5524  1.0335
 9403TIP3    H128173   5.629   3.955   5.808 -2.2040 -0.3120  1.0967
 9403TIP3    H228174   5.584   3.927   5.667 -0.0944  1.1861  0.0720
 9404TIP3   OH228175   6.276   4.217   5.033  0.7000  0.2287 -0.5835
 9404TIP3    H128176   6.230   4.233   5.115  1.0036  2.2229 -0.7458
 9404TIP3    H228177   6.358   4.266   5.041  0.7903  0.3725 -2.0093
 9405TIP3   OH228178   4.382   0.495   1.462  0.4030 -0.0065  0.4939
 9405TIP3    H128179   4.456   0.538   1.504 -0.6049  1.8692  0.4573
 9405TIP3    H228180   4.339   0.448   1.533  0.6306  0.3564  0.8806
 9406TIP3   OH228181   6.534   0.634   4.140 -0.0230  0.1051  0.0985
 9406TIP3    H128182   6.580   0.585   4.071 -0.3399 -0.4276  0.2632
 9406TIP3    H228183   6.541   0.726   4.112  2.0356  0.1571  0.6399
 9407TIP3   OH228184   1.746   0.700   4.972 -0.3823 -0.2030 -0.1152
 9407TIP3    H128185   1.808   0.638   4.933  0.9079  0.0449  1.4438
 9407TIP3    H228186   1.777   0.712   5.062  0.1440  3.5766 -0.6377
 9408TIP3   OH228187   5.649   5.608   0.224 -0.3805 -0.4036  0.2055
 9408TIP3    H128188   5.735   5.624   0.185 -0.7518  0.6239 -0.2356
 9408TIP3    H228189   5.608   5.542   0.169 -0.4025  0.1077 -0.3965
 9409TIP3   OH228190   2.344   3.260   1.524 -0.0563 -0.4219  0.3198
 9409TIP3    H128191   2.388   3.324   1.581 -1.4243  0.9654 -0.1150
 9409TIP3    H228192   2.278   3.311   1.478 -1.5007 -2.2443  0.2658
 9410TIP3   OH228193   1.129   5.884   4.861 -0.4957 -0.4110  0.8506
 9410TIP3    H128194   1.065   5.825   4.899 -1.3311 -1.4545 -1.9284
 9410TIP3    H228195   1.078   5.944   4.806  0.7153  0.1500  0.2807
 9411TIP3   OH228196   0.233   0.566   3.035 -0.5046  0.0920 -0.6600
 9411TIP3    H128197   0.240   0.502   2.964  1.5683  0.5423 -0.9358
 9411TIP3    H228198   0.179   0.636   2.999 -1.3428 -0.6890 -0.9691
 9412TIP3   OH228199   1.802   3.085   3.171 -0.4864  0.1416 -0.0280
 9412TIP3    H128200   1.758   3.165   3.144  1.2549  0.9257 -0.7005
 9412TIP3    H228201   1.749   3.052   3.243 -1.5974  1.5450 -0.1491
 9413TIP3   OH228202   1.956   6.031   3.944 -0.4064 -0.2447 -0.3448
 9413TIP3    H128203   2.012   6.088   3.998  0.9076 -0.5674 -1.3277
 9413TIP3    H228204   1.914   6.091   3.883 -0.7524 -0.0618  0.0666
 9414TIP3   OH228205   4.492   4.739   2.848  0.8318 -0.1410  0.3658
 9414TIP3    H128206   4.409   4.745   2.897 -0.4210 -0.4051 -1.6064
 9414TIP3    H228207   4.535   4.823   2.863 -0.2437  0.3686  0.6995
 9415TIP3   OH228208   5.431   0.354   1.645  0.5043  0.1666 -0.0479
 9415TIP3    H128209   5.459   0.420   1.582 -1.4952  2.1993  1.0881
 9415TIP3    H228210   5.345   0.326   1.614  0.4969 -0.4969  0.5376
 9416TIP3   OH228211   2.936   0.211   3.361 -0.0490  0.4621  0.5931
 9416TIP3    H128212   3.002   0.203   3.292  1.6567  2.0085  1.9389
 9416TIP3    H228213   2.896   0.124   3.366  2.4115 -0.7981  0.1954
 9417TIP3   OH228214   1.111   0.050   2.772  0.0146  0.3757 -0.5941
 9417TIP3    H128215   1.127  -0.044   2.767 -0.1466  0.2293  1.2496
 9417TIP3    H228216   1.197   0.090   2.763  0.3962 -0.0624  0.9032
 9418TIP3   OH228217   2.586   1.472   5.647  0.4516 -0.4813 -0.0682
 9418TIP3    H128218   2.509   1.527   5.654 -0.6621 -2.0696  0.8121
 9418TIP3    H228219   2.582   1.436   5.558  0.5972  0.0309 -0.2812
 9419TIP3   OH228220   0.395   5.933   3.192  0.2950 -0.5006  0.2145
 9419TIP3    H128221   0.410   5.892   3.106  1.2968  1.1077 -0.4061
 9419TIP3    H228222   0.338   5.871   3.238 -0.7819 -1.1270 -1.8413
 9420TIP3   OH228223   0.992   2.771   2.059 -0.0405  0.2559 -0.2492
 9420TIP3    H128224   0.917   2.802   2.009 -0.5482 -0.0771  0.2951
 9420TIP3    H228225   1.063   2.830   2.034 -1.2625  2.7188  1.6878
 9421TIP3   OH228226   3.074   4.261   5.044 -0.1929  0.0946  0.1696
 9421TIP3    H128227   3.087   4.353   5.020  0.7003 -0.6273 -2.4447
 9421TIP3    H228228   3.058   4.263   5.138  0.5520  2.8524  0.3255
 9422TIP3   OH228229   2.233   1.324   2.892 -0.0148  0.7517 -0.1153
 9422TIP3    H128230   2.279   1.345   2.810 -0.1566  1.3025 -0.0540
 9422TIP3    H228231   2.143   1.352   2.877 -0.7408 -1.6959 -0.7966
 9423TIP3   OH228232   4.231   4.952   2.122  1.1218 -0.1248 -0.0925
 9423TIP3    H128233   4.191   4.914   2.201 -1.9936  0.2588 -1.3345
 9423TIP3    H228234   4.289   5.020   2.155 -0.6566  0.5255  1.9102
 9424TIP3   OH228235   6.350   5.780   0.267 -0.1940  0.1897  0.4404
 9424TIP3    H128236   6.403   5.756   0.343  0.7118  1.4920  0.2578
 9424TIP3    H228237   6.261   5.757   0.292  0.3931 -1.7123  0.9013
 9425TIP3   OH228238   7.104   0.407   1.525 -0.4269 -0.1133 -0.8851
 9425TIP3    H128239   7.013   0.429   1.508 -0.3739  0.9862  0.0909
 9425TIP3    H228240   7.104   0.371   1.614  0.1790  0.6307 -0.5677
 9426TIP3   OH228241   2.968   5.390   3.672  0.1834 -0.0860  0.3118
 9426TIP3    H128242   2.944   5.462   3.730  1.1836  0.6712 -0.1852
 9426TIP3    H228243   2.894   5.330   3.676 -0.4375  0.7184  1.1463
 9427TIP3   OH228244   1.977   1.030   4.720  0.2777  0.3414 -0.2199
 9427TIP3    H128245   1.897   0.984   4.744  1.3791 -1.4440  0.2344
 9427TIP3    H228246   1.948   1.098   4.659 -1.6320  0.1205  0.3692
 9428TIP3   OH228247   4.019   5.666   0.701 -0.7386  0.3368  0.0802
 9428TIP3    H128248   4.105   5.623   0.698 -0.1916  1.4704 -1.5563
 9428TIP3    H228249   4.023   5.720   0.780  0.2482  0.7606 -0.2445
 9429TIP3   OH228250   0.650   4.250   0.005  0.5499  0.1301 -0.1830
 9429TIP3    H128251   0.722   4.271   0.066  0.1188 -1.1498  0.8077
 9429TIP3    H228252   0.643   4.155   0.009 -0.7193  0.1869 -0.8391
 9430TIP3   OH228253   5.932   0.145   2.368  0.1467  0.1314  0.2423
 9430TIP3    H128254   5.995   0.147   2.441  1.2090  0.2305 -0.6585
 9430TIP3    H228255   5.888   0.060   2.377  1.5039 -0.6299 -0.0008
 9431TIP3   OH228256   1.380   0.261   2.446 -0.0993 -0.4448  0.3615
 9431TIP3    H128257   1.371   0.327   2.515 -0.1310 -0.7697  0.6664
 9431TIP3    H228258   1.343   0.303   2.368 -1.0278 -0.4655  0.7870
 9432TIP3   OH228259   2.118   5.406   1.593  0.0153  0.0911 -0.6843
 9432TIP3    H128260   2.121   5.426   1.686  2.2710 -1.1243 -0.4225
 9432TIP3    H228261   2.060   5.330   1.587  2.7055 -2.1924  0.3324
 9433TIP3   OH228262   1.774   6.548   5.359 -0.3531  0.3883 -0.4372
 9433TIP3    H128263   1.865   6.574   5.353 -0.3623  0.5075 -0.1040
 9433TIP3    H228264   1.764   6.477   5.295 -0.1351  0.6651 -0.7733
 9434TIP3   OH228265   0.762   3.215   2.963 -0.2260 -0.6345  0.2513
 9434TIP3    H128266   0.731   3.150   3.026 -0.4559  0.1829  0.9947
 9434TIP3    H228267   0.764   3.297   3.012 -0.3398  0.0056 -0.7850
 9435TIP3   OH228268   5.635   6.249   5.635 -0.6567  0.0822  0.2914
 9435TIP3    H128269   5.605   6.170   5.679 -2.5834  1.0193  0.8041
 9435TIP3    H228270   5.721   6.268   5.674 -1.0178 -0.7169  1.5254
 9436TIP3   OH228271   5.258   5.212   0.342  0.6809  0.1474  0.4698
 9436TIP3    H128272   5.240   5.141   0.281  2.2176  0.7444 -0.7621
 9436TIP3    H228273   5.342   5.248   0.313  1.1237  0.9372  2.5044
 9437TIP3   OH228274   4.127   5.440   3.961 -0.3864  0.0406  0.3019
 9437TIP3    H128275   4.170   5.463   3.879  1.5993 -1.8969  0.6873
 9437TIP3    H228276   4.102   5.524   4.000  0.8021  1.1228 -1.1620
 9438TIP3   OH228277   4.771   1.332   1.067  0.5280  0.0584  0.2679
 9438TIP3    H128278   4.787   1.405   1.007 -0.6239  1.2090  1.2835
 9438TIP3    H228279   4.707   1.367   1.129  1.8735 -0.9555  2.3414
 9439TIP3   OH228280   6.029   3.908   1.589 -0.2676 -0.1251  0.1751
 9439TIP3    H128281   6.011   3.922   1.496 -1.2185  1.6071  0.5840
 9439TIP3    H228282   5.945   3.919   1.633  0.0652 -1.4339  1.2231
 9440TIP3   OH228283   6.749   5.964   0.523 -0.3416  0.2123 -0.5231
 9440TIP3    H128284   6.673   6.017   0.545  0.2311  0.7168  0.3004
 9440TIP3    H228285   6.780   6.000   0.440 -0.7510  0.2723 -0.6546
 9441TIP3   OH228286   0.142   4.048   4.171 -0.0223  0.1176  0.3396
 9441TIP3    H128287   0.223   4.058   4.221 -0.4465  0.9469  0.8678
 9441TIP3    H228288   0.148   3.959   4.135  1.2820  0.2869  0.0768
 9442TIP3   OH228289   4.962   1.623   4.783  0.5939 -0.0123 -0.2443
 9442TIP3    H128290   4.882   1.674   4.772 -0.3589 -0.9500  1.7268
 9442TIP3    H228291   4.944   1.540   4.740  0.5091 -0.2112  0.1706
 9443TIP3   OH228292   1.135   3.401   2.266 -0.4713 -0.4423 -0.2510
 9443TIP3    H128293   1.197   3.382   2.336 -1.4900 -0.0714  0.8001
 9443TIP3    H228294   1.094   3.484   2.292 -1.4139 -0.6858 -0.8997
 9444TIP3   OH228295   5.265   0.490   3.557  0.1778 -0.1703 -0.4892
 9444TIP3    H128296   5.357   0.463   3.557  0.5289  0.9117 -1.4951
 9444TIP3    H228297   5.220   0.424   3.504 -0.0720 -1.9089  1.7269
 9445TIP3   OH228298   5.326   0.040   0.333  0.2252 -0.0721  0.7551
 9445TIP3    H128299   5.251   0.003   0.380  0.5005 -0.2046  1.0949
 9445TIP3    H228300   5.400  -0.011   0.364  0.2375 -1.0693 -0.8350
 9446TIP3   OH228301   1.471   5.475   4.563  0.5964  0.2990  0.6469
 9446TIP3    H128302   1.457   5.463   4.657  0.5758  0.3113  0.6452
 9446TIP3    H228303   1.468   5.386   4.528 -0.5367  0.3794  0.4999
 9447TIP3   OH228304   5.097   5.045   4.121  0.2253  0.4360 -0.6605
 9447TIP3    H128305   5.133   4.970   4.075 -1.4770  0.4039 -2.0450
 9447TIP3    H228306   5.011   5.058   4.082 -1.2301  0.6102  2.3209
 9448TIP3   OH228307   7.092   2.149   1.039  0.3075 -0.4555  0.1149
 9448TIP3    H128308   7.016   2.199   1.010 -0.1241 -0.7974  0.6134
 9448TIP3    H228309   7.055   2.083   1.098  1.1440  0.2549  1.4818
 9449TIP3   OH228310   6.553   2.662   1.103  0.3300 -0.1940  0.2631
 9449TIP3    H128311   6.471   2.706   1.081  0.0770  0.2339  1.9477
 9449TIP3    H228312   6.615   2.734   1.118  0.8027 -0.4988 -0.2107
 9450TIP3   OH228313   6.096   1.968   1.643 -0.2683 -0.0262 -0.2196
 9450TIP3    H128314   6.149   1.902   1.688 -0.2751 -0.2464 -0.5292
 9450TIP3    H228315   6.008   1.930   1.638 -0.2444 -0.0522 -0.5065
 9451TIP3   OH228316   3.883   4.199   4.519  0.3781  0.6619  0.0429
 9451TIP3    H128317   3.899   4.157   4.603  1.2809  0.2611 -0.3094
 9451TIP3    H228318   3.788   4.207   4.513  0.2384 -0.5218  0.5109
 9452TIP3   OH228319   6.463   5.269   2.945  0.0541  0.2419  0.3227
 9452TIP3    H128320   6.551   5.293   2.915  0.3991 -0.7180  0.5000
 9452TIP3    H228321   6.428   5.214   2.875 -0.8873  1.5694 -0.2803
 9453TIP3   OH228322   1.783   1.858   5.766 -0.0319 -0.0779 -0.0969
 9453TIP3    H128323   1.710   1.814   5.723 -0.5876 -1.2152  1.8810
 9453TIP3    H228324   1.858   1.801   5.750 -0.2806 -0.6061  0.5520
 9454TIP3   OH228325   4.993   2.407   2.757  0.1117  0.3713  0.1495
 9454TIP3    H128326   4.931   2.367   2.696 -0.7619 -0.2354  1.4052
 9454TIP3    H228327   4.949   2.486   2.788 -0.2688 -0.3265  1.4318
 9455TIP3   OH228328   1.482   6.195   2.726  0.0041 -0.5121 -0.2544
 9455TIP3    H128329   1.520   6.221   2.642 -1.4808  0.3314 -0.7001
 9455TIP3    H228330   1.465   6.101   2.717  1.3430 -0.7647 -0.2799
 9456TIP3   OH228331   6.280   0.577   3.896  0.1426  0.1161 -0.1453
 9456TIP3    H128332   6.188   0.593   3.915 -0.0622 -2.2889  1.3969
 9456TIP3    H228333   6.327   0.645   3.945 -0.7756 -0.0962  1.0760
 9457TIP3   OH228334   1.457   4.168   3.342 -0.0462 -0.2772 -0.8474
 9457TIP3    H128335   1.544   4.167   3.383 -0.9760 -2.8710  1.3280
 9457TIP3    H228336   1.403   4.220   3.401 -0.9453 -2.4376  0.3368
 9458TIP3   OH228337   5.716   1.081   4.062  0.4535 -0.0237 -0.2258
 9458TIP3    H128338   5.758   1.155   4.106 -0.3653  0.2387  0.1387
 9458TIP3    H228339   5.645   1.055   4.122 -0.7135  0.3597 -1.3865
 9459TIP3   OH228340   4.611   5.732   3.693  0.1404  0.0843  0.3238
 9459TIP3    H128341   4.619   5.823   3.722  1.6343  0.2763 -0.6177
 9459TIP3    H228342   4.680   5.720   3.629 -0.2732 -1.6236  0.1315
 9460TIP3   OH228343   5.844   2.025   5.733  0.2116 -0.0692 -0.3903
 9460TIP3    H128344   5.916   2.038   5.795  1.4079 -0.7751 -1.5765
 9460TIP3    H228345   5.863   1.940   5.693 -0.9324  0.0390 -1.1968
 9461TIP3   OH228346   5.489   0.620   5.004  0.4856  0.2202 -0.2631
 9461TIP3    H128347   5.581   0.605   4.984 -0.0534 -1.0734 -2.0020
 9461TIP3    H228348   5.475   0.712   4.982  1.0455  0.0566 -1.3601
 9462TIP3   OH228349   0.778   2.223   1.622 -0.2200  0.4717 -0.1194
 9462TIP3    H128350   0.865   2.247   1.655  0.3432 -0.7339 -0.6652
 9462TIP3    H228351   0.796   2.175   1.541 -1.4314  0.6959 -0.5378
 9463TIP3   OH228352   5.456   2.605   3.647  0.2680  0.1126 -0.4314
 9463TIP3    H128353   5.451   2.516   3.612 -0.8390  0.1582 -0.4167
 9463TIP3    H228354   5.455   2.661   3.569 -0.2230  0.1478 -0.4018
 9464TIP3   OH228355   2.872   1.926   5.838  0.1258 -0.1088 -0.4040
 9464TIP3    H128356   2.812   1.965   5.901 -1.9783 -2.0600 -1.0828
 9464TIP3    H228357   2.940   1.885   5.891  0.8942  2.0752  0.3775
 9465TIP3   OH228358   5.486   2.749   3.416  0.0060 -0.7360  0.3765
 9465TIP3    H128359   5.419   2.817   3.404  0.8471  0.2018  0.8383
 9465TIP3    H228360   5.537   2.753   3.335  0.3193 -0.5133  0.5844
 9466TIP3   OH228361   4.027   2.168   3.531  0.1039 -0.3110 -0.2270
 9466TIP3    H128362   4.108   2.142   3.574  0.0370 -0.0300  0.0740
 9466TIP3    H228363   4.039   2.260   3.510 -0.5080 -0.0033  0.6981
 9467TIP3   OH228364   0.874   3.095   2.534  0.2968  0.0421 -0.2082
 9467TIP3    H128365   0.801   3.136   2.579  0.9104  0.3906  0.4884
 9467TIP3    H228366   0.883   3.144   2.452 -0.6241 -0.3917 -0.5717
 9468TIP3   OH228367   1.833   2.066   3.144 -0.6687  0.5332  0.3219
 9468TIP3    H128368   1.860   1.975   3.140 -0.8692  0.4518  0.8512
 9468TIP3    H228369   1.773   2.076   3.070  0.2475  0.5411 -0.4484
 9469TIP3   OH228370   1.876   3.021   2.770 -0.4170  0.6726  0.3061
 9469TIP3    H128371   1.783   3.002   2.757  0.2998 -2.1662 -1.5101
 9469TIP3    H228372   1.904   2.956   2.834  0.3051  1.6747  1.0332
 9470TIP3   OH228373   0.988   4.066   4.927 -0.2927  0.4869  0.3730
 9470TIP3    H128374   1.026   4.144   4.966  1.1818 -0.2530  0.5196
 9470TIP3    H228375   0.989   4.083   4.833  2.5748 -0.3259  0.1564
 9471TIP3   OH228376   6.517   4.579   5.839 -0.4547  0.0971  0.1504
 9471TIP3    H128377   6.584   4.622   5.892  1.6346 -2.3745 -0.3071
 9471TIP3    H228378   6.435   4.620   5.867  0.9514  1.5539  2.4990
 9472TIP3   OH228379   1.234   0.983   3.805 -0.3212 -0.0040 -0.1514
 9472TIP3    H128380   1.298   1.054   3.791  1.2862 -1.3230  0.1848
 9472TIP3    H228381   1.266   0.938   3.883 -1.6152 -0.7997 -0.0635
 9473TIP3   OH228382   3.651   6.318   5.642  0.1214  0.3086 -0.4741
 9473TIP3    H128383   3.728   6.330   5.697  0.0704  0.3307 -0.4070
 9473TIP3    H228384   3.613   6.235   5.672 -1.0841  1.3170  0.9784
 9474TIP3   OH228385   1.494   2.616   5.237 -0.0056  0.0353 -0.2131
 9474TIP3    H128386   1.475   2.696   5.188 -0.2065 -0.7885 -1.5585
 9474TIP3    H228387   1.571   2.579   5.194  0.8255  0.1115  1.1689
 9475TIP3   OH228388   0.675   1.406   1.468 -0.0475  0.3772  0.2240
 9475TIP3    H128389   0.751   1.417   1.525  0.4980 -0.5863 -0.2872
 9475TIP3    H228390   0.682   1.478   1.405  0.2764  0.4701  0.3602
 9476TIP3   OH228391   4.424   4.051   0.837 -0.1628 -0.6463  0.2777
 9476TIP3    H128392   4.375   4.108   0.778  1.1546 -0.9760 -1.2099
 9476TIP3    H228393   4.421   3.965   0.796  1.7654 -0.6417 -0.0015
 9477TIP3   OH228394   4.278   4.495   2.371 -0.2922 -0.2502  0.1439
 9477TIP3    H128395   4.213   4.504   2.441  0.6018  3.2183  0.7471
 9477TIP3    H228396   4.341   4.431   2.405 -0.9716 -0.1979  1.6129
 9478TIP3   OH228397   1.825   4.557   5.290 -0.7241  0.5712  0.4115
 9478TIP3    H128398   1.912   4.590   5.313 -0.4423 -0.7699  1.4113
 9478TIP3    H228399   1.774   4.570   5.369 -0.4733 -1.7176  1.0182
 9479TIP3   OH228400   6.606   6.740   1.301 -0.3257 -0.2538 -0.0795
 9479TIP3    H128401   6.579   6.804   1.235 -1.3844 -0.7296 -0.1148
 9479TIP3    H228402   6.547   6.755   1.374 -0.8473 -1.4631 -0.2436
 9480TIP3   OH228403   4.906   4.551   1.997  0.3456  0.1305  0.1327
 9480TIP3    H128404   4.982   4.577   2.048  0.1349  3.5446 -1.0593
 9480TIP3    H228405   4.942   4.495   1.928  1.0668 -1.8656  2.0206
 9481TIP3   OH228406   0.831   4.739   3.491 -0.4696  0.4291  0.1492
 9481TIP3    H128407   0.923   4.714   3.490 -0.0804  1.7861 -0.3855
 9481TIP3    H228408   0.815   4.773   3.403 -1.6355 -0.2901  0.0698
 9482TIP3   OH228409   6.324   2.193   1.151 -0.4224 -0.0681 -0.1706
 9482TIP3    H128410   6.385   2.240   1.207 -0.8854  0.7315 -0.3265
 9482TIP3    H228411   6.273   2.138   1.211 -0.6568  0.4963  0.1552
 9483TIP3   OH228412   1.127   6.066   3.395  0.0708 -0.3182  0.4159
 9483TIP3    H128413   1.050   6.123   3.402  0.1135 -0.0438 -1.0555
 9483TIP3    H228414   1.151   6.048   3.486  0.0479  2.0013  0.9424
 9484TIP3   OH228415   4.859   3.877   0.877  0.0805 -0.3572  0.0801
 9484TIP3    H128416   4.798   3.924   0.934  0.5880  0.0160  0.3210
 9484TIP3    H228417   4.901   3.814   0.935  0.5469 -0.0231  0.1145
 9485TIP3   OH228418   3.283   0.782   2.571  0.0571 -0.0184 -0.2908
 9485TIP3    H128419   3.311   0.767   2.481  1.6789 -0.6898  0.2842
 9485TIP3    H228420   3.276   0.878   2.578  2.8375  0.2628 -0.3625
 9486TIP3   OH228421   4.949   1.561   2.342  0.0091 -0.1172 -0.1455
 9486TIP3    H128422   4.898   1.495   2.296 -0.7798  1.1052 -1.0871
 9486TIP3    H228423   4.940   1.538   2.435 -0.8997 -0.8750 -0.4075
 9487TIP3   OH228424   5.129   2.391   5.039 -0.4339 -0.2216  0.6806
 9487TIP3    H128425   5.092   2.472   5.074 -0.1089  0.7690 -1.1620
 9487TIP3    H228426   5.218   2.387   5.075 -0.4095  0.3109  0.6781
 9488TIP3   OH228427   4.522   2.648   0.349  0.1704 -0.2081 -0.2151
 9488TIP3    H128428   4.597   2.654   0.289  0.6771  1.0387  0.5050
 9488TIP3    H228429   4.562   2.633   0.435 -0.4382  0.0009  0.1077
 9489TIP3   OH228430   6.997   2.415   5.345  0.1884  0.5450 -0.3200
 9489TIP3    H128431   7.087   2.436   5.321  0.3078 -0.0695 -0.4370
 9489TIP3    H228432   7.005   2.354   5.418 -0.1706  1.8148  0.8088
 9490TIP3   OH228433   5.507   2.343   1.652  0.1262  0.0093 -0.2914
 9490TIP3    H128434   5.417   2.330   1.680  0.5761  0.2628  1.3863
 9490TIP3    H228435   5.537   2.257   1.624 -0.8356  0.0619 -1.5645
 9491TIP3   OH228436   3.380   2.900   2.029  0.2642 -0.0331  0.2075
 9491TIP3    H128437   3.293   2.911   1.992 -0.1996 -2.5215  0.3909
 9491TIP3    H228438   3.365   2.875   2.120  1.1540 -0.5023  0.2417
 9492TIP3   OH228439   4.005   6.589   2.899  0.1319 -0.2173  0.2693
 9492TIP3    H128440   3.913   6.570   2.881 -0.2954  1.2361  0.7965
 9492TIP3    H228441   4.040   6.619   2.815 -1.0600  3.5035  0.9138
 9493TIP3   OH228442   1.685   4.604   5.523 -0.4863  0.2709  0.0533
 9493TIP3    H128443   1.600   4.601   5.480 -0.6922 -1.4718  0.5297
 9493TIP3    H228444   1.681   4.683   5.578 -0.4452  2.2005 -2.5138
 9494TIP3   OH228445   2.813   2.130   3.831 -0.1815 -0.3714  0.1386
 9494TIP3    H128446   2.793   2.040   3.855  0.6360 -0.4126  0.7058
 9494TIP3    H228447   2.797   2.134   3.737 -1.0534 -0.8685  0.2499
 9495TIP3   OH228448   4.745   0.397   2.849  0.4219  0.8993 -0.4797
 9495TIP3    H128449   4.823   0.342   2.848 -0.3973 -0.3097  0.2804
 9495TIP3    H228450   4.775   0.481   2.815  1.5521 -0.1773 -2.2816
 9496TIP3   OH228451   0.607   4.815   0.726  0.4992  0.6879 -0.2017
 9496TIP3    H128452   0.570   4.735   0.765 -0.0880  0.7699 -0.5872
 9496TIP3    H228453   0.582   4.884   0.787  3.1267  0.3061  1.5043
 9497TIP3   OH228454   6.869   0.168   5.561  0.1520 -0.1337 -0.0166
 9497TIP3    H128455   6.912   0.166   5.475 -0.3798  1.1960 -0.3318
 9497TIP3    H228456   6.849   0.260   5.576 -1.1334 -0.5305  0.8450
 9498TIP3   OH228457   2.709   1.298   3.285  0.2390  0.2488  0.2961
 9498TIP3    H128458   2.656   1.377   3.294 -1.6153 -0.8833 -0.0071
 9498TIP3    H228459   2.761   1.312   3.207 -0.6426  0.8793 -0.1998
 9499TIP3   OH228460   5.300   6.320   0.965 -0.0923  0.2715 -0.3561
 9499TIP3    H128461   5.220   6.281   0.930 -0.0140  0.7638 -1.0880
 9499TIP3    H228462   5.352   6.245   0.995 -0.8763 -0.0490  0.2581
 9500TIP3   OH228463   2.412   2.476   5.649 -0.0891 -0.0832  0.3387
 9500TIP3    H128464   2.474   2.455   5.579 -0.8888  0.3026 -0.5076
 9500TIP3    H228465   2.385   2.391   5.683  0.4973 -0.2672  0.3571
 9501TIP3   OH228466   3.261   5.878   4.198  0.7632  0.2812  0.0350
 9501TIP3    H128467   3.221   5.879   4.285  2.1708  0.0745  0.7101
 9501TIP3    H228468   3.295   5.967   4.187 -0.4644  0.6767 -0.8487
 9502TIP3   OH228469   7.200   6.294   5.331 -0.0691  0.5902 -0.1208
 9502TIP3    H128470   7.212   6.325   5.421  0.7075  0.5874 -0.2143
 9502TIP3    H228471   7.108   6.309   5.312  0.0356  1.7876  0.2346
 9503TIP3   OH228472   3.269   6.639   5.215 -0.2965 -0.2454  0.2235
 9503TIP3    H128473   3.195   6.586   5.184  0.9033 -1.7593 -0.2034
 9503TIP3    H228474   3.330   6.575   5.251  0.4758  1.0506  1.2980
 9504TIP3   OH228475   6.469   2.405   4.343  0.2802  0.2617  0.3502
 9504TIP3    H128476   6.417   2.389   4.422 -0.0890 -0.7643 -0.0871
 9504TIP3    H228477   6.407   2.441   4.280  0.3911  0.2977  0.2618
 9505TIP3   OH228478   1.187   2.365   4.455  0.2907 -0.7553 -0.1108
 9505TIP3    H128479   1.157   2.285   4.500 -0.8179  0.1061  0.7426
 9505TIP3    H228480   1.158   2.353   4.365 -2.6974 -0.0149  0.6500
 9506TIP3   OH228481   4.247   0.685   3.389  0.1222  0.2477  0.7086
 9506TIP3    H128482   4.248   0.617   3.457 -1.2176 -0.2848  0.2298
 9506TIP3    H228483   4.156   0.714   3.386  0.0560 -0.0464 -1.1457
 9507TIP3   OH228484   4.256   5.296   0.838 -0.4931  0.2443  0.0023
 9507TIP3    H128485   4.189   5.239   0.799 -1.8335  1.7353  0.0147
 9507TIP3    H228486   4.228   5.306   0.929 -0.2530  0.8876  0.0049
 9508TIP3   OH228487   3.925   2.002   4.680  0.1994  0.0372  0.6676
 9508TIP3    H128488   3.982   1.934   4.717  2.1200 -0.1100 -2.2538
 9508TIP3    H228489   3.850   1.954   4.645  1.1331 -0.5254 -0.6212
 9509TIP3   OH228490   7.136   0.013   5.518  0.5399 -0.3680 -0.2537
 9509TIP3    H128491   7.122   0.093   5.468  1.0184  0.7464  1.3234
 9509TIP3    H228492   7.109   0.035   5.607 -1.7381 -2.7365 -0.2245
 9510TIP3   OH228493   5.936   4.877   3.166  0.2130 -0.3669 -0.1251
 9510TIP3    H128494   6.016   4.824   3.176 -1.3202 -2.9060 -0.4909
 9510TIP3    H228495   5.929   4.892   3.071  0.3545  0.0406 -0.0729
 9511TIP3   OH228496   7.086   5.605   3.850  0.0899 -0.0381  0.0047
 9511TIP3    H128497   7.052   5.636   3.766  2.5224  0.0970 -1.0090
 9511TIP3    H228498   7.028   5.533   3.875 -0.5508 -0.2134 -1.8757
 9512TIP3   OH228499   6.550   0.815   3.365  0.4308 -0.6790 -0.2777
 9512TIP3    H128500   6.614   0.883   3.345 -0.5772  0.5596  0.5766
 9512TIP3    H228501   6.492   0.854   3.430 -0.4046 -2.2331 -0.0303
 9513TIP3   OH228502   2.392   0.781   1.980  0.2538  0.3567 -0.7870
 9513TIP3    H128503   2.315   0.736   2.015 -0.1259  1.8949  0.4505
 9513TIP3    H228504   2.459   0.713   1.975 -0.5910 -0.5738  0.0570
 9514TIP3   OH228505   1.384   3.645   3.713 -0.4812  0.3190  0.3769
 9514TIP3    H128506   1.289   3.639   3.723 -0.7745  0.4226 -1.8357
 9514TIP3    H228507   1.418   3.579   3.773 -2.0106 -0.4036  0.5184
 9515TIP3   OH228508   2.190   3.094   0.476  0.0490  0.1755 -0.0469
 9515TIP3    H128509   2.254   3.147   0.524  1.1809 -1.3904  0.2371
 9515TIP3    H228510   2.240   3.020   0.442 -2.0291 -2.6583  2.5389
 9516TIP3   OH228511   5.744   1.474   1.502  0.3108  0.6012  0.7323
 9516TIP3    H128512   5.684   1.521   1.444 -0.3523  1.6369  2.2029
 9516TIP3    H228513   5.772   1.398   1.450 -0.0144  1.6238 -1.0318
 9517TIP3   OH228514   6.826   5.027   0.354  0.5249  0.6942  0.2401
 9517TIP3    H128515   6.765   5.021   0.280 -1.2881 -1.2641  1.7802
 9517TIP3    H228516   6.794   5.101   0.405 -1.1151 -0.7456  1.4103
 9518TIP3   OH228517   4.335   6.317   1.753  0.0758  0.0849  0.3722
 9518TIP3    H128518   4.431   6.314   1.752  0.1147  1.0180 -0.1302
 9518TIP3    H228519   4.308   6.231   1.787  1.0786 -0.2880  0.2538
 9519TIP3   OH228520   0.935   0.410   2.134  0.3322  0.8060 -0.5635
 9519TIP3    H128521   0.971   0.499   2.127  0.5287  0.6270 -2.1179
 9519TIP3    H228522   0.961   0.367   2.053 -2.6048  0.3537 -1.3642
 9520TIP3   OH228523   4.707   5.950   4.471 -0.2442  0.4696 -0.2690
 9520TIP3    H128524   4.649   5.923   4.543  0.8716 -1.0489  0.1136
 9520TIP3    H228525   4.656   5.933   4.392 -1.5875  2.3953  0.1000
 9521TIP3   OH228526   6.793   4.738   4.027 -0.1068  0.9135 -0.0087
 9521TIP3    H128527   6.834   4.665   4.074 -1.0427  1.9102  2.4758
 9521TIP3    H228528   6.706   4.706   4.005 -0.8568  1.5042  1.8903
 9522TIP3   OH228529   2.594   1.101   2.179 -0.1289  0.2279  0.0705
 9522TIP3    H128530   2.636   1.032   2.127 -0.1784  0.7630 -0.6980
 9522TIP3    H228531   2.548   1.054   2.249 -0.3564 -0.5261 -0.5761
 9523TIP3   OH228532   2.931   2.073   2.217  0.1974  0.1262  0.0319
 9523TIP3    H128533   2.951   2.043   2.306  2.4235 -2.4744 -1.1957
 9523TIP3    H228534   2.852   2.025   2.193  1.1627 -1.3649 -0.2993
 9524TIP3   OH228535   4.630   3.273   2.392 -0.3744  0.0009  0.2025
 9524TIP3    H128536   4.704   3.227   2.352 -0.1194  0.2794  0.3578
 9524TIP3    H228537   4.668   3.349   2.435 -0.6732 -0.1839  0.8102
 9525TIP3   OH228538   0.468   6.745   2.092 -0.4363 -0.1301  0.2627
 9525TIP3    H128539   0.550   6.748   2.043  0.6665 -0.8666  1.9740
 9525TIP3    H228540   0.400   6.764   2.026  0.7828 -2.6157 -1.8783
 9526TIP3   OH228541   4.905   3.336   2.496 -0.0981 -0.9417 -0.2137
 9526TIP3    H128542   4.877   3.358   2.585 -0.7071 -1.1306 -0.3550
 9526TIP3    H228543   4.941   3.248   2.502  4.4183  0.6887  0.8103
 9527TIP3   OH228544   3.566   6.159   2.328 -0.2635  0.1481  0.0802
 9527TIP3    H128545   3.577   6.065   2.344  0.7359  0.3135  0.4310
 9527TIP3    H228546   3.636   6.200   2.379  0.5055  0.9574 -1.5590
 9528TIP3   OH228547   2.348   1.357   3.960  0.0646 -0.0337 -0.3730
 9528TIP3    H128548   2.429   1.329   4.001  0.7397 -1.2718 -2.4178
 9528TIP3    H228549   2.369   1.444   3.924 -0.4596  0.9496  1.5215
 9529TIP3   OH228550   7.190   0.162   1.002  0.6014 -0.5776  0.0810
 9529TIP3    H128551   7.179   0.070   1.026  1.4976 -1.0996 -1.3805
 9529TIP3    H228552   7.232   0.202   1.078  0.5066 -1.4343  0.5968
 9530TIP3   OH228553   2.742   4.984   4.207 -0.0698  0.0827  0.1531
 9530TIP3    H128554   2.746   5.053   4.274  0.4339 -0.9991  1.2718
 9530TIP3    H228555   2.685   4.917   4.244 -2.0413  0.6262 -1.6832
 9531TIP3   OH228556   1.219   1.316   0.592 -0.2596 -0.3405  0.0825
 9531TIP3    H128557   1.264   1.294   0.674 -1.6844 -0.1379  0.9520
 9531TIP3    H228558   1.128   1.293   0.608 -0.6604  0.2598 -1.2485
 9532TIP3   OH228559   4.981   5.049   1.323  0.2202  0.2356  0.4671
 9532TIP3    H128560   4.975   5.020   1.414  0.4113  0.5901  0.5964
 9532TIP3    H228561   4.891   5.042   1.290 -0.0744  1.1433  1.0175
 9533TIP3   OH228562   2.053   6.610   5.417 -0.6367 -0.4745 -0.1230
 9533TIP3    H128563   2.111   6.564   5.478  1.5490  0.9806 -0.9445
 9533TIP3    H228564   2.053   6.555   5.339 -0.8433 -0.7643  0.0777
 9534TIP3   OH228565   4.336   5.440   0.031  0.3585  0.5845 -0.7250
 9534TIP3    H128566   4.307   5.408   0.117 -0.3303  1.3882 -0.6434
 9534TIP3    H228567   4.288   5.387  -0.032  0.4946  0.3204 -0.6064
 9535TIP3   OH228568   1.843   5.205   5.301 -0.2846  0.2790 -0.0721
 9535TIP3    H128569   1.900   5.268   5.345  0.8070  0.6611 -1.9282
 9535TIP3    H228570   1.861   5.122   5.345  3.1389  0.0115 -1.6830
 9536TIP3   OH228571   6.336   0.299   0.451  0.2279 -0.1973  0.1071
 9536TIP3    H128572   6.254   0.261   0.418  0.6042 -0.7923 -0.1575
 9536TIP3    H228573   6.375   0.230   0.505  0.6786 -0.0129  0.0231
 9537TIP3   OH228574   4.471   1.619   2.832 -0.0895 -0.4291  0.2804
 9537TIP3    H128575   4.507   1.702   2.865 -0.2911 -0.5968  0.9412
 9537TIP3    H228576   4.424   1.582   2.907  0.5119 -1.4325  0.1859
 9538TIP3   OH228577   0.532   0.733   3.735 -0.1868 -0.0522 -0.5518
 9538TIP3    H128578   0.619   0.719   3.696  0.2903  1.9745 -0.3543
 9538TIP3    H228579   0.542   0.815   3.784 -2.0655 -0.0961 -0.0532
 9539TIP3   OH228580   2.727   3.827   5.644  0.3772  0.4397  0.2207
 9539TIP3    H128581   2.686   3.766   5.583  0.3349  2.3938 -1.8351
 9539TIP3    H228582   2.789   3.773   5.693  0.3662 -1.2553 -1.5037
 9540TIP3   OH228583   2.470   2.928   3.668 -0.3400  0.2105 -0.8689
 9540TIP3    H128584   2.554   2.898   3.633 -0.8460  0.0407 -2.0048
 9540TIP3    H228585   2.486   2.943   3.761  1.0153  0.4681 -1.1306
 9541TIP3   OH228586   6.932   3.677   5.856 -0.3264 -0.4761 -0.1444
 9541TIP3    H128587   6.908   3.663   5.948 -0.1426 -0.7048 -0.1313
 9541TIP3    H228588   6.869   3.742   5.825 -0.2505 -0.2312  0.2044
 9542TIP3   OH228589   3.607   5.699   3.763 -0.0095 -0.1678 -0.4462
 9542TIP3    H128590   3.540   5.743   3.815  1.8375  0.0852  1.9574
 9542TIP3    H228591   3.559   5.638   3.708 -2.2096 -0.3254  1.4716
 9543TIP3   OH228592   2.217   2.781   3.682  0.7956 -0.2787 -0.0267
 9543TIP3    H128593   2.290   2.836   3.653  0.0784  0.5812 -0.2161
 9543TIP3    H228594   2.259   2.699   3.708  1.6786 -0.4439 -1.7604
 9544TIP3   OH228595   4.548   4.137   4.993 -0.9768  0.1936  0.0621
 9544TIP3    H128596   4.502   4.207   5.040  1.3187  1.3529  0.7351
 9544TIP3    H228597   4.488   4.111   4.923 -2.3936  2.0126  0.5287
 9545TIP3   OH228598   4.526   4.781   0.654  0.7555  0.7299 -0.5581
 9545TIP3    H128599   4.514   4.876   0.654  0.7527  0.7325 -0.0503
 9545TIP3    H228600   4.439   4.745   0.671  1.3296  0.7591  3.3357
 9546TIP3   OH228601   6.027   0.841   1.020  0.3454 -0.0361 -0.3282
 9546TIP3    H128602   6.087   0.802   1.084  0.6103  0.8776  0.0035
 9546TIP3    H228603   5.976   0.767   0.987  2.1302 -0.9698 -1.1761
 9547TIP3   OH228604   6.033   3.477   2.520  0.4444 -0.3430 -0.2068
 9547TIP3    H128605   6.046   3.552   2.579 -0.3628 -0.4163  0.0644
 9547TIP3    H228606   6.116   3.428   2.526  0.0425 -0.8746  1.6101
 9548TIP3   OH228607   2.967   1.274   0.269  0.0655  0.1947 -0.3862
 9548TIP3    H128608   2.904   1.246   0.335 -1.4360  1.1310 -1.3448
 9548TIP3    H228609   3.050   1.282   0.316 -0.5948 -0.7063  1.0045
 9549TIP3   OH228610   3.451   6.755   2.069 -0.2883 -0.5934  0.2089
 9549TIP3    H128611   3.386   6.705   2.117  0.2273 -1.2153  0.2810
 9549TIP3    H228612   3.535   6.724   2.103  0.0607  1.3924  1.3598
 9550TIP3   OH228613   6.968   6.452   4.094 -0.3881 -0.1508 -0.3900
 9550TIP3    H128614   6.942   6.475   4.183 -0.9898  0.5768 -0.7488
 9550TIP3    H228615   7.034   6.384   4.105 -0.9007 -0.4958  0.5956
 9551TIP3   OH228616   5.705   1.877   3.125 -0.4243 -0.3073  0.2091
 9551TIP3    H128617   5.645   1.806   3.104 -1.2758  0.9267 -1.7619
 9551TIP3    H228618   5.709   1.930   3.046  2.3834  0.3208  0.6397
 9552TIP3   OH228619   5.384   2.360   5.117  0.2001  0.1990  0.0409
 9552TIP3    H128620   5.409   2.374   5.209 -0.8151  0.5276  0.2779
 9552TIP3    H228621   5.376   2.265   5.108 -1.0346  0.2185  0.6765
 9553TIP3   OH228622   0.969   1.562   2.841 -0.2074 -0.7719  0.0080
 9553TIP3    H128623   0.902   1.520   2.895 -0.8072 -1.2078 -1.0646
 9553TIP3    H228624   0.989   1.498   2.773  1.4126 -0.7119  0.3688
 9554TIP3   OH228625   5.641   1.194   2.254  0.1929  0.2382 -0.3830
 9554TIP3    H128626   5.737   1.185   2.254  0.3808  1.9059 -0.5185
 9554TIP3    H228627   5.616   1.175   2.164  0.4148 -0.0301 -0.3910
 9555TIP3   OH228628   2.751   3.900   2.508 -0.6874 -0.1603 -0.2716
 9555TIP3    H128629   2.713   3.861   2.429  0.4140 -0.6986 -0.5531
 9555TIP3    H228630   2.753   3.829   2.572 -0.2552 -0.1120 -0.2271
 9556TIP3   OH228631   5.058   5.824   0.974 -0.2382 -0.1219  0.1846
 9556TIP3    H128632   4.987   5.889   0.975  0.9288  1.2149  1.1801
 9556TIP3    H228633   5.039   5.768   0.898 -0.5600  2.2516 -1.6157
 9557TIP3   OH228634   0.682   5.821   3.964  0.0528 -0.1317  0.2020
 9557TIP3    H128635   0.673   5.910   3.931  0.7375 -0.4313 -0.8557
 9557TIP3    H228636   0.604   5.807   4.017 -0.1928  1.0013  0.1678
 9558TIP3   OH228637   0.532   3.239   3.771  0.5090 -0.0015  0.0007
 9558TIP3    H128638   0.531   3.260   3.865  1.3549  0.0905 -0.0074
 9558TIP3    H228639   0.597   3.169   3.763 -0.6146 -1.0601 -0.3142
 9559TIP3   OH228640   1.798   5.844   2.552 -0.0098  0.3354 -0.1396
 9559TIP3    H128641   1.783   5.753   2.579  1.3985  0.2818  0.5556
 9559TIP3    H228642   1.801   5.892   2.635 -0.0840  0.9130 -0.4721
 9560TIP3   OH228643   4.238   6.413   2.555 -0.0941  0.0113 -0.4148
 9560TIP3    H128644   4.165   6.426   2.615  0.5583  0.3463  0.3226
 9560TIP3    H228645   4.238   6.491   2.499  1.5607  1.6168  1.6134
 9561TIP3   OH228646   0.100   4.878   2.126 -0.3166 -0.0100  0.4106
 9561TIP3    H128647   0.066   4.906   2.211  0.2681  0.3739  0.5175
 9561TIP3    H228648   0.048   4.800   2.104 -0.8981  0.2522  0.8222
 9562TIP3   OH228649   2.847   2.973   3.652  0.3139  0.5280 -0.1118
 9562TIP3    H128650   2.807   2.907   3.596 -0.9959 -0.9324  2.3654
 9562TIP3    H228651   2.927   2.932   3.684  1.2133  1.4667 -1.1093
 9563TIP3   OH228652   4.261   4.441   1.522  0.7673  0.8070 -0.2129
 9563TIP3    H128653   4.330   4.389   1.563  2.7192  2.4784 -1.1933
 9563TIP3    H228654   4.242   4.510   1.586 -0.6000 -0.0513  0.3635
 9564TIP3   OH228655   2.322   0.856   0.142 -0.2958  0.1148 -0.1256
 9564TIP3    H128656   2.405   0.890   0.174 -0.5623 -0.1303  0.8861
 9564TIP3    H228657   2.338   0.762   0.131 -0.9508 -0.2966  1.9717
 9565TIP3   OH228658   5.354   2.073   4.614  0.6088  0.0578 -0.1079
 9565TIP3    H128659   5.406   2.153   4.607 -2.2794  2.4058  2.5360
 9565TIP3    H228660   5.269   2.095   4.574 -0.3456 -1.6261  0.8505
 9566TIP3   OH228661   3.529   3.837   5.795 -0.5920  0.5070  0.2104
 9566TIP3    H128662   3.623   3.851   5.789 -0.4594 -0.0160  0.9396
 9566TIP3    H228663   3.492   3.892   5.726  0.3303 -0.2454 -0.9210
 9567TIP3   OH228664   0.723   2.992   0.538 -0.0696  0.8455  0.4041
 9567TIP3    H128665   0.810   2.991   0.498 -0.0507 -0.8447  0.4129
 9567TIP3    H228666   0.708   2.902   0.566 -1.8928  1.0531  0.2703
 9568TIP3   OH228667   0.957   1.085   3.896  0.4055 -0.2817  0.6190
 9568TIP3    H128668   1.053   1.084   3.893  0.5651 -1.2754  3.3906
 9568TIP3    H228669   0.936   1.164   3.945 -0.3184  0.7039 -1.2049
 9569TIP3   OH228670   6.190   1.240   2.104  0.0596 -0.0263 -0.6083
 9569TIP3    H128671   6.185   1.212   2.012  1.6439 -2.0943 -0.1340
 9569TIP3    H228672   6.225   1.164   2.150 -1.3931  0.6916  1.8658
 9570TIP3   OH228673   0.250   3.723   2.459  0.6681  0.7404  0.3782
 9570TIP3    H128674   0.330   3.731   2.407 -1.1501 -0.2616 -2.7754
 9570TIP3    H228675   0.193   3.792   2.426 -1.7254 -1.9059 -1.4244
 9571TIP3   OH228676   6.780   0.668   2.632 -0.4252  0.0899 -0.3019
 9571TIP3    H128677   6.749   0.758   2.633  2.2481  1.1055 -0.0535
 9571TIP3    H228678   6.829   0.659   2.714 -0.7910 -1.6751 -0.2370
 9572TIP3   OH228679   3.233   5.175   1.700  0.0454  0.3332  0.5742
 9572TIP3    H128680   3.293   5.101   1.708  0.3357  0.5096  0.0395
 9572TIP3    H228681   3.287   5.248   1.669 -0.0826  0.9870  1.8264
 9573TIP3   OH228682   0.364   5.397   0.800 -0.1815 -0.3315 -0.1782
 9573TIP3    H128683   0.273   5.380   0.778  0.0003 -0.9797 -0.4465
 9573TIP3    H228684   0.366   5.398   0.896 -0.0009 -3.1704 -0.0661
 9574TIP3   OH228685   5.752   4.401   5.074 -0.5950 -0.1946 -0.6802
 9574TIP3    H128686   5.677   4.428   5.127  0.7072 -0.0540  1.1772
 9574TIP3    H228687   5.748   4.305   5.074 -0.2929 -0.2133  0.1645
 9575TIP3   OH228688   6.196   5.150   3.836 -0.2779  0.0951 -0.0436
 9575TIP3    H128689   6.175   5.241   3.859  0.0436  0.7042 -1.9929
 9575TIP3    H228690   6.216   5.153   3.743 -1.4428 -2.1862 -0.4361
 9576TIP3   OH228691   1.422   2.418   0.037 -0.2126 -0.1325 -0.3474
 9576TIP3    H128692   1.335   2.391   0.007 -0.3064  0.5781 -0.7482
 9576TIP3    H228693   1.413   2.429   0.131 -1.0159  1.5299 -0.5828
 9577TIP3   OH228694   1.032   5.353   2.739  0.3136  0.1923  0.2069
 9577TIP3    H128695   1.101   5.403   2.784 -0.0426 -1.2764  2.5202
 9577TIP3    H228696   0.964   5.342   2.804 -1.8025  0.8212 -1.7632
 9578TIP3   OH228697   6.558   1.098   1.814 -0.1346  0.0021  0.1905
 9578TIP3    H128698   6.566   1.193   1.815  1.4549 -0.0645  2.7095
 9578TIP3    H228699   6.491   1.080   1.749  0.2895  2.7617 -1.1394
 9579TIP3   OH228700   3.602   5.152   0.115  0.5215 -0.1737 -0.1721
 9579TIP3    H128701   3.676   5.210   0.134  0.4755  0.5144 -1.9129
 9579TIP3    H228702   3.536   5.209   0.076 -0.2790 -1.0761 -0.1744
 9580TIP3   OH228703   4.498   2.883   1.137 -0.1076 -0.1727 -0.4903
 9580TIP3    H128704   4.454   2.846   1.060 -0.5523 -3.6836  1.2100
 9580TIP3    H228705   4.438   2.864   1.210  0.5629  2.4454  0.8633
 9581TIP3   OH228706   0.350   1.010   2.918 -0.8416 -0.2217  0.1873
 9581TIP3    H128707   0.288   0.973   2.980  3.0142 -2.9588  2.8488
 9581TIP3    H228708   0.366   0.939   2.855  2.2114 -1.1599  1.8283
 9582TIP3   OH228709   4.283   0.370   4.900 -0.8376  0.4813  0.0473
 9582TIP3    H128710   4.265   0.464   4.905 -1.5579  0.3403  0.1356
 9582TIP3    H228711   4.277   0.350   4.807  1.2413  0.8843 -0.2207
 9583TIP3   OH228712   2.109   5.668   5.133  0.0159 -0.4916  0.1969
 9583TIP3    H128713   2.150   5.669   5.047  0.3403  2.5405  0.2723
 9583TIP3    H228714   2.096   5.575   5.153  2.0402 -1.3658 -2.0914
 9584TIP3   OH228715   5.757   3.514   5.153 -0.0108  0.3038 -0.1645
 9584TIP3    H128716   5.688   3.461   5.193 -0.9351  0.0626 -1.9567
 9584TIP3    H228717   5.714   3.556   5.079  1.6227  0.6563 -0.9451
 9585TIP3   OH228718   1.786   5.157   3.042  0.0795 -0.2204  0.1344
 9585TIP3    H128719   1.742   5.183   2.960  0.1140 -1.3524 -0.2552
 9585TIP3    H228720   1.778   5.062   3.044  2.2977 -0.4398  0.1858
 9586TIP3   OH228721   6.105   2.493   3.769 -0.3573 -0.6770 -0.5544
 9586TIP3    H128722   6.032   2.543   3.806 -0.2198 -1.8616  1.4826
 9586TIP3    H228723   6.164   2.560   3.735 -1.3491  0.4227 -0.1944
 9587TIP3   OH228724   1.715   5.782   5.365 -0.3890  0.4749 -0.0483
 9587TIP3    H128725   1.658   5.807   5.438 -0.1399  4.2619 -0.9724
 9587TIP3    H228726   1.664   5.802   5.287  0.6012 -0.3160 -0.9202
 9588TIP3   OH228727   4.350   4.422   5.576  0.8964  0.2193  0.1595
 9588TIP3    H128728   4.365   4.498   5.520 -1.7292 -0.2119 -1.2859
 9588TIP3    H228729   4.281   4.450   5.636 -0.0132 -0.9267 -0.3139
 9589TIP3   OH228730   0.666   3.238   2.693 -0.3910  0.1566  0.3011
 9589TIP3    H128731   0.571   3.248   2.700 -0.6568 -1.4373 -0.5939
 9589TIP3    H228732   0.697   3.232   2.783 -1.1500  0.5710  0.5934
 9590TIP3   OH228733   2.316   3.577   5.526 -0.0211  0.1636 -0.0682
 9590TIP3    H128734   2.281   3.621   5.604 -0.2995 -0.8183  0.3670
 9590TIP3    H228735   2.247   3.516   5.499 -0.2509  1.0060 -1.5396
 9591TIP3   OH228736   2.121   5.021   1.351  0.0571 -0.3062 -0.3645
 9591TIP3    H128737   2.108   4.937   1.397  2.0054  0.3389  1.5586
 9591TIP3    H228738   2.150   4.996   1.264 -2.9962 -1.5905 -1.1704
 9592TIP3   OH228739   3.937   2.388   2.552 -0.2859 -0.0024  0.0521
 9592TIP3    H128740   3.870   2.364   2.489  0.0646 -0.5552 -0.1153
 9592TIP3    H228741   4.006   2.429   2.499  0.1161 -0.6859  0.0309
 9593TIP3   OH228742   5.564   0.073   2.823  0.0052 -0.2713 -0.0965
 9593TIP3    H128743   5.616  -0.006   2.810 -2.3538 -1.9062 -0.3142
 9593TIP3    H228744   5.592   0.132   2.754  0.8672 -1.4620 -0.8110
 9594TIP3   OH228745   2.764   3.218   5.330  0.6269  0.4394 -0.2308
 9594TIP3    H128746   2.762   3.271   5.251  1.9139 -1.0569 -1.3417
 9594TIP3    H228747   2.767   3.128   5.298  2.5214 -0.1701  1.4812
 9595TIP3   OH228748   4.512   5.061   2.197 -0.3092  0.1340  0.0821
 9595TIP3    H128749   4.542   4.983   2.243  3.5051  1.1349 -0.4061
 9595TIP3    H228750   4.513   5.036   2.105  0.4323  0.5919 -0.0382
 9596TIP3   OH228751   1.925   0.074   2.127  0.1220  0.1700  0.4324
 9596TIP3    H128752   1.880   0.139   2.180 -0.8494 -0.4475  0.3865
 9596TIP3    H228753   1.955   0.122   2.050  0.1902  0.7391  0.8066
 9597TIP3   OH228754   6.702   1.242   3.674 -0.3280 -0.1430  0.0304
 9597TIP3    H128755   6.768   1.237   3.743 -1.2047  0.7835  0.9697
 9597TIP3    H228756   6.752   1.240   3.593  0.8074 -0.1697  0.7158
 9598TIP3   OH228757   5.589   1.723   3.947 -0.0371  0.4963  0.2827
 9598TIP3    H128758   5.595   1.817   3.962 -2.7203  0.8879 -0.5611
 9598TIP3    H228759   5.550   1.689   4.028  2.9810 -0.3196  1.5128
 9599TIP3   OH228760   1.584   6.006   0.162  0.5780  0.2555  0.1649
 9599TIP3    H128761   1.596   6.008   0.257  0.9047  0.7225  0.1169
 9599TIP3    H228762   1.645   5.938   0.132 -0.5715 -0.9158  0.4261
 9600TIP3   OH228763   3.247   0.841   2.080  0.2207  0.2229  0.2668
 9600TIP3    H128764   3.321   0.782   2.063  1.8633  2.4764 -0.9433
 9600TIP3    H228765   3.172   0.795   2.044  1.1947 -1.6933  0.5457
 9601TIP3   OH228766   3.870   3.151   1.033 -0.1302 -0.5430  1.1368
 9601TIP3    H128767   3.818   3.230   1.019 -0.3898 -1.0324 -0.9856
 9601TIP3    H228768   3.864   3.134   1.127 -2.2576  0.4674  1.2298
 9602TIP3   OH228769   7.079   5.663   0.769 -0.1189 -0.0625 -0.2806
 9602TIP3    H128770   7.156   5.631   0.722 -0.6712  0.3948 -1.5302
 9602TIP3    H228771   7.004   5.633   0.717 -0.7753 -0.0220  0.6154
 9603TIP3   OH228772   1.238   6.213   4.924 -0.1931 -0.3454  0.0872
 9603TIP3    H128773   1.183   6.231   4.848  0.3250  1.7106  0.1368
 9603TIP3    H228774   1.274   6.299   4.948  1.8513 -1.3821  0.9530
 9604TIP3   OH228775   0.612   0.586   4.387 -0.5687  0.3962  0.1864
 9604TIP3    H128776   0.641   0.561   4.475 -0.5048 -1.1699 -0.2628
 9604TIP3    H228777   0.584   0.677   4.397 -1.2883  0.0172  2.0023
 9605TIP3   OH228778   4.697   0.168   2.353  0.1128 -0.6115  1.0178
 9605TIP3    H128779   4.729   0.107   2.286 -0.4110  0.5557 -0.3462
 9605TIP3    H228780   4.770   0.230   2.365 -0.0727 -0.3799  0.9589
 9606TIP3   OH228781   3.876   6.648   5.656  0.3270  0.1268  0.3034
 9606TIP3    H128782   3.894   6.656   5.562  1.5260  2.6218  0.6593
 9606TIP3    H228783   3.905   6.731   5.693  1.0079 -1.2260  3.0767
 9607TIP3   OH228784   6.413   1.712   2.032  0.0834  0.4370 -0.0345
 9607TIP3    H128785   6.386   1.628   1.995 -1.2454  1.3522 -1.2998
 9607TIP3    H228786   6.485   1.741   1.976 -2.2348  2.0437 -2.4692
 9608TIP3   OH228787   2.039   4.093   2.250  0.3871  0.5836  0.1527
 9608TIP3    H128788   2.059   4.175   2.296  3.2789 -0.5749  1.1655
 9608TIP3    H228789   2.044   4.025   2.317 -4.3384 -0.4077 -0.1129
 9609TIP3   OH228790   3.420   4.379   0.530  0.1782  0.5797 -0.0359
 9609TIP3    H128791   3.501   4.330   0.517 -0.1526  0.0598 -0.1509
 9609TIP3    H228792   3.364   4.321   0.582 -0.3470  0.6928 -0.4634
 9610TIP3   OH228793   2.495   3.607   0.084 -0.5070  0.7414  0.3527
 9610TIP3    H128794   2.588   3.619   0.064  0.3368 -1.4032  2.5977
 9610TIP3    H228795   2.457   3.575   0.002  0.9327  0.6066 -0.2973
 9611TIP3   OH228796   4.381   0.905   1.085  0.0202 -0.3455 -0.0022
 9611TIP3    H128797   4.378   0.853   1.165 -0.0920 -1.2044 -0.5470
 9611TIP3    H228798   4.465   0.880   1.044 -0.6376 -1.1318 -0.9257
 9612TIP3   OH228799   5.888   1.246   3.143 -0.3374  0.5973 -0.4397
 9612TIP3    H128800   5.956   1.208   3.087  2.0818 -2.6454  4.0301
 9612TIP3    H228801   5.815   1.184   3.138  0.0817  0.0324  0.2963
 9613TIP3   OH228802   1.450   1.150   3.768 -0.9010  0.4586 -0.0701
 9613TIP3    H128803   1.484   1.109   3.688  2.3174 -0.0099  1.3844
 9613TIP3    H228804   1.486   1.239   3.765  1.3341 -0.2775  1.8723
 9614TIP3   OH228805   3.611   4.834   1.234 -0.5232 -0.1889 -0.5832
 9614TIP3    H128806   3.575   4.881   1.158  0.0617  0.3131 -0.5559
 9614TIP3    H228807   3.692   4.879   1.253  0.7724 -2.0396 -1.4072
 9615TIP3   OH228808   6.496   5.848   0.722  0.5189  0.0794  0.0482
 9615TIP3    H128809   6.437   5.916   0.691  0.5371  0.5556  1.0225
 9615TIP3    H228810   6.441   5.769   0.723 -0.2148  0.5811  1.2526
 9616TIP3   OH228811   4.564   2.555   3.021  0.0921 -0.2389  0.6063
 9616TIP3    H128812   4.481   2.552   3.069 -0.0819  1.8998  0.5113
 9616TIP3    H228813   4.592   2.646   3.025  2.6137 -0.9345  0.8620
 9617TIP3   OH228814   6.890   6.747   2.553  0.0569 -0.0257  0.6636
 9617TIP3    H128815   6.983   6.736   2.573 -0.2197  1.3506  3.1130
 9617TIP3    H228816   6.873   6.839   2.570 -1.6850 -0.1714 -0.1465
 9618TIP3   OH228817   4.851   5.026   5.462 -0.5478  0.2453  0.0081
 9618TIP3    H128818   4.926   5.068   5.419 -0.1942 -0.9417 -0.5807
 9618TIP3    H228819   4.779   5.088   5.452  0.0996  0.9518 -0.3467
 9619TIP3   OH228820   5.810   3.771   3.248  0.3491  0.3030  0.3247
 9619TIP3    H128821   5.798   3.825   3.326  0.5398  0.5813  0.1629
 9619TIP3    H228822   5.772   3.822   3.177  2.8539  1.4462 -0.2873
 9620TIP3   OH228823   1.846   2.140   5.465  0.0869 -0.6188 -0.2840
 9620TIP3    H128824   1.805   2.212   5.417 -0.8036 -0.6961  0.3361
 9620TIP3    H228825   1.801   2.139   5.550 -0.0134 -2.0026 -0.3362
 9621TIP3   OH228826   4.353   5.349   4.120 -0.4415 -0.3989  0.4341
 9621TIP3    H128827   4.372   5.280   4.057 -0.6094 -0.2267  0.1883
 9621TIP3    H228828   4.298   5.411   4.071 -0.4591 -0.1946  0.7093
 9622TIP3   OH228829   6.189   1.741   4.223  0.9716 -0.1074  0.1805
 9622TIP3    H128830   6.201   1.657   4.269 -1.7754 -0.1440  1.0336
 9622TIP3    H228831   6.176   1.805   4.293 -1.8569  0.0925 -0.4058
 9623TIP3   OH228832   5.011   2.570   2.132  0.3666  0.1242  0.8198
 9623TIP3    H128833   4.977   2.653   2.166 -3.5146 -1.7835  2.0854
 9623TIP3    H228834   5.026   2.516   2.209  1.4281 -0.8926 -0.0512
 9624TIP3   OH228835   3.183   0.445   1.904 -0.0030  0.2383 -0.1717
 9624TIP3    H128836   3.197   0.372   1.964 -0.3487  0.0810 -0.2805
 9624TIP3    H228837   3.106   0.420   1.853 -1.0347  1.3308  0.7955
 9625TIP3   OH228838   4.959   5.023   1.668 -0.3112 -0.3717 -0.4046
 9625TIP3    H128839   4.892   5.090   1.679 -0.4489 -0.4947 -0.4927
 9625TIP3    H228840   4.915   4.941   1.690 -0.3747 -0.5275 -1.1011
 9626TIP3   OH228841   5.008   3.441   2.883 -0.4041  0.5062 -0.2901
 9626TIP3    H128842   5.035   3.533   2.888 -0.2754  0.5288 -1.2878
 9626TIP3    H228843   5.086   3.392   2.912  0.0363  0.6584 -1.1788
 9627TIP3   OH228844   2.729   1.528   4.089 -0.1074  0.7271  0.0974
 9627TIP3    H128845   2.711   1.569   4.005  1.5118 -1.3342 -1.3464
 9627TIP3    H228846   2.818   1.556   4.111 -0.5795  1.3983  1.2632
 9628TIP3   OH228847   3.737   1.261   0.855 -0.3132 -0.0896  0.1269
 9628TIP3    H128848   3.773   1.208   0.927 -0.3596 -1.1900 -0.6323
 9628TIP3    H228849   3.644   1.238   0.853  0.0245 -1.4621 -1.4140
 9629TIP3   OH228850   1.993   1.363   2.773  0.3695 -0.4995 -0.0632
 9629TIP3    H128851   2.011   1.277   2.734  0.6952 -0.1779 -0.6434
 9629TIP3    H228852   1.911   1.391   2.733  1.6751  0.7001 -2.0981
 9630TIP3   OH228853   2.075   4.161   2.696  0.0721 -0.0737 -0.4048
 9630TIP3    H128854   2.092   4.254   2.685 -3.6027  0.9486  0.9458
 9630TIP3    H228855   2.085   4.124   2.608  0.6835  1.7698 -1.1485
 9631TIP3   OH228856   4.310   4.301   0.050  0.0650  0.5151  0.5366
 9631TIP3    H128857   4.333   4.295  -0.043 -0.1758  0.8662  0.4537
 9631TIP3    H228858   4.291   4.211   0.075  1.0501  0.2752  0.4835
 9632TIP3   OH228859   4.884   3.282   1.180 -0.1770  0.3275  0.6913
 9632TIP3    H128860   4.868   3.374   1.203  1.2751  0.9493 -0.5780
 9632TIP3    H228861   4.798   3.241   1.180 -0.9467  1.8871  0.5024
 9633TIP3   OH228862   2.915   2.816   1.140 -0.4507  0.1406  0.2478
 9633TIP3    H128863   2.850   2.784   1.203 -0.6769  1.2008  0.5854
 9633TIP3    H228864   2.913   2.911   1.151 -0.8818  0.4071 -1.7422
 9634TIP3   OH228865   5.981   5.276   1.492 -0.4593  0.5959 -0.2827
 9634TIP3    H128866   6.038   5.203   1.514 -0.9987  0.4223  0.6060
 9634TIP3    H228867   6.028   5.323   1.423  0.3354 -0.0430 -0.1979
 9635TIP3   OH228868   0.091   3.456   3.701  0.0658  0.4383  0.1064
 9635TIP3    H128869   0.163   3.419   3.753 -0.6898 -1.8373 -0.3546
 9635TIP3    H228870   0.123   3.455   3.611 -0.0066  0.8268  0.0738
 9636TIP3   OH228871   7.156   3.544   5.831  0.0241  0.7834  0.1128
 9636TIP3    H128872   7.192   3.584   5.752 -0.5560  2.1216  0.4868
 9636TIP3    H228873   7.066   3.577   5.835 -0.4760 -0.5610  0.4738
 9637TIP3   OH228874   4.940   4.100   5.626  0.1104 -0.3100 -0.2121
 9637TIP3    H128875   4.875   4.086   5.557 -1.2031  1.4970  0.5896
 9637TIP3    H228876   4.895   4.077   5.707  0.8829 -0.2392  0.2534
 9638TIP3   OH228877   6.807   5.387   2.040 -0.0581 -0.1716  0.1534
 9638TIP3    H128878   6.878   5.439   2.077  0.4790 -0.2690 -0.7039
 9638TIP3    H228879   6.737   5.449   2.024  0.2816  0.1529 -0.1046
 9639TIP3   OH228880   6.733   2.040   3.200 -0.1366  0.3683 -0.1430
 9639TIP3    H128881   6.723   1.955   3.242 -0.2701 -0.5806 -2.0035
 9639TIP3    H228882   6.800   2.085   3.251  1.5684 -1.7278 -0.4148
 9640TIP3   OH228883   1.358   4.692   0.560  0.1634  0.0140  0.5196
 9640TIP3    H128884   1.275   4.683   0.608 -0.7327 -2.1824 -1.2578
 9640TIP3    H228885   1.331   4.709   0.470  1.5786 -1.5964 -0.2686
 9641TIP3   OH228886   0.394   1.296   2.920  0.7350 -0.3503  0.1135
 9641TIP3    H128887   0.398   1.202   2.906  2.0774 -0.1243 -1.3648
 9641TIP3    H228888   0.427   1.309   3.009 -0.5736 -1.3347  0.7693
 9642TIP3   OH228889   5.595   3.066   4.314 -0.0278  0.6947  0.4563
 9642TIP3    H128890   5.674   3.057   4.368 -0.1591 -1.2337  0.3867
 9642TIP3    H228891   5.524   3.078   4.377  0.3432  3.2934  0.5014
 9643TIP3   OH228892   1.798   3.492   4.625 -0.1529  0.1213  0.8081
 9643TIP3    H128893   1.703   3.491   4.607  0.2632  0.1842 -1.8593
 9643TIP3    H228894   1.827   3.404   4.601  0.6830  0.5898  0.0784
 9644TIP3   OH228895   1.610   0.430   1.492 -0.2535  0.3694 -0.0577
 9644TIP3    H128896   1.535   0.453   1.438  0.0910  1.9375  0.0904
 9644TIP3    H228897   1.652   0.514   1.512  0.4645 -0.3020  1.4160
 9645TIP3   OH228898   0.832   1.861   1.093 -0.2107 -0.0911  0.6071
 9645TIP3    H128899   0.914   1.830   1.054  0.1212  0.7397  0.6153
 9645TIP3    H228900   0.856   1.886   1.182 -0.5991 -0.3753  0.7914
 9646TIP3   OH228901   6.383   0.138   2.388 -0.4078 -0.0272  0.7325
 9646TIP3    H128902   6.351   0.225   2.412 -0.9440 -0.3832  1.3690
 9646TIP3    H228903   6.433   0.109   2.464  1.3086  0.4356 -0.1749
 9647TIP3   OH228904   3.050   3.594   1.479 -0.4011  0.3370  0.0424
 9647TIP3    H128905   2.966   3.604   1.523 -0.9323 -3.4553  0.1957
 9647TIP3    H228906   3.109   3.561   1.546 -0.4460 -2.7052 -1.2800
 9648TIP3   OH228907   7.128   4.393   2.270  0.2392 -0.1799  0.7702
 9648TIP3    H128908   7.121   4.301   2.293 -0.7119 -0.4903 -0.6536
 9648TIP3    H228909   7.057   4.435   2.319  0.5196 -0.2378  1.2287
 9649TIP3   OH228910   4.250   1.661   4.579 -0.0832  0.1009  0.2703
 9649TIP3    H128911   4.268   1.641   4.488  0.5543  1.8934 -0.0338
 9649TIP3    H228912   4.157   1.686   4.580 -0.0273  0.3146  0.0750
 9650TIP3   OH228913   0.239   4.104   2.056 -0.0119 -0.1507  0.6525
 9650TIP3    H128914   0.186   4.099   1.976 -0.1287  1.4940  0.5811
 9650TIP3    H228915   0.239   4.015   2.091  0.4066 -1.0027 -1.3963
 9651TIP3   OH228916   5.517   6.776   2.740  0.0683 -0.1350  0.4799
 9651TIP3    H128917   5.530   6.683   2.759  2.5282  0.0454  0.0153
 9651TIP3    H228918   5.498   6.815   2.825  2.1369 -0.6621  1.2617
 9652TIP3   OH228919   5.330   2.949   0.133  0.5252  0.3822 -0.2478
 9652TIP3    H128920   5.304   2.859   0.110  0.5497  0.6681 -1.4892
 9652TIP3    H228921   5.284   3.004   0.069  0.3029  1.2871  0.6628
 9653TIP3   OH228922   6.419   2.768   4.393 -0.8799  0.3766 -0.8892
 9653TIP3    H128923   6.374   2.775   4.308  0.3676 -1.6181 -1.7791
 9653TIP3    H228924   6.352   2.793   4.457 -1.9636  1.6068 -2.4013
 9654TIP3   OH228925   3.251   1.886   1.178  0.2364 -0.0653  0.5772
 9654TIP3    H128926   3.285   1.835   1.104  0.5352 -0.8697  1.2530
 9654TIP3    H228927   3.228   1.820   1.243 -2.4377  0.4581  0.2500
 9655TIP3   OH228928   2.740   1.826   3.943 -0.0009  0.0604 -0.7320
 9655TIP3    H128929   2.684   1.875   4.004 -1.1681 -1.7547 -0.2419
 9655TIP3    H228930   2.679   1.766   3.899  1.3745 -1.0514 -1.1688
 9656TIP3   OH228931   1.273   2.045   2.272  0.0010 -0.0717 -0.3752
 9656TIP3    H128932   1.357   2.092   2.269  0.2589 -0.5566 -1.2800
 9656TIP3    H228933   1.296   1.956   2.299 -0.6603  0.6024  2.8915
 9657TIP3   OH228934   6.665   1.204   5.695 -0.2188 -0.0374 -0.1638
 9657TIP3    H128935   6.598   1.260   5.736  0.3392  1.4153 -1.1340
 9657TIP3    H228936   6.747   1.250   5.711  0.7084 -2.1425  1.6094
 9658TIP3   OH228937   0.556   0.338   2.802  0.6754  0.3903  0.4541
 9658TIP3    H128938   0.534   0.275   2.734 -0.0681  0.2558  0.8101
 9658TIP3    H228939   0.585   0.416   2.754 -1.8368  1.0570 -0.1241
 9659TIP3   OH228940   0.506   5.327   3.230  0.1171  0.3077  0.4609
 9659TIP3    H128941   0.581   5.270   3.211  0.7255 -0.2231  3.8119
 9659TIP3    H228942   0.433   5.266   3.243  0.0090  0.5347  0.9187
 9660TIP3   OH228943   0.500   5.978   5.349 -0.3515  0.0209 -0.2524
 9660TIP3    H128944   0.537   5.894   5.323 -1.6807 -1.1350  1.3651
 9660TIP3    H228945   0.513   6.035   5.273  0.0260 -1.8109 -1.6253
 9661TIP3   OH228946   6.785   0.021   4.199 -0.2724 -0.1297  0.5954
 9661TIP3    H128947   6.725  -0.053   4.186 -1.7315  0.7523  1.9797
 9661TIP3    H228948   6.742   0.095   4.155  0.7832  0.0912 -0.0862
 9662TIP3   OH228949   6.538   3.292   4.100  0.0012 -0.4839  0.4431
 9662TIP3    H128950   6.449   3.326   4.088 -0.1409 -1.1853 -0.6051
 9662TIP3    H228951   6.589   3.333   4.030  0.5558  0.0369  1.1331
 9663TIP3   OH228952   2.957   3.880   5.251  0.6579  0.0812 -0.0438
 9663TIP3    H128953   2.870   3.842   5.262  1.6469 -2.1318  0.5845
 9663TIP3    H228954   2.985   3.903   5.340  1.8607 -2.0481  0.2056
 9664TIP3   OH228955   0.367   4.148   5.354  0.5067 -0.4885  0.0338
 9664TIP3    H128956   0.451   4.124   5.393  1.1349 -1.7782 -1.9827
 9664TIP3    H228957   0.347   4.234   5.391  3.4923  0.5993 -0.6398
 9665TIP3   OH228958   2.247   2.709   0.767  0.1922 -0.4807 -0.2880
 9665TIP3    H128959   2.162   2.673   0.793  1.0850 -1.5906  1.2868
 9665TIP3    H228960   2.308   2.674   0.832  1.4250  2.6053  0.3841
 9666TIP3   OH228961   6.495   6.696   3.265  0.8152  0.1860 -0.6998
 9666TIP3    H128962   6.504   6.601   3.261  0.2789  0.0232  1.0013
 9666TIP3    H228963   6.426   6.716   3.202  1.5216 -0.4262 -1.7006
 9667TIP3   OH228964   5.248   3.466   4.459 -0.2258 -0.0586  0.3479
 9667TIP3    H128965   5.172   3.483   4.404  0.3984  2.7310  0.2132
 9667TIP3    H228966   5.318   3.446   4.398 -0.0652  0.7527  0.2660
 9668TIP3   OH228967   0.581   5.440   1.013 -0.4975 -0.2560 -0.1434
 9668TIP3    H128968   0.620   5.504   1.073  0.3448  0.4237 -1.3665
 9668TIP3    H228969   0.489   5.436   1.038 -0.7832  2.1185 -0.6007
 9669TIP3   OH228970   2.064   3.873   5.422 -0.4362  0.6425 -0.1721
 9669TIP3    H128971   2.024   3.809   5.481 -0.1078 -0.9144 -1.5412
 9669TIP3    H228972   1.995   3.896   5.360  0.1398 -0.4900 -1.2965
 9670TIP3   OH228973   3.426   1.014   5.717  0.6375 -0.3620  0.1495
 9670TIP3    H128974   3.476   1.055   5.646 -2.2554  0.5806 -1.5253
 9670TIP3    H228975   3.409   0.925   5.687 -0.3389 -0.0546 -0.2492
 9671TIP3   OH228976   0.888   4.241   5.682 -0.5795 -0.0182  0.5888
 9671TIP3    H128977   0.895   4.285   5.597  0.0552 -1.7058 -0.2704
 9671TIP3    H228978   0.878   4.148   5.660  2.8026 -0.9721  2.3016
 9672TIP3   OH228979   3.448   2.898   5.360 -0.1070  0.4998 -0.5036
 9672TIP3    H128980   3.403   2.978   5.334 -0.8596  0.1444 -0.3394
 9672TIP3    H228981   3.450   2.902   5.456 -0.7946 -0.0034 -0.4557
 9673TIP3   OH228982   1.759   1.989   1.412 -0.0291 -0.9587 -0.2822
 9673TIP3    H128983   1.726   1.940   1.487  1.1106  0.4708  1.2038
 9673TIP3    H228984   1.837   1.940   1.384 -0.3186 -1.3582 -0.4061
 9674TIP3   OH228985   5.745   5.198   3.465 -0.3357 -0.0109 -0.5256
 9674TIP3    H128986   5.692   5.269   3.501  0.5486  0.3484  0.1062
 9674TIP3    H228987   5.806   5.176   3.536 -1.0162 -1.8653 -0.4350
 9675TIP3   OH228988   5.833   0.026   3.235  0.5195 -0.3959 -0.2707
 9675TIP3    H128989   5.758   0.038   3.177 -0.2007  0.6587  0.8418
 9675TIP3    H228990   5.812   0.076   3.314 -0.3828 -4.8143  2.6661
 9676TIP3   OH228991   7.193   1.195   5.404 -1.0689  0.7129  0.1027
 9676TIP3    H128992   7.173   1.168   5.494 -1.2077 -1.1841 -0.4439
 9676TIP3    H228993   7.145   1.133   5.350  3.0975 -1.7494 -1.2822
 9677TIP3   OH228994   4.279   4.686   0.720  0.0184 -0.4138 -0.0361
 9677TIP3    H128995   4.277   4.590   0.726  1.1049 -0.4163  0.6308
 9677TIP3    H228996   4.241   4.716   0.803 -1.0908 -0.2383 -0.5841
 9678TIP3   OH228997   6.007   5.078   1.018  0.1357  0.0503 -0.6456
 9678TIP3    H128998   6.004   4.986   0.992  0.1407  0.3087 -1.5990
 9678TIP3    H228999   6.016   5.126   0.936  0.3153  0.8969 -0.1458
 9679TIP3   OH229000   4.005   1.387   1.729  0.1987 -0.1800  0.4320
 9679TIP3    H129001   3.910   1.393   1.716  0.3319  1.7241 -0.0577
 9679TIP3    H229002   4.023   1.294   1.737 -1.7487 -0.5684  0.8124
 9680TIP3   OH229003   0.283   2.290   2.518  0.0406  0.2764 -0.0676
 9680TIP3    H129004   0.226   2.221   2.552 -0.8758  0.8517 -0.3953
 9680TIP3    H229005   0.235   2.326   2.444  1.0485  0.4770 -0.6386
 9681TIP3   OH229006   1.963   3.842   2.103 -1.0916 -0.4892 -0.2357
 9681TIP3    H129007   2.043   3.804   2.138  0.9298  1.1927 -2.6943
 9681TIP3    H229008   1.966   3.934   2.129 -2.3496 -0.4545 -0.1631
 9682TIP3   OH229009   5.441   5.196   4.919  0.6938 -0.1742 -0.2880
 9682TIP3    H129010   5.505   5.211   4.850  0.5676  1.4785 -0.0907
 9682TIP3    H229011   5.381   5.270   4.912  0.2985 -0.3278  1.1754
 9683TIP3   OH229012   5.299   2.632   4.845 -0.8422  0.0316 -0.8553
 9683TIP3    H129013   5.272   2.571   4.913 -2.4123  0.0451 -1.4336
 9683TIP3    H229014   5.379   2.594   4.809 -0.0242 -0.0267  0.8957
 9684TIP3   OH229015   6.540   2.260   4.017 -0.0697 -0.2320 -0.6375
 9684TIP3    H129016   6.592   2.181   4.032 -2.1874 -1.9555 -1.7764
 9684TIP3    H229017   6.546   2.275   3.922  0.0902  0.8364 -0.4676
 9685TIP3   OH229018   5.682   3.721   3.924  0.3468 -0.1273  0.0221
 9685TIP3    H129019   5.695   3.743   4.017  1.6491  0.3608 -0.2497
 9685TIP3    H229020   5.766   3.741   3.883  0.3595 -2.0494 -0.9636
 9686TIP3   OH229021   1.711   0.541   3.575  0.2984 -0.4911  0.3117
 9686TIP3    H129022   1.716   0.445   3.576  1.1380 -0.4489  0.5497
 9686TIP3    H229023   1.748   0.568   3.658  1.2287  0.0859 -0.2709
 9687TIP3   OH229024   2.380   3.797   4.778 -0.3537 -0.1792 -0.1397
 9687TIP3    H129025   2.319   3.835   4.714 -0.4617 -0.3202 -0.1226
 9687TIP3    H229026   2.327   3.786   4.857  0.2540  1.7280  0.5776
 9688TIP3   OH229027   2.169   6.236   4.424  0.3380  0.7851 -0.1976
 9688TIP3    H129028   2.235   6.305   4.432  0.3293  0.7709 -0.0090
 9688TIP3    H229029   2.125   6.234   4.509  0.3202  0.5628 -0.2117
 9689TIP3   OH229030   2.871   6.335   4.291  0.1408 -0.0224  0.4691
 9689TIP3    H129031   2.965   6.354   4.300  0.5082 -1.8613  1.0360
 9689TIP3    H229032   2.864   6.292   4.206 -0.3644  0.9379  0.0113
 9690TIP3   OH229033   6.733   2.205   3.768 -0.5748 -0.4846 -0.0207
 9690TIP3    H129034   6.740   2.110   3.776  0.0576 -0.3117  2.2181
 9690TIP3    H229035   6.821   2.237   3.786 -0.6033  0.5235 -1.5334
 9691TIP3   OH229036   2.125   1.948   5.315 -0.5753 -0.4110  0.8778
 9691TIP3    H129037   2.196   1.886   5.303  0.3374  0.7561 -0.0959
 9691TIP3    H229038   2.164   2.020   5.366 -1.1693  0.0476  0.7033
 9692TIP3   OH229039   1.031   5.967   5.399  0.3118  0.2668 -0.1252
 9692TIP3    H129040   1.094   5.904   5.435 -0.6789 -1.2246 -0.8976
 9692TIP3    H229041   1.073   6.052   5.410  0.2229 -0.0732  4.2031
 9693TIP3   OH229042   6.387   2.754   5.496  0.2945 -0.3846 -0.0058
 9693TIP3    H129043   6.425   2.753   5.408  0.3328 -0.1832  0.0079
 9693TIP3    H229044   6.382   2.661   5.521  1.8511 -0.3761  0.4400
 9694TIP3   OH229045   1.225   3.025   4.845  0.4333  0.3067  0.4838
 9694TIP3    H129046   1.146   3.027   4.899  0.5104 -1.7330  0.7481
 9694TIP3    H229047   1.194   3.004   4.757  0.7223 -1.5404  0.7875
 9695TIP3   OH229048   4.007   0.875   5.149  0.5825  0.1809 -0.2590
 9695TIP3    H129049   4.034   0.938   5.216 -1.4603  0.4788  0.3680
 9695TIP3    H229050   4.006   0.926   5.068  0.4754  0.5558 -0.0253
 9696TIP3   OH229051   5.051   4.425   4.765  0.3268 -0.0538 -0.0626
 9696TIP3    H129052   5.062   4.352   4.703 -2.8454 -1.3345  0.6988
 9696TIP3    H229053   5.139   4.439   4.801  1.3547 -2.4421 -1.3918
 9697TIP3   OH229054   4.845   0.760   2.121  0.1780 -0.7506  0.2556
 9697TIP3    H129055   4.845   0.724   2.032 -0.7872  1.1495 -0.5813
 9697TIP3    H229056   4.841   0.855   2.108 -1.2160 -0.4596  2.3401
 9698TIP3   OH229057   5.034   3.111   0.352  0.1170 -0.5590  0.0698
 9698TIP3    H129058   5.123   3.103   0.319  0.1904 -2.3968  0.6128
 9698TIP3    H229059   4.980   3.066   0.287 -0.3701  0.1952 -0.0565
 9699TIP3   OH229060   4.119   3.193   2.513  0.4856 -0.3939  0.1270
 9699TIP3    H129061   4.214   3.206   2.520  0.7775 -0.9052 -1.9708
 9699TIP3    H229062   4.110   3.108   2.470 -1.0031 -1.0919  1.7063
 9700TIP3   OH229063   7.140   3.165   3.434  0.3528 -0.0606 -0.2044
 9700TIP3    H129064   7.218   3.176   3.488  1.0548 -0.1080 -1.1769
 9700TIP3    H229065   7.127   3.070   3.428  0.7258 -0.0861 -0.7206
 9701TIP3   OH229066   4.768   5.679   5.591 -0.4619  0.3129  0.5366
 9701TIP3    H129067   4.685   5.664   5.546  0.2704  1.1862 -1.1983
 9701TIP3    H229068   4.831   5.699   5.521  1.5701 -1.6843  1.6333
 9702TIP3   OH229069   5.496   0.068   4.023 -0.0271  0.1898 -0.6567
 9702TIP3    H129070   5.459   0.145   3.981  1.2077  1.1316 -0.0758
 9702TIP3    H229071   5.496   0.001   3.955 -1.8367  0.4394 -0.9499
 9703TIP3   OH229072   0.098   0.935   4.781  0.2301  0.0822  0.2803
 9703TIP3    H129073   0.166   0.905   4.721 -0.9729  0.8711 -1.5629
 9703TIP3    H229074   0.092   1.029   4.766  0.0131  0.3449  1.8156
 9704TIP3   OH229075   4.162   5.470   2.288 -0.1794  0.0186 -0.0192
 9704TIP3    H129076   4.179   5.446   2.197 -2.4987  1.5856 -0.9303
 9704TIP3    H229077   4.092   5.412   2.316 -0.8553  0.8709  0.0956
 9705TIP3   OH229078   6.777   4.383   1.929 -0.1947  0.3968  0.2939
 9705TIP3    H129079   6.810   4.424   1.849 -1.2243 -1.3776 -1.1114
 9705TIP3    H229080   6.799   4.290   1.919 -3.1580 -0.4263  0.4822
 9706TIP3   OH229081   1.531   6.118   1.182 -0.0165 -0.2993  0.0080
 9706TIP3    H129082   1.564   6.191   1.130 -1.0673 -0.3497 -0.7528
 9706TIP3    H229083   1.520   6.154   1.270  2.5815 -0.4355  0.4904
 9707TIP3   OH229084   0.446   5.685   1.712 -0.3191 -0.0302  0.0490
 9707TIP3    H129085   0.471   5.775   1.731 -3.3346  1.2491 -1.2442
 9707TIP3    H229086   0.514   5.653   1.654 -0.4497  2.4368 -1.6593
 9708TIP3   OH229087   2.431   5.855   4.559 -0.0321  0.0306  0.1022
 9708TIP3    H129088   2.484   5.914   4.612  0.7317 -0.1346 -0.4512
 9708TIP3    H229089   2.342   5.867   4.590  0.1703  1.1761  0.2647
 9709TIP3   OH229090   1.893   6.370   4.949  0.2013 -0.3172 -0.0563
 9709TIP3    H129091   1.800   6.393   4.952  0.0598 -0.4591 -2.0716
 9709TIP3    H229092   1.901   6.294   5.007 -1.6622 -2.5224 -2.4737
 9710TIP3   OH229093   3.130   0.272   1.390  0.7257 -0.0671 -0.1084
 9710TIP3    H129094   3.196   0.227   1.337  1.4020  1.0769 -0.2545
 9710TIP3    H229095   3.100   0.344   1.335 -0.5848 -0.5080  0.0001
 9711TIP3   OH229096   4.640   5.007   5.153  0.4811 -0.2682  0.3128
 9711TIP3    H129097   4.685   5.065   5.214  3.0809 -1.1564 -0.6264
 9711TIP3    H229098   4.618   5.064   5.079 -2.7852  0.8375  1.9321
 9712TIP3   OH229099   5.386   6.546   5.438 -0.6069 -0.1303  0.2376
 9712TIP3    H129100   5.393   6.530   5.532 -0.4597  1.9411  0.6224
 9712TIP3    H229101   5.473   6.578   5.413 -0.4871 -1.1672 -0.7281
 9713TIP3   OH229102   1.319   0.756   2.207  0.1495  0.0235  0.2866
 9713TIP3    H129103   1.335   0.715   2.291  1.3470  1.3289  0.7288
 9713TIP3    H229104   1.228   0.785   2.212  0.3358  0.4711  1.3068
 9714TIP3   OH229105   4.720   6.447   4.299 -0.0406 -0.5212  0.7783
 9714TIP3    H129106   4.658   6.377   4.279  0.1646 -0.3865 -0.3916
 9714TIP3    H229107   4.667   6.527   4.300  0.1253 -0.3832 -0.3984
 9715TIP3   OH229108   4.837   1.845   5.884 -0.3431  1.5071 -0.1377
 9715TIP3    H129109   4.779   1.811   5.953  1.0957 -1.5753 -0.3155
 9715TIP3    H229110   4.782   1.849   5.806 -0.7205  0.0239  0.0304
 9716TIP3   OH229111   1.682   2.127   3.428 -0.0898 -0.2654  1.0009
 9716TIP3    H129112   1.638   2.208   3.450  0.9088 -0.1046  2.5585
 9716TIP3    H229113   1.664   2.113   3.335 -0.6994  1.4542  0.8461
 9717TIP3   OH229114   6.864   0.721   3.331  0.4966  0.3708  0.6089
 9717TIP3    H129115   6.832   0.771   3.256  0.3924  0.3469  0.6386
 9717TIP3    H229116   6.923   0.781   3.376 -0.6425  0.9233  1.3909
 9718TIP3   OH229117   4.297   4.955   3.722  0.4595 -0.2051 -0.3261
 9718TIP3    H129118   4.326   5.042   3.693 -1.4017  0.5062 -0.1558
 9718TIP3    H229119   4.347   4.940   3.803  1.0471  0.5573 -0.5309
 9719TIP3   OH229120   2.814   3.427   0.652  0.0693  0.0619  0.4455
 9719TIP3    H129121   2.850   3.462   0.734  0.9677 -0.6964  0.3963
 9719TIP3    H229122   2.760   3.498   0.617 -0.0353  0.5282  1.5107
 9720TIP3   OH229123   1.069   3.943   0.352 -0.1173 -0.0961 -0.3522
 9720TIP3    H129124   1.098   3.856   0.323  2.4179  0.5393  0.1071
 9720TIP3    H229125   1.066   3.936   0.448 -0.1034  0.2650 -0.3257
 9721TIP3   OH229126   4.099   5.625   2.768  0.4078  0.4535 -0.0941
 9721TIP3    H129127   4.047   5.584   2.837 -0.0373  0.7737 -0.2332
 9721TIP3    H229128   4.170   5.669   2.814 -0.6587  1.8501  0.3062
 9722TIP3   OH229129   3.035   1.728   0.987 -0.3173  0.4356 -0.7489
 9722TIP3    H129130   2.958   1.703   1.039  0.7374 -0.9383  0.2104
 9722TIP3    H229131   3.053   1.818   1.013 -0.2209  0.0004  0.7742
 9723TIP3   OH229132   1.456   1.030   4.476  0.7325 -0.0481  0.1137
 9723TIP3    H129133   1.460   0.950   4.528  0.3695 -0.3083 -0.2530
 9723TIP3    H229134   1.463   1.000   4.386 -1.4518  0.1169 -0.1718
 9724TIP3   OH229135   0.709   2.397   3.282 -0.1198  0.6966  0.0039
 9724TIP3    H129136   0.716   2.489   3.308 -0.1070  0.6920  0.0175
 9724TIP3    H229137   0.799   2.370   3.264 -0.2239  0.9373 -0.8804
 9725TIP3   OH229138   6.076   0.970   3.433 -0.5603  0.3406 -0.2516
 9725TIP3    H129139   6.084   0.889   3.482 -0.4412 -0.1965 -1.1346
 9725TIP3    H229140   6.119   1.036   3.488  1.8681 -0.7254 -0.7471
 9726TIP3   OH229141   5.366   2.682   1.664  0.0797 -0.0999 -0.2597
 9726TIP3    H129142   5.378   2.746   1.734 -3.6941 -0.0120  0.5014
 9726TIP3    H229143   5.357   2.735   1.585  0.4651  0.0657 -0.1928
 9727TIP3   OH229144   1.902   3.298   1.217 -0.0329  0.6747 -0.9956
 9727TIP3    H129145   1.844   3.260   1.152 -0.8357  1.3188 -0.6845
 9727TIP3    H229146   1.988   3.263   1.197 -0.7150 -1.2411 -0.7494
 9728TIP3   OH229147   6.133   6.059   0.185  0.0565  0.4120  0.1944
 9728TIP3    H129148   6.152   6.150   0.208 -0.5334  0.8707 -1.0311
 9728TIP3    H229149   6.154   6.053   0.092  1.2929 -1.0579  0.5218
 9729TIP3   OH229150   4.715   5.228   5.299  0.1184 -0.7233 -0.3307
 9729TIP3    H129151   4.724   5.272   5.215 -0.5871 -1.0506 -0.5785
 9729TIP3    H229152   4.709   5.299   5.363  1.7241 -0.4585 -0.4120
 9730TIP3   OH229153   3.067   4.316   3.278 -0.0884 -0.4873 -0.0319
 9730TIP3    H129154   3.127   4.360   3.217 -2.8300  0.8394 -2.0169
 9730TIP3    H229155   3.018   4.255   3.223 -0.3059 -1.8417  1.6011
 9731TIP3   OH229156   0.395   0.861   2.062 -0.1699  0.1950 -0.0483
 9731TIP3    H129157   0.461   0.866   1.993 -0.1136  1.0921  0.0601
 9731TIP3    H229158   0.445   0.851   2.142 -0.1800  0.4987 -0.0038
 9732TIP3   OH229159   3.201   1.333   2.326  0.5250 -0.6227  0.2031
 9732TIP3    H129160   3.175   1.241   2.318  1.7680 -0.8883 -1.2487
 9732TIP3    H229161   3.145   1.378   2.262  0.7076 -0.5492  0.0955
 9733TIP3   OH229162   5.157   0.750   3.746 -0.1417 -0.4556 -0.0539
 9733TIP3    H129163   5.178   0.824   3.689  1.2076 -0.9146 -0.2026
 9733TIP3    H229164   5.066   0.764   3.773  0.4672  1.9941  1.0238
 9734TIP3   OH229165   3.871   3.781   0.089  0.2502 -0.5809 -0.5044
 9734TIP3    H129166   3.898   3.871   0.068 -0.0868 -0.6306 -1.1571
 9734TIP3    H229167   3.911   3.727   0.021  0.7687 -0.9757  0.1063
 9735TIP3   OH229168   6.262   5.306   1.854 -0.5416 -0.1938  0.9889
 9735TIP3    H129169   6.220   5.282   1.937 -2.1212  1.0449  0.6119
 9735TIP3    H229170   6.194   5.356   1.807  1.1877  1.4137  0.0796
 9736TIP3   OH229171   3.431   2.548   5.112  0.7484  0.1121  0.5387
 9736TIP3    H129172   3.441   2.531   5.018 -0.8339  0.5136  0.2718
 9736TIP3    H229173   3.517   2.577   5.140  1.1837  0.2593 -0.8563
 9737TIP3   OH229174   4.783   3.808   1.941 -0.8582 -0.7010  0.4168
 9737TIP3    H129175   4.865   3.858   1.940 -1.1478 -0.1950  1.1768
 9737TIP3    H229176   4.780   3.766   1.855 -0.4292  0.3128 -0.1124
 9738TIP3   OH229177   2.597   5.569   2.297  0.0075  0.2572  0.3264
 9738TIP3    H129178   2.598   5.578   2.202  2.5307 -1.9962 -0.0010
 9738TIP3    H229179   2.638   5.484   2.313  2.3903  1.8010  3.5139
 9739TIP3   OH229180   0.567   2.606   0.453  0.3543  0.3701  0.6743
 9739TIP3    H129181   0.532   2.639   0.535  1.5096  0.4158  1.1641
 9739TIP3    H229182   0.554   2.678   0.391 -1.4909 -0.0540  0.5113
 9740TIP3   OH229183   3.621   6.031   5.160  0.3358  0.2660  0.3324
 9740TIP3    H129184   3.526   6.033   5.153  0.3364 -0.0720  0.2162
 9740TIP3    H229185   3.638   6.048   5.253  0.1137 -0.7558  0.5769
 9741TIP3   OH229186   6.339   2.133   3.406  0.5154  0.5063  0.0990
 9741TIP3    H129187   6.372   2.064   3.348  0.0473 -1.7011  2.2880
 9741TIP3    H229188   6.244   2.133   3.392  0.4795  0.4929  0.3395
 9742TIP3   OH229189   3.187   2.895   2.439  0.5874  0.4948  0.0091
 9742TIP3    H129190   3.160   2.972   2.389 -2.1690 -0.9435 -0.9530
 9742TIP3    H229191   3.211   2.830   2.372 -2.1169 -1.0971  0.4250
 9743TIP3   OH229192   3.658   1.625   1.087 -0.4373 -0.1582 -0.1603
 9743TIP3    H129193   3.655   1.719   1.104 -0.1185  1.0375 -5.0418
 9743TIP3    H229194   3.566   1.598   1.087 -0.5387  0.1180  1.1991
 9744TIP3   OH229195   0.971   1.874   1.344 -0.2997 -0.4238  0.7063
 9744TIP3    H129196   1.002   1.819   1.416  2.9118  0.8525  0.4305
 9744TIP3    H229197   0.908   1.934   1.385 -0.0108 -0.9825  2.0326
 9745TIP3   OH229198   6.994   2.867   1.424  0.4611  0.8002 -0.3730
 9745TIP3    H129199   6.953   2.840   1.506  0.2061  1.2261 -0.3548
 9745TIP3    H229200   7.031   2.787   1.387 -0.0746  0.4716 -0.2032
 9746TIP3   OH229201   0.217   3.973   1.620 -0.2623  0.0612 -0.6924
 9746TIP3    H129202   0.256   4.052   1.580  2.3312 -0.8569 -0.1710
 9746TIP3    H229203   0.292   3.920   1.645 -1.8405 -1.0120  2.2213
 9747TIP3   OH229204   6.480   2.203   2.358 -0.6031  0.0614  0.1944
 9747TIP3    H129205   6.480   2.136   2.426  0.5691  0.5675  0.7159
 9747TIP3    H229206   6.418   2.170   2.292  0.4550 -1.8736  0.0904
 9748TIP3   OH229207   0.462   0.323   0.479 -0.0500 -0.6574  0.0299
 9748TIP3    H129208   0.385   0.299   0.427  0.2569 -0.0620 -0.7306
 9748TIP3    H229209   0.437   0.307   0.569  0.2145 -4.1299 -0.3696
 9749TIP3   OH229210   6.631   4.958   4.558  0.0653  0.6379 -0.4243
 9749TIP3    H129211   6.668   4.873   4.536  0.4738  1.1180 -1.7238
 9749TIP3    H229212   6.627   5.004   4.474 -0.7894  1.6447  0.1526
   7.21320   6.80068   5.88955   0.00000   0.00000  -2.40440   0.00000  -2.40440  -3.40033
